 Entering Gaussian System, Link 0=g09
 Initial command:
 /home/fb_chem/chemsoft/lx24-amd64/Gaussian_09_C.01_NBO_3.1_64_istanbul-64/g09/l1.exe /local/2401523.1.parallel_long/Gau-12277.inp -scrdir=/local/2401523.1.parallel_long/
 Entering Link 1 = /home/fb_chem/chemsoft/lx24-amd64/Gaussian_09_C.01_NBO_3.1_64_istanbul-64/g09/l1.exe PID=     12278.
  
 Copyright (c) 1988,1990,1992,1993,1995,1998,2003,2009,2011,
            Gaussian, Inc.  All Rights Reserved.
  
 This is part of the Gaussian(R) 09 program.  It is based on
 the Gaussian(R) 03 system (copyright 2003, Gaussian, Inc.),
 the Gaussian(R) 98 system (copyright 1998, Gaussian, Inc.),
 the Gaussian(R) 94 system (copyright 1995, Gaussian, Inc.),
 the Gaussian 92(TM) system (copyright 1992, Gaussian, Inc.),
 the Gaussian 90(TM) system (copyright 1990, Gaussian, Inc.),
 the Gaussian 88(TM) system (copyright 1988, Gaussian, Inc.),
 the Gaussian 86(TM) system (copyright 1986, Carnegie Mellon
 University), and the Gaussian 82(TM) system (copyright 1983,
 Carnegie Mellon University). Gaussian is a federally registered
 trademark of Gaussian, Inc.
  
 This software contains proprietary and confidential information,
 including trade secrets, belonging to Gaussian, Inc.
  
 This software is provided under written license and may be
 used, copied, transmitted, or stored only in accord with that
 written license.
  
 The following legend is applicable only to US Government
 contracts under FAR:
  
                    RESTRICTED RIGHTS LEGEND
  
 Use, reproduction and disclosure by the US Government is
 subject to restrictions as set forth in subparagraphs (a)
 and (c) of the Commercial Computer Software - Restricted
 Rights clause in FAR 52.227-19.
  
 Gaussian, Inc.
 340 Quinnipiac St., Bldg. 40, Wallingford CT 06492
  
  
 ---------------------------------------------------------------
 Warning -- This program may not be used in any manner that
 competes with the business of Gaussian, Inc. or will provide
 assistance to any competitor of Gaussian, Inc.  The licensee
 of this program is prohibited from giving any competitor of
 Gaussian, Inc. access to this program.  By using this program,
 the user acknowledges that Gaussian, Inc. is engaged in the
 business of creating and licensing software in the field of
 computational chemistry and represents and warrants to the
 licensee that it is not a competitor of Gaussian, Inc. and that
 it will not use this program in any manner prohibited above.
 ---------------------------------------------------------------
  

 Cite this work as:
 Gaussian 09, Revision C.01,
 M. J. Frisch, G. W. Trucks, H. B. Schlegel, G. E. Scuseria, 
 M. A. Robb, J. R. Cheeseman, G. Scalmani, V. Barone, B. Mennucci, 
 G. A. Petersson, H. Nakatsuji, M. Caricato, X. Li, H. P. Hratchian, 
 A. F. Izmaylov, J. Bloino, G. Zheng, J. L. Sonnenberg, M. Hada, 
 M. Ehara, K. Toyota, R. Fukuda, J. Hasegawa, M. Ishida, T. Nakajima, 
 Y. Honda, O. Kitao, H. Nakai, T. Vreven, J. A. Montgomery, Jr., 
 J. E. Peralta, F. Ogliaro, M. Bearpark, J. J. Heyd, E. Brothers, 
 K. N. Kudin, V. N. Staroverov, T. Keith, R. Kobayashi, J. Normand, 
 K. Raghavachari, A. Rendell, J. C. Burant, S. S. Iyengar, J. Tomasi, 
 M. Cossi, N. Rega, J. M. Millam, M. Klene, J. E. Knox, J. B. Cross, 
 V. Bakken, C. Adamo, J. Jaramillo, R. Gomperts, R. E. Stratmann, 
 O. Yazyev, A. J. Austin, R. Cammi, C. Pomelli, J. W. Ochterski, 
 R. L. Martin, K. Morokuma, V. G. Zakrzewski, G. A. Voth, 
 P. Salvador, J. J. Dannenberg, S. Dapprich, A. D. Daniels, 
 O. Farkas, J. B. Foresman, J. V. Ortiz, J. Cioslowski, 
 and D. J. Fox, Gaussian, Inc., Wallingford CT, 2010.
 
 ******************************************
 Gaussian 09:  AM64L-G09RevC.01 23-Sep-2011
                18-Feb-2018 
 ******************************************
 %nprocs=2
 Will use up to    2 processors via shared memory.
 %chk=frag37-conf1.chk
 ----------------------------------------------------------------------
 #HF/6-31G* Geom=AllCheck Guess=Read Pop=(MK,ReadRadii) Integral=(Grid=
 UltraFine) iop(6/33=2)
 ----------------------------------------------------------------------
 1/29=7,38=1/1;
 2/12=2,40=1/2;
 3/5=1,6=6,7=1,11=9,14=-4,16=1,25=1,30=1,75=-5,116=-2/1,2,3;
 4/5=1/1;
 5/5=2,38=6/2;
 6/7=2,8=2,9=2,10=2,15=8,20=101,28=1,33=2/1,2;
 99/5=1,9=1/99;
 Structure from the checkpoint file:  frag37-conf1.chk
 -----------------------------
 Optimization for frag37-conf1
 -----------------------------
 Charge =  0 Multiplicity = 1
 Redundant internal coordinates found in file.
 C,0,1.9029055388,-4.4002443925,3.1649825142
 C,0,0.3894599848,-2.1969506704,5.5796874436
 C,0,2.5335256859,-2.4495970624,-1.3204500909
 C,0,2.0826396384,-1.3554117946,-0.3412376373
 C,0,2.7264450508,-3.795917091,-0.6063250699
 C,0,0.8189883381,-1.7801436546,0.4263298497
 C,0,1.4643184088,-4.2074569338,0.1710340671
 C,0,0.969021941,-3.1293028571,1.1674625501
 C,0,3.0827606479,-6.2778233936,4.146141929
 C,0,4.4265422794,-4.3834881644,3.3569687826
 C,0,0.108291439,-2.0642453505,4.0484772227
 C,0,1.8908342452,-3.0537445999,2.4060946597
 N,0,3.0906158188,-4.9587674463,3.5117995005
 N,0,1.4595984811,-1.9775333553,3.3842828723
 O,0,-0.6019038,-2.260987375,6.3221039933
 O,0,0.8165838168,-4.9380222766,3.4127348902
 O,0,1.6264344271,-2.2308705002,5.871729019
 H,0,1.7707579309,-2.5647240217,-2.1043815617
 H,0,3.4604462245,-2.1497691003,-1.8246036249
 H,0,2.9008733366,-1.1331558375,0.35911136
 H,0,1.882201114,-0.4211539769,-0.8794850344
 H,0,2.9729654134,-4.5792661558,-1.3334803136
 H,0,3.5897834391,-3.7298756203,0.0712496916
 H,0,0.4925836072,-0.980530187,1.1042084436
 H,0,-0.0034810539,-1.9013890757,-0.2911189401
 H,0,0.651240025,-4.3797223651,-0.5465279161
 H,0,1.6223010345,-5.1621526796,0.6856752068
 H,0,-0.0154015328,-3.4430143947,1.5289543082
 H,0,3.8149438786,-6.921939978,3.6483120865
 H,0,2.0887840409,-6.7111375897,4.0600651961
 H,0,3.3535053073,-6.1926207511,5.2051555105
 H,0,4.9704214538,-4.5003428727,4.2998024564
 H,0,4.3965449476,-3.3214614785,3.1247488515
 H,0,4.9826276664,-4.9055694261,2.5695938998
 H,0,-0.4647099361,-1.1641683281,3.8234841062
 H,0,-0.4217449321,-2.9434606954,3.6901961198
 H,0,2.8887335698,-2.748729829,2.1003266166
 H,0,1.5920401594,-1.0629876848,2.949028201
 H,0,2.0575039735,-2.0105419694,4.2730058165
 Recover connectivity data from disk.
                          Input orientation:                          
 ---------------------------------------------------------------------
 Center     Atomic      Atomic             Coordinates (Angstroms)
 Number     Number       Type             X           Y           Z
 ---------------------------------------------------------------------
      1          6           0        1.902906   -4.400244    3.164983
      2          6           0        0.389460   -2.196951    5.579687
      3          6           0        2.533526   -2.449597   -1.320450
      4          6           0        2.082640   -1.355412   -0.341238
      5          6           0        2.726445   -3.795917   -0.606325
      6          6           0        0.818988   -1.780144    0.426330
      7          6           0        1.464318   -4.207457    0.171034
      8          6           0        0.969022   -3.129303    1.167463
      9          6           0        3.082761   -6.277823    4.146142
     10          6           0        4.426542   -4.383488    3.356969
     11          6           0        0.108291   -2.064245    4.048477
     12          6           0        1.890834   -3.053745    2.406095
     13          7           0        3.090616   -4.958767    3.511800
     14          7           0        1.459598   -1.977533    3.384283
     15          8           0       -0.601904   -2.260987    6.322104
     16          8           0        0.816584   -4.938022    3.412735
     17          8           0        1.626434   -2.230871    5.871729
     18          1           0        1.770758   -2.564724   -2.104382
     19          1           0        3.460446   -2.149769   -1.824604
     20          1           0        2.900873   -1.133156    0.359111
     21          1           0        1.882201   -0.421154   -0.879485
     22          1           0        2.972965   -4.579266   -1.333480
     23          1           0        3.589783   -3.729876    0.071250
     24          1           0        0.492584   -0.980530    1.104208
     25          1           0       -0.003481   -1.901389   -0.291119
     26          1           0        0.651240   -4.379722   -0.546528
     27          1           0        1.622301   -5.162153    0.685675
     28          1           0       -0.015402   -3.443014    1.528954
     29          1           0        3.814944   -6.921940    3.648312
     30          1           0        2.088784   -6.711138    4.060065
     31          1           0        3.353505   -6.192621    5.205156
     32          1           0        4.970421   -4.500343    4.299802
     33          1           0        4.396545   -3.321461    3.124749
     34          1           0        4.982628   -4.905569    2.569594
     35          1           0       -0.464710   -1.164168    3.823484
     36          1           0       -0.421745   -2.943461    3.690196
     37          1           0        2.888734   -2.748730    2.100327
     38          1           0        1.592040   -1.062988    2.949028
     39          1           0        2.057504   -2.010542    4.273006
 ---------------------------------------------------------------------
                    Distance matrix (angstroms):
                    1          2          3          4          5
     1  C    0.000000
     2  C    3.602197   0.000000
     3  C    4.931715   7.229989   0.000000
     4  C    4.647245   6.215497   1.536033   0.000000
     5  C    3.907197   6.803304   1.536154   2.537878   0.000000
     6  C    3.942084   5.187997   2.537528   1.538302   2.961099
     7  C    3.032038   5.869496   2.541220   2.962922   1.538381
     8  C    2.545097   4.546746   3.016518   2.581281   2.584421
     9  C    2.424878   5.095335   6.696313   6.735499   5.373338
    10  C    2.530984   5.100927   5.403859   5.323519   4.352387
    11  C    3.075401   1.562457   5.903866   4.865192   5.614321
    12  C    1.545677   3.613850   3.829515   3.235577   3.213057
    13  N    1.357529   4.381784   5.473292   5.370855   4.294624
    14  N    2.472679   2.452171   4.848781   3.828148   4.564687
    15  O    4.562664   1.240196   8.262876   7.240647   7.838179
    16  O    1.237207   3.520169   5.616332   5.341377   4.593998
    17  O    3.479813   1.271434   7.252454   6.290907   6.754597
    18  H    5.581469   7.815891   1.099826   2.160644   2.161793
    19  H    5.690917   8.016028   1.096927   2.174794   2.175492
    20  H    4.420715   5.890099   2.165384   1.099724   2.837744
    21  H    5.673738   6.863136   2.175605   1.096688   3.489468
    22  H    4.627445   7.755115   2.174573   3.488619   1.096888
    23  H    3.586939   6.552466   2.166015   2.842482   1.099465
    24  H    4.234412   4.638990   3.493218   2.181314   3.980259
    25  H    4.671533   5.891360   2.792214   2.156966   3.337827
    26  H    3.916937   6.508728   2.804878   3.352239   2.156590
    27  H    2.608871   5.853518   3.494686   3.969602   2.180596
    28  H    2.696809   4.257350   3.950065   3.501068   3.493090
    29  H    3.201320   6.147331   6.806797   7.064249   5.390620
    30  H    2.485146   5.057157   6.878115   6.932193   5.538982
    31  H    3.078824   4.989110   7.567438   7.468344   6.317492
    32  H    3.272230   5.284783   6.459974   6.306277   5.440747
    33  H    2.717283   4.831975   4.898039   4.607881   4.115247
    34  H    3.177189   6.123273   5.211750   5.430146   4.050697
    35  H    4.063424   2.209184   6.091125   4.885742   6.060757
    36  H    2.793218   2.187580   5.838159   5.004628   5.394245
    37  H    2.198374   4.319350   3.452154   2.924442   2.906700
    38  H    3.358654   3.106837   4.586668   3.339468   4.625615
    39  H    2.638616   2.127096   5.630818   4.660587   5.238599
                    6          7          8          9         10
     6  C    0.000000
     7  C    2.524575   0.000000
     8  C    1.546615   1.549388   0.000000
     9  C    6.260255   4.765213   4.822199   0.000000
    10  C    5.327334   4.353842   4.280346   2.452967   0.000000
    11  C    3.702129   4.633220   3.189898   5.158609   4.950188
    12  C    2.586577   2.551169   1.545851   3.852679   3.016984
    13  N    4.978360   3.790782   3.652946   1.463681   1.462743
    14  N    3.032957   3.911208   2.545885   4.659139   3.819963
    15  O    6.083609   6.774487   5.458215   5.869117   6.211466
    16  O    4.346357   3.385544   2.887205   2.732858   3.652727
    17  O    5.523359   6.035818   4.834201   4.634260   4.335711
    18  H    2.815303   2.823118   3.415625   7.387659   6.339357
    19  H    3.490075   3.493018   4.014865   7.268651   5.724643
    20  H    2.181137   3.398587   2.893110   6.390797   4.677550
    21  H    2.163892   3.951494   3.515389   7.810176   6.334138
    22  H    3.946091   2.162827   3.517513   5.737893   4.914420
    23  H    3.406588   2.180744   2.903577   4.832583   3.453017
    24  H    1.097926   3.496876   2.201867   6.635035   5.668429
    25  H    1.098130   2.772358   2.140326   6.954664   6.252557
    26  H    2.780720   1.098029   2.145297   5.615713   5.430489
    27  H    3.485765   1.096019   2.188920   3.918226   3.950430
    28  H    2.162666   2.148928   1.094614   4.948174   4.894588
    29  H    6.767199   4.998532   5.351447   1.094903   2.627293
    30  H    6.255487   4.667219   4.738202   1.087732   3.373042
    31  H    6.980752   5.731691   5.601129   1.096390   2.800029
    32  H    6.295846   5.424506   5.263317   2.597366   1.094712
    33  H    4.738780   4.255276   3.951684   3.392543   1.087532
    34  H    5.630076   4.314968   4.607616   2.824549   1.096248
    35  H    3.683472   5.130609   3.601637   6.232024   5.874181
    36  H    3.680428   4.188009   2.886686   4.858747   5.068590
    37  H    2.832714   2.806958   2.168032   4.083810   2.572244
    38  H    2.734214   4.197767   2.798533   5.554263   4.384808
    39  H    4.047706   4.690893   3.475747   4.390551   3.475966
                   11         12         13         14         15
    11  C    0.000000
    12  C    2.618012   0.000000
    13  N    4.190530   2.508221   0.000000
    14  N    1.508212   1.516920   3.400623   0.000000
    15  O    2.390076   4.709282   5.367544   3.600129   0.000000
    16  O    3.027283   2.391201   2.276283   3.029649   4.200363
    17  O    2.378396   3.571785   3.892880   2.505874   2.273595
    18  H    6.393117   4.538497   6.246196   5.528748   8.759420
    19  H    6.762938   4.602137   6.041891   5.582612   9.104060
    20  H    4.719837   2.983116   4.960922   3.455707   7.007049
    21  H    5.489200   4.210183   6.429120   4.558577   7.837005
    22  H    6.595237   4.181225   4.861543   5.596122   8.761397
    23  H    5.541972   2.965650   3.687374   4.310984   7.668185
    24  H    3.160829   2.819261   5.326597   2.669808   5.483056
    25  H    4.344089   3.491606   5.777819   3.956637   6.649973
    26  H    5.174002   3.465947   4.770311   4.677096   7.296404
    27  H    4.816398   2.734472   3.191284   4.177410   6.718123
    28  H    2.874770   2.134160   3.984536   2.786665   4.971464
    29  H    6.123447   4.495357   2.096982   5.483112   6.955730
    30  H    5.051346   4.018871   2.091665   4.822817   5.671019
    31  H    5.377063   4.452717   2.111625   4.966832   5.687757
    32  H    5.444083   3.893923   2.089203   4.419120   6.336815
    33  H    4.563221   2.620443   2.129796   3.240240   6.027618
    34  H    5.832613   3.607655   2.114306   4.652832   7.229256
    35  H    1.090455   3.335878   5.209268   2.134812   2.732203
    36  H    1.087347   2.647471   4.053389   2.136832   2.724916
    37  H    3.463332   1.087351   2.630072   2.070197   5.499622
    38  H    2.100670   2.084986   4.211833   1.021460   4.198361
    39  H    1.962836   2.145089   3.215399   1.071638   3.366597
                   16         17         18         19         20
    16  O    0.000000
    17  O    3.745822   0.000000
    18  H    6.081247   7.984399   0.000000
    19  H    6.495697   7.912251   1.762246   0.000000
    20  H    5.305270   5.763517   3.065183   2.472900   0.000000
    21  H    6.321455   6.994239   2.471373   2.524325   1.754640
    22  H    5.225442   7.696957   2.469407   2.526123   3.840018
    23  H    4.507303   6.304547   3.065910   2.471381   2.701928
    24  H    4.593040   5.057492   3.799796   4.330504   2.525534
    25  H    4.859237   6.383250   2.622186   3.796322   3.073802
    26  H    4.001849   6.838318   2.640918   3.807599   4.052311
    27  H    2.852415   5.957146   3.814851   4.330673   4.239600
    28  H    2.544775   4.798397   4.142812   5.000035   3.899825
    29  H    3.602997   5.633763   7.500501   7.269944   6.720446
    30  H    2.276284   4.854759   7.436013   7.570790   6.743176
    31  H    3.350039   4.372935   8.312404   8.110092   7.020485
    32  H    4.269991   4.336324   7.416066   6.731536   5.581221
    33  H    3.938569   4.050778   5.900103   5.171579   3.830727
    34  H    4.250631   5.414992   6.135284   5.405594   4.842627
    35  H    4.006545   3.115453   6.488333   6.948320   4.830113
    36  H    2.364047   3.076022   6.207064   6.790756   5.041143
    37  H    3.287738   4.010618   4.354687   4.011320   2.375302
    38  H    3.978976   3.147588   5.274856   5.240190   2.902695
    39  H    3.293947   1.670414   6.407840   6.258472   4.098737
                   21         22         23         24         25
    21  H    0.000000
    22  H    4.322705   0.000000
    23  H    3.842834   1.753623   0.000000
    24  H    2.485755   5.004550   4.268319   0.000000
    25  H    2.468414   4.137243   4.047990   1.743846   0.000000
    26  H    4.158893   2.459577   3.072294   3.782144   2.576049
    27  H    4.999434   2.498207   2.509965   4.351712   3.772250
    28  H    4.305011   4.291263   3.899301   2.549958   2.385250
    29  H    8.154548   5.569139   4.799515   7.267110   7.436761
    30  H    8.000358   5.866599   5.201113   6.642651   6.814988
    31  H    8.514541   6.745479   5.698941   7.222778   7.739061
    32  H    7.280241   5.977452   4.514470   6.530845   7.250574
    33  H    5.546855   4.846077   3.184576   4.980307   5.748477
    34  H    6.451261   4.402182   3.092571   6.141155   6.486144
    35  H    5.308294   7.076354   6.091062   2.888701   4.205495
    36  H    5.705452   6.279908   5.459632   3.372896   4.136632
    37  H    3.912799   3.892170   2.360354   3.140114   3.847324
    38  H    3.892770   5.710608   4.402826   2.149177   3.707716
    39  H    5.394909   6.234509   4.791528   3.681192   5.009073
                   26         27         28         29         30
    26  H    0.000000
    27  H    1.753135   0.000000
    28  H    2.372648   2.519648   0.000000
    29  H    5.836829   4.084330   5.591614   0.000000
    30  H    5.359359   3.742121   4.638399   1.787066   0.000000
    31  H    6.608381   4.948195   5.694236   1.780054   1.783146
    32  H    6.492826   4.970897   5.801205   2.761105   3.639907
    33  H    5.350280   4.127185   4.693251   3.684538   4.206005
    34  H    5.361683   3.860930   5.310583   2.567658   3.722353
    35  H    5.539146   5.494119   3.264948   7.176215   6.111069
    36  H    4.600432   4.257683   2.255135   5.812021   4.542571
    37  H    3.830451   3.070782   3.040148   4.546406   4.492346
    38  H    4.909658   4.682610   3.203905   6.305364   5.777781
    39  H    5.551441   4.794892   3.725417   5.253634   4.705520
                   31         32         33         34         35
    31  H    0.000000
    32  H    2.509559   0.000000
    33  H    3.695887   1.760638   0.000000
    34  H    3.355104   1.777070   1.777945   0.000000
    35  H    6.463213   6.395123   5.364135   6.726352   0.000000
    36  H    5.206213   5.645437   4.866059   5.857718   1.784795
    37  H    4.660082   3.498466   1.910748   3.042460   4.089705
    38  H    5.874181   5.005343   3.605111   5.138627   2.237215
    39  H    4.476417   3.832090   2.916868   4.454115   2.698144
                   36         37         38         39
    36  H    0.000000
    37  H    3.677618   0.000000
    38  H    2.853216   2.289855   0.000000
    39  H    2.712320   2.440573   1.693349   0.000000
 Stoichiometry    C12H22N2O3
 Framework group  C1[X(C12H22N2O3)]
 Deg. of freedom   111
 Full point group                 C1      NOp   1
 Largest Abelian subgroup         C1      NOp   1
 Largest concise Abelian subgroup C1      NOp   1
                         Standard orientation:                         
 ---------------------------------------------------------------------
 Center     Atomic      Atomic             Coordinates (Angstroms)
 Number     Number       Type             X           Y           Z
 ---------------------------------------------------------------------
      1          6           0        0.573700    1.047503   -0.450470
      2          6           0        3.139291   -1.410550    0.142436
      3          6           0       -4.029588   -0.507129    0.394908
      4          6           0       -3.029986   -1.566454    0.882784
      5          6           0       -3.308747    0.741268   -0.135811
      6          6           0       -2.011342   -1.919304   -0.214591
      7          6           0       -2.281391    0.379641   -1.222264
      8          6           0       -1.255500   -0.692026   -0.775404
      9          6           0        1.385704    3.332114   -0.485672
     10          6           0        0.265547    2.559912    1.555407
     11          6           0        1.688761   -1.813312   -0.275914
     12          6           0       -0.226503   -0.096622    0.212682
     13          7           0        0.704794    2.232257    0.199191
     14          7           0        0.769029   -1.129954    0.704809
     15          8           0        4.063980   -1.890084   -0.530678
     16          8           0        1.053314    0.847090   -1.573184
     17          8           0        3.183992   -0.619006    1.136420
     18          1           0       -4.642670   -0.937609   -0.410347
     19          1           0       -4.718602   -0.234009    1.203558
     20          1           0       -2.514378   -1.195200    1.780399
     21          1           0       -3.558952   -2.476170    1.191549
     22          1           0       -4.034990    1.451834   -0.549127
     23          1           0       -2.817435    1.262078    0.698570
     24          1           0       -1.318399   -2.694762    0.137453
     25          1           0       -2.547309   -2.375028   -1.057766
     26          1           0       -2.817070   -0.029816   -2.088902
     27          1           0       -1.766315    1.278261   -1.580642
     28          1           0       -0.694331   -1.000481   -1.663168
     29          1           0        0.782623    4.241531   -0.395865
     30          1           0        1.515592    3.075606   -1.534716
     31          1           0        2.366159    3.515260   -0.030438
     32          1           0        1.087457    3.057696    2.079880
     33          1           0       -0.002730    1.676075    2.129502
     34          1           0       -0.591950    3.242379    1.529002
     35          1           0        1.541294   -2.892298   -0.219945
     36          1           0        1.480529   -1.459844   -1.282901
     37          1           0       -0.735351    0.231513    1.115861
     38          1           0        0.276460   -1.816171    1.279147
     39          1           0        1.523640   -0.671224    1.311882
 ---------------------------------------------------------------------
 Rotational constants (GHZ):      0.6093130      0.3337771      0.2556494
 Standard basis: 6-31G(d) (6D, 7F)
 There are   299 symmetry adapted basis functions of A   symmetry.
 Integral buffers will be    131072 words long.
 Raffenetti 1 integral format.
 Two-electron integral symmetry is turned on.
   299 basis functions,   564 primitive gaussians,   299 cartesian basis functions
    66 alpha electrons       66 beta electrons
       nuclear repulsion energy      1353.2109193704 Hartrees.
 NAtoms=   39 NActive=   39 NUniq=   39 SFac= 1.00D+00 NAtFMM=   60 NAOKFM=F Big=F
 One-electron integrals computed using PRISM.
 NBasis=   299 RedAO= T  NBF=   299
 NBsUse=   299 1.00D-06 NBFU=   299
 Initial guess read from the checkpoint file:  frag37-conf1.chk
 B after Tr=     0.000000    0.000000    0.000000
         Rot=    1.000000    0.000000    0.000000    0.000000 Ang=   0.00 deg.
 Initial guess orbital symmetries:
       Occupied  (A) (A) (A) (A) (A) (A) (A) (A) (A) (A) (A) (A)
                 (A) (A) (A) (A) (A) (A) (A) (A) (A) (A) (A) (A)
                 (A) (A) (A) (A) (A) (A) (A) (A) (A) (A) (A) (A)
                 (A) (A) (A) (A) (A) (A) (A) (A) (A) (A) (A) (A)
                 (A) (A) (A) (A) (A) (A) (A) (A) (A) (A) (A) (A)
                 (A) (A) (A) (A) (A) (A)
       Virtual   (A) (A) (A) (A) (A) (A) (A) (A) (A) (A) (A) (A)
                 (A) (A) (A) (A) (A) (A) (A) (A) (A) (A) (A) (A)
                 (A) (A) (A) (A) (A) (A) (A) (A) (A) (A) (A) (A)
                 (A) (A) (A) (A) (A) (A) (A) (A) (A) (A) (A) (A)
                 (A) (A) (A) (A) (A) (A) (A) (A) (A) (A) (A) (A)
                 (A) (A) (A) (A) (A) (A) (A) (A) (A) (A) (A) (A)
                 (A) (A) (A) (A) (A) (A) (A) (A) (A) (A) (A) (A)
                 (A) (A) (A) (A) (A) (A) (A) (A) (A) (A) (A) (A)
                 (A) (A) (A) (A) (A) (A) (A) (A) (A) (A) (A) (A)
                 (A) (A) (A) (A) (A) (A) (A) (A) (A) (A) (A) (A)
                 (A) (A) (A) (A) (A) (A) (A) (A) (A) (A) (A) (A)
                 (A) (A) (A) (A) (A) (A) (A) (A) (A) (A) (A) (A)
                 (A) (A) (A) (A) (A) (A) (A) (A) (A) (A) (A) (A)
                 (A) (A) (A) (A) (A) (A) (A) (A) (A) (A) (A) (A)
                 (A) (A) (A) (A) (A) (A) (A) (A) (A) (A) (A) (A)
                 (A) (A) (A) (A) (A) (A) (A) (A) (A) (A) (A) (A)
                 (A) (A) (A) (A) (A) (A) (A) (A) (A) (A) (A) (A)
                 (A) (A) (A) (A) (A) (A) (A) (A) (A) (A) (A) (A)
                 (A) (A) (A) (A) (A) (A) (A) (A) (A) (A) (A) (A)
                 (A) (A) (A) (A) (A)
 Requested convergence on RMS density matrix=1.00D-08 within 128 cycles.
 Requested convergence on MAX density matrix=1.00D-06.
 Requested convergence on             energy=1.00D-06.
 No special actions if energy rises.
 SCF Done:  E(RHF) =  -800.681865712     A.U. after   14 cycles
             Convg  =    0.2853D-08             -V/T =  2.0024

 **********************************************************************

            Population analysis using the SCF density.

 **********************************************************************

 Orbital symmetries:
 BldTbl:  Degeneracy threshold= 1.00D-02
       Occupied  (A) (A) (A) (A) (A) (A) (A) (A) (A) (A) (A) (A)
                 (A) (A) (A) (A) (A) (A) (A) (A) (A) (A) (A) (A)
                 (A) (A) (A) (A) (A) (A) (A) (A) (A) (A) (A) (A)
                 (A) (A) (A) (A) (A) (A) (A) (A) (A) (A) (A) (A)
                 (A) (A) (A) (A) (A) (A) (A) (A) (A) (A) (A) (A)
                 (A) (A) (A) (A) (A) (A)
       Virtual   (A) (A) (A) (A) (A) (A) (A) (A) (A) (A) (A) (A)
                 (A) (A) (A) (A) (A) (A) (A) (A) (A) (A) (A) (A)
                 (A) (A) (A) (A) (A) (A) (A) (A) (A) (A) (A) (A)
                 (A) (A) (A) (A) (A) (A) (A) (A) (A) (A) (A) (A)
                 (A) (A) (A) (A) (A) (A) (A) (A) (A) (A) (A) (A)
                 (A) (A) (A) (A) (A) (A) (A) (A) (A) (A) (A) (A)
                 (A) (A) (A) (A) (A) (A) (A) (A) (A) (A) (A) (A)
                 (A) (A) (A) (A) (A) (A) (A) (A) (A) (A) (A) (A)
                 (A) (A) (A) (A) (A) (A) (A) (A) (A) (A) (A) (A)
                 (A) (A) (A) (A) (A) (A) (A) (A) (A) (A) (A) (A)
                 (A) (A) (A) (A) (A) (A) (A) (A) (A) (A) (A) (A)
                 (A) (A) (A) (A) (A) (A) (A) (A) (A) (A) (A) (A)
                 (A) (A) (A) (A) (A) (A) (A) (A) (A) (A) (A) (A)
                 (A) (A) (A) (A) (A) (A) (A) (A) (A) (A) (A) (A)
                 (A) (A) (A) (A) (A) (A) (A) (A) (A) (A) (A) (A)
                 (A) (A) (A) (A) (A) (A) (A) (A) (A) (A) (A) (A)
                 (A) (A) (A) (A) (A) (A) (A) (A) (A) (A) (A) (A)
                 (A) (A) (A) (A) (A) (A) (A) (A) (A) (A) (A) (A)
                 (A) (A) (A) (A) (A) (A) (A) (A) (A) (A) (A) (A)
                 (A) (A) (A) (A) (A)
 The electronic state is 1-A.
 Alpha  occ. eigenvalues --  -20.54763 -20.47364 -20.45217 -15.69380 -15.62427
 Alpha  occ. eigenvalues --  -11.38610 -11.33562 -11.30951 -11.29807 -11.27673
 Alpha  occ. eigenvalues --  -11.27369 -11.27034 -11.26238 -11.25676 -11.25382
 Alpha  occ. eigenvalues --  -11.25177 -11.24980  -1.40108  -1.34808  -1.30691
 Alpha  occ. eigenvalues --   -1.26802  -1.23293  -1.15742  -1.07595  -1.03836
 Alpha  occ. eigenvalues --   -1.01259  -0.99548  -0.96881  -0.93430  -0.86865
 Alpha  occ. eigenvalues --   -0.85548  -0.80530  -0.76762  -0.75848  -0.75167
 Alpha  occ. eigenvalues --   -0.71616  -0.68674  -0.67854  -0.67464  -0.66133
 Alpha  occ. eigenvalues --   -0.64932  -0.64132  -0.63003  -0.60870  -0.60078
 Alpha  occ. eigenvalues --   -0.58883  -0.58733  -0.57980  -0.56537  -0.56308
 Alpha  occ. eigenvalues --   -0.55689  -0.54942  -0.54850  -0.54462  -0.53292
 Alpha  occ. eigenvalues --   -0.51742  -0.51615  -0.49507  -0.48155  -0.46568
 Alpha  occ. eigenvalues --   -0.46306  -0.44003  -0.39233  -0.38334  -0.35573
 Alpha  occ. eigenvalues --   -0.35105
 Alpha virt. eigenvalues --    0.13400   0.16234   0.18517   0.20053   0.22048
 Alpha virt. eigenvalues --    0.23678   0.24426   0.25515   0.26033   0.26528
 Alpha virt. eigenvalues --    0.27364   0.27633   0.28286   0.28921   0.29429
 Alpha virt. eigenvalues --    0.29791   0.30016   0.30591   0.30866   0.31750
 Alpha virt. eigenvalues --    0.32266   0.32445   0.33528   0.34803   0.34822
 Alpha virt. eigenvalues --    0.35619   0.37455   0.38025   0.38341   0.40156
 Alpha virt. eigenvalues --    0.40969   0.41434   0.42186   0.43628   0.44015
 Alpha virt. eigenvalues --    0.46360   0.49433   0.51078   0.56828   0.60492
 Alpha virt. eigenvalues --    0.63402   0.66945   0.67902   0.69110   0.70955
 Alpha virt. eigenvalues --    0.71264   0.71675   0.72382   0.73424   0.75071
 Alpha virt. eigenvalues --    0.75943   0.77511   0.78331   0.80089   0.83254
 Alpha virt. eigenvalues --    0.85789   0.87254   0.87583   0.88605   0.89439
 Alpha virt. eigenvalues --    0.89762   0.90309   0.91607   0.92610   0.93924
 Alpha virt. eigenvalues --    0.94568   0.95382   0.96214   0.97694   0.98679
 Alpha virt. eigenvalues --    1.00202   1.00770   1.01456   1.04501   1.05351
 Alpha virt. eigenvalues --    1.06096   1.06968   1.08091   1.08643   1.09793
 Alpha virt. eigenvalues --    1.10076   1.11377   1.11606   1.12146   1.12910
 Alpha virt. eigenvalues --    1.13549   1.14015   1.14571   1.14831   1.15201
 Alpha virt. eigenvalues --    1.15774   1.17577   1.18983   1.19341   1.20314
 Alpha virt. eigenvalues --    1.21070   1.21541   1.22250   1.22598   1.24211
 Alpha virt. eigenvalues --    1.24992   1.25703   1.26652   1.28679   1.30815
 Alpha virt. eigenvalues --    1.32709   1.33099   1.34819   1.36426   1.38345
 Alpha virt. eigenvalues --    1.39932   1.41466   1.43222   1.45980   1.46486
 Alpha virt. eigenvalues --    1.48670   1.49192   1.55939   1.57054   1.59579
 Alpha virt. eigenvalues --    1.61434   1.62342   1.65261   1.67186   1.68226
 Alpha virt. eigenvalues --    1.72240   1.75451   1.76694   1.77816   1.78805
 Alpha virt. eigenvalues --    1.80666   1.83921   1.84890   1.87563   1.88647
 Alpha virt. eigenvalues --    1.96346   1.96510   1.97812   1.98616   2.00513
 Alpha virt. eigenvalues --    2.03728   2.05902   2.07094   2.08597   2.09897
 Alpha virt. eigenvalues --    2.12399   2.13871   2.14375   2.16646   2.17712
 Alpha virt. eigenvalues --    2.18978   2.19301   2.19895   2.20283   2.22095
 Alpha virt. eigenvalues --    2.22809   2.24365   2.25299   2.25921   2.27606
 Alpha virt. eigenvalues --    2.29436   2.29789   2.31747   2.33238   2.33900
 Alpha virt. eigenvalues --    2.35015   2.36381   2.37863   2.40184   2.40851
 Alpha virt. eigenvalues --    2.41151   2.44031   2.45642   2.46594   2.48994
 Alpha virt. eigenvalues --    2.49607   2.51924   2.52725   2.54891   2.57680
 Alpha virt. eigenvalues --    2.60427   2.61074   2.63991   2.65249   2.66840
 Alpha virt. eigenvalues --    2.67920   2.68102   2.69075   2.71836   2.74180
 Alpha virt. eigenvalues --    2.76632   2.79091   2.80806   2.83755   2.84922
 Alpha virt. eigenvalues --    2.87186   2.87873   2.90519   2.94793   2.96487
 Alpha virt. eigenvalues --    2.97854   2.99343   3.01667   3.05288   3.05999
 Alpha virt. eigenvalues --    3.09709   3.11010   3.13786   3.16401   3.25409
 Alpha virt. eigenvalues --    3.30813   3.32573   3.37509   3.40216   3.53411
 Alpha virt. eigenvalues --    3.56962   4.31764   4.40037   4.42077   4.53974
 Alpha virt. eigenvalues --    4.61568   4.63579   4.65237   4.67355   4.71283
 Alpha virt. eigenvalues --    4.76044   4.79556   4.86047   4.93786   4.97453
 Alpha virt. eigenvalues --    4.98833   5.01329   5.11360
          Condensed to atoms (all electrons):
              1          2          3          4          5          6
     1  C    4.178134   0.001122  -0.000023  -0.000136   0.000279   0.003593
     2  C    0.001122   3.982351   0.000000   0.000000   0.000000   0.000010
     3  C   -0.000023   0.000000   5.108323   0.335838   0.332558  -0.054794
     4  C   -0.000136   0.000000   0.335838   5.132144  -0.055717   0.318227
     5  C    0.000279   0.000000   0.332558  -0.055717   5.136415  -0.004883
     6  C    0.003593   0.000010  -0.054794   0.318227  -0.004883   5.182152
     7  C   -0.003456   0.000001  -0.055267  -0.005108   0.319511  -0.054765
     8  C   -0.042916   0.000015  -0.001846  -0.049739  -0.050652   0.328097
     9  C   -0.031797   0.000010   0.000000   0.000000   0.000002   0.000001
    10  C   -0.023705   0.000008   0.000002  -0.000007  -0.000071   0.000003
    11  C   -0.006032   0.288743   0.000000   0.000024  -0.000004  -0.000265
    12  C    0.336336   0.001378   0.000102  -0.001448  -0.003248  -0.062290
    13  N    0.306740  -0.000144   0.000002   0.000001  -0.000190  -0.000062
    14  N   -0.048352  -0.030682   0.000000   0.000056  -0.000070  -0.002592
    15  O   -0.000080   0.559454   0.000000   0.000000   0.000000   0.000000
    16  O    0.530773   0.000233  -0.000001  -0.000003   0.000075   0.000213
    17  O    0.005782   0.435190   0.000000   0.000000   0.000000  -0.000001
    18  H    0.000002   0.000000   0.398155  -0.043734  -0.043085  -0.002786
    19  H    0.000000   0.000000   0.404235  -0.037379  -0.036738   0.004235
    20  H    0.000108   0.000000  -0.042905   0.392656  -0.002844  -0.043625
    21  H    0.000002   0.000000  -0.035109   0.406262   0.004106  -0.037078
    22  H   -0.000023   0.000000  -0.035697   0.004200   0.405931  -0.000341
    23  H    0.000409   0.000000  -0.043943  -0.002981   0.394098   0.000775
    24  H   -0.000154   0.000026   0.004205  -0.041066  -0.000325   0.400106
    25  H   -0.000039   0.000000  -0.002542  -0.039594   0.000140   0.405151
    26  H   -0.000056   0.000000  -0.002549   0.000198  -0.041667  -0.002440
    27  H    0.005964   0.000000   0.003889  -0.000322  -0.037153   0.004007
    28  H   -0.004187   0.000002  -0.000382   0.003637   0.003719  -0.037724
    29  H    0.002122   0.000000   0.000000   0.000000   0.000001   0.000000
    30  H   -0.004590   0.000000   0.000000   0.000000   0.000001   0.000000
    31  H    0.000596   0.000005   0.000000   0.000000   0.000000   0.000000
    32  H    0.000968  -0.000001   0.000000   0.000000   0.000002   0.000000
    33  H   -0.001571   0.000005   0.000002  -0.000006  -0.000038   0.000004
    34  H    0.000230   0.000000  -0.000002   0.000000   0.000052   0.000000
    35  H    0.000402  -0.017615   0.000000  -0.000003   0.000000  -0.000126
    36  H   -0.004118  -0.015225   0.000000  -0.000002  -0.000001   0.000048
    37  H   -0.037037  -0.000129  -0.000286   0.002422   0.001687  -0.003511
    38  H    0.003733   0.001596  -0.000014   0.000366  -0.000002   0.001900
    39  H   -0.001201  -0.013085   0.000000  -0.000019   0.000000   0.000005
              7          8          9         10         11         12
     1  C   -0.003456  -0.042916  -0.031797  -0.023705  -0.006032   0.336336
     2  C    0.000001   0.000015   0.000010   0.000008   0.288743   0.001378
     3  C   -0.055267  -0.001846   0.000000   0.000002   0.000000   0.000102
     4  C   -0.005108  -0.049739   0.000000  -0.000007   0.000024  -0.001448
     5  C    0.319511  -0.050652   0.000002  -0.000071  -0.000004  -0.003248
     6  C   -0.054765   0.328097   0.000001   0.000003  -0.000265  -0.062290
     7  C    5.158909   0.337864  -0.000018   0.000072   0.000052  -0.054651
     8  C    0.337864   5.174664  -0.000053   0.000392  -0.005420   0.321427
     9  C   -0.000018  -0.000053   4.984208  -0.046025   0.000006   0.003647
    10  C    0.000072   0.000392  -0.046025   4.949445  -0.000010  -0.005070
    11  C    0.000052  -0.005420   0.000006  -0.000010   5.522028  -0.014212
    12  C   -0.054651   0.321427   0.003647  -0.005070  -0.014212   5.246474
    13  N    0.000644  -0.000172   0.206150   0.217425  -0.000399  -0.088976
    14  N    0.002624  -0.050326  -0.000110   0.000085   0.048277   0.169713
    15  O    0.000000   0.000000   0.000000   0.000000  -0.099578   0.000000
    16  O   -0.002808   0.003214  -0.006220   0.001623  -0.004014  -0.084396
    17  O    0.000000  -0.000022  -0.000002   0.000076  -0.131997  -0.002358
    18  H   -0.002329   0.000127   0.000000   0.000000   0.000000   0.000072
    19  H    0.004151  -0.000349   0.000000   0.000000   0.000000  -0.000016
    20  H    0.000762  -0.004444   0.000000   0.000001  -0.000009   0.001097
    21  H   -0.000353   0.004044   0.000000   0.000000   0.000000  -0.000070
    22  H   -0.036620   0.004159   0.000000  -0.000002   0.000000  -0.000063
    23  H   -0.042852  -0.004169  -0.000005   0.000136  -0.000001   0.001078
    24  H    0.004097  -0.039266   0.000000   0.000000   0.000063  -0.006040
    25  H   -0.002679  -0.041702   0.000000   0.000000  -0.000021   0.005158
    26  H    0.402684  -0.042547  -0.000001   0.000000   0.000000   0.005253
    27  H    0.401319  -0.036543   0.000130  -0.000012  -0.000001  -0.007070
    28  H   -0.031754   0.412022  -0.000001  -0.000019   0.001644  -0.041101
    29  H   -0.000002   0.000012   0.395767  -0.002502   0.000000  -0.000045
    30  H   -0.000011   0.000000   0.395719   0.002980   0.000001   0.000464
    31  H    0.000001  -0.000004   0.401373  -0.002044   0.000002  -0.000134
    32  H    0.000002  -0.000020  -0.002495   0.402338   0.000004  -0.000112
    33  H   -0.000003   0.000256   0.003382   0.396720  -0.000013  -0.004223
    34  H   -0.000077   0.000108  -0.000830   0.398005  -0.000001  -0.000243
    35  H    0.000002   0.000311   0.000000   0.000000   0.378825  -0.000126
    36  H    0.000032  -0.002774   0.000001  -0.000008   0.380299   0.003261
    37  H   -0.000720  -0.034815  -0.000088  -0.003646   0.002644   0.402832
    38  H    0.000023  -0.003093   0.000003   0.000025  -0.015405  -0.024094
    39  H   -0.000018   0.001098  -0.000032   0.000195  -0.046684  -0.013350
             13         14         15         16         17         18
     1  C    0.306740  -0.048352  -0.000080   0.530773   0.005782   0.000002
     2  C   -0.000144  -0.030682   0.559454   0.000233   0.435190   0.000000
     3  C    0.000002   0.000000   0.000000  -0.000001   0.000000   0.398155
     4  C    0.000001   0.000056   0.000000  -0.000003   0.000000  -0.043734
     5  C   -0.000190  -0.000070   0.000000   0.000075   0.000000  -0.043085
     6  C   -0.000062  -0.002592   0.000000   0.000213  -0.000001  -0.002786
     7  C    0.000644   0.002624   0.000000  -0.002808   0.000000  -0.002329
     8  C   -0.000172  -0.050326   0.000000   0.003214  -0.000022   0.000127
     9  C    0.206150  -0.000110   0.000000  -0.006220  -0.000002   0.000000
    10  C    0.217425   0.000085   0.000000   0.001623   0.000076   0.000000
    11  C   -0.000399   0.048277  -0.099578  -0.004014  -0.131997   0.000000
    12  C   -0.088976   0.169713   0.000000  -0.084396  -0.002358   0.000072
    13  N    7.363723   0.000588   0.000001  -0.087176  -0.000579   0.000000
    14  N    0.000588   7.398822   0.001484   0.000807  -0.060101   0.000000
    15  O    0.000001   0.001484   8.279905  -0.000015  -0.070476   0.000000
    16  O   -0.087176   0.000807  -0.000015   8.253024  -0.000453   0.000000
    17  O   -0.000579  -0.060101  -0.070476  -0.000453   8.480298   0.000000
    18  H    0.000000   0.000000   0.000000   0.000000   0.000000   0.548081
    19  H    0.000000   0.000000   0.000000   0.000000   0.000000  -0.026543
    20  H   -0.000003   0.000162   0.000000   0.000000   0.000000   0.004578
    21  H    0.000000  -0.000003   0.000000   0.000000   0.000000  -0.003145
    22  H    0.000001   0.000001   0.000000   0.000000   0.000000  -0.003229
    23  H    0.000051   0.000026   0.000000  -0.000003   0.000000   0.004528
    24  H    0.000000  -0.000449   0.000000   0.000008   0.000003  -0.000094
    25  H    0.000000  -0.000061   0.000000  -0.000002   0.000000   0.002846
    26  H    0.000015  -0.000057   0.000000  -0.000035   0.000000   0.002802
    27  H   -0.000689   0.000013   0.000000   0.001688   0.000000  -0.000078
    28  H    0.000255  -0.001908   0.000000   0.005964   0.000002  -0.000066
    29  H   -0.047599  -0.000001   0.000000   0.000467   0.000000   0.000000
    30  H   -0.028959  -0.000009   0.000000   0.008882  -0.000001   0.000000
    31  H   -0.044609   0.000015   0.000000   0.000415   0.000025   0.000000
    32  H   -0.043568   0.000033   0.000000  -0.000016   0.000016   0.000000
    33  H   -0.035265   0.000685   0.000000   0.000011  -0.000020   0.000000
    34  H   -0.050225  -0.000025   0.000000  -0.000014   0.000001   0.000000
    35  H   -0.000001  -0.033288   0.002058   0.000233   0.001702   0.000000
    36  H    0.000175  -0.032949   0.001814   0.008779   0.000877   0.000000
    37  H    0.003944  -0.044112   0.000000   0.002484  -0.000032  -0.000009
    38  H   -0.000181   0.311609  -0.000029  -0.000154   0.000768   0.000001
    39  H    0.001116   0.195261   0.002224  -0.000385   0.111839   0.000000
             19         20         21         22         23         24
     1  C    0.000000   0.000108   0.000002  -0.000023   0.000409  -0.000154
     2  C    0.000000   0.000000   0.000000   0.000000   0.000000   0.000026
     3  C    0.404235  -0.042905  -0.035109  -0.035697  -0.043943   0.004205
     4  C   -0.037379   0.392656   0.406262   0.004200  -0.002981  -0.041066
     5  C   -0.036738  -0.002844   0.004106   0.405931   0.394098  -0.000325
     6  C    0.004235  -0.043625  -0.037078  -0.000341   0.000775   0.400106
     7  C    0.004151   0.000762  -0.000353  -0.036620  -0.042852   0.004097
     8  C   -0.000349  -0.004444   0.004044   0.004159  -0.004169  -0.039266
     9  C    0.000000   0.000000   0.000000   0.000000  -0.000005   0.000000
    10  C    0.000000   0.000001   0.000000  -0.000002   0.000136   0.000000
    11  C    0.000000  -0.000009   0.000000   0.000000  -0.000001   0.000063
    12  C   -0.000016   0.001097  -0.000070  -0.000063   0.001078  -0.006040
    13  N    0.000000  -0.000003   0.000000   0.000001   0.000051   0.000000
    14  N    0.000000   0.000162  -0.000003   0.000001   0.000026  -0.000449
    15  O    0.000000   0.000000   0.000000   0.000000   0.000000   0.000000
    16  O    0.000000   0.000000   0.000000   0.000000  -0.000003   0.000008
    17  O    0.000000   0.000000   0.000000   0.000000   0.000000   0.000003
    18  H   -0.026543   0.004578  -0.003145  -0.003229   0.004528  -0.000094
    19  H    0.525166  -0.003168  -0.002104  -0.002073  -0.003145  -0.000084
    20  H   -0.003168   0.583593  -0.028848  -0.000091   0.002326  -0.002519
    21  H   -0.002104  -0.028848   0.516153  -0.000076  -0.000086  -0.002505
    22  H   -0.002073  -0.000091  -0.000076   0.517371  -0.028332   0.000011
    23  H   -0.003145   0.002326  -0.000086  -0.028332   0.576345  -0.000037
    24  H   -0.000084  -0.002519  -0.002505   0.000011  -0.000037   0.555167
    25  H   -0.000063   0.004159  -0.003103  -0.000050   0.000067  -0.025588
    26  H   -0.000072   0.000062  -0.000044  -0.003297   0.004212  -0.000084
    27  H   -0.000073  -0.000034   0.000010  -0.002310  -0.002275  -0.000078
    28  H    0.000010  -0.000128  -0.000053  -0.000056  -0.000134  -0.001406
    29  H    0.000000   0.000000   0.000000   0.000000  -0.000002   0.000000
    30  H    0.000000   0.000000   0.000000   0.000000   0.000000   0.000000
    31  H    0.000000   0.000000   0.000000   0.000000   0.000000   0.000000
    32  H    0.000000   0.000000   0.000000   0.000000   0.000008   0.000000
    33  H    0.000000   0.000024   0.000000  -0.000001  -0.000042   0.000000
    34  H    0.000000   0.000001   0.000000   0.000003   0.000263   0.000000
    35  H    0.000000   0.000000   0.000000   0.000000   0.000000   0.000571
    36  H    0.000000   0.000000   0.000000   0.000000   0.000000  -0.000076
    37  H    0.000006  -0.000396  -0.000022   0.000001  -0.000550   0.000250
    38  H    0.000000   0.000751  -0.000031   0.000000   0.000006   0.001367
    39  H    0.000000   0.000001   0.000000   0.000000   0.000002   0.000103
             25         26         27         28         29         30
     1  C   -0.000039  -0.000056   0.005964  -0.004187   0.002122  -0.004590
     2  C    0.000000   0.000000   0.000000   0.000002   0.000000   0.000000
     3  C   -0.002542  -0.002549   0.003889  -0.000382   0.000000   0.000000
     4  C   -0.039594   0.000198  -0.000322   0.003637   0.000000   0.000000
     5  C    0.000140  -0.041667  -0.037153   0.003719   0.000001   0.000001
     6  C    0.405151  -0.002440   0.004007  -0.037724   0.000000   0.000000
     7  C   -0.002679   0.402684   0.401319  -0.031754  -0.000002  -0.000011
     8  C   -0.041702  -0.042547  -0.036543   0.412022   0.000012   0.000000
     9  C    0.000000  -0.000001   0.000130  -0.000001   0.395767   0.395719
    10  C    0.000000   0.000000  -0.000012  -0.000019  -0.002502   0.002980
    11  C   -0.000021   0.000000  -0.000001   0.001644   0.000000   0.000001
    12  C    0.005158   0.005253  -0.007070  -0.041101  -0.000045   0.000464
    13  N    0.000000   0.000015  -0.000689   0.000255  -0.047599  -0.028959
    14  N   -0.000061  -0.000057   0.000013  -0.001908  -0.000001  -0.000009
    15  O    0.000000   0.000000   0.000000   0.000000   0.000000   0.000000
    16  O   -0.000002  -0.000035   0.001688   0.005964   0.000467   0.008882
    17  O    0.000000   0.000000   0.000000   0.000002   0.000000  -0.000001
    18  H    0.002846   0.002802  -0.000078  -0.000066   0.000000   0.000000
    19  H   -0.000063  -0.000072  -0.000073   0.000010   0.000000   0.000000
    20  H    0.004159   0.000062  -0.000034  -0.000128   0.000000   0.000000
    21  H   -0.003103  -0.000044   0.000010  -0.000053   0.000000   0.000000
    22  H   -0.000050  -0.003297  -0.002310  -0.000056   0.000000   0.000000
    23  H    0.000067   0.004212  -0.002275  -0.000134  -0.000002   0.000000
    24  H   -0.025588  -0.000084  -0.000078  -0.001406   0.000000   0.000000
    25  H    0.511485   0.002390  -0.000074  -0.004238   0.000000   0.000000
    26  H    0.002390   0.522094  -0.022264  -0.004771   0.000000   0.000000
    27  H   -0.000074  -0.022264   0.496300  -0.001364   0.000008   0.000027
    28  H   -0.004238  -0.004771  -0.001364   0.469858   0.000000   0.000000
    29  H    0.000000   0.000000   0.000008   0.000000   0.542987  -0.021421
    30  H    0.000000   0.000000   0.000027   0.000000  -0.021421   0.424264
    31  H    0.000000   0.000000  -0.000001   0.000000  -0.036932  -0.020361
    32  H    0.000000   0.000000   0.000000   0.000000  -0.002011   0.000004
    33  H    0.000000   0.000000  -0.000001  -0.000009   0.000074  -0.000095
    34  H    0.000000   0.000000   0.000025   0.000001   0.003140  -0.000018
    35  H    0.000005   0.000000   0.000000  -0.000222   0.000000   0.000000
    36  H    0.000012   0.000005   0.000000   0.001571   0.000000   0.000000
    37  H   -0.000079  -0.000081   0.000085   0.003564  -0.000015  -0.000017
    38  H   -0.000016   0.000000  -0.000005   0.000037   0.000000   0.000000
    39  H    0.000002   0.000001   0.000001  -0.000079   0.000001   0.000000
             31         32         33         34         35         36
     1  C    0.000596   0.000968  -0.001571   0.000230   0.000402  -0.004118
     2  C    0.000005  -0.000001   0.000005   0.000000  -0.017615  -0.015225
     3  C    0.000000   0.000000   0.000002  -0.000002   0.000000   0.000000
     4  C    0.000000   0.000000  -0.000006   0.000000  -0.000003  -0.000002
     5  C    0.000000   0.000002  -0.000038   0.000052   0.000000  -0.000001
     6  C    0.000000   0.000000   0.000004   0.000000  -0.000126   0.000048
     7  C    0.000001   0.000002  -0.000003  -0.000077   0.000002   0.000032
     8  C   -0.000004  -0.000020   0.000256   0.000108   0.000311  -0.002774
     9  C    0.401373  -0.002495   0.003382  -0.000830   0.000000   0.000001
    10  C   -0.002044   0.402338   0.396720   0.398005   0.000000  -0.000008
    11  C    0.000002   0.000004  -0.000013  -0.000001   0.378825   0.380299
    12  C   -0.000134  -0.000112  -0.004223  -0.000243  -0.000126   0.003261
    13  N   -0.044609  -0.043568  -0.035265  -0.050225  -0.000001   0.000175
    14  N    0.000015   0.000033   0.000685  -0.000025  -0.033288  -0.032949
    15  O    0.000000   0.000000   0.000000   0.000000   0.002058   0.001814
    16  O    0.000415  -0.000016   0.000011  -0.000014   0.000233   0.008779
    17  O    0.000025   0.000016  -0.000020   0.000001   0.001702   0.000877
    18  H    0.000000   0.000000   0.000000   0.000000   0.000000   0.000000
    19  H    0.000000   0.000000   0.000000   0.000000   0.000000   0.000000
    20  H    0.000000   0.000000   0.000024   0.000001   0.000000   0.000000
    21  H    0.000000   0.000000   0.000000   0.000000   0.000000   0.000000
    22  H    0.000000   0.000000  -0.000001   0.000003   0.000000   0.000000
    23  H    0.000000   0.000008  -0.000042   0.000263   0.000000   0.000000
    24  H    0.000000   0.000000   0.000000   0.000000   0.000571  -0.000076
    25  H    0.000000   0.000000   0.000000   0.000000   0.000005   0.000012
    26  H    0.000000   0.000000   0.000000   0.000000   0.000000   0.000005
    27  H   -0.000001   0.000000  -0.000001   0.000025   0.000000   0.000000
    28  H    0.000000   0.000000  -0.000009   0.000001  -0.000222   0.001571
    29  H   -0.036932  -0.002011   0.000074   0.003140   0.000000   0.000000
    30  H   -0.020361   0.000004  -0.000095  -0.000018   0.000000   0.000000
    31  H    0.502688   0.003496  -0.000061  -0.000497   0.000000   0.000000
    32  H    0.003496   0.494155  -0.023609  -0.036269   0.000000   0.000000
    33  H   -0.000061  -0.023609   0.519625  -0.028574   0.000001  -0.000001
    34  H   -0.000497  -0.036269  -0.028574   0.532863   0.000000   0.000000
    35  H    0.000000   0.000000   0.000001   0.000000   0.471654  -0.015319
    36  H    0.000000   0.000000  -0.000001   0.000000  -0.015319   0.394564
    37  H    0.000002   0.000262  -0.001895  -0.000260  -0.000087   0.000114
    38  H    0.000000  -0.000001   0.000023   0.000000  -0.004071   0.001177
    39  H   -0.000006  -0.000046   0.000126   0.000015   0.002440   0.002446
             37         38         39
     1  C   -0.037037   0.003733  -0.001201
     2  C   -0.000129   0.001596  -0.013085
     3  C   -0.000286  -0.000014   0.000000
     4  C    0.002422   0.000366  -0.000019
     5  C    0.001687  -0.000002   0.000000
     6  C   -0.003511   0.001900   0.000005
     7  C   -0.000720   0.000023  -0.000018
     8  C   -0.034815  -0.003093   0.001098
     9  C   -0.000088   0.000003  -0.000032
    10  C   -0.003646   0.000025   0.000195
    11  C    0.002644  -0.015405  -0.046684
    12  C    0.402832  -0.024094  -0.013350
    13  N    0.003944  -0.000181   0.001116
    14  N   -0.044112   0.311609   0.195261
    15  O    0.000000  -0.000029   0.002224
    16  O    0.002484  -0.000154  -0.000385
    17  O   -0.000032   0.000768   0.111839
    18  H   -0.000009   0.000001   0.000000
    19  H    0.000006   0.000000   0.000000
    20  H   -0.000396   0.000751   0.000001
    21  H   -0.000022  -0.000031   0.000000
    22  H    0.000001   0.000000   0.000000
    23  H   -0.000550   0.000006   0.000002
    24  H    0.000250   0.001367   0.000103
    25  H   -0.000079  -0.000016   0.000002
    26  H   -0.000081   0.000000   0.000001
    27  H    0.000085  -0.000005   0.000001
    28  H    0.003564   0.000037  -0.000079
    29  H   -0.000015   0.000000   0.000001
    30  H   -0.000017   0.000000   0.000000
    31  H    0.000002   0.000000  -0.000006
    32  H    0.000262  -0.000001  -0.000046
    33  H   -0.001895   0.000023   0.000126
    34  H   -0.000260   0.000000   0.000015
    35  H   -0.000087  -0.004071   0.002440
    36  H    0.000114   0.001177   0.002446
    37  H    0.497299  -0.003060  -0.001694
    38  H   -0.003060   0.307509  -0.006516
    39  H   -0.001694  -0.006516   0.272439
 Mulliken atomic charges:
              1
     1  C    0.832180
     2  C    0.806734
     3  C   -0.311951
     4  C   -0.318764
     5  C   -0.321887
     6  C   -0.341244
     7  C   -0.339262
     8  C   -0.176937
     9  C   -0.302721
    10  C   -0.286412
    11  C   -0.298546
    12  C   -0.084954
    13  N   -0.672033
    14  N   -0.825166
    15  O   -0.676763
    16  O   -0.633196
    17  O   -0.770537
    18  H    0.163906
    19  H    0.174006
    20  H    0.138734
    21  H    0.182052
    22  H    0.180581
    23  H    0.144228
    24  H    0.153796
    25  H    0.188434
    26  H    0.180250
    27  H    0.196881
    28  H    0.227316
    29  H    0.165950
    30  H    0.243139
    31  H    0.196030
    32  H    0.206862
    33  H    0.174489
    34  H    0.182328
    35  H    0.212654
    36  H    0.275299
    37  H    0.214944
    38  H    0.425779
    39  H    0.493801
 Sum of Mulliken atomic charges =   0.00000
 Mulliken charges with hydrogens summed into heavy atoms:
              1
     1  C    0.832180
     2  C    0.806734
     3  C    0.025960
     4  C    0.002023
     5  C    0.002922
     6  C    0.000987
     7  C    0.037868
     8  C    0.050379
     9  C    0.302398
    10  C    0.277267
    11  C    0.189407
    12  C    0.129989
    13  N   -0.672033
    14  N    0.094414
    15  O   -0.676763
    16  O   -0.633196
    17  O   -0.770537
 Sum of Mulliken charges with hydrogens summed into heavy atoms =   0.00000
 DipInt: DoE/N= T F RetVal/Mat= T F Init=T NMatP=  1 IDeriv=0 Min/MaxMlt=  0  4
 Entering OneElI...
 OneElI was handed    33323122 working-precision words.
 Multipole integrals L=0 to 4 MinM= 0 MaxM= 0.
 Requested accuracy = 0.1000D-12
 PrsmSu:  NPrtUS=   1 ThrOK=F IAlg=1 NPAlg=1 LenDen=           0.
 Prism:   IPart=     0 DynPar=F LinDyn=F Incr=          54.
 PRISM was handed    32885812 working-precision words and  5451 shell-pairs
 IPart=  0 NShTot=        5451 NBatch=          78 AvBLen=        69.9
 PrSmSu:  NxtVal=             55.
 Electronic moments (au):
       -132.00000000         -5.13058086          1.05098581          1.28043678
      -2711.07616923      -1409.18179374       -473.58891252         13.24642434
          1.33130915          0.00447633       1336.55237381      -2427.07552098
        -30.49870870      -1611.51528345       3582.86045465       -335.83690341
          9.24931110       -393.02093433       -250.08390277       -230.05991367
    -118940.98346402     -36488.49365564      -4516.10600125      11573.03942257
       3071.02846423      -5901.45983938      -1394.30276922       -416.96339863
       -556.88454141     -21581.27363752      -7560.41690970      -4897.73521458
       1247.20913527       1874.66177709       -644.29802251
 Electronic spatial extent (au):  <R**2>=           4593.8469
 DipInt: DoE/N= F T RetVal/Mat= T F Init=T NMatP=  1 IDeriv=0 Min/MaxMlt=  0  4
 Nuclear    moments (au):
        132.00000000          0.00000000          0.00000000          0.00000000
       2598.61846075       1340.43562007        394.52037181          0.00000000
          0.00000000          0.00000000      -1617.98553045       2471.50668456
         43.01406414       1605.26923393      -3479.39605568        327.60025037
        -23.72629273        393.91129022        268.88594763        219.65581652
     107335.04355058      31880.23744166       2917.15063758     -10720.50766396
      -3026.68823211       6099.40505025       1339.80071702        424.59494147
        585.14628644      18934.69078108       5601.65927306       3863.65049686
      -1337.07073339      -1806.73895403        663.83402630
 Total      moments (au):
          0.00000000         -5.13058086          1.05098581          1.28043678
       -112.45770848        -68.74617367        -79.06854071         13.24642434
          1.33130915          0.00447633       -281.43315665         44.43116358
         12.51535544         -6.24604952        103.46439896         -8.23665303
        -14.47698163          0.89035590         18.80204487        -10.40409715
     -11605.93991344      -4608.25621397      -1598.95536368        852.53175861
         44.34023212        197.94521087        -54.50205220          7.63154284
         28.26174502      -2646.58285644      -1958.75763664      -1034.08471772
        -89.86159812         67.92282307         19.53600379
 Traceless Quadrup. (au):
        -25.70023420         18.01130062          7.68893358         13.24642434
          1.33130915          0.00447633
 Charge=              0.0000 electrons
 Dipole moment (field-independent basis, Debye):
    X=            -13.0406    Y=              2.6713    Z=              3.2545  Tot=             13.7035
 Quadrupole moment (field-independent basis, Debye-Ang):
   XX=           -151.2595   YY=            -92.4660   ZZ=           -106.3499
   XY=             17.8169   XZ=              1.7907   YZ=              0.0060
 Traceless Quadrupole moment (field-independent basis, Debye-Ang):
   XX=            -34.5677   YY=             24.2258   ZZ=             10.3419
   XY=             17.8169   XZ=              1.7907   YZ=              0.0060
 Octapole moment (field-independent basis, Debye-Ang**2):
  XXX=           -200.3133  YYY=             31.6244  ZZZ=              8.9079  XYY=             -4.4457
  XXY=             73.6420  XXZ=             -5.8625  XZZ=            -10.3042  YZZ=              0.6337
  YYZ=             13.3826  XYZ=             -7.4052
 Hexadecapole moment (field-independent basis, Debye-Ang**3):
 XXXX=          -4371.3532 YYYY=          -1735.6901 ZZZZ=           -602.2432 XXXY=            321.1043
 XXXZ=             16.7007 YYYX=             74.5557 YYYZ=            -20.5281 ZZZX=              2.8744
 ZZZY=             10.6447 XXYY=           -996.8299 XXZZ=           -737.7620 YYZZ=           -389.4859
 XXYZ=            -33.8462 YYXZ=             25.5830 ZZXY=              7.3582
 N-N= 1.353210919370D+03 E-N=-4.578967541956D+03  KE= 7.987597900648D+02
 Entering OneElI...
 OneElI was handed    33143046 working-precision words.
 Calculate electrostatic properties
    NBasis =   299  MinDer = 0  MaxDer = 0
    NGrid  =    39  NMatD  =   1
 Requested accuracy = 0.1000D-12
 PrsmSu:  NPrtUS=   2 ThrOK=T IAlg=1 NPAlg=1 LenDen=           0.
 Prism:   IPart=     0 DynPar=F LinDyn=F Incr=         512.
 PRISM was handed    16303945 working-precision words and  4981 shell-pairs
 PRISM was handed    16303945 working-precision words and  4981 shell-pairs
 IPart=  0 NShTot=       97539 NBatch=        2501 AvBLen=        39.0
 IPart=  1 NShTot=       96720 NBatch=        2480 AvBLen=        39.0
 PrSmSu:  NxtVal=           1025.
 --------------------------------------------------------
       Center         ----      EFG at Nuclei      ----
                      3XX-RR        3YY-RR        3ZZ-RR
 --------------------------------------------------------
     1   Atom       -0.278535      0.102586      0.175949
     2   Atom        0.202796     -0.198622     -0.004174
     3   Atom       -0.009599     -0.008612      0.018211
     4   Atom       -0.006409      0.026321     -0.019911
     5   Atom       -0.000450      0.002690     -0.002241
     6   Atom       -0.001269     -0.020593      0.021862
     7   Atom       -0.008896      0.001282      0.007614
     8   Atom       -0.018848      0.009210      0.009639
     9   Atom        0.035654     -0.146835      0.111181
    10   Atom        0.119816      0.109008     -0.228824
    11   Atom       -0.026155      0.048534     -0.022379
    12   Atom       -0.062431     -0.116353      0.178784
    13   Atom        0.672645     -0.356353     -0.316292
    14   Atom        0.018981     -0.090791      0.071810
    15   Atom        0.083006     -0.081719     -0.001287
    16   Atom       -0.318595      1.272299     -0.953704
    17   Atom        1.072236     -0.407684     -0.664552
    18   Atom        0.012235      0.074586     -0.086821
    19   Atom       -0.023824      0.116053     -0.092229
    20   Atom        0.042983      0.096940     -0.139924
    21   Atom        0.042516     -0.155415      0.112898
    22   Atom       -0.047193     -0.035933      0.083126
    23   Atom        0.053636      0.051676     -0.105311
    24   Atom       -0.036409     -0.065124      0.101533
    25   Atom        0.040088      0.070728     -0.110816
    26   Atom        0.039049      0.082825     -0.121874
    27   Atom        0.044900     -0.148163      0.103263
    28   Atom        0.028247      0.109420     -0.137667
    29   Atom        0.011689     -0.158428      0.146739
    30   Atom        0.143031      0.122982     -0.266014
    31   Atom       -0.197678      0.130358      0.067320
    32   Atom       -0.096892      0.061913      0.034979
    33   Atom        0.136253     -0.157776      0.021523
    34   Atom       -0.117339     -0.017312      0.134651
    35   Atom        0.139650     -0.285397      0.145746
    36   Atom        0.123194      0.108437     -0.231630
    37   Atom        0.055163      0.100517     -0.155679
    38   Atom        0.047053     -0.065531      0.018478
    39   Atom        0.016952      0.017164     -0.034117
 --------------------------------------------------------
                        XY            XZ            YZ
 --------------------------------------------------------
     1   Atom        0.198839     -0.306838      0.075831
     2   Atom       -0.042016     -0.105140      0.395096
     3   Atom        0.005056     -0.008631      0.014531
     4   Atom        0.002091      0.001273     -0.011668
     5   Atom       -0.009128      0.006738     -0.015297
     6   Atom       -0.001616      0.004939      0.016434
     7   Atom        0.046931     -0.012943      0.014717
     8   Atom       -0.060161     -0.097713     -0.028327
     9   Atom       -0.154500      0.090253      0.189583
    10   Atom        0.034589      0.118518     -0.087535
    11   Atom        0.224492      0.337187     -0.206598
    12   Atom        0.243748     -0.064313      0.145583
    13   Atom       -0.383754      0.469797     -0.202233
    14   Atom        0.158540      0.136229      0.216306
    15   Atom        0.821168      0.999106      0.440953
    16   Atom        0.886071      0.136723     -0.087841
    17   Atom        0.058603      0.009298     -0.536642
    18   Atom       -0.092935     -0.175763     -0.121915
    19   Atom        0.069556      0.202893     -0.078572
    20   Atom       -0.068980     -0.166988     -0.121511
    21   Atom       -0.173088      0.060693      0.101139
    22   Atom        0.186701     -0.107087      0.108059
    23   Atom       -0.092764     -0.148250     -0.154634
    24   Atom        0.192064     -0.093898      0.101081
    25   Atom       -0.089225     -0.160167     -0.135370
    26   Atom       -0.075522     -0.166796     -0.128853
    27   Atom       -0.165992      0.062199      0.115723
    28   Atom        0.064719      0.170131     -0.103145
    29   Atom        0.196784      0.030086     -0.023493
    30   Atom        0.002030      0.055230     -0.086972
    31   Atom       -0.071224     -0.160884     -0.021553
    32   Atom       -0.151482     -0.148155     -0.096568
    33   Atom       -0.095125      0.063925      0.184808
    34   Atom        0.214024     -0.005927      0.007413
    35   Atom       -0.061732      0.020190      0.024143
    36   Atom        0.040908     -0.074817      0.122082
    37   Atom        0.067392      0.167248     -0.108862
    38   Atom       -0.166878      0.149937      0.203926
    39   Atom       -0.071967     -0.108573     -0.092576
 --------------------------------------------------------


 ---------------------------------------------------------------------------------
              Nuclear Quadrupole in Principal Axis System
 ---------------------------------------------------------------------------------

       Atom             a.u.   MegaHertz   Gauss  10(-4) cm-1        Axes

              Baa    -0.5067   -67.999   -24.264   -22.682  0.8473 -0.3284  0.4173
     1 C(13)  Bbb     0.1735    23.277     8.306     7.764  0.2335  0.9362  0.2627
              Bcc     0.3333    44.722    15.958    14.918 -0.4770 -0.1252  0.8700
 
              Baa    -0.5097   -68.401   -24.407   -22.816 -0.0455  0.7825 -0.6210
     2 C(13)  Bbb     0.1351    18.125     6.467     6.046  0.8424  0.3641  0.3971
              Bcc     0.3747    50.276    17.940    16.770 -0.5369  0.5051  0.6758
 
              Baa    -0.0211    -2.829    -1.009    -0.944 -0.6005  0.6980 -0.3900
     3 C(13)  Bbb    -0.0045    -0.607    -0.216    -0.202  0.7808  0.6170 -0.0980
              Bcc     0.0256     3.436     1.226     1.146 -0.1723  0.3634  0.9156
 
              Baa    -0.0229    -3.069    -1.095    -1.024 -0.1044  0.2337  0.9667
     4 C(13)  Bbb    -0.0063    -0.847    -0.302    -0.283  0.9933 -0.0233  0.1130
              Bcc     0.0292     3.916     1.397     1.306  0.0489  0.9720 -0.2297
 
              Baa    -0.0153    -2.057    -0.734    -0.686  0.0731  0.6667  0.7417
     5 C(13)  Bbb    -0.0062    -0.835    -0.298    -0.278  0.8861  0.2979 -0.3552
              Bcc     0.0215     2.891     1.032     0.964 -0.4578  0.6832 -0.5690
 
              Baa    -0.0266    -3.570    -1.274    -1.191  0.1240  0.9358 -0.3300
     6 C(13)  Bbb    -0.0015    -0.197    -0.070    -0.066  0.9822 -0.1630 -0.0931
              Bcc     0.0281     3.767     1.344     1.257  0.1409  0.3126  0.9394
 
              Baa    -0.0569    -7.634    -2.724    -2.546  0.7080 -0.6443  0.2891
     7 C(13)  Bbb     0.0133     1.788     0.638     0.596 -0.2639  0.1383  0.9546
              Bcc     0.0436     5.846     2.086     1.950  0.6551  0.7521  0.0721
 
              Baa    -0.1326   -17.789    -6.348    -5.934  0.7092  0.4148  0.5700
     8 C(13)  Bbb     0.0338     4.534     1.618     1.512 -0.1390  0.8750 -0.4638
              Bcc     0.0988    13.255     4.730     4.421  0.6911 -0.2497 -0.6782
 
              Baa    -0.3337   -44.779   -15.978   -14.937  0.4358  0.7927 -0.4262
     9 C(13)  Bbb     0.1217    16.328     5.826     5.446  0.8973 -0.4196  0.1370
              Bcc     0.2120    28.451    10.152     9.490  0.0703  0.4422  0.8942
 
              Baa    -0.2875   -38.581   -13.767   -12.869 -0.2898  0.2304  0.9289
    10 C(13)  Bbb     0.1293    17.356     6.193     5.789 -0.1781  0.9407 -0.2888
              Bcc     0.1582    21.225     7.574     7.080  0.9404  0.2492  0.2316
 
              Baa    -0.5239   -70.299   -25.084   -23.449  0.6305 -0.4702 -0.6176
    11 C(13)  Bbb     0.2099    28.161    10.049     9.394  0.2613  0.8778 -0.4015
              Bcc     0.3140    42.138    15.036    14.056  0.7309  0.0918  0.6763
 
              Baa    -0.3762   -50.488   -18.015   -16.841 -0.6248  0.7344 -0.2650
    12 C(13)  Bbb     0.1309    17.566     6.268     5.859  0.7544  0.4804 -0.4473
              Bcc     0.2453    32.922    11.747    10.982  0.2012  0.4794  0.8542
 
              Baa    -0.5426   -20.925    -7.467    -6.980 -0.0958  0.6351  0.7665
    13 N(14)  Bbb    -0.4552   -17.558    -6.265    -5.857  0.4627  0.7102 -0.5307
              Bcc     0.9978    38.483    13.732    12.837  0.8813 -0.3038  0.3618
 
              Baa    -0.2553    -9.848    -3.514    -3.285 -0.2678  0.8512 -0.4513
    14 N(14)  Bbb    -0.0925    -3.566    -1.272    -1.189  0.8054 -0.0593 -0.5898
              Bcc     0.3478    13.414     4.787     4.475  0.5288  0.5214  0.6697
 
              Baa    -1.0635    76.956    27.460    25.670  0.7473 -0.3802 -0.5450
    15 O(17)  Bbb    -0.4809    34.797    12.416    11.607 -0.0504  0.7853 -0.6170
              Bcc     1.5444  -111.752   -39.876   -37.276  0.6626  0.4885  0.5677
 
              Baa    -1.0344    74.851    26.709    24.968 -0.4059  0.1899  0.8940
    16 O(17)  Bbb    -0.6334    45.831    16.354    15.288  0.8184 -0.3599  0.4480
              Bcc     1.6678  -120.682   -43.062   -40.255  0.4068  0.9135 -0.0094
 
              Baa    -1.0888    78.784    28.112    26.280 -0.0202  0.6198  0.7845
    17 O(17)  Bbb     0.0142    -1.024    -0.365    -0.342 -0.0380  0.7836 -0.6201
              Bcc     1.0746   -77.761   -27.747   -25.938  0.9991  0.0423 -0.0077
 
              Baa    -0.2852  -152.177   -54.301   -50.761  0.5557  0.3920  0.7332
    18 H(1)   Bbb     0.1399    74.623    26.628    24.892 -0.1689  0.9167 -0.3621
              Bcc     0.1454    77.554    27.673    25.869  0.8140 -0.0774 -0.5756
 
              Baa    -0.2908  -155.174   -55.370   -51.761 -0.6263  0.2497  0.7386
    19 H(1)   Bbb     0.1421    75.844    27.063    25.299 -0.1425  0.8947 -0.4233
              Bcc     0.1487    79.331    28.307    26.462  0.7665  0.3703  0.5248
 
              Baa    -0.2894  -154.400   -55.094   -51.502  0.4776  0.3401  0.8101
    20 H(1)   Bbb     0.1410    75.232    26.845    25.095  0.8670 -0.3315 -0.3720
              Bcc     0.1484    79.168    28.249    26.408  0.1420  0.8800 -0.4532
 
              Baa    -0.2903  -154.906   -55.274   -51.671  0.4826  0.8296 -0.2807
    21 H(1)   Bbb     0.1424    75.965    27.106    25.339  0.7755 -0.5538 -0.3034
              Bcc     0.1480    78.941    28.168    26.332  0.4071  0.0713  0.9106
 
              Baa    -0.2903  -154.893   -55.270   -51.667  0.6629 -0.6468  0.3772
    22 H(1)   Bbb     0.1424    75.974    27.109    25.342  0.6810  0.3114 -0.6627
              Bcc     0.1479    78.920    28.161    26.325  0.3111  0.6962  0.6469
 
              Baa    -0.2894  -154.403   -55.095   -51.503  0.4542  0.4674  0.7584
    23 H(1)   Bbb     0.1424    75.959    27.104    25.337  0.8493  0.0299 -0.5270
              Bcc     0.1470    78.443    27.991    26.166 -0.2690  0.8835 -0.3834
 
              Baa    -0.2918  -155.671   -55.547   -51.926 -0.6419  0.6916 -0.3310
    24 H(1)   Bbb     0.1418    75.676    27.003    25.243  0.7312  0.6822  0.0074
              Bcc     0.1499    79.996    28.544    26.684 -0.2309  0.2373  0.9436
 
              Baa    -0.2861  -152.632   -54.463   -50.913  0.4900  0.4137  0.7673
    25 H(1)   Bbb     0.1401    74.763    26.677    24.938 -0.6059 -0.4712  0.6409
              Bcc     0.1459    77.869    27.786    25.974 -0.6267  0.7790 -0.0198
 
              Baa    -0.2869  -153.070   -54.619   -51.059  0.4897  0.3745  0.7874
    26 H(1)   Bbb     0.1392    74.273    26.502    24.775  0.7220 -0.6804 -0.1255
              Bcc     0.1477    78.797    28.117    26.284  0.4887  0.6300 -0.6035
 
              Baa    -0.2878  -153.536   -54.785   -51.214  0.4702  0.8231 -0.3184
    27 H(1)   Bbb     0.1389    74.096    26.439    24.716  0.8614 -0.3496  0.3684
              Bcc     0.1489    79.439    28.346    26.498 -0.1919  0.4475  0.8734
 
              Baa    -0.2819  -150.398   -53.666   -50.168 -0.5062  0.2971  0.8096
    28 H(1)   Bbb     0.1346    71.798    25.619    23.949  0.8452 -0.0157  0.5342
              Bcc     0.1473    78.601    28.047    26.218  0.1714  0.9547 -0.2432
 
              Baa    -0.2907  -155.126   -55.353   -51.744 -0.5493  0.8316  0.0824
    29 H(1)   Bbb     0.1324    70.652    25.210    23.567  0.6560  0.4902 -0.5739
              Bcc     0.1583    84.474    30.142    28.177  0.5177  0.2612  0.8148
 
              Baa    -0.2914  -155.476   -55.478   -51.861 -0.1244  0.2044  0.9710
    30 H(1)   Bbb     0.1354    72.222    25.771    24.091  0.5424  0.8334 -0.1060
              Bcc     0.1560    83.254    29.707    27.771  0.8309 -0.5134  0.2145
 
              Baa    -0.2866  -152.919   -54.565   -51.008  0.8924  0.1740  0.4163
    31 H(1)   Bbb     0.1326    70.730    25.238    23.593 -0.1887 -0.6941  0.6947
              Bcc     0.1540    82.189    29.327    27.415 -0.4098  0.6985  0.5866
 
              Baa    -0.2859  -152.544   -54.431   -50.883  0.7460  0.4589  0.4826
    32 H(1)   Bbb     0.1311    69.965    24.965    23.338 -0.5204 -0.0503  0.8524
              Bcc     0.1548    82.578    29.466    27.545 -0.4155  0.8871 -0.2013
 
              Baa    -0.3034  -161.869   -57.759   -53.994  0.2522  0.8190 -0.5155
    33 H(1)   Bbb     0.1368    73.015    26.053    24.355 -0.1164  0.5545  0.8240
              Bcc     0.1665    88.855    31.706    29.639  0.9607 -0.1478  0.2352
 
              Baa    -0.2873  -153.299   -54.701   -51.135  0.7832 -0.6214  0.0219
    34 H(1)   Bbb     0.1346    71.817    25.626    23.955 -0.0904 -0.0790  0.9928
              Bcc     0.1527    81.483    29.075    27.180  0.6152  0.7795  0.1181
 
              Baa    -0.2958  -157.827   -56.316   -52.645  0.1429  0.9879 -0.0605
    35 H(1)   Bbb     0.1313    70.074    25.004    23.374 -0.6823  0.1426  0.7170
              Bcc     0.1645    87.752    31.312    29.271  0.7170 -0.0611  0.6944
 
              Baa    -0.2880  -153.664   -54.831   -51.257  0.1999 -0.3071  0.9304
    36 H(1)   Bbb     0.1279    68.220    24.343    22.756  0.7682 -0.5404 -0.3434
              Bcc     0.1601    85.444    30.488    28.501  0.6083  0.7834  0.1279
 
              Baa    -0.2899  -154.653   -55.184   -51.587 -0.4631  0.3114  0.8298
    37 H(1)   Bbb     0.1383    73.806    26.336    24.619 -0.3603  0.7893 -0.4972
              Bcc     0.1515    80.847    28.848    26.968  0.8098  0.5293  0.2533
 
              Baa    -0.3563  -190.100   -67.832   -63.411  0.4858  0.6714 -0.5597
    38 H(1)   Bbb     0.1666    88.910    31.725    29.657  0.7728 -0.6291 -0.0838
              Bcc     0.1897   101.190    36.107    33.753  0.4084  0.3918  0.8245
 
              Baa    -0.1873   -99.958   -35.668   -33.343  0.5372  0.4974  0.6812
    39 H(1)   Bbb     0.0843    45.003    16.058    15.011 -0.3475  0.8664 -0.3586
              Bcc     0.1030    54.956    19.610    18.331  0.7685  0.0440 -0.6383
 

 ---------------------------------------------------------------------------------

 No NMR shielding tensors so no spin-rotation constants.
 Leave Link  601 at Sun Feb 18 17:08:47 2018, MaxMem=   33554432 cpu:       0.7
 Merz-Kollman atomic radii used.
 Read replacement radii for each type of atom:
 Atom Element Radius
    1     6    1.50
    2     6    1.50
    3     6    1.50
    4     6    1.50
    5     6    1.50
    6     6    1.50
    7     6    1.50
    8     6    1.50
    9     6    1.50
   10     6    1.50
   11     6    1.50
   12     6    1.50
   13     7    1.50
   14     7    1.50
   15     8    1.40
   16     8    1.40
   17     8    1.40
   18     1    1.20
   19     1    1.20
   20     1    1.20
   21     1    1.20
   22     1    1.20
   23     1    1.20
   24     1    1.20
   25     1    1.20
   26     1    1.20
   27     1    1.20
   28     1    1.20
   29     1    1.20
   30     1    1.20
   31     1    1.20
   32     1    1.20
   33     1    1.20
   34     1    1.20
   35     1    1.20
   36     1    1.20
   37     1    1.20
   38     1    1.20
   39     1    1.20
 Generate VDW surfaces: Layer= 4 Dens= 1 Start= 1.400 Inc= 0.200

 **********************************************************************

            Electrostatic Properties Using The SCF Density

 **********************************************************************

       Atomic Center    1 is at   0.573700  1.047503 -0.450470
       Atomic Center    2 is at   3.139291 -1.410550  0.142436
       Atomic Center    3 is at  -4.029588 -0.507129  0.394908
       Atomic Center    4 is at  -3.029986 -1.566454  0.882784
       Atomic Center    5 is at  -3.308747  0.741268 -0.135811
       Atomic Center    6 is at  -2.011342 -1.919304 -0.214591
       Atomic Center    7 is at  -2.281391  0.379641 -1.222264
       Atomic Center    8 is at  -1.255500 -0.692026 -0.775404
       Atomic Center    9 is at   1.385704  3.332114 -0.485672
       Atomic Center   10 is at   0.265547  2.559912  1.555407
       Atomic Center   11 is at   1.688761 -1.813312 -0.275914
       Atomic Center   12 is at  -0.226503 -0.096622  0.212682
       Atomic Center   13 is at   0.704794  2.232257  0.199191
       Atomic Center   14 is at   0.769029 -1.129954  0.704809
       Atomic Center   15 is at   4.063980 -1.890084 -0.530678
       Atomic Center   16 is at   1.053314  0.847090 -1.573184
       Atomic Center   17 is at   3.183992 -0.619006  1.136420
       Atomic Center   18 is at  -4.642670 -0.937609 -0.410347
       Atomic Center   19 is at  -4.718602 -0.234009  1.203558
       Atomic Center   20 is at  -2.514378 -1.195200  1.780399
       Atomic Center   21 is at  -3.558952 -2.476170  1.191549
       Atomic Center   22 is at  -4.034990  1.451834 -0.549127
       Atomic Center   23 is at  -2.817435  1.262078  0.698570
       Atomic Center   24 is at  -1.318399 -2.694762  0.137453
       Atomic Center   25 is at  -2.547309 -2.375028 -1.057766
       Atomic Center   26 is at  -2.817070 -0.029816 -2.088902
       Atomic Center   27 is at  -1.766315  1.278261 -1.580642
       Atomic Center   28 is at  -0.694331 -1.000481 -1.663168
       Atomic Center   29 is at   0.782623  4.241531 -0.395865
       Atomic Center   30 is at   1.515592  3.075606 -1.534716
       Atomic Center   31 is at   2.366159  3.515260 -0.030438
       Atomic Center   32 is at   1.087457  3.057696  2.079880
       Atomic Center   33 is at  -0.002730  1.676075  2.129502
       Atomic Center   34 is at  -0.591950  3.242379  1.529002
       Atomic Center   35 is at   1.541294 -2.892298 -0.219945
       Atomic Center   36 is at   1.480529 -1.459844 -1.282901
       Atomic Center   37 is at  -0.735351  0.231513  1.115861
       Atomic Center   38 is at   0.276460 -1.816171  1.279147
       Atomic Center   39 is at   1.523640 -0.671224  1.311882
      ESP Fit Center   40 is at   2.673700  1.047503 -0.450470
      ESP Fit Center   41 is at   2.614291 -2.319876  1.961090
      ESP Fit Center   42 is at   2.880470 -3.210692  1.192436
      ESP Fit Center   43 is at   3.894787 -3.064855  1.192436
      ESP Fit Center   44 is at   3.894787  0.243756 -0.907564
      ESP Fit Center   45 is at   2.880470  0.389592 -0.907564
      ESP Fit Center   46 is at  -3.504588  0.402197  2.213561
      ESP Fit Center   47 is at  -5.220553 -1.881576  1.444908
      ESP Fit Center   48 is at  -4.079986 -1.566454  2.701437
[...]
  732 Fit       0.023996
  733 Fit       0.024549
  734 Fit       0.022001
  735 Fit       0.017148
  736 Fit       0.003314
  737 Fit       0.012804
  738 Fit      -0.046383
  739 Fit       0.007625
  740 Fit       0.012220
  741 Fit      -0.028719
  742 Fit       0.007935
  743 Fit       0.011116
  744 Fit       0.012377
  745 Fit       0.011881
  746 Fit       0.007154
  747 Fit       0.027545
  748 Fit       0.028000
  749 Fit       0.032320
  750 Fit       0.026442
  751 Fit       0.033175
  752 Fit       0.011218
  753 Fit      -0.011372
  754 Fit       0.027002
  755 Fit       0.014690
  756 Fit      -0.023287
  757 Fit       0.025849
  758 Fit       0.041373
  759 Fit       0.053397
  760 Fit       0.032460
  761 Fit      -0.081613
  762 Fit      -0.092205
  763 Fit      -0.060075
  764 Fit      -0.072377
  765 Fit      -0.079970
  766 Fit      -0.083645
  767 Fit      -0.086458
  768 Fit      -0.038296
  769 Fit      -0.056854
  770 Fit      -0.067537
  771 Fit      -0.074702
  772 Fit      -0.077336
  773 Fit      -0.079002
  774 Fit      -0.077745
  775 Fit      -0.072780
  776 Fit      -0.044897
  777 Fit      -0.059813
  778 Fit      -0.068187
  779 Fit      -0.073619
  780 Fit      -0.073922
  781 Fit      -0.074373
  782 Fit      -0.071174
  783 Fit      -0.065565
  784 Fit      -0.054211
  785 Fit      -0.064911
  786 Fit      -0.070718
  787 Fit      -0.069646
  788 Fit      -0.068078
  789 Fit      -0.059296
  790 Fit      -0.045666
  791 Fit      -0.053975
  792 Fit      -0.065051
  793 Fit      -0.062342
  794 Fit      -0.054854
  795 Fit      -0.036911
  796 Fit      -0.046101
  797 Fit      -0.033594
  798 Fit      -0.006954
  799 Fit      -0.046297
  800 Fit      -0.037432
  801 Fit      -0.028719
  802 Fit      -0.021191
  803 Fit      -0.018484
  804 Fit      -0.021596
  805 Fit      -0.032756
  806 Fit      -0.028977
  807 Fit      -0.033982
  808 Fit      -0.053039
  809 Fit      -0.043344
  810 Fit      -0.020787
  811 Fit      -0.003261
  812 Fit      -0.019039
  813 Fit      -0.043858
  814 Fit      -0.067320
  815 Fit      -0.060873
  816 Fit      -0.046728
  817 Fit      -0.024900
  818 Fit      -0.020102
  819 Fit      -0.048021
  820 Fit      -0.064057
  821 Fit      -0.080799
  822 Fit      -0.072202
  823 Fit      -0.059549
  824 Fit      -0.041571
  825 Fit      -0.083675
  826 Fit      -0.080386
  827 Fit      -0.064154
  828 Fit      -0.045154
  829 Fit      -0.060446
  830 Fit       0.018396
  831 Fit       0.018665
  832 Fit       0.020214
  833 Fit       0.023262
  834 Fit       0.021788
  835 Fit       0.019830
  836 Fit       0.020064
  837 Fit       0.021641
  838 Fit       0.025162
  839 Fit       0.023685
  840 Fit       0.021853
  841 Fit       0.023617
  842 Fit       0.025635
  843 Fit       0.028533
  844 Fit       0.024374
  845 Fit       0.022737
  846 Fit       0.023482
  847 Fit       0.024854
  848 Fit       0.022433
  849 Fit       0.021084
  850 Fit       0.020539
  851 Fit       0.021451
  852 Fit       0.022906
  853 Fit       0.020840
  854 Fit       0.019393
  855 Fit       0.018745
  856 Fit       0.019539
  857 Fit       0.032224
  858 Fit       0.042801
  859 Fit       0.040686
  860 Fit       0.032493
  861 Fit       0.027410
  862 Fit       0.027481
  863 Fit       0.034698
  864 Fit       0.040160
  865 Fit       0.039325
  866 Fit       0.023218
  867 Fit       0.023425
  868 Fit       0.026434
  869 Fit       0.022351
  870 Fit       0.022728
  871 Fit       0.023889
  872 Fit       0.027172
  873 Fit       0.022242
  874 Fit       0.022584
  875 Fit       0.023306
  876 Fit       0.025067
  877 Fit       0.023693
  878 Fit       0.023628
  879 Fit       0.024588
  880 Fit       0.022416
  881 Fit       0.021379
  882 Fit       0.021543
  883 Fit       0.022191
  884 Fit       0.021055
  885 Fit       0.020750
  886 Fit       0.020731
  887 Fit       0.021072
  888 Fit       0.021802
  889 Fit       0.020566
  890 Fit       0.020416
  891 Fit       0.020545
  892 Fit       0.021456
  893 Fit       0.020038
  894 Fit       0.020921
  895 Fit       0.037972
  896 Fit       0.040006
  897 Fit       0.031116
  898 Fit       0.030424
  899 Fit       0.030491
  900 Fit       0.025556
  901 Fit       0.049820
  902 Fit       0.030889
  903 Fit       0.037430
  904 Fit       0.025218
  905 Fit       0.026609
  906 Fit       0.032670
  907 Fit       0.022405
  908 Fit       0.024131
  909 Fit       0.024473
  910 Fit       0.022644
  911 Fit       0.021966
  912 Fit       0.025150
  913 Fit       0.022607
  914 Fit       0.020704
  915 Fit       0.019862
  916 Fit       0.024712
  917 Fit       0.021682
  918 Fit       0.020086
  919 Fit       0.022646
  920 Fit       0.018646
  921 Fit       0.020587
  922 Fit       0.022350
  923 Fit       0.023864
  924 Fit       0.024922
  925 Fit       0.009350
  926 Fit       0.010209
  927 Fit       0.014935
  928 Fit       0.018027
  929 Fit       0.018866
  930 Fit       0.015946
  931 Fit       0.014141
  932 Fit       0.028327
  933 Fit       0.021330
  934 Fit       0.022169
  935 Fit       0.011063
  936 Fit       0.016053
  937 Fit       0.017907
  938 Fit      -0.007471
  939 Fit       0.005148
  940 Fit       0.012077
  941 Fit       0.006951
  942 Fit       0.020107
  943 Fit       0.014693
  944 Fit      -0.006825
  945 Fit       0.015862
  946 Fit       0.008238
  947 Fit       0.005881
  948 Fit       0.017852
  949 Fit       0.021050
  950 Fit       0.025397
  951 Fit       0.014429
  952 Fit       0.016717
  953 Fit       0.019457
  954 Fit       0.022311
  955 Fit       0.025498
  956 Fit       0.013342
  957 Fit       0.015488
  958 Fit       0.017564
  959 Fit       0.019133
  960 Fit       0.013121
  961 Fit      -0.013182
  962 Fit      -0.001094
  963 Fit       0.006249
  964 Fit       0.009134
  965 Fit      -0.032149
  966 Fit      -0.010547
  967 Fit       0.000576
  968 Fit       0.003774
  969 Fit      -0.002787
  970 Fit      -0.007407
  971 Fit       0.003923
  972 Fit       0.014680
  973 Fit      -0.005906
  974 Fit       0.004509
  975 Fit       0.011410
  976 Fit      -0.021827
  977 Fit      -0.009649
  978 Fit       0.000635
  979 Fit       0.007421
  980 Fit      -0.041999
  981 Fit      -0.025171
  982 Fit      -0.009900
  983 Fit       0.000498
  984 Fit      -0.024065
  985 Fit       0.021960
  986 Fit       0.014039
  987 Fit       0.019263
  988 Fit       0.024608
  989 Fit       0.016916
  990 Fit       0.006188
  991 Fit       0.014120
  992 Fit       0.019354
  993 Fit       0.023260
  994 Fit      -0.000501
  995 Fit       0.001640
  996 Fit       0.013176
  997 Fit       0.018870
  998 Fit       0.022697
  999 Fit      -0.015077
 1000 Fit       0.030717
 1001 Fit       0.023221
 1002 Fit       0.036363
 1003 Fit       0.039435
 1004 Fit       0.031367
 1005 Fit       0.045285
 1006 Fit       0.056948
 1007 Fit       0.017616
 1008 Fit       0.028692
 1009 Fit       0.032494
 1010 Fit       0.026435
 1011 Fit       0.028040
 1012 Fit       0.030736
 1013 Fit       0.035935
 1014 Fit       0.026832
 1015 Fit       0.027116
 1016 Fit       0.028465
 1017 Fit       0.030793
 1018 Fit       0.028302
 1019 Fit       0.029806
 1020 Fit       0.040590
 1021 Fit       0.013710
 1022 Fit       0.038282
 1023 Fit       0.020192
 1024 Fit       0.002602
 1025 Fit       0.019661
 1026 Fit       0.006178
 1027 Fit      -0.013455
 1028 Fit       0.019328
 1029 Fit       0.008026
 1030 Fit      -0.009231
 1031 Fit       0.007670
 1032 Fit      -0.010760
 1033 Fit       0.016647
 1034 Fit      -0.032721
 1035 Fit       0.001676
 1036 Fit      -0.015918
 1037 Fit      -0.014320
 1038 Fit       0.047141
 1039 Fit       0.055804
 1040 Fit       0.049321
 1041 Fit       0.039774
 1042 Fit       0.052211
 1043 Fit       0.047262
 1044 Fit       0.038311
 1045 Fit       0.018810
 1046 Fit       0.002227
 1047 Fit      -0.009883
 1048 Fit      -0.035204
 1049 Fit      -0.008260
 1050 Fit      -0.033730
 1051 Fit      -0.026928
 1052 Fit      -0.054989
 1053 Fit       0.018600
 1054 Fit       0.019248
 1055 Fit       0.017703
 1056 Fit       0.024376
 1057 Fit       0.024317
 1058 Fit       0.022493
 1059 Fit       0.029913
 1060 Fit       0.024532
 1061 Fit       0.022300
 1062 Fit       0.021704
 1063 Fit       0.025864
 1064 Fit       0.022987
 1065 Fit       0.023814
 1066 Fit       0.021330
 1067 Fit       0.019058
 1068 Fit       0.020365
 1069 Fit       0.017844
 1070 Fit       0.015108
 1071 Fit       0.002617
 1072 Fit       0.005882
 1073 Fit       0.014980
 1074 Fit       0.011150
 1075 Fit       0.009180
 1076 Fit       0.023296
 1077 Fit      -0.012767
 1078 Fit      -0.002341
 1079 Fit       0.004209
 1080 Fit       0.008560
 1081 Fit       0.016602
 1082 Fit      -0.028412
 1083 Fit       0.005452
 1084 Fit       0.008601
 1085 Fit       0.009949
 1086 Fit       0.009450
 1087 Fit       0.024332
 1088 Fit       0.024916
 1089 Fit       0.028711
 1090 Fit       0.023574
 1091 Fit       0.026400
 1092 Fit       0.029759
 1093 Fit       0.010229
 1094 Fit       0.023427
 1095 Fit       0.037614
 1096 Fit      -0.009327
 1097 Fit       0.022921
 1098 Fit       0.010791
 1099 Fit      -0.001751
 1100 Fit      -0.022764
 1101 Fit       0.034184
 1102 Fit       0.048984
 1103 Fit       0.025957
 1104 Fit       0.023390
 1105 Fit      -0.071955
 1106 Fit      -0.053492
 1107 Fit      -0.063571
 1108 Fit      -0.070418
 1109 Fit      -0.074725
 1110 Fit      -0.035027
 1111 Fit      -0.049644
 1112 Fit      -0.058897
 1113 Fit      -0.065407
 1114 Fit      -0.068716
 1115 Fit      -0.070721
 1116 Fit      -0.071387
 1117 Fit      -0.070688
 1118 Fit      -0.030335
 1119 Fit      -0.045598
 1120 Fit      -0.054889
 1121 Fit      -0.061054
 1122 Fit      -0.065493
 1123 Fit      -0.066412
 1124 Fit      -0.067466
 1125 Fit      -0.066464
 1126 Fit      -0.063321
 1127 Fit      -0.042952
 1128 Fit      -0.053252
 1129 Fit      -0.059581
 1130 Fit      -0.063740
 1131 Fit      -0.063543
 1132 Fit      -0.063920
 1133 Fit      -0.062093
 1134 Fit      -0.059321
 1135 Fit      -0.037177
 1136 Fit      -0.049058
 1137 Fit      -0.056624
 1138 Fit      -0.061122
 1139 Fit      -0.059719
 1140 Fit      -0.058668
 1141 Fit      -0.052105
 1142 Fit      -0.041082
 1143 Fit      -0.046257
 1144 Fit      -0.055481
 1145 Fit      -0.053462
 1146 Fit      -0.048675
 1147 Fit      -0.034111
 1148 Fit      -0.039346
 1149 Fit      -0.030163
 1150 Fit      -0.007401
 1151 Fit      -0.029342
 1152 Fit      -0.040496
 1153 Fit      -0.031346
 1154 Fit      -0.024020
 1155 Fit      -0.017349
 1156 Fit      -0.014891
 1157 Fit      -0.017954
 1158 Fit      -0.027645
 1159 Fit      -0.023760
 1160 Fit      -0.026284
 1161 Fit      -0.042402
 1162 Fit      -0.034068
 1163 Fit      -0.015275
 1164 Fit      -0.002169
 1165 Fit      -0.014578
 1166 Fit      -0.034839
 1167 Fit      -0.054740
 1168 Fit      -0.049959
 1169 Fit      -0.039368
 1170 Fit      -0.023100
 1171 Fit       0.002577
 1172 Fit      -0.022994
 1173 Fit      -0.042006
 1174 Fit      -0.052620
 1175 Fit      -0.065945
 1176 Fit      -0.059875
 1177 Fit      -0.049899
 1178 Fit      -0.035267
 1179 Fit      -0.066975
 1180 Fit      -0.079323
 1181 Fit      -0.068907
 1182 Fit      -0.057797
 1183 Fit      -0.044035
 1184 Fit      -0.075879
 1185 Fit      -0.059241
 1186 Fit       0.018082
 1187 Fit       0.020126
 1188 Fit       0.018317
 1189 Fit       0.017718
 1190 Fit       0.018302
 1191 Fit       0.019899
 1192 Fit       0.022949
 1193 Fit       0.020804
 1194 Fit       0.018967
 1195 Fit       0.018982
 1196 Fit       0.020321
 1197 Fit       0.023556
 1198 Fit       0.020597
 1199 Fit       0.022087
 1200 Fit       0.024422
 1201 Fit       0.027189
 1202 Fit       0.023149
 1203 Fit       0.021570
 1204 Fit       0.022477
 1205 Fit       0.023990
 1206 Fit       0.021379
 1207 Fit       0.020063
 1208 Fit       0.019704
 1209 Fit       0.020705
 1210 Fit       0.020591
 1211 Fit       0.019156
 1212 Fit       0.018387
 1213 Fit       0.018462
 1214 Fit       0.020611
 1215 Fit       0.018618
 1216 Fit       0.017653
 1217 Fit       0.030125
 1218 Fit       0.038021
 1219 Fit       0.036737
 1220 Fit       0.030435
 1221 Fit       0.026292
 1222 Fit       0.026405
 1223 Fit       0.031918
 1224 Fit       0.036825
 1225 Fit       0.035341
 1226 Fit       0.022264
 1227 Fit       0.022175
 1228 Fit       0.025153
 1229 Fit       0.020995
 1230 Fit       0.021061
 1231 Fit       0.022175
 1232 Fit       0.025456
 1233 Fit       0.020985
 1234 Fit       0.020616
 1235 Fit       0.020861
 1236 Fit       0.021700
 1237 Fit       0.023978
 1238 Fit       0.021029
 1239 Fit       0.021173
 1240 Fit       0.021924
 1241 Fit       0.024073
 1242 Fit       0.022740
 1243 Fit       0.023574
 1244 Fit       0.020883
 1245 Fit       0.021193
 1246 Fit       0.022963
 1247 Fit       0.020546
 1248 Fit       0.019667
 1249 Fit       0.019536
 1250 Fit       0.019899
 1251 Fit       0.020919
 1252 Fit       0.019510
 1253 Fit       0.019040
 1254 Fit       0.019004
 1255 Fit       0.019375
 1256 Fit       0.019873
 1257 Fit       0.018758
 1258 Fit       0.018597
 1259 Fit       0.018904
 1260 Fit       0.020160
 1261 Fit       0.018408
 1262 Fit       0.019458
 1263 Fit       0.036253
 1264 Fit       0.030322
 1265 Fit       0.030000
 1266 Fit       0.025539
 1267 Fit       0.026482
 1268 Fit       0.030230
 1269 Fit       0.036206
 1270 Fit       0.024951
 1271 Fit       0.026849
 1272 Fit       0.021796
 1273 Fit       0.022495
 1274 Fit       0.020429
 1275 Fit       0.023465
 1276 Fit       0.023199
 1277 Fit       0.021131
 1278 Fit       0.019695
 1279 Fit       0.019187
 1280 Fit       0.022622
 1281 Fit       0.020287
 1282 Fit       0.018534
 1283 Fit       0.017599
 1284 Fit       0.022170
 1285 Fit       0.019419
 1286 Fit       0.017925
 1287 Fit       0.020177
 1288 Fit       0.022215
 1289 Fit       0.016338
 1290 Fit       0.018069
 1291 Fit       0.019458
 1292 Fit       0.020475
 1293 Fit       0.020681
 1294 Fit       0.018759
 1295 Fit       0.008070
 1296 Fit       0.009135
 1297 Fit       0.013254
 1298 Fit       0.015771
 1299 Fit       0.016242
 1300 Fit       0.013436
 1301 Fit       0.012378
 1302 Fit       0.023599
 1303 Fit       0.016461
 1304 Fit       0.018343
 1305 Fit       0.019729
 1306 Fit       0.007692
 1307 Fit       0.013041
 1308 Fit       0.015351
 1309 Fit      -0.005934
 1310 Fit       0.003730
 1311 Fit       0.010282
 1312 Fit       0.018746
 1313 Fit       0.016121
 1314 Fit       0.009971
 1315 Fit      -0.007068
 1316 Fit       0.012695
 1317 Fit       0.005335
 1318 Fit       0.004109
 1319 Fit       0.017458
 1320 Fit       0.020359
 1321 Fit       0.024940
 1322 Fit       0.015385
 1323 Fit       0.017993
 1324 Fit       0.021039
 1325 Fit       0.025014
 1326 Fit       0.013436
 1327 Fit       0.015655
 1328 Fit       0.017933
 1329 Fit       0.020336
 1330 Fit       0.022915
 1331 Fit       0.012985
 1332 Fit       0.014832
 1333 Fit       0.016281
 1334 Fit      -0.032557
 1335 Fit      -0.013948
 1336 Fit      -0.003208
 1337 Fit       0.003495
 1338 Fit       0.007041
 1339 Fit       0.008073
 1340 Fit       0.006436
 1341 Fit      -0.011272
 1342 Fit      -0.001554
 1343 Fit       0.001548
 1344 Fit      -0.003950
 1345 Fit      -0.008204
 1346 Fit      -0.006439
 1347 Fit       0.003625
 1348 Fit       0.010736
 1349 Fit      -0.021379
 1350 Fit      -0.011118
 1351 Fit      -0.001003
 1352 Fit       0.005727
 1353 Fit       0.011056
 1354 Fit      -0.027086
 1355 Fit      -0.012419
 1356 Fit      -0.002548
 1357 Fit       0.004258
 1358 Fit      -0.026892
 1359 Fit      -0.011313
 1360 Fit      -0.001347
 1361 Fit       0.019692
 1362 Fit       0.012548
 1363 Fit       0.017022
 1364 Fit       0.022080
 1365 Fit       0.015504
 1366 Fit       0.005165
 1367 Fit       0.011847
 1368 Fit       0.016831
 1369 Fit       0.020826
 1370 Fit       0.000534
 1371 Fit      -0.001202
 1372 Fit       0.008873
 1373 Fit       0.014908
 1374 Fit       0.018906
 1375 Fit      -0.014774
 1376 Fit       0.027618
 1377 Fit       0.032589
 1378 Fit       0.034410
 1379 Fit       0.027433
 1380 Fit       0.039761
 1381 Fit       0.045536
 1382 Fit       0.046485
 1383 Fit       0.034443
 1384 Fit       0.014956
 1385 Fit       0.024391
 1386 Fit       0.025825
 1387 Fit       0.028513
 1388 Fit       0.033484
 1389 Fit       0.023978
 1390 Fit       0.024229
 1391 Fit       0.025405
 1392 Fit       0.027386
 1393 Fit       0.030848
 1394 Fit       0.025216
 1395 Fit       0.025613
 1396 Fit       0.027188
 1397 Fit       0.026123
 1398 Fit       0.027519
 1399 Fit       0.037827
 1400 Fit       0.019480
 1401 Fit       0.002854
 1402 Fit       0.028734
 1403 Fit       0.016123
 1404 Fit       0.002787
 1405 Fit      -0.015848
 1406 Fit       0.021367
 1407 Fit       0.011115
 1408 Fit      -0.001721
 1409 Fit      -0.021974
 1410 Fit       0.014818
 1411 Fit       0.004279
 1412 Fit      -0.011654
 1413 Fit      -0.030422
 1414 Fit      -0.001560
 1415 Fit      -0.016447
 1416 Fit      -0.015222
 1417 Fit       0.040508
 1418 Fit       0.048478
 1419 Fit       0.042377
 1420 Fit       0.033657
 1421 Fit       0.045217
 1422 Fit       0.040079
 1423 Fit       0.031462
 1424 Fit       0.042336
 1425 Fit       0.035593
 1426 Fit       0.016157
 -----------------------------------------------------------------
 Leave Link  602 at Sun Feb 18 17:08:47 2018, MaxMem=   33554432 cpu:       0.7

 Test job not archived.
 1\1\GINC-NODE016\SP\RHF\6-31G(d)\C12H22N2O3\WULSDORT\18-Feb-2018\0\\#H
 F/6-31G* Geom=AllCheck Guess=Read Pop=(MK,ReadRadii) Integral=(Grid=Ul
 traFine) iop(6/33=2)\\Optimization for frag37-conf1\\0,1\C,0,1.9029055
 388,-4.4002443925,3.1649825142\C,0,0.3894599848,-2.1969506704,5.579687
 4436\C,0,2.5335256859,-2.4495970624,-1.3204500909\C,0,2.0826396384,-1.
 3554117946,-0.3412376373\C,0,2.7264450508,-3.795917091,-0.6063250699\C
 ,0,0.8189883381,-1.7801436546,0.4263298497\C,0,1.4643184088,-4.2074569
 338,0.1710340671\C,0,0.969021941,-3.1293028571,1.1674625501\C,0,3.0827
 606479,-6.2778233936,4.146141929\C,0,4.4265422794,-4.3834881644,3.3569
 687826\C,0,0.108291439,-2.0642453505,4.0484772227\C,0,1.8908342452,-3.
 0537445999,2.4060946597\N,0,3.0906158188,-4.9587674463,3.5117995005\N,
 0,1.4595984811,-1.9775333553,3.3842828723\O,0,-0.6019038,-2.260987375,
 6.3221039933\O,0,0.8165838168,-4.9380222766,3.4127348902\O,0,1.6264344
 271,-2.2308705002,5.871729019\H,0,1.7707579309,-2.5647240217,-2.104381
 5617\H,0,3.4604462245,-2.1497691003,-1.8246036249\H,0,2.9008733366,-1.
 1331558375,0.35911136\H,0,1.882201114,-0.4211539769,-0.8794850344\H,0,
 2.9729654134,-4.5792661558,-1.3334803136\H,0,3.5897834391,-3.729875620
 3,0.0712496916\H,0,0.4925836072,-0.980530187,1.1042084436\H,0,-0.00348
 10539,-1.9013890757,-0.2911189401\H,0,0.651240025,-4.3797223651,-0.546
 5279161\H,0,1.6223010345,-5.1621526796,0.6856752068\H,0,-0.0154015328,
 -3.4430143947,1.5289543082\H,0,3.8149438786,-6.921939978,3.6483120865\
 H,0,2.0887840409,-6.7111375897,4.0600651961\H,0,3.3535053073,-6.192620
 7511,5.2051555105\H,0,4.9704214538,-4.5003428727,4.2998024564\H,0,4.39
 65449476,-3.3214614785,3.1247488515\H,0,4.9826276664,-4.9055694261,2.5
 695938998\H,0,-0.4647099361,-1.1641683281,3.8234841062\H,0,-0.42174493
 21,-2.9434606954,3.6901961198\H,0,2.8887335698,-2.748729829,2.10032661
 66\H,0,1.5920401594,-1.0629876848,2.949028201\H,0,2.0575039735,-2.0105
 419694,4.2730058165\\Version=AM64L-G09RevC.01\State=1-A\HF=-800.681865
 7\RMSD=2.853e-09\Dipole=2.6308086,0.1594547,-4.7032297\Quadrupole=6.58
 20879,15.0335211,-21.615609,-3.6889659,15.4500689,-8.8689804\PG=C01 [X
 (C12H22N2O3)]\\@


 REPARTEE - WHAT YOU THINK OF AFTER YOU BECOME A DEPARTEE.
 Job cpu time:  0 days  0 hours  4 minutes 54.5 seconds.
 File lengths (MBytes):  RWF=     51 Int=      0 D2E=      0 Chk=     18 Scr=      1
 Normal termination of Gaussian 09 at Sun Feb 18 17:08:47 2018.
