 Entering Gaussian System, Link 0=g09
 Initial command:
 /home/fb_chem/chemsoft/lx24-amd64/Gaussian_09_C.01_NBO_3.1_64_istanbul-64/g09/l1.exe /local/2399803.1.parallel/Gau-12849.inp -scrdir=/local/2399803.1.parallel/
 Entering Link 1 = /home/fb_chem/chemsoft/lx24-amd64/Gaussian_09_C.01_NBO_3.1_64_istanbul-64/g09/l1.exe PID=     12850.
  
 Copyright (c) 1988,1990,1992,1993,1995,1998,2003,2009,2011,
            Gaussian, Inc.  All Rights Reserved.
  
 This is part of the Gaussian(R) 09 program.  It is based on
 the Gaussian(R) 03 system (copyright 2003, Gaussian, Inc.),
 the Gaussian(R) 98 system (copyright 1998, Gaussian, Inc.),
 the Gaussian(R) 94 system (copyright 1995, Gaussian, Inc.),
 the Gaussian 92(TM) system (copyright 1992, Gaussian, Inc.),
 the Gaussian 90(TM) system (copyright 1990, Gaussian, Inc.),
 the Gaussian 88(TM) system (copyright 1988, Gaussian, Inc.),
 the Gaussian 86(TM) system (copyright 1986, Carnegie Mellon
 University), and the Gaussian 82(TM) system (copyright 1983,
 Carnegie Mellon University). Gaussian is a federally registered
 trademark of Gaussian, Inc.
  
 This software contains proprietary and confidential information,
 including trade secrets, belonging to Gaussian, Inc.
  
 This software is provided under written license and may be
 used, copied, transmitted, or stored only in accord with that
 written license.
  
 The following legend is applicable only to US Government
 contracts under FAR:
  
                    RESTRICTED RIGHTS LEGEND
  
 Use, reproduction and disclosure by the US Government is
 subject to restrictions as set forth in subparagraphs (a)
 and (c) of the Commercial Computer Software - Restricted
 Rights clause in FAR 52.227-19.
  
 Gaussian, Inc.
 340 Quinnipiac St., Bldg. 40, Wallingford CT 06492
  
  
 ---------------------------------------------------------------
 Warning -- This program may not be used in any manner that
 competes with the business of Gaussian, Inc. or will provide
 assistance to any competitor of Gaussian, Inc.  The licensee
 of this program is prohibited from giving any competitor of
 Gaussian, Inc. access to this program.  By using this program,
 the user acknowledges that Gaussian, Inc. is engaged in the
 business of creating and licensing software in the field of
 computational chemistry and represents and warrants to the
 licensee that it is not a competitor of Gaussian, Inc. and that
 it will not use this program in any manner prohibited above.
 ---------------------------------------------------------------
  

 Cite this work as:
 Gaussian 09, Revision C.01,
 M. J. Frisch, G. W. Trucks, H. B. Schlegel, G. E. Scuseria, 
 M. A. Robb, J. R. Cheeseman, G. Scalmani, V. Barone, B. Mennucci, 
 G. A. Petersson, H. Nakatsuji, M. Caricato, X. Li, H. P. Hratchian, 
 A. F. Izmaylov, J. Bloino, G. Zheng, J. L. Sonnenberg, M. Hada, 
 M. Ehara, K. Toyota, R. Fukuda, J. Hasegawa, M. Ishida, T. Nakajima, 
 Y. Honda, O. Kitao, H. Nakai, T. Vreven, J. A. Montgomery, Jr., 
 J. E. Peralta, F. Ogliaro, M. Bearpark, J. J. Heyd, E. Brothers, 
 K. N. Kudin, V. N. Staroverov, T. Keith, R. Kobayashi, J. Normand, 
 K. Raghavachari, A. Rendell, J. C. Burant, S. S. Iyengar, J. Tomasi, 
 M. Cossi, N. Rega, J. M. Millam, M. Klene, J. E. Knox, J. B. Cross, 
 V. Bakken, C. Adamo, J. Jaramillo, R. Gomperts, R. E. Stratmann, 
 O. Yazyev, A. J. Austin, R. Cammi, C. Pomelli, J. W. Ochterski, 
 R. L. Martin, K. Morokuma, V. G. Zakrzewski, G. A. Voth, 
 P. Salvador, J. J. Dannenberg, S. Dapprich, A. D. Daniels, 
 O. Farkas, J. B. Foresman, J. V. Ortiz, J. Cioslowski, 
 and D. J. Fox, Gaussian, Inc., Wallingford CT, 2010.
 
 ******************************************
 Gaussian 09:  AM64L-G09RevC.01 23-Sep-2011
                17-Feb-2018 
 ******************************************
 %nprocs=12
 Will use up to   12 processors via shared memory.
 %chk=frag37-conf1.chk
 --------------------------------------------------------------
 #B3LYP/6-31G* Integral=(Grid=UltraFine) freq Opt pop=none SCRF
 --------------------------------------------------------------
 1/14=-1,18=20,19=15,26=3,38=1/1,3;
 2/9=110,12=2,17=6,18=5,40=1/2;
 3/5=1,6=6,7=1,11=2,16=1,25=1,30=1,70=2201,71=1,72=1,74=-5,75=-5/1,2,3;
 4//1;
 5/5=2,38=5/2;
 7//1,2,3,16;
 1/14=-1,18=20,19=15/3(2);
 2/9=110/2;
 99//99;
 2/9=110/2;
 3/5=1,6=6,7=1,11=2,16=1,25=1,30=1,70=2205,71=1,74=-5,75=-5/1,2,3;
 4/5=5,16=3/1;
 5/5=2,38=5/2;
 7//1,2,3,16;
 1/14=-1,18=20,19=15/3(-5);
 2/9=110/2;
 99/9=1/99;
 -----------------------------
 Optimization for frag37-conf1
 -----------------------------
 Charge =  0 Multiplicity = 1
 Symbolic Z-Matrix:
 C                     1.97302  -4.68062   2.97657 
 C                     0.25677  -1.51231   5.4222 
 C                     2.4457   -2.31733  -1.30503 
 C                     2.07003  -1.31765  -0.2159 
 C                     2.55551  -3.73979  -0.76579 
 C                     0.81405  -1.75439   0.5359 
 C                     1.30229  -4.15164   0.00643 
 C                     0.93912  -3.16814   1.14386 
 C                     3.2076   -6.44786   4.17054 
 C                     4.38465  -4.33771   3.68502 
 C                     0.28739  -2.25266   4.06199 
 C                     1.9438   -3.26187   2.32876 
 N                     3.14068  -5.09954   3.61914 
 N                     1.6379   -2.22654   3.37641 
 O                    -0.87368  -1.25932   5.92777 
 O                     0.9631   -5.39878   2.97191 
 O                     1.40265  -1.22667   5.89752 
 H                     1.68608  -2.29012  -2.0963 
 H                     3.3945   -2.02237  -1.76719 
 H                     2.90555  -1.19978   0.48347 
 H                     1.89998  -0.33435  -0.66944 
 H                     2.71302  -4.43304  -1.6002 
 H                     3.43815  -3.82315  -0.12151 
 H                     0.56385  -1.0092    1.29696 
 H                    -0.03032  -1.7519   -0.1667 
 H                     0.45943  -4.19863  -0.69608 
 H                     1.43108  -5.16963   0.38845 
 H                    -0.05415  -3.45783   1.51233 
 H                     3.97678  -7.00786   3.6302 
 H                     2.25854  -6.98212   4.08392 
 H                     3.47889  -6.3825    5.22838 
 H                     4.86342  -4.51167   4.65346 
 H                     4.22607  -3.26558   3.57529 
 H                     5.04283  -4.6877    2.88462 
 H                    -0.43163  -1.8048    3.37077 
 H                     0.02551  -3.29794   4.24466 
 H                     2.94251  -3.01467   1.963 
 H                     1.81755  -1.28054   3.02804 
 H                     2.31177  -2.31003   4.15166 
 

 GradGradGradGradGradGradGradGradGradGradGradGradGradGradGradGradGradGrad
 Berny optimization.
 Initialization pass.
                           ----------------------------
                           !    Initial Parameters    !
                           ! (Angstroms and Degrees)  !
 --------------------------                            --------------------------
 ! Name  Definition              Value          Derivative Info.                !
 --------------------------------------------------------------------------------
 ! R1    R(1,12)                 1.5599         estimate D2E/DX2                !
 ! R2    R(1,13)                 1.3971         estimate D2E/DX2                !
 ! R3    R(1,16)                 1.2392         estimate D2E/DX2                !
 ! R4    R(2,11)                 1.5489         estimate D2E/DX2                !
 ! R5    R(2,15)                 1.2639         estimate D2E/DX2                !
 ! R6    R(2,17)                 1.273          estimate D2E/DX2                !
 ! R7    R(3,4)                  1.5253         estimate D2E/DX2                !
 ! R8    R(3,5)                  1.5252         estimate D2E/DX2                !
 ! R9    R(3,18)                 1.0972         estimate D2E/DX2                !
 ! R10   R(3,19)                 1.0958         estimate D2E/DX2                !
 ! R11   R(4,6)                  1.5276         estimate D2E/DX2                !
 ! R12   R(4,20)                 1.0959         estimate D2E/DX2                !
 ! R13   R(4,21)                 1.0961         estimate D2E/DX2                !
 ! R14   R(5,7)                  1.5286         estimate D2E/DX2                !
 ! R15   R(5,22)                 1.0962         estimate D2E/DX2                !
 ! R16   R(5,23)                 1.0959         estimate D2E/DX2                !
 ! R17   R(6,8)                  1.544          estimate D2E/DX2                !
 ! R18   R(6,24)                 1.0941         estimate D2E/DX2                !
 ! R19   R(6,25)                 1.0985         estimate D2E/DX2                !
 ! R20   R(7,8)                  1.5469         estimate D2E/DX2                !
 ! R21   R(7,26)                 1.0982         estimate D2E/DX2                !
 ! R22   R(7,27)                 1.0949         estimate D2E/DX2                !
 ! R23   R(8,12)                 1.5563         estimate D2E/DX2                !
 ! R24   R(8,28)                 1.0983         estimate D2E/DX2                !
 ! R25   R(9,13)                 1.4582         estimate D2E/DX2                !
 ! R26   R(9,29)                 1.0942         estimate D2E/DX2                !
 ! R27   R(9,30)                 1.0925         estimate D2E/DX2                !
 ! R28   R(9,31)                 1.094          estimate D2E/DX2                !
 ! R29   R(10,13)                1.4602         estimate D2E/DX2                !
 ! R30   R(10,32)                1.0942         estimate D2E/DX2                !
 ! R31   R(10,33)                1.0893         estimate D2E/DX2                !
 ! R32   R(10,34)                1.0938         estimate D2E/DX2                !
 ! R33   R(11,14)                1.5148         estimate D2E/DX2                !
 ! R34   R(11,35)                1.0933         estimate D2E/DX2                !
 ! R35   R(11,36)                1.093          estimate D2E/DX2                !
 ! R36   R(12,14)                1.5043         estimate D2E/DX2                !
 ! R37   R(12,37)                1.0919         estimate D2E/DX2                !
 ! R38   R(14,38)                1.024          estimate D2E/DX2                !
 ! R39   R(14,39)                1.0306         estimate D2E/DX2                !
 ! A1    A(12,1,13)            118.6451         estimate D2E/DX2                !
 ! A2    A(12,1,16)            120.6803         estimate D2E/DX2                !
 ! A3    A(13,1,16)            120.6024         estimate D2E/DX2                !
 ! A4    A(11,2,15)            117.6851         estimate D2E/DX2                !
 ! A5    A(11,2,17)            114.6669         estimate D2E/DX2                !
 ! A6    A(15,2,17)            127.6477         estimate D2E/DX2                !
 ! A7    A(4,3,5)              112.1182         estimate D2E/DX2                !
 ! A8    A(4,3,18)             109.1573         estimate D2E/DX2                !
 ! A9    A(4,3,19)             109.7533         estimate D2E/DX2                !
 ! A10   A(5,3,18)             109.1439         estimate D2E/DX2                !
 ! A11   A(5,3,19)             109.7438         estimate D2E/DX2                !
 ! A12   A(18,3,19)            106.7749         estimate D2E/DX2                !
 ! A13   A(3,4,6)              111.5019         estimate D2E/DX2                !
 ! A14   A(3,4,20)             109.7779         estimate D2E/DX2                !
 ! A15   A(3,4,21)             109.3105         estimate D2E/DX2                !
 ! A16   A(6,4,20)             110.091          estimate D2E/DX2                !
 ! A17   A(6,4,21)             109.4244         estimate D2E/DX2                !
 ! A18   A(20,4,21)            106.6086         estimate D2E/DX2                !
 ! A19   A(3,5,7)              111.7694         estimate D2E/DX2                !
 ! A20   A(3,5,22)             109.3319         estimate D2E/DX2                !
 ! A21   A(3,5,23)             109.6798         estimate D2E/DX2                !
 ! A22   A(7,5,22)             109.3879         estimate D2E/DX2                !
 ! A23   A(7,5,23)             110.0482         estimate D2E/DX2                !
 ! A24   A(22,5,23)            106.4785         estimate D2E/DX2                !
 ! A25   A(4,6,8)              112.8907         estimate D2E/DX2                !
 ! A26   A(4,6,24)             109.6112         estimate D2E/DX2                !
 ! A27   A(4,6,25)             108.4565         estimate D2E/DX2                !
 ! A28   A(8,6,24)             111.6081         estimate D2E/DX2                !
 ! A29   A(8,6,25)             108.4327         estimate D2E/DX2                !
 ! A30   A(24,6,25)            105.5208         estimate D2E/DX2                !
 ! A31   A(5,7,8)              113.1193         estimate D2E/DX2                !
 ! A32   A(5,7,26)             108.5172         estimate D2E/DX2                !
 ! A33   A(5,7,27)             109.2892         estimate D2E/DX2                !
 ! A34   A(8,7,26)             108.5042         estimate D2E/DX2                !
 ! A35   A(8,7,27)             111.2342         estimate D2E/DX2                !
 ! A36   A(26,7,27)            105.8828         estimate D2E/DX2                !
 ! A37   A(6,8,7)              108.158          estimate D2E/DX2                !
 ! A38   A(6,8,12)             114.0303         estimate D2E/DX2                !
 ! A39   A(6,8,28)             107.4787         estimate D2E/DX2                !
 ! A40   A(7,8,12)             111.7138         estimate D2E/DX2                !
 ! A41   A(7,8,28)             106.9363         estimate D2E/DX2                !
 ! A42   A(12,8,28)            108.21           estimate D2E/DX2                !
 ! A43   A(13,9,29)            108.5872         estimate D2E/DX2                !
 ! A44   A(13,9,30)            112.4758         estimate D2E/DX2                !
 ! A45   A(13,9,31)            108.7694         estimate D2E/DX2                !
 ! A46   A(29,9,30)            108.7371         estimate D2E/DX2                !
 ! A47   A(29,9,31)            109.4975         estimate D2E/DX2                !
 ! A48   A(30,9,31)            108.7407         estimate D2E/DX2                !
 ! A49   A(13,10,32)           109.2523         estimate D2E/DX2                !
 ! A50   A(13,10,33)           112.6392         estimate D2E/DX2                !
 ! A51   A(13,10,34)           108.2212         estimate D2E/DX2                !
 ! A52   A(32,10,33)           108.0173         estimate D2E/DX2                !
 ! A53   A(32,10,34)           109.4808         estimate D2E/DX2                !
 ! A54   A(33,10,34)           109.1976         estimate D2E/DX2                !
 ! A55   A(2,11,14)            114.0055         estimate D2E/DX2                !
 ! A56   A(2,11,35)            110.2669         estimate D2E/DX2                !
 ! A57   A(2,11,36)            107.7947         estimate D2E/DX2                !
 ! A58   A(14,11,35)           107.0459         estimate D2E/DX2                !
 ! A59   A(14,11,36)           107.8035         estimate D2E/DX2                !
 ! A60   A(35,11,36)           109.8677         estimate D2E/DX2                !
 ! A61   A(1,12,8)             112.5222         estimate D2E/DX2                !
 ! A62   A(1,12,14)            109.9099         estimate D2E/DX2                !
 ! A63   A(1,12,37)            109.1398         estimate D2E/DX2                !
 ! A64   A(8,12,14)            110.9467         estimate D2E/DX2                !
 ! A65   A(8,12,37)            108.7702         estimate D2E/DX2                !
 ! A66   A(14,12,37)           105.2749         estimate D2E/DX2                !
 ! A67   A(1,13,9)             119.3095         estimate D2E/DX2                !
 ! A68   A(1,13,10)            125.1924         estimate D2E/DX2                !
 ! A69   A(9,13,10)            115.2295         estimate D2E/DX2                !
 ! A70   A(11,14,12)           118.987          estimate D2E/DX2                !
 ! A71   A(11,14,38)           109.0456         estimate D2E/DX2                !
 ! A72   A(11,14,39)           103.9523         estimate D2E/DX2                !
 ! A73   A(12,14,38)           111.2973         estimate D2E/DX2                !
 ! A74   A(12,14,39)           109.5822         estimate D2E/DX2                !
 ! A75   A(38,14,39)           102.4773         estimate D2E/DX2                !
 ! D1    D(13,1,12,8)          153.2865         estimate D2E/DX2                !
 ! D2    D(13,1,12,14)         -82.5327         estimate D2E/DX2                !
 ! D3    D(13,1,12,37)          32.4468         estimate D2E/DX2                !
 ! D4    D(16,1,12,8)          -29.784          estimate D2E/DX2                !
 ! D5    D(16,1,12,14)          94.3968         estimate D2E/DX2                !
 ! D6    D(16,1,12,37)        -150.6237         estimate D2E/DX2                !
 ! D7    D(12,1,13,9)         -176.9187         estimate D2E/DX2                !
 ! D8    D(12,1,13,10)          -3.1694         estimate D2E/DX2                !
 ! D9    D(16,1,13,9)            6.1493         estimate D2E/DX2                !
 ! D10   D(16,1,13,10)         179.8987         estimate D2E/DX2                !
 ! D11   D(15,2,11,14)         166.3168         estimate D2E/DX2                !
 ! D12   D(15,2,11,35)          45.8848         estimate D2E/DX2                !
 ! D13   D(15,2,11,36)         -74.049          estimate D2E/DX2                !
 ! D14   D(17,2,11,14)         -13.5088         estimate D2E/DX2                !
 ! D15   D(17,2,11,35)        -133.9408         estimate D2E/DX2                !
 ! D16   D(17,2,11,36)         106.1254         estimate D2E/DX2                !
 ! D17   D(5,3,4,6)            -52.9386         estimate D2E/DX2                !
 ! D18   D(5,3,4,20)            69.3382         estimate D2E/DX2                !
 ! D19   D(5,3,4,21)          -174.0555         estimate D2E/DX2                !
 ! D20   D(18,3,4,6)            68.1217         estimate D2E/DX2                !
 ! D21   D(18,3,4,20)         -169.6015         estimate D2E/DX2                !
 ! D22   D(18,3,4,21)          -52.9952         estimate D2E/DX2                !
 ! D23   D(19,3,4,6)          -175.1739         estimate D2E/DX2                !
 ! D24   D(19,3,4,20)          -52.8971         estimate D2E/DX2                !
 ! D25   D(19,3,4,21)           63.7092         estimate D2E/DX2                !
 ! D26   D(4,3,5,7)             52.3355         estimate D2E/DX2                !
 ! D27   D(4,3,5,22)           173.595          estimate D2E/DX2                !
 ! D28   D(4,3,5,23)           -69.9993         estimate D2E/DX2                !
 ! D29   D(18,3,5,7)           -68.7324         estimate D2E/DX2                !
 ! D30   D(18,3,5,22)           52.527          estimate D2E/DX2                !
 ! D31   D(18,3,5,23)          168.9328         estimate D2E/DX2                !
 ! D32   D(19,3,5,7)           174.5763         estimate D2E/DX2                !
 ! D33   D(19,3,5,22)          -64.1642         estimate D2E/DX2                !
 ! D34   D(19,3,5,23)           52.2415         estimate D2E/DX2                !
 ! D35   D(3,4,6,8)             55.8258         estimate D2E/DX2                !
 ! D36   D(3,4,6,24)          -179.0891         estimate D2E/DX2                !
 ! D37   D(3,4,6,25)           -64.3563         estimate D2E/DX2                !
 ! D38   D(20,4,6,8)           -66.2706         estimate D2E/DX2                !
 ! D39   D(20,4,6,24)           58.8146         estimate D2E/DX2                !
 ! D40   D(20,4,6,25)          173.5473         estimate D2E/DX2                !
 ! D41   D(21,4,6,8)           176.8763         estimate D2E/DX2                !
 ! D42   D(21,4,6,24)          -58.0386         estimate D2E/DX2                !
 ! D43   D(21,4,6,25)           56.6942         estimate D2E/DX2                !
 ! D44   D(3,5,7,8)            -54.5381         estimate D2E/DX2                !
 ! D45   D(3,5,7,26)            65.9209         estimate D2E/DX2                !
 ! D46   D(3,5,7,27)          -179.0551         estimate D2E/DX2                !
 ! D47   D(22,5,7,8)          -175.7651         estimate D2E/DX2                !
 ! D48   D(22,5,7,26)          -55.3061         estimate D2E/DX2                !
 ! D49   D(22,5,7,27)           59.7179         estimate D2E/DX2                !
 ! D50   D(23,5,7,8)            67.5856         estimate D2E/DX2                !
 ! D51   D(23,5,7,26)         -171.9554         estimate D2E/DX2                !
 ! D52   D(23,5,7,27)          -56.9314         estimate D2E/DX2                !
 ! D53   D(4,6,8,7)            -55.6157         estimate D2E/DX2                !
 ! D54   D(4,6,8,12)            69.3118         estimate D2E/DX2                !
 ! D55   D(4,6,8,28)          -170.7468         estimate D2E/DX2                !
 ! D56   D(24,6,8,7)          -179.6097         estimate D2E/DX2                !
 ! D57   D(24,6,8,12)          -54.6823         estimate D2E/DX2                !
 ! D58   D(24,6,8,28)           65.2592         estimate D2E/DX2                !
 ! D59   D(25,6,8,7)            64.58           estimate D2E/DX2                !
 ! D60   D(25,6,8,12)         -170.4925         estimate D2E/DX2                !
 ! D61   D(25,6,8,28)          -50.5511         estimate D2E/DX2                !
 ! D62   D(5,7,8,6)             54.973          estimate D2E/DX2                !
 ! D63   D(5,7,8,12)           -71.319          estimate D2E/DX2                !
 ! D64   D(5,7,8,28)           170.4593         estimate D2E/DX2                !
 ! D65   D(26,7,8,6)           -65.4935         estimate D2E/DX2                !
 ! D66   D(26,7,8,12)          168.2145         estimate D2E/DX2                !
 ! D67   D(26,7,8,28)           49.9929         estimate D2E/DX2                !
 ! D68   D(27,7,8,6)           178.4247         estimate D2E/DX2                !
 ! D69   D(27,7,8,12)           52.1328         estimate D2E/DX2                !
 ! D70   D(27,7,8,28)          -66.0889         estimate D2E/DX2                !
 ! D71   D(6,8,12,1)           176.212          estimate D2E/DX2                !
 ! D72   D(6,8,12,14)           52.606          estimate D2E/DX2                !
 ! D73   D(6,8,12,37)          -62.7367         estimate D2E/DX2                !
 ! D74   D(7,8,12,1)           -60.7752         estimate D2E/DX2                !
 ! D75   D(7,8,12,14)          175.6188         estimate D2E/DX2                !
 ! D76   D(7,8,12,37)           60.2761         estimate D2E/DX2                !
 ! D77   D(28,8,12,1)           56.6827         estimate D2E/DX2                !
 ! D78   D(28,8,12,14)         -66.9233         estimate D2E/DX2                !
 ! D79   D(28,8,12,37)         177.734          estimate D2E/DX2                !
 ! D80   D(29,9,13,1)          115.6548         estimate D2E/DX2                !
 ! D81   D(29,9,13,10)         -58.7004         estimate D2E/DX2                !
 ! D82   D(30,9,13,1)           -4.7358         estimate D2E/DX2                !
 ! D83   D(30,9,13,10)        -179.091          estimate D2E/DX2                !
 ! D84   D(31,9,13,1)         -125.2545         estimate D2E/DX2                !
 ! D85   D(31,9,13,10)          60.3903         estimate D2E/DX2                !
 ! D86   D(32,10,13,1)         144.7932         estimate D2E/DX2                !
 ! D87   D(32,10,13,9)         -41.2312         estimate D2E/DX2                !
 ! D88   D(33,10,13,1)          24.7508         estimate D2E/DX2                !
 ! D89   D(33,10,13,9)        -161.2736         estimate D2E/DX2                !
 ! D90   D(34,10,13,1)         -96.0718         estimate D2E/DX2                !
 ! D91   D(34,10,13,9)          77.9038         estimate D2E/DX2                !
 ! D92   D(2,11,14,12)         159.2783         estimate D2E/DX2                !
 ! D93   D(2,11,14,38)         -71.633          estimate D2E/DX2                !
 ! D94   D(2,11,14,39)          37.1074         estimate D2E/DX2                !
 ! D95   D(35,11,14,12)        -78.5026         estimate D2E/DX2                !
 ! D96   D(35,11,14,38)         50.5862         estimate D2E/DX2                !
 ! D97   D(35,11,14,39)        159.3266         estimate D2E/DX2                !
 ! D98   D(36,11,14,12)         39.649          estimate D2E/DX2                !
 ! D99   D(36,11,14,38)        168.7378         estimate D2E/DX2                !
 ! D100  D(36,11,14,39)        -82.5218         estimate D2E/DX2                !
 ! D101  D(1,12,14,11)         -64.6625         estimate D2E/DX2                !
 ! D102  D(1,12,14,38)         167.2862         estimate D2E/DX2                !
 ! D103  D(1,12,14,39)          54.6549         estimate D2E/DX2                !
 ! D104  D(8,12,14,11)          60.4276         estimate D2E/DX2                !
 ! D105  D(8,12,14,38)         -67.6237         estimate D2E/DX2                !
 ! D106  D(8,12,14,39)         179.745          estimate D2E/DX2                !
 ! D107  D(37,12,14,11)        177.9246         estimate D2E/DX2                !
 ! D108  D(37,12,14,38)         49.8733         estimate D2E/DX2                !
 ! D109  D(37,12,14,39)        -62.758          estimate D2E/DX2                !
 --------------------------------------------------------------------------------
 Trust Radius=3.00D-01 FncErr=1.00D-07 GrdErr=1.00D-06
 Number of steps in this run=    233 maximum allowed number of steps=    234.
 GradGradGradGradGradGradGradGradGradGradGradGradGradGradGradGradGradGrad

                          Input orientation:                          
 ---------------------------------------------------------------------
 Center     Atomic      Atomic             Coordinates (Angstroms)
 Number     Number       Type             X           Y           Z
 ---------------------------------------------------------------------
      1          6           0        1.973017   -4.680616    2.976573
      2          6           0        0.256770   -1.512311    5.422203
      3          6           0        2.445703   -2.317328   -1.305028
      4          6           0        2.070032   -1.317648   -0.215899
      5          6           0        2.555509   -3.739791   -0.765790
      6          6           0        0.814053   -1.754386    0.535897
      7          6           0        1.302290   -4.151638    0.006430
      8          6           0        0.939123   -3.168143    1.143861
      9          6           0        3.207599   -6.447862    4.170545
     10          6           0        4.384647   -4.337711    3.685017
     11          6           0        0.287390   -2.252658    4.061987
     12          6           0        1.943799   -3.261872    2.328763
     13          7           0        3.140676   -5.099543    3.619144
     14          7           0        1.637903   -2.226538    3.376412
     15          8           0       -0.873680   -1.259317    5.927771
     16          8           0        0.963102   -5.398783    2.971910
     17          8           0        1.402652   -1.226667    5.897525
     18          1           0        1.686081   -2.290116   -2.096297
     19          1           0        3.394501   -2.022367   -1.767187
     20          1           0        2.905546   -1.199777    0.483475
     21          1           0        1.899985   -0.334349   -0.669440
     22          1           0        2.713023   -4.433035   -1.600196
     23          1           0        3.438149   -3.823149   -0.121510
     24          1           0        0.563846   -1.009197    1.296957
     25          1           0       -0.030317   -1.751903   -0.166702
     26          1           0        0.459427   -4.198634   -0.696083
     27          1           0        1.431077   -5.169627    0.388454
     28          1           0       -0.054153   -3.457832    1.512332
     29          1           0        3.976776   -7.007861    3.630196
     30          1           0        2.258541   -6.982117    4.083919
     31          1           0        3.478886   -6.382504    5.228382
     32          1           0        4.863419   -4.511669    4.653463
     33          1           0        4.226067   -3.265580    3.575294
     34          1           0        5.042826   -4.687703    2.884621
     35          1           0       -0.431635   -1.804803    3.370775
     36          1           0        0.025512   -3.297942    4.244662
     37          1           0        2.942512   -3.014673    1.963004
     38          1           0        1.817552   -1.280541    3.028039
     39          1           0        2.311774   -2.310030    4.151658
 ---------------------------------------------------------------------
                    Distance matrix (angstroms):
                    1          2          3          4          5
     1  C    0.000000
     2  C    4.354855   0.000000
     3  C    4.913316   7.120050   0.000000
     4  C    4.637978   5.925707   1.525350   0.000000
     5  C    3.902529   6.966858   1.525200   2.530779   0.000000
     6  C    3.982828   4.923936   2.523528   1.527554   2.944298
     7  C    3.090540   6.114715   2.528243   2.944547   1.528561
     8  C    2.591398   4.638059   2.998454   2.559733   2.566369
     9  C    2.464329   5.885040   6.900992   6.845001   5.668004
    10  C    2.536816   5.295288   5.722063   5.449346   4.849014
    11  C    3.148721   1.548947   5.785097   4.727829   5.537451
    12  C    1.559918   3.934005   3.787943   3.204879   3.190432
    13  N    1.397077   4.943294   5.698349   5.491499   4.628066
    14  N    2.508918   2.569612   4.751491   3.730619   4.504417
    15  O    5.340275   1.263931   8.028142   6.812746   7.919333
    16  O    1.239239   4.648386   5.475918   5.295572   4.388441
    17  O    4.559280   1.273016   7.358958   6.150416   7.214197
    18  H    5.615232   7.692577   1.097211   2.151513   2.151211
    19  H    5.620513   7.860841   1.095815   2.158087   2.157834
    20  H    4.381939   5.612907   2.158499   1.095948   2.852167
    21  H    5.673516   6.418400   2.152669   1.096126   3.469298
    22  H    4.642814   7.992364   2.152859   3.469201   1.096190
    23  H    3.532702   6.796609   2.157118   2.856255   1.095947
    24  H    4.276236   4.167142   3.467408   2.156959   3.959519
    25  H    4.740347   5.601400   2.783194   2.145335   3.316187
    26  H    4.001458   6.685119   2.802752   3.335372   2.146847
    27  H    2.689088   6.331949   3.468855   3.951108   2.154311
    28  H    2.783635   4.378220   3.935422   3.475533   3.475582
    29  H    3.139800   6.873922   6.978662   7.127878   5.659062
    30  H    2.569950   5.976359   7.129939   7.114083   5.841279
    31  H    3.199173   5.842805   7.763927   7.568212   6.615637
    32  H    3.345882   5.550525   6.794417   6.458752   5.940585
    33  H    2.727091   4.715966   5.280759   4.776617   4.675537
    34  H    3.071194   6.279233   5.469633   5.459671   4.517830
    35  H    3.769356   2.183531   5.514063   4.399987   5.456956
    36  H    2.704184   2.151409   6.133351   5.291336   5.630342
    37  H    2.177753   4.629941   3.378334   2.896331   2.849892
    38  H    3.404017   2.867365   4.499441   3.253959   4.581007
    39  H    2.667443   2.544343   5.458334   4.485400   5.126881
                    6          7          8          9         10
     6  C    0.000000
     7  C    2.503104   0.000000
     8  C    1.544011   1.546900   0.000000
     9  C    6.400659   5.122762   5.006331   0.000000
    10  C    5.416610   4.802869   4.438130   2.464531   0.000000
    11  C    3.599855   4.591698   3.127032   5.112646   4.612708
    12  C    2.600617   2.568355   1.556326   3.891000   2.992423
    13  N    5.109761   4.162918   3.834601   1.458247   1.460203
    14  N    2.995026   3.895565   2.521745   4.573200   3.478059
    15  O    5.671493   6.939930   5.460372   6.831228   6.492801
    16  O    4.386115   3.234886   2.884111   2.752282   3.652583
    17  O    5.419593   6.578033   5.155726   5.788019   4.844180
    18  H    2.824161   2.834435   3.439113   7.673015   6.700633
    19  H    3.469109   3.472299   3.976918   7.407873   6.005641
    20  H    2.164413   3.392858   2.859614   6.420912   4.720619
    21  H    2.156059   3.922465   3.498814   7.906348   6.415742
    22  H    3.917160   2.156525   3.503787   6.132339   5.544086
    23  H    3.405561   2.164756   2.876687   5.036269   3.956044
    24  H    1.094131   3.476449   2.196661   6.695223   5.601817
    25  H    1.098460   2.750372   2.159427   7.165741   6.404222
    26  H    2.760052   1.098249   2.162733   6.024578   5.883938
    27  H    3.473663   1.094911   2.195130   4.369682   4.503664
    28  H    2.146843   2.142205   1.098311   5.161918   5.019731
    29  H    6.868515   5.333157   5.491141   1.094171   2.701678
    30  H    6.481062   5.054892   4.993115   1.092540   3.416479
    31  H    7.109164   6.081374   5.784965   1.094024   2.717270
    32  H    6.399556   5.865678   5.433458   2.593027   1.094245
    33  H    4.812845   4.697910   4.089665   3.393894   1.089336
    34  H    5.657152   4.750048   4.709532   2.849529   1.093767
    35  H    3.096904   4.453419   2.949037   5.953289   5.450775
    36  H    4.093812   4.507945   3.235197   4.478076   4.516236
    37  H    2.855747   2.794852   2.169819   4.090268   2.606821
    38  H    2.728059   4.199858   2.807989   5.471632   4.045725
    39  H    3.952926   4.646879   3.415753   4.233734   2.937014
                   11         12         13         14         15
    11  C    0.000000
    12  C    2.601206   0.000000
    13  N    4.054886   2.544529   0.000000
    14  N    1.514788   1.504346   3.251368   0.000000
    15  O    2.411629   4.990117   6.015990   3.708503   0.000000
    16  O    3.397493   2.437579   2.291349   3.268350   5.407962
    17  O    2.380266   4.143786   4.817770   2.722332   2.276767
    18  H    6.315235   4.537828   6.532610   5.473290   8.485315
    19  H    6.609572   4.518597   6.208542   5.439111   8.832439
    20  H    4.557308   2.929554   5.009579   3.321182   6.627704
    21  H    5.354136   4.190648   6.529804   4.474147   7.216091
    22  H    6.534375   4.171337   5.279075   5.548977   8.922287
    23  H    5.467667   2.924373   3.963606   4.245647   7.858683
    24  H    3.044341   2.836096   5.363164   2.638115   4.855252
    25  H    4.270071   3.522001   5.966114   3.944857   6.172236
    26  H    5.143506   3.497224   5.159643   4.675809   7.368324
    27  H    4.828207   2.768973   3.655817   4.199100   7.161457
    28  H    2.840746   2.167204   4.164229   2.802487   5.000119
    29  H    6.034068   4.456361   2.083475   5.328769   7.864575
    30  H    5.123837   4.125512   2.130319   4.847812   6.779457
    31  H    5.348061   4.527982   2.085670   4.908264   6.758773
    32  H    5.137414   3.935785   2.093623   4.154111   6.716841
    33  H    4.095859   2.600500   2.131529   2.796024   5.963778
    34  H    5.470815   3.456290   2.080220   4.229975   7.484626
    35  H    1.093318   2.975151   4.866045   2.112080   2.651638
    36  H    1.092964   2.711419   3.652572   2.121690   2.792381
    37  H    3.469304   1.091932   2.669973   2.078673   5.776155
    38  H    2.086973   2.104899   4.084708   1.023987   3.956213
    39  H    2.027181   2.089103   2.958382   1.030571   3.795483
                   16         17         18         19         20
    16  O    0.000000
    17  O    5.114584   0.000000
    18  H    5.989426   8.069228   0.000000
    19  H    6.306419   7.959171   1.760313   0.000000
    20  H    5.253289   5.618839   3.054694   2.445650   0.000000
    21  H    6.307588   6.645946   2.430370   2.507594   1.757649
    22  H    4.989894   8.259158   2.427515   2.510701   3.851325
    23  H    4.263535   6.863946   3.052820   2.439871   2.744404
    24  H    4.715224   4.681465   3.796622   4.292796   2.486289
    25  H    4.912994   6.253329   2.637997   3.789997   3.057264
    26  H    3.892072   7.293691   2.666030   3.807632   4.045738
    27  H    2.635481   6.774777   3.811902   4.290346   4.235894
    28  H    2.632958   5.131306   4.173029   4.970816   3.862277
    29  H    3.479181   6.722284   7.765122   7.370613   6.692027
    30  H    2.328448   6.094827   7.780594   7.754028   6.842314
    31  H    3.519735   5.598316   8.579784   8.243536   7.050072
    32  H    4.339016   4.931109   7.783960   7.041242   5.673685
    33  H    3.944814   4.185880   6.290469   5.547899   3.945968
    34  H    4.142149   5.857237   6.467279   5.608949   4.743321
    35  H    3.875703   3.175424   5.882952   6.409781   4.454137
    36  H    2.629164   2.986411   6.631814   7.008531   5.181064
    37  H    3.258824   4.587874   4.310629   3.886294   2.341841
    38  H    4.206323   2.899827   5.224494   5.102084   2.768585
    39  H    3.570869   2.246827   6.279237   6.023933   3.878246
                   21         22         23         24         25
    21  H    0.000000
    22  H    4.280954   0.000000
    23  H    3.851999   1.756212   0.000000
    24  H    2.471316   4.973442   4.265208   0.000000
    25  H    2.447094   4.095032   4.040094   1.745549   0.000000
    26  H    4.124150   2.439479   3.056781   3.762396   2.550802
    27  H    4.971813   2.478040   2.470102   4.345878   3.758286
    28  H    4.281930   4.277396   3.872864   2.534586   2.393725
    29  H    8.205833   5.965216   4.950537   7.285333   7.622226
    30  H    8.180207   6.246081   5.390379   6.805507   7.117709
    31  H    8.594033   7.142580   5.930709   7.268149   7.928676
    32  H    7.386829   6.613520   5.030490   6.482266   7.402632
    33  H    5.658669   5.517060   3.820741   4.867642   5.866051
    34  H    6.438982   5.060279   3.515575   6.009438   6.608046
    35  H    4.891015   6.442595   5.589723   2.434069   3.560562
    36  H    6.036964   6.532497   5.566453   3.770561   4.674772
    37  H    3.898815   3.841980   2.290085   3.181761   3.868843
    38  H    3.817515   5.671036   4.360143   2.154541   3.720641
    39  H    5.226459   6.144263   4.670997   3.591202   4.944201
                   26         27         28         29         30
    26  H    0.000000
    27  H    1.750186   0.000000
    28  H    2.385298   2.529675   0.000000
    29  H    6.243412   4.513156   5.773772   0.000000
    30  H    5.816614   4.198366   4.937833   1.777318   0.000000
    31  H    6.998979   5.393468   5.902973   1.786943   1.777237
    32  H    6.936194   5.513999   5.929569   2.839751   3.634953
    33  H    5.770860   4.646860   4.755318   3.750977   4.235859
    34  H    5.836795   4.416767   5.419867   2.659977   3.801959
    35  H    4.802474   4.866824   2.515712   6.824456   5.877942
    36  H    5.040882   4.511004   2.738164   5.454682   4.311079
    37  H    3.825992   3.067160   3.062596   4.449133   4.550462
    38  H    4.922281   4.716117   3.246728   6.150369   5.815266
    39  H    5.522554   4.807767   3.725734   5.011364   4.672880
                   31         32         33         34         35
    31  H    0.000000
    32  H    2.397391   0.000000
    33  H    3.606410   1.766750   0.000000
    34  H    3.288081   1.786611   1.779483   0.000000
    35  H    6.300652   6.083585   4.885681   6.206221   0.000000
    36  H    4.733710   5.004558   4.253676   5.380947   1.789449
    37  H    4.721512   3.628975   2.076041   2.838967   3.851035
    38  H    5.799273   4.728584   3.168724   4.693796   2.334772
    39  H    4.371101   3.407333   2.215804   3.836321   2.896778
                   36         37         38         39
    36  H    0.000000
    37  H    3.714175   0.000000
    38  H    2.959981   2.325306   0.000000
    39  H    2.492311   2.384231   1.602069   0.000000
 Stoichiometry    C12H22N2O3
 Framework group  C1[X(C12H22N2O3)]
 Deg. of freedom   111
 Full point group                 C1      NOp   1
 Largest Abelian subgroup         C1      NOp   1
 Largest concise Abelian subgroup C1      NOp   1
                         Standard orientation:                         
 ---------------------------------------------------------------------
 Center     Atomic      Atomic             Coordinates (Angstroms)
 Number     Number       Type             X           Y           Z
 ---------------------------------------------------------------------
      1          6           0        0.195578    1.453973   -0.534312
      2          6           0        3.280418   -1.569759    0.018470
      3          6           0       -3.802335   -1.158838    0.619196
      4          6           0       -2.555112   -1.963899    0.969915
      5          6           0       -3.458498    0.197754    0.012838
      6          6           0       -1.610731   -2.082187   -0.224895
      7          6           0       -2.492095    0.064202   -1.163907
      8          6           0       -1.202336   -0.711100   -0.805677
      9          6           0        0.902775    3.803722   -0.307433
     10          6           0        0.418572    2.535520    1.749537
     11          6           0        1.870455   -1.212263   -0.513919
     12          6           0       -0.270989    0.119220    0.124546
     13          7           0        0.529974    2.528474    0.293607
     14          7           0        0.925305   -0.688746    0.547779
     15          8           0        4.035577   -2.252000   -0.731066
     16          8           0        0.322437    1.541662   -1.763918
     17          8           0        3.534720   -1.130261    1.185836
     18          1           0       -4.409678   -1.728722   -0.095114
     19          1           0       -4.416833   -1.018614    1.515599
     20          1           0       -2.036867   -1.495714    1.814502
     21          1           0       -2.851647   -2.965938    1.300785
     22          1           0       -4.378801    0.687603   -0.325867
     23          1           0       -3.025866    0.847053    0.782475
     24          1           0       -0.736612   -2.677539    0.055451
     25          1           0       -2.116959   -2.656273   -1.012786
     26          1           0       -3.004023   -0.467682   -1.977036
     27          1           0       -2.260278    1.059736   -1.556338
     28          1           0       -0.669009   -0.897444   -1.747551
     29          1           0        0.155283    4.552505   -0.028527
     30          1           0        0.957616    3.751604   -1.397350
     31          1           0        1.881295    4.102723    0.079845
     32          1           0        1.240475    3.121896    2.171451
     33          1           0        0.463556    1.535152    2.178366
     34          1           0       -0.535232    2.999067    2.017322
     35          1           0        1.398361   -2.093230   -0.957055
     36          1           0        1.987078   -0.432855   -1.271212
     37          1           0       -0.807512    0.344444    1.048522
     38          1           0        0.653858   -1.460612    1.163481
     39          1           0        1.528754   -0.118541    1.158347
 ---------------------------------------------------------------------
 Rotational constants (GHZ):      0.5039981      0.3349414      0.2420280
 Standard basis: 6-31G(d) (6D, 7F)
 There are   299 symmetry adapted basis functions of A   symmetry.
 Integral buffers will be    131072 words long.
 Raffenetti 2 integral format.
 Two-electron integral symmetry is turned on.
   299 basis functions,   564 primitive gaussians,   299 cartesian basis functions
    66 alpha electrons       66 beta electrons
       nuclear repulsion energy      1329.1464976712 Hartrees.
 NAtoms=   39 NActive=   39 NUniq=   39 SFac= 1.00D+00 NAtFMM=   60 NAOKFM=F Big=F
 ------------------------------------------------------------------------------
 Polarizable Continuum Model (PCM)
 =================================
 Model                : PCM.
 Atomic radii         : UFF (Universal Force Field).
 Polarization charges : Total charges.
 Charge compensation  : None.
 Solution method      : Matrix inversion.
 Cavity type          : Scaled VdW (van der Waals Surface) (Alpha=1.100).
 Cavity algorithm     : GePol (No added spheres)
                        Default sphere list used, NSphG=   39.
                        Lebedev-Laikov grids with approx.  5.0 points / Ang**2.
                        Smoothing algorithm: Karplus/York (Gamma=1.0000).
                        Polarization charges: spherical gaussians, with
                                              point-specific exponents (IZeta= 3).
                        Self-potential: point-specific (ISelfS= 7).
                        Self-field    : sphere-specific E.n sum rule (ISelfD= 2).
 1st derivatives      : Analytical E(r).r(x)/FMM algorithm (CHGder, D1EAlg=3).
                        Cavity 1st derivative terms included.
 Solvent              : Water, Eps=  78.355300 Eps(inf)=   1.777849
 ------------------------------------------------------------------------------
 One-electron integrals computed using PRISM.
 PrsmSu:  requested number of processors reduced to:  10 ShMem   1 Linda.
 NBasis=   299 RedAO= T  NBF=   299
 NBsUse=   299 1.00D-06 NBFU=   299
 Harris functional with IExCor=  402 diagonalized for initial guess.
 ExpMin= 1.61D-01 ExpMax= 5.48D+03 ExpMxC= 8.25D+02 IAcc=3 IRadAn=         5 AccDes= 0.00D+00
 HarFok:  IExCor=  402 AccDes= 0.00D+00 IRadAn=         5 IDoV= 1
 ScaDFX=  1.000000  1.000000  1.000000  1.000000
 FoFCou: FMM=F IPFlag=           0 FMFlag=      100000 FMFlg1=           0
         NFxFlg=           0 DoJE=T BraDBF=F KetDBF=T FulRan=T
         Omega=  0.000000  0.000000  1.000000  0.000000  0.000000 ICntrl=     500 IOpCl=  0
         NMat0=    1 NMatS0=    1 NMatT0=    0 NMatD0=    1 NMtDS0=    0 NMtDT0=    0
         I1Cent=           4 NGrid=           0.
 Petite list used in FoFCou.
 Initial guess orbital symmetries:
       Occupied  (A) (A) (A) (A) (A) (A) (A) (A) (A) (A) (A) (A)
                 (A) (A) (A) (A) (A) (A) (A) (A) (A) (A) (A) (A)
                 (A) (A) (A) (A) (A) (A) (A) (A) (A) (A) (A) (A)
                 (A) (A) (A) (A) (A) (A) (A) (A) (A) (A) (A) (A)
                 (A) (A) (A) (A) (A) (A) (A) (A) (A) (A) (A) (A)
                 (A) (A) (A) (A) (A) (A)
       Virtual   (A) (A) (A) (A) (A) (A) (A) (A) (A) (A) (A) (A)
                 (A) (A) (A) (A) (A) (A) (A) (A) (A) (A) (A) (A)
                 (A) (A) (A) (A) (A) (A) (A) (A) (A) (A) (A) (A)
                 (A) (A) (A) (A) (A) (A) (A) (A) (A) (A) (A) (A)
                 (A) (A) (A) (A) (A) (A) (A) (A) (A) (A) (A) (A)
                 (A) (A) (A) (A) (A) (A) (A) (A) (A) (A) (A) (A)
                 (A) (A) (A) (A) (A) (A) (A) (A) (A) (A) (A) (A)
                 (A) (A) (A) (A) (A) (A) (A) (A) (A) (A) (A) (A)
                 (A) (A) (A) (A) (A) (A) (A) (A) (A) (A) (A) (A)
                 (A) (A) (A) (A) (A) (A) (A) (A) (A) (A) (A) (A)
                 (A) (A) (A) (A) (A) (A) (A) (A) (A) (A) (A) (A)
                 (A) (A) (A) (A) (A) (A) (A) (A) (A) (A) (A) (A)
                 (A) (A) (A) (A) (A) (A) (A) (A) (A) (A) (A) (A)
                 (A) (A) (A) (A) (A) (A) (A) (A) (A) (A) (A) (A)
                 (A) (A) (A) (A) (A) (A) (A) (A) (A) (A) (A) (A)
                 (A) (A) (A) (A) (A) (A) (A) (A) (A) (A) (A) (A)
                 (A) (A) (A) (A) (A) (A) (A) (A) (A) (A) (A) (A)
                 (A) (A) (A) (A) (A) (A) (A) (A) (A) (A) (A) (A)
                 (A) (A) (A) (A) (A) (A) (A) (A) (A) (A) (A) (A)
                 (A) (A) (A) (A) (A)
 The electronic state of the initial guess is 1-A.
 Requested convergence on RMS density matrix=1.00D-08 within 128 cycles.
 Requested convergence on MAX density matrix=1.00D-06.
 Requested convergence on             energy=1.00D-06.
 No special actions if energy rises.
 CoulSu:  requested number of processors reduced to:   6 ShMem   1 Linda.
 CoulSu:  requested number of processors reduced to:   6 ShMem   1 Linda.
 Error on total polarization charges =  0.00872
 SCF Done:  E(RB3LYP) =  -805.713538080     A.U. after   13 cycles
             Convg  =    0.8343D-08             -V/T =  2.0097
 PrsmSu:  requested number of processors reduced to:  10 ShMem   1 Linda.
 D1PCM: PCM CHGder 1st derivatives, ID1Alg=3 FixD1E=F DoIter=F DoCFld=F I1PDM=0.
 CoulSu:  requested number of processors reduced to:   9 ShMem   1 Linda.
 CoulSu:  requested number of processors reduced to:   8 ShMem   1 Linda.
 CoulSu:  requested number of processors reduced to:   8 ShMem   1 Linda.
 Calling FoFJK, ICntrl=      2127 FMM=F ISym2X=0 I1Cent= 0 IOpClX= 0 NMat=1 NMatS=1 NMatT=0.
 ***** Axes restored to original set *****
 -------------------------------------------------------------------
 Center     Atomic                   Forces (Hartrees/Bohr)
 Number     Number              X              Y              Z
 -------------------------------------------------------------------
      1        6           0.008131178   -0.016789879    0.021484738
      2        6           0.009134102    0.021544096    0.022863469
      3        6           0.003955880    0.001230292   -0.003830137
      4        6           0.000342578    0.004296816   -0.002274279
      5        6           0.001305408   -0.001522139   -0.002696517
      6        6           0.001920471    0.002441059    0.002643573
      7        6           0.002467578   -0.005820095    0.000799118
      8        6          -0.007779945   -0.005731212   -0.000933504
      9        6           0.000895533   -0.001873744    0.001216448
     10        6          -0.000198961   -0.005069294   -0.004201272
     11        6          -0.016584482   -0.002785288   -0.006262988
     12        6          -0.000977651   -0.005824118   -0.015014409
     13        7          -0.029723978    0.017458977   -0.014063295
     14        7           0.002879466    0.000829464    0.023180172
     15        8           0.017022730   -0.011723250   -0.017902699
     16        8           0.006281919    0.011444812   -0.005047349
     17        8          -0.008591933   -0.008469117   -0.010940554
     18        1          -0.001322416    0.000183581   -0.000973044
     19        1           0.000307349    0.000639267   -0.001623719
     20        1           0.002429246    0.000995698    0.000647289
     21        1           0.000507851    0.001352674    0.001572476
     22        1           0.000879617   -0.001574576    0.000735077
     23        1           0.002442312   -0.000490627    0.000518767
     24        1          -0.002408535    0.001854028    0.001424816
     25        1          -0.000482996   -0.002496120    0.002004529
     26        1          -0.001292551    0.001860861    0.001959127
     27        1          -0.001791139    0.000282605    0.002036044
     28        1           0.003619959   -0.001141535    0.002894423
     29        1           0.001951815   -0.002508345    0.001459589
     30        1           0.000645004    0.006441554   -0.002464296
     31        1           0.001588059   -0.001799765    0.000784235
     32        1          -0.000399076    0.000186473   -0.000769647
     33        1           0.000477693   -0.000804129    0.000345068
     34        1           0.006225511    0.002674156    0.000671711
     35        1          -0.000365609   -0.003458006    0.001622422
     36        1           0.000435254   -0.000363683   -0.004956953
     37        1          -0.000978450    0.001252978    0.001353228
     38        1          -0.002096030   -0.000238385   -0.004067917
     39        1          -0.000852761    0.003513918    0.005806263
 -------------------------------------------------------------------
 Cartesian Forces:  Max     0.029723978 RMS     0.007271612

 GradGradGradGradGradGradGradGradGradGradGradGradGradGradGradGradGradGrad
 Berny optimization.
 Internal  Forces:  Max     0.030867096 RMS     0.004660500
 Search for a local minimum.
 Step number   1 out of a maximum of  233
 All quantities printed in internal units (Hartrees-Bohrs-Radians)
 Mixed Optimization -- RFO/linear search
 Second derivative matrix not updated -- first step.
 ITU=  0
     Eigenvalues ---    0.00230   0.00230   0.00230   0.00230   0.00230
     Eigenvalues ---    0.00311   0.00473   0.00549   0.00652   0.00837
     Eigenvalues ---    0.00895   0.00921   0.01151   0.01730   0.01831
     Eigenvalues ---    0.02046   0.02746   0.03473   0.03721   0.03824
     Eigenvalues ---    0.03917   0.04053   0.04225   0.04342   0.04570
     Eigenvalues ---    0.04710   0.04768   0.04776   0.04923   0.05396
     Eigenvalues ---    0.05448   0.05481   0.05603   0.05984   0.06542
     Eigenvalues ---    0.07280   0.07318   0.07701   0.07728   0.08001
     Eigenvalues ---    0.08179   0.08223   0.08275   0.08371   0.08427
     Eigenvalues ---    0.08658   0.09270   0.09497   0.12141   0.12211
     Eigenvalues ---    0.12842   0.13040   0.14079   0.15137   0.16000
     Eigenvalues ---    0.16000   0.16000   0.16000   0.16000   0.16000
     Eigenvalues ---    0.16775   0.17271   0.18178   0.21086   0.21883
     Eigenvalues ---    0.22106   0.24848   0.24918   0.24971   0.25000
     Eigenvalues ---    0.25000   0.25000   0.26825   0.26981   0.27120
     Eigenvalues ---    0.27190   0.27741   0.28214   0.29283   0.29416
     Eigenvalues ---    0.29605   0.30874   0.31926   0.33853   0.33870
     Eigenvalues ---    0.33876   0.33992   0.34107   0.34114   0.34134
     Eigenvalues ---    0.34134   0.34149   0.34251   0.34327   0.34335
     Eigenvalues ---    0.34340   0.34352   0.34381   0.34432   0.34472
     Eigenvalues ---    0.34521   0.34590   0.34889   0.36939   0.37185
     Eigenvalues ---    0.42693   0.43708   0.46108   0.75281   0.78295
     Eigenvalues ---    0.87343
 RFO step:  Lambda=-1.86655059D-02 EMin= 2.30000000D-03
 Linear search not attempted -- first point.
 Iteration  1 RMS(Cart)=  0.07532981 RMS(Int)=  0.00229340
 Iteration  2 RMS(Cart)=  0.00360018 RMS(Int)=  0.00053547
 Iteration  3 RMS(Cart)=  0.00000851 RMS(Int)=  0.00053543
 Iteration  4 RMS(Cart)=  0.00000000 RMS(Int)=  0.00053543
 Variable       Old X    -DE/DX   Delta X   Delta X   Delta X     New X
                                 (Linear)    (Quad)   (Total)
    R1        2.94782  -0.00885   0.00000  -0.03085  -0.03085   2.91697
    R2        2.64009  -0.02772   0.00000  -0.05777  -0.05777   2.58232
    R3        2.34182  -0.01173   0.00000  -0.01315  -0.01315   2.32867
    R4        2.92709  -0.00496   0.00000  -0.01677  -0.01677   2.91032
    R5        2.38848  -0.02473   0.00000  -0.03085  -0.03085   2.35764
    R6        2.40565  -0.01373   0.00000  -0.01780  -0.01780   2.38786
    R7        2.88249   0.00685   0.00000   0.02086   0.02089   2.90339
    R8        2.88221   0.00710   0.00000   0.02195   0.02198   2.90419
    R9        2.07343   0.00162   0.00000   0.00452   0.00452   2.07795
   R10        2.07079   0.00113   0.00000   0.00312   0.00312   2.07391
   R11        2.88666   0.00730   0.00000   0.02350   0.02351   2.91017
   R12        2.07104   0.00237   0.00000   0.00659   0.00659   2.07763
   R13        2.07138   0.00049   0.00000   0.00135   0.00135   2.07273
   R14        2.88856   0.00697   0.00000   0.02187   0.02186   2.91042
   R15        2.07150   0.00056   0.00000   0.00156   0.00156   2.07305
   R16        2.07104   0.00231   0.00000   0.00642   0.00642   2.07746
   R17        2.91776   0.00231   0.00000   0.00808   0.00805   2.92581
   R18        2.06761   0.00280   0.00000   0.00775   0.00775   2.07535
   R19        2.07579  -0.00092   0.00000  -0.00256  -0.00256   2.07323
   R20        2.92322   0.00037   0.00000   0.00202   0.00199   2.92521
   R21        2.07539  -0.00034   0.00000  -0.00096  -0.00096   2.07443
   R22        2.06908   0.00024   0.00000   0.00065   0.00065   2.06973
   R23        2.94103  -0.00726   0.00000  -0.02505  -0.02505   2.91598
   R24        2.07551  -0.00200   0.00000  -0.00560  -0.00560   2.06990
   R25        2.75569   0.00036   0.00000   0.00093   0.00093   2.75662
   R26        2.06768   0.00194   0.00000   0.00536   0.00536   2.07304
   R27        2.06460  -0.00352   0.00000  -0.00967  -0.00967   2.05493
   R28        2.06741   0.00104   0.00000   0.00288   0.00288   2.07029
   R29        2.75938   0.00346   0.00000   0.00892   0.00892   2.76831
   R30        2.06782  -0.00088   0.00000  -0.00244  -0.00244   2.06538
   R31        2.05855  -0.00089   0.00000  -0.00243  -0.00243   2.05612
   R32        2.06692   0.00240   0.00000   0.00661   0.00661   2.07353
   R33        2.86253  -0.00786   0.00000  -0.02400  -0.02400   2.83853
   R34        2.06607  -0.00220   0.00000  -0.00606  -0.00606   2.06001
   R35        2.06540  -0.00058   0.00000  -0.00159  -0.00159   2.06381
   R36        2.84280   0.00549   0.00000   0.01624   0.01624   2.85904
   R37        2.06345  -0.00106   0.00000  -0.00292  -0.00292   2.06053
   R38        1.93506   0.00079   0.00000   0.00174   0.00174   1.93679
   R39        1.94750   0.00352   0.00000   0.00791   0.00791   1.95541
    A1        2.07075  -0.00373   0.00000  -0.01314  -0.01354   2.05720
    A2        2.10627  -0.00693   0.00000  -0.02516  -0.02556   2.08071
    A3        2.10491   0.01073   0.00000   0.04077   0.04036   2.14527
    A4        2.05399  -0.01146   0.00000  -0.04251  -0.04594   2.00805
    A5        2.00132  -0.00453   0.00000  -0.01675  -0.02018   1.98113
    A6        2.22787   0.01600   0.00000   0.05968   0.05621   2.28408
    A7        1.95683  -0.00077   0.00000  -0.00324  -0.00325   1.95358
    A8        1.90515   0.00000   0.00000  -0.00323  -0.00325   1.90191
    A9        1.91556   0.00035   0.00000   0.00420   0.00421   1.91977
   A10        1.90492   0.00001   0.00000  -0.00128  -0.00130   1.90362
   A11        1.91539   0.00085   0.00000   0.00731   0.00731   1.92270
   A12        1.86357  -0.00042   0.00000  -0.00390  -0.00389   1.85968
   A13        1.94608  -0.00101   0.00000   0.00006   0.00000   1.94607
   A14        1.91599  -0.00028   0.00000  -0.00504  -0.00502   1.91097
   A15        1.90783   0.00140   0.00000   0.01148   0.01151   1.91933
   A16        1.92145   0.00104   0.00000   0.00619   0.00620   1.92765
   A17        1.90982  -0.00023   0.00000  -0.00296  -0.00297   1.90685
   A18        1.86067  -0.00089   0.00000  -0.01009  -0.01008   1.85059
   A19        1.95074  -0.00043   0.00000   0.00207   0.00197   1.95272
   A20        1.90820   0.00129   0.00000   0.00979   0.00982   1.91802
   A21        1.91427  -0.00034   0.00000  -0.00262  -0.00259   1.91168
   A22        1.90918  -0.00067   0.00000  -0.00543  -0.00541   1.90377
   A23        1.92070   0.00087   0.00000   0.00497   0.00498   1.92568
   A24        1.85840  -0.00072   0.00000  -0.00927  -0.00928   1.84912
   A25        1.97032   0.00168   0.00000   0.01320   0.01298   1.98330
   A26        1.91308   0.00034   0.00000   0.01149   0.01136   1.92444
   A27        1.89292   0.00092   0.00000   0.00567   0.00580   1.89872
   A28        1.94793  -0.00016   0.00000   0.00423   0.00399   1.95191
   A29        1.89251  -0.00286   0.00000  -0.03002  -0.02998   1.86253
   A30        1.84168  -0.00005   0.00000  -0.00650  -0.00661   1.83507
   A31        1.97430   0.00139   0.00000   0.00945   0.00932   1.98362
   A32        1.89398   0.00062   0.00000   0.00480   0.00485   1.89884
   A33        1.90746   0.00162   0.00000   0.02011   0.02019   1.92764
   A34        1.89376  -0.00237   0.00000  -0.02560  -0.02562   1.86813
   A35        1.94140  -0.00187   0.00000  -0.01261  -0.01280   1.92860
   A36        1.84800   0.00058   0.00000   0.00338   0.00300   1.85101
   A37        1.88771   0.00147   0.00000   0.01275   0.01250   1.90021
   A38        1.99020  -0.00105   0.00000  -0.00951  -0.00941   1.98079
   A39        1.87586   0.00146   0.00000   0.02172   0.02148   1.89734
   A40        1.94977  -0.00112   0.00000  -0.01063  -0.01056   1.93921
   A41        1.86639   0.00078   0.00000   0.01123   0.01083   1.87722
   A42        1.88862  -0.00134   0.00000  -0.02303  -0.02294   1.86568
   A43        1.89521   0.00481   0.00000   0.02820   0.02813   1.92334
   A44        1.96307  -0.01002   0.00000  -0.05816  -0.05794   1.90513
   A45        1.89839   0.00364   0.00000   0.02105   0.02090   1.91928
   A46        1.89782   0.00207   0.00000   0.01007   0.01036   1.90819
   A47        1.91109  -0.00294   0.00000  -0.01209  -0.01251   1.89858
   A48        1.89788   0.00246   0.00000   0.01121   0.01134   1.90923
   A49        1.90681  -0.00185   0.00000  -0.01404  -0.01413   1.89268
   A50        1.96593  -0.00104   0.00000  -0.00662  -0.00689   1.95903
   A51        1.88882   0.00968   0.00000   0.05866   0.05850   1.94731
   A52        1.88526  -0.00048   0.00000  -0.01095  -0.01116   1.87410
   A53        1.91080  -0.00341   0.00000  -0.01748  -0.01745   1.89335
   A54        1.90586  -0.00311   0.00000  -0.01061  -0.01092   1.89494
   A55        1.98977  -0.03087   0.00000  -0.13292  -0.13247   1.85730
   A56        1.92452   0.00944   0.00000   0.04765   0.04821   1.97273
   A57        1.88137   0.01125   0.00000   0.04590   0.04309   1.92447
   A58        1.86830   0.01056   0.00000   0.04771   0.04909   1.91739
   A59        1.88153   0.00497   0.00000  -0.00071  -0.00069   1.88084
   A60        1.91755  -0.00537   0.00000  -0.00744  -0.00906   1.90849
   A61        1.96388  -0.00223   0.00000  -0.02070  -0.02076   1.94312
   A62        1.91829  -0.00512   0.00000  -0.03774  -0.03773   1.88056
   A63        1.90485   0.00317   0.00000   0.02635   0.02656   1.93140
   A64        1.93638   0.00541   0.00000   0.01742   0.01666   1.95304
   A65        1.89840  -0.00074   0.00000   0.01034   0.01025   1.90865
   A66        1.83739  -0.00030   0.00000   0.00729   0.00732   1.84471
   A67        2.08234  -0.00293   0.00000  -0.01133  -0.01134   2.07100
   A68        2.18502   0.00520   0.00000   0.01911   0.01906   2.20408
   A69        2.01113  -0.00231   0.00000  -0.00899  -0.00900   2.00213
   A70        2.07672  -0.00174   0.00000  -0.01045  -0.01062   2.06609
   A71        1.90320   0.00148   0.00000  -0.00329  -0.00366   1.89955
   A72        1.81431  -0.00299   0.00000  -0.01738  -0.01731   1.79700
   A73        1.94250  -0.00157   0.00000  -0.01729  -0.01750   1.92500
   A74        1.91257   0.00489   0.00000   0.04315   0.04325   1.95582
   A75        1.78857   0.00024   0.00000   0.00979   0.00983   1.79840
    D1        2.67535  -0.00244   0.00000  -0.06295  -0.06289   2.61246
    D2       -1.44047  -0.00084   0.00000  -0.08340  -0.08253  -1.52299
    D3        0.56630  -0.00225   0.00000  -0.08071  -0.08038   0.48593
    D4       -0.51983  -0.00080   0.00000  -0.00918  -0.00997  -0.52980
    D5        1.64753   0.00080   0.00000  -0.02963  -0.02960   1.61793
    D6       -2.62888  -0.00060   0.00000  -0.02694  -0.02745  -2.65633
    D7       -3.08781  -0.00039   0.00000  -0.00080  -0.00015  -3.08796
    D8       -0.05532  -0.00097   0.00000  -0.01542  -0.01485  -0.07017
    D9        0.10733  -0.00147   0.00000  -0.05243  -0.05300   0.05432
   D10        3.13982  -0.00205   0.00000  -0.06706  -0.06771   3.07212
   D11        2.90277   0.00290   0.00000   0.08664   0.08655   2.98932
   D12        0.80084   0.00361   0.00000   0.08166   0.08247   0.88331
   D13       -1.29240  -0.00224   0.00000   0.03488   0.03365  -1.25875
   D14       -0.23577   0.00001   0.00000  -0.05098  -0.05073  -0.28650
   D15       -2.33771   0.00072   0.00000  -0.05596  -0.05480  -2.39251
   D16        1.85224  -0.00513   0.00000  -0.10273  -0.10362   1.74861
   D17       -0.92395   0.00033   0.00000   0.00200   0.00202  -0.92193
   D18        1.21018   0.00077   0.00000   0.00640   0.00640   1.21658
   D19       -3.03784   0.00034   0.00000  -0.00203  -0.00203  -3.03988
   D20        1.18895  -0.00016   0.00000  -0.00393  -0.00391   1.18503
   D21       -2.96010   0.00028   0.00000   0.00047   0.00047  -2.95964
   D22       -0.92494  -0.00015   0.00000  -0.00796  -0.00797  -0.93291
   D23       -3.05736  -0.00047   0.00000  -0.00810  -0.00809  -3.06545
   D24       -0.92323  -0.00003   0.00000  -0.00370  -0.00371  -0.92693
   D25        1.11193  -0.00046   0.00000  -0.01213  -0.01214   1.09979
   D26        0.91343   0.00008   0.00000   0.00283   0.00279   0.91622
   D27        3.02980  -0.00017   0.00000   0.00400   0.00399   3.03379
   D28       -1.22172  -0.00049   0.00000  -0.00305  -0.00306  -1.22478
   D29       -1.19961   0.00058   0.00000   0.00988   0.00985  -1.18975
   D30        0.91677   0.00033   0.00000   0.01105   0.01105   0.92782
   D31        2.94843   0.00001   0.00000   0.00400   0.00400   2.95243
   D32        3.04693   0.00060   0.00000   0.01116   0.01114   3.05807
   D33       -1.11988   0.00035   0.00000   0.01233   0.01234  -1.10754
   D34        0.91179   0.00002   0.00000   0.00528   0.00528   0.91707
   D35        0.97434  -0.00132   0.00000  -0.01915  -0.01921   0.95514
   D36       -3.12569  -0.00004   0.00000   0.00485   0.00490  -3.12080
   D37       -1.12323   0.00058   0.00000   0.00634   0.00635  -1.11688
   D38       -1.15664  -0.00099   0.00000  -0.01708  -0.01713  -1.17377
   D39        1.02651   0.00029   0.00000   0.00692   0.00697   1.03348
   D40        3.02897   0.00091   0.00000   0.00842   0.00843   3.03740
   D41        3.08707  -0.00037   0.00000  -0.00669  -0.00675   3.08033
   D42       -1.01296   0.00091   0.00000   0.01731   0.01735  -0.99561
   D43        0.98950   0.00153   0.00000   0.01881   0.01881   1.00831
   D44       -0.95187   0.00081   0.00000   0.01204   0.01209  -0.93978
   D45        1.15054  -0.00087   0.00000  -0.01089  -0.01095   1.13959
   D46       -3.12510   0.00101   0.00000   0.00644   0.00640  -3.11870
   D47       -3.06768  -0.00008   0.00000   0.00205   0.00212  -3.06556
   D48       -0.96527  -0.00175   0.00000  -0.02089  -0.02092  -0.98620
   D49        1.04227   0.00013   0.00000  -0.00356  -0.00357   1.03870
   D50        1.17959   0.00069   0.00000   0.01359   0.01364   1.19323
   D51       -3.00119  -0.00098   0.00000  -0.00935  -0.00940  -3.01059
   D52       -0.99364   0.00090   0.00000   0.00798   0.00795  -0.98569
   D53       -0.97068   0.00191   0.00000   0.03258   0.03273  -0.93794
   D54        1.20972   0.00084   0.00000   0.02178   0.02185   1.23157
   D55       -2.98009  -0.00048   0.00000   0.00201   0.00195  -2.97814
   D56       -3.13478   0.00031   0.00000   0.00399   0.00412  -3.13066
   D57       -0.95439  -0.00076   0.00000  -0.00681  -0.00677  -0.96115
   D58        1.13899  -0.00208   0.00000  -0.02658  -0.02667   1.11232
   D59        1.12713   0.00218   0.00000   0.02754   0.02758   1.15472
   D60       -2.97566   0.00111   0.00000   0.01674   0.01670  -2.95896
   D61       -0.88228  -0.00021   0.00000  -0.00302  -0.00320  -0.88549
   D62        0.95946  -0.00201   0.00000  -0.03090  -0.03096   0.92850
   D63       -1.24475  -0.00096   0.00000  -0.02062  -0.02062  -1.26537
   D64        2.97508   0.00081   0.00000   0.00635   0.00641   2.98149
   D65       -1.14308  -0.00203   0.00000  -0.02527  -0.02523  -1.16831
   D66        2.93590  -0.00098   0.00000  -0.01499  -0.01489   2.92101
   D67        0.87254   0.00079   0.00000   0.01199   0.01214   0.88468
   D68        3.11410  -0.00027   0.00000  -0.00699  -0.00719   3.10691
   D69        0.90989   0.00078   0.00000   0.00329   0.00315   0.91304
   D70       -1.15347   0.00255   0.00000   0.03026   0.03018  -1.12329
   D71        3.07548  -0.00221   0.00000  -0.02934  -0.02935   3.04613
   D72        0.91815   0.00206   0.00000   0.02216   0.02233   0.94047
   D73       -1.09496  -0.00016   0.00000  -0.00238  -0.00241  -1.09737
   D74       -1.06073  -0.00194   0.00000  -0.02799  -0.02809  -1.08882
   D75        3.06513   0.00234   0.00000   0.02351   0.02358   3.08871
   D76        1.05202   0.00012   0.00000  -0.00103  -0.00115   1.05086
   D77        0.98930  -0.00247   0.00000  -0.03469  -0.03474   0.95456
   D78       -1.16803   0.00181   0.00000   0.01681   0.01694  -1.15110
   D79        3.10204  -0.00041   0.00000  -0.00774  -0.00780   3.09425
   D80        2.01856  -0.00056   0.00000  -0.00939  -0.00960   2.00896
   D81       -1.02452  -0.00051   0.00000   0.00206   0.00168  -1.02284
   D82       -0.08265  -0.00006   0.00000  -0.00431  -0.00416  -0.08682
   D83       -3.12573  -0.00001   0.00000   0.00713   0.00711  -3.11862
   D84       -2.18610   0.00076   0.00000   0.00440   0.00471  -2.18139
   D85        1.05401   0.00082   0.00000   0.01585   0.01599   1.07000
   D86        2.52712  -0.00097   0.00000  -0.01350  -0.01335   2.51376
   D87       -0.71962  -0.00158   0.00000  -0.02782  -0.02777  -0.74739
   D88        0.43198   0.00157   0.00000   0.01418   0.01426   0.44625
   D89       -2.81476   0.00095   0.00000  -0.00014  -0.00016  -2.81491
   D90       -1.67677  -0.00048   0.00000  -0.00835  -0.00843  -1.68519
   D91        1.35968  -0.00110   0.00000  -0.02266  -0.02284   1.33683
   D92        2.77993   0.00052   0.00000  -0.02443  -0.02349   2.75644
   D93       -1.25023  -0.00184   0.00000  -0.06216  -0.06121  -1.31144
   D94        0.64765  -0.00236   0.00000  -0.06020  -0.05924   0.58841
   D95       -1.37013   0.00026   0.00000  -0.01508  -0.01537  -1.38550
   D96        0.88290  -0.00211   0.00000  -0.05281  -0.05309   0.82980
   D97        2.78077  -0.00262   0.00000  -0.05085  -0.05112   2.72966
   D98        0.69201   0.00212   0.00000   0.00103   0.00035   0.69236
   D99        2.94503  -0.00025   0.00000  -0.03670  -0.03737   2.90766
   D100      -1.44028  -0.00076   0.00000  -0.03474  -0.03540  -1.47567
   D101      -1.12857   0.00153   0.00000   0.01746   0.01760  -1.11097
   D102       2.91970   0.00256   0.00000   0.04946   0.04941   2.96910
   D103       0.95391   0.00033   0.00000   0.02251   0.02256   0.97646
   D104       1.05466  -0.00118   0.00000  -0.02401  -0.02398   1.03068
   D105      -1.18026  -0.00016   0.00000   0.00798   0.00782  -1.17244
   D106       3.13714  -0.00238   0.00000  -0.01897  -0.01903   3.11811
   D107       3.10537   0.00052   0.00000   0.00125   0.00136   3.10673
   D108       0.87045   0.00154   0.00000   0.03324   0.03317   0.90362
   D109      -1.09533  -0.00068   0.00000   0.00629   0.00632  -1.08902
         Item               Value     Threshold  Converged?
 Maximum Force            0.030867     0.000450     NO 
 RMS     Force            0.004660     0.000300     NO 
 Maximum Displacement     0.319337     0.001800     NO 
 RMS     Displacement     0.075481     0.001200     NO 
 Predicted change in Energy=-1.082942D-02
 GradGradGradGradGradGradGradGradGradGradGradGradGradGradGradGradGradGrad

                          Input orientation:                          
 ---------------------------------------------------------------------
 Center     Atomic      Atomic             Coordinates (Angstroms)
 Number     Number       Type             X           Y           Z
 ---------------------------------------------------------------------
      1          6           0        1.936295   -4.623488    3.012546
      2          6           0        0.351897   -1.559723    5.405821
      3          6           0        2.471020   -2.319078   -1.312869
      4          6           0        2.065248   -1.302952   -0.234266
      5          6           0        2.621922   -3.736502   -0.738425
      6          6           0        0.814654   -1.766262    0.535765
      7          6           0        1.371452   -4.173587    0.047243
      8          6           0        0.955509   -3.177529    1.156755
      9          6           0        3.133892   -6.390430    4.174880
     10          6           0        4.378725   -4.346823    3.596227
     11          6           0        0.231916   -2.283764    4.051863
     12          6           0        1.935803   -3.230632    2.347244
     13          7           0        3.093614   -5.050012    3.600784
     14          7           0        1.588226   -2.211838    3.410371
     15          8           0       -0.727594   -1.374030    6.003101
     16          8           0        0.906080   -5.299369    2.993809
     17          8           0        1.545838   -1.395653    5.785646
     18          1           0        1.703481   -2.330355   -2.100193
     19          1           0        3.406375   -2.003761   -1.792577
     20          1           0        2.905771   -1.146357    0.456933
     21          1           0        1.865856   -0.327551   -0.694587
     22          1           0        2.802970   -4.451194   -1.550753
     23          1           0        3.511934   -3.779290   -0.094523
     24          1           0        0.530451   -1.016329    1.286058
     25          1           0       -0.032403   -1.810805   -0.160042
     26          1           0        0.525934   -4.251478   -0.648507
     27          1           0        1.513182   -5.176014    0.465142
     28          1           0       -0.022412   -3.494042    1.535269
     29          1           0        3.849099   -7.015974    3.626611
     30          1           0        2.143812   -6.835641    4.111535
     31          1           0        3.442935   -6.338650    5.224659
     32          1           0        4.867848   -4.514177    4.559189
     33          1           0        4.259779   -3.272157    3.474574
     34          1           0        5.038651   -4.717533    2.801830
     35          1           0       -0.513195   -1.836597    3.393692
     36          1           0       -0.008016   -3.337910    4.206594
     37          1           0        2.936677   -2.968218    2.003249
     38          1           0        1.736003   -1.262136    3.054475
     39          1           0        2.230750   -2.260380    4.220018
 ---------------------------------------------------------------------
                    Distance matrix (angstroms):
                    1          2          3          4          5
     1  C    0.000000
     2  C    4.198183   0.000000
     3  C    4.930056   7.085767   0.000000
     4  C    4.645899   5.900177   1.536407   0.000000
     5  C    3.914921   6.902401   1.536831   2.546808   0.000000
     6  C    3.944143   4.896350   2.542951   1.539997   2.961693
     7  C    3.051963   6.048647   2.549149   2.966673   1.540128
     8  C    2.548862   4.586524   3.022044   2.584666   2.584780
     9  C    2.430503   5.708804   6.865179   6.816524   5.607674
    10  C    2.526399   5.220910   5.643608   5.412024   4.716784
    11  C    3.075613   1.540075   5.813362   4.763822   5.547021
    12  C    1.543591   3.828262   3.809700   3.224423   3.201253
    13  N    1.366505   4.791377   5.655935   5.459451   4.558128
    14  N    2.468901   2.436305   4.806228   3.786424   4.539344
    15  O    5.157393   1.247608   8.040377   6.834455   7.889785
    16  O    1.232278   4.484404   5.466136   5.266450   4.395024
    17  O    4.273343   1.263599   7.217866   6.042990   7.014345
    18  H    5.608276   7.665566   1.099601   2.160582   2.162220
    19  H    5.666861   7.832237   1.097468   2.172116   2.174626
    20  H    4.422835   5.584320   2.167137   1.099435   2.866758
    21  H    5.674757   6.405099   2.171330   1.096841   3.492064
    22  H    4.648065   7.922265   2.170875   3.491246   1.097013
    23  H    3.584576   6.720572   2.167969   2.871355   1.099346
    24  H    4.238956   4.159279   3.495337   2.179252   3.983984
    25  H    4.674641   5.584761   2.802584   2.159529   3.329907
    26  H    3.940915   6.628025   2.821153   3.351849   2.160197
    27  H    2.640753   6.231890   3.498694   3.974237   2.179467
    28  H    2.700838   4.343140   3.963538   3.505775   3.495851
    29  H    3.124081   6.720616   6.954020   7.122297   5.595930
    30  H    2.478802   5.720266   7.066156   7.035823   5.775410
    31  H    3.178867   5.694338   7.735687   7.553552   6.557714
    32  H    3.316332   5.462545   6.711506   6.414339   5.806348
    33  H    2.727296   4.683341   5.198810   4.738062   4.543958
    34  H    3.110926   6.222395   5.410736   5.451456   4.397318
    35  H    3.729884   2.207647   5.593750   4.482770   5.523857
    36  H    2.618932   2.174772   6.135805   5.306667   5.615039
    37  H    2.181596   4.499160   3.410991   2.922153   2.864630
    38  H    3.367575   2.744656   4.553139   3.305433   4.614481
    39  H    2.670013   2.329622   5.538412   4.559025   5.188266
                    6          7          8          9         10
     6  C    0.000000
     7  C    2.518709   0.000000
     8  C    1.548271   1.547952   0.000000
     9  C    6.324947   5.005793   4.917028   0.000000
    10  C    5.359881   4.654996   4.363104   2.461864   0.000000
    11  C    3.601435   4.572412   3.115133   5.030040   4.654014
    12  C    2.585114   2.549051   1.543069   3.841873   2.962044
    13  N    5.036965   4.044949   3.748462   1.458742   1.464925
    14  N    3.010036   3.899497   2.532129   4.520418   3.518464
    15  O    5.694220   6.907659   5.438062   6.589214   6.380050
    16  O    4.305019   3.188448   2.807030   2.747451   3.650960
    17  O    5.313495   6.377820   4.995018   5.483090   4.639850
    18  H    2.838396   2.849426   3.447445   7.609653   6.608500
    19  H    3.492077   3.497714   4.010366   7.411319   5.956057
    20  H    2.182491   3.418494   2.901538   6.432376   4.718871
    21  H    2.165336   3.948005   3.518319   7.878967   6.393759
    22  H    3.939012   2.163308   3.516522   6.054173   5.383800
    23  H    3.424159   2.181108   2.909144   5.018841   3.833413
    24  H    1.098231   3.494313   2.206395   6.633563   5.589122
    25  H    1.097104   2.756178   2.139593   7.056198   6.324476
    26  H    2.768060   1.097741   2.144032   5.885713   5.733310
    27  H    3.481284   1.095257   2.187069   4.226542   4.324649
    28  H    2.164466   2.149153   1.095346   5.031785   4.934044
    29  H    6.805929   5.199016   5.404324   1.097007   2.721358
    30  H    6.344398   4.919505   4.850214   1.087421   3.384463
    31  H    7.056935   5.981988   5.720824   1.095548   2.737676
    32  H    6.337772   5.718255   5.354398   2.583529   1.092952
    33  H    4.772128   4.571827   4.037256   3.388462   1.088052
    34  H    5.629139   4.618655   4.663682   2.883046   1.097267
    35  H    3.152123   4.495791   2.993172   5.886331   5.502103
    36  H    4.076990   4.461108   3.202440   4.380692   4.542460
    37  H    2.846259   2.780072   2.164576   4.057881   2.552965
    38  H    2.728906   4.201534   2.806999   5.432200   4.097899
    39  H    3.977838   4.670203   3.442525   4.227885   3.058784
                   11         12         13         14         15
    11  C    0.000000
    12  C    2.589501   0.000000
    13  N    4.005611   2.494400   0.000000
    14  N    1.502086   1.512941   3.218335   0.000000
    15  O    2.357033   4.889371   5.821134   3.575918   0.000000
    16  O    3.266168   2.399594   2.283835   3.189310   5.208937
    17  O    2.349710   3.916864   4.530295   2.511948   2.283911
    18  H    6.325778   4.543586   6.467623   5.513044   8.513992
    19  H    6.656807   4.561350   6.202081   5.515400   8.846404
    20  H    4.622413   2.976291   5.015735   3.404991   6.634240
    21  H    5.387515   4.205414   6.500711   4.525296   7.258108
    22  H    6.534323   4.175659   5.194361   5.577013   8.887886
    23  H    5.494327   2.957607   3.930015   4.294396   7.806401
    24  H    3.056990   2.829181   5.310213   2.657224   4.895010
    25  H    4.246610   3.489445   5.865855   3.941461   6.217587
    26  H    5.104099   3.464734   5.028629   4.665092   7.354925
    27  H    4.782397   2.739604   3.513672   4.179276   7.081324
[...]
 0.00030745,0.00190936,-0.00185728,-0.00000846,-0.00001007,0.00000685,-
 0.00000049,0.00005984,0.00001971,-0.00000827,-0.00000626,0.00000093,-0
 .00001063,-0.00011146,-0.00006085,-0.00005111,-0.00000487,0.00000215,0
 .00028673,0.00000677,0.00004434,0.00003747,0.00009920,-0.00007836,-0.0
 0009021,-0.00007263,0.00007877,0.12347477,-0.24717503,0.04780139,-0.00
 053818,0.00025414,-0.00010463,0.00058925,-0.00009072,0.00017849,-0.006
 95493,0.00479860,-0.00012424,-0.00064162,0.00029294,0.00089551,0.00156
 881,-0.00109920,-0.00071267,-0.00019218,-0.00043041,0.00018893,0.00000
 011,0.00000093,-0.00000028,-0.00000094,0.00000616,0.00000088,-0.000007
 41,-0.00000763,0.00000436,0.00000200,0.00000054,-0.00000729,0.00000303
 ,0.00000087,-0.00000848,-0.00000791,0.00000146,0.00000594,-0.00002627,
 0.00010599,-0.00000609,-0.00000977,0.00002589,0.00001500,0.00000148,-0
 .00000651,-0.00002397,-0.00000235,0.00001882,0.00001724,-0.00003515,-0
 .00002928,0.00023283,0.00002851,-0.00002860,0.00001054,-0.00001542,0.0
 0003569,-0.00001523,0.00000363,-0.00002564,0.00002696,0.00005212,0.000
 01668,0.00000606,0.00000887,0.00000490,-0.00000716,0.00004411,0.000003
 88,-0.00001489,-0.12866289,0.25768315,-0.00018326,0.00044598,-0.000417
 70,-0.01516958,0.02762005,0.00054961,-0.00005862,-0.00005175,0.0000120
 3,0.00005267,0.00017085,0.00006337,0.00002831,-0.00001015,0.00003069,0
 .00006084,-0.00041238,-0.00024535,-0.00007411,0.00004500,-0.00003289,0
 .00009928,0.00015534,0.00035931,0.00003435,0.00007788,-0.00000445,-0.0
 0007216,0.00000705,0.00003142,-0.03355572,0.05877909,-0.05892651,0.002
 83704,0.00041268,0.00021656,0.00019516,-0.00017501,0.00016687,0.014166
 62,-0.01543584,0.00090069,0.00136131,-0.00378615,0.00009158,0.00020514
 ,-0.00046287,0.00006183,-0.00318205,-0.00364790,-0.00468564,0.00000096
 ,0.00000165,-0.00000723,-0.00001064,0.00002433,0.00001367,-0.00003287,
 -0.00001822,-0.00000997,-0.00000038,-0.00000560,-0.00001288,-0.0000115
 9,0.00000162,-0.00001582,-0.00003639,0.00000569,-0.00000171,0.00006212
 ,0.00022784,0.00008647,-0.00001959,0.00008665,0.00001965,0.00000354,-0
 .00002192,-0.00003454,-0.00000249,0.00003147,0.00001991,-0.00011171,-0
 .00009934,-0.00000242,0.00001385,-0.00001641,0.00000477,-0.00001232,0.
 00000913,-0.00000425,0.00000192,-0.00003339,0.00002210,0.00002180,-0.0
 0000925,0.00000735,-0.00003365,0.00000246,-0.00001057,0.00001864,-0.00
 000539,-0.00000990,0.02709215,-0.05370005,0.06102476,-0.00491062,-0.00
 067599,0.00079283,-0.00410605,-0.00492366,-0.00379728,0.00001362,-0.00
 001023,0.00002519,-0.00004535,0.00006966,-0.00004161,-0.00002324,-0.00
 008225,-0.00005541,0.00013042,-0.00018698,-0.00009248,0.00021422,0.000
 12246,0.00005140,-0.00006639,0.00021873,0.00028895,0.00007910,0.000265
 70,-0.00016386,-0.00023767,-0.00022365,0.00018276,-0.11132028,-0.10770
 932,-0.04161435,0.00137456,-0.00162251,-0.00121135,0.00147554,-0.00026
 331,0.00032766,-0.02078532,-0.02363692,-0.00691637,0.00081167,0.000972
 08,0.00143574,0.00289358,-0.00021361,-0.00101993,0.00103999,0.00122401
 ,-0.00096616,-0.00000692,0.00000194,-0.00000392,0.00000433,0.00001077,
 -0.00001084,0.00001067,-0.00000918,-0.00001308,0.00002620,0.00001769,-
 0.00002014,0.00002838,0.00000594,-0.00003846,-0.00001246,0.00000404,0.
 00001564,-0.00005428,0.00007748,0.00004206,-0.00002311,0.00005788,-0.0
 0000798,-0.00002453,0.00002386,-0.00001228,-0.00000788,0.00003396,0.00
 002818,0.00059891,0.00011914,0.00068147,0.00006910,-0.00006808,0.00002
 445,-0.00003605,0.00010083,-0.00003772,0.00001680,-0.00006985,0.000074
 44,0.00012849,0.00004337,0.00001438,0.00004364,0.00001208,-0.00003640,
 0.00011222,0.00002291,-0.00004198,0.01114791,0.01415664,0.00628826,0.1
 2708590,0.00316986,0.00137288,-0.00098104,0.00220905,0.00659620,-0.000
 07673,0.00000953,-0.00000038,0.00001290,-0.00002264,-0.00000323,-0.000
 01524,0.00000285,-0.00006410,-0.00003093,0.00001683,-0.00001157,0.0001
 5291,0.00009432,0.00007784,0.00001508,-0.00009767,-0.00030319,-0.00035
 674,-0.00001073,-0.00014879,0.00009578,0.00012346,0.00017870,-0.000079
 56,-0.11698882,-0.23898530,-0.07718079,0.00007446,-0.00020510,-0.00064
 775,-0.00095197,0.00001879,0.00007810,0.00070563,0.00194881,0.00207780
 ,0.00002842,-0.00019683,0.00022118,-0.00082078,-0.00341934,-0.00001032
 ,0.00147688,-0.00156650,0.00099585,-0.00000235,-0.00000036,0.00000051,
 0.00000468,-0.00000413,-0.00000618,0.00001058,0.00000385,0.00000718,0.
 00001144,0.00000810,-0.00000866,0.00001882,0.00000459,-0.00001485,0.00
 000835,0.00000221,0.00000409,-0.00000389,-0.00008670,-0.00000909,0.000
 00669,-0.00002941,-0.00000544,-0.00000583,0.00000971,0.00000139,0.0000
 2386,-0.00005354,-0.00001940,0.00039764,0.00055002,-0.00046364,-0.0000
 2991,0.00004100,-0.00001508,0.00000788,-0.00006615,0.00001309,-0.00002
 354,0.00003290,-0.00004409,-0.00007920,-0.00001289,-0.00001028,-0.0000
 0045,-0.00001958,0.00001515,-0.00008640,-0.00002460,0.00002277,-0.0124
 3542,-0.01786128,-0.00901514,0.12266352,0.25221244,-0.00022293,-0.0004
 6988,-0.00004232,-0.01496524,-0.02752408,-0.00727068,-0.00002591,-0.00
 000114,-0.00002958,0.00009810,-0.00004193,0.00003764,0.00004968,0.0001
 5559,0.00007727,-0.00023487,0.00011482,0.00001160,-0.00028902,-0.00038
 352,0.00004981,0.00107647,0.00030923,-0.00046545,0.00000487,0.00005782
 ,-0.00001836,-0.00005851,-0.00002029,0.00006829,-0.04997648,-0.0887974
 0,-0.07898484,-0.00074031,-0.00014173,0.00074745,0.00023529,0.00002364
 ,0.00013236,0.01385767,0.01727804,0.00369410,0.00110769,0.00388224,0.0
 0140838,0.00069216,-0.00081805,-0.00106422,-0.00223002,0.00424624,-0.0
 0306296,0.00001013,-0.00000100,0.00000470,-0.00001102,-0.00000472,0.00
 001916,-0.00002917,0.00000391,0.00001125,-0.00003796,-0.00002782,0.000
 02407,-0.00006243,-0.00001051,0.00004282,-0.00001049,-0.00001163,-0.00
 000422,0.00006669,0.00001975,-0.00002322,0.00002413,-0.00002149,0.0000
 0690,0.00002250,0.00001423,0.00001972,-0.00000293,0.00003428,-0.000004
 64,0.00006269,-0.00053811,-0.00173093,0.00001002,-0.00000590,-0.000001
 42,-0.00001541,0.00000163,-0.00000675,-0.00000614,-0.00001670,0.000008
 09,0.00003089,0.00002158,-0.00000357,0.00000231,0.00003404,0.00000695,
 0.00000399,-0.00000107,-0.00000562,0.00422347,0.00693620,0.00326376,0.
 04393386,0.08517161,0.08585555,0.00258708,-0.00119287,-0.00119359,-0.0
 0045616,0.00015984,-0.00059027,0.00016587,-0.00001967,-0.00003964,-0.0
 0033873,-0.00017011,-0.00028551,-0.00023178,-0.00001865,-0.00003394,0.
 00021852,-0.00034993,0.00063610,0.00012910,0.00032196,0.00049554,-0.01
 833722,-0.00611556,0.00295587,0.00010953,0.00016498,-0.00008174,-0.002
 93800,0.00193703,-0.00239343,0.00188273,0.00128118,0.00013966,-0.28358
 307,-0.07341630,0.07313255,-0.00019529,-0.00130165,0.00063295,-0.01054
 871,-0.00008168,0.00576190,-0.00009101,-0.00007584,0.00044379,0.001208
 14,0.00120720,-0.00016125,0.00012005,-0.00003956,0.00024968,-0.0000001
 6,0.00003086,0.00010394,-0.00002912,0.00000296,0.00002544,0.00066516,0
 .00016194,0.00047754,0.00027641,0.00004997,0.00016862,0.00020372,0.000
 07480,0.00007883,0.00045461,0.00017739,0.00068772,-0.00004842,0.000095
 93,-0.00006454,0.00013048,-0.00002411,-0.00001712,0.00006282,0.0000680
 6,-0.00006384,0.00001429,-0.00005975,-0.00005814,-0.00119936,-0.000030
 15,-0.00296096,0.00002561,-0.00003391,0.00000385,-0.00010657,-0.000015
 29,0.00000720,-0.00000080,-0.00001086,0.00004411,-0.00011625,0.0003287
 4,-0.00012123,-0.00324928,0.00323252,-0.00296634,-0.00002430,0.0000289
 5,0.00011784,-0.00019227,-0.00002722,0.00026774,0.00018101,-0.00006638
 ,-0.00029943,0.31352314,-0.02933659,-0.00032382,0.00369474,0.00141401,
 -0.00023682,0.00115013,-0.00002387,0.00022020,0.00005793,0.00024970,0.
 00022536,0.00045771,-0.00055417,0.00013090,-0.00035454,0.00049185,0.00
 001596,-0.00029672,-0.00059062,0.00025892,0.00024721,-0.00087044,0.000
 68082,0.00071702,0.00012980,0.00002429,-0.00013473,0.00033806,-0.00112
 333,0.00054187,-0.00184166,-0.00363962,-0.00196673,-0.07817372,-0.0756
 4281,0.02725973,0.00125254,-0.00023603,-0.00018689,0.03121644,0.001506
 84,-0.01586054,0.00011235,0.00018550,-0.00114411,-0.00130498,-0.008460
 73,0.00456000,-0.00044263,0.00005916,-0.00034822,0.00003499,-0.0001339
 8,-0.00000243,0.00001514,-0.00003158,-0.00001652,-0.00018227,-0.000456
 91,0.00047388,-0.00004900,-0.00003994,-0.00025758,0.00019789,-0.000038
 29,0.00018864,0.00059709,0.00002889,-0.00033367,0.00004131,0.00001742,
 0.00004156,-0.00013756,0.00002526,-0.00009223,0.00011839,-0.00004661,-
 0.00002955,-0.00001599,-0.00002708,0.00003929,-0.00017804,0.00035656,-
 0.00008462,0.00004225,-0.00005549,-0.00002106,-0.00006882,0.00027797,-
 0.00009199,0.00004614,0.00003253,0.00002385,0.00015942,0.00045558,-0.0
 0007769,0.00187181,0.00103709,0.00120523,0.00020030,0.00008446,-0.0000
 4172,0.00081138,0.00003340,-0.00058866,0.00005025,-0.00016483,0.000200
 17,0.07347415,0.08329109,0.01502729,0.00128892,-0.00292124,0.00081641,
 -0.00011554,0.00097320,0.00010936,0.00008048,-0.00023028,-0.00010879,0
 .00036837,-0.00057040,-0.00014406,-0.00020329,-0.00074492,0.00036587,-
 0.00006906,0.00096725,0.00027048,0.00022776,0.00124341,-0.02618085,-0.
 00790861,0.00894060,-0.00008270,0.00017663,0.00001851,-0.00062535,0.00
 181831,-0.00022767,-0.00198151,-0.00339927,-0.00063599,0.06518769,0.02
 209167,-0.06974706,-0.00070393,-0.00052081,0.00020638,0.02582726,0.000
 88571,-0.01262170,0.00011261,0.00014554,-0.00084419,0.00043575,0.00403
 456,-0.00085390,-0.00030977,-0.00003672,-0.00039555,-0.00000294,-0.000
 02297,0.00008071,-0.00003011,-0.00001012,0.00001864,0.00026431,0.00077
 105,-0.00080532,0.00018407,0.00001305,0.00021548,0.00022904,0.00002501
 ,0.00026512,0.00089101,-0.00049026,-0.00093392,-0.00002001,0.00014822,
 -0.00010331,0.00026344,-0.00012383,0.00004786,0.00016519,0.00021791,0.
 00010871,0.00007193,-0.00011796,-0.00010155,-0.00358362,-0.00015537,-0
 .00458258,0.00000435,-0.00001668,0.00001958,0.00001310,-0.00015935,0.0
 0005545,0.00000851,-0.00007671,0.00002466,0.00000817,-0.00046712,0.000
 07852,-0.00287653,0.00082278,-0.00059212,-0.00000106,-0.00032809,0.000
 07262,0.00063697,0.00004425,-0.00055947,-0.00016638,0.00011954,0.00013
 178,-0.07528239,-0.02016913,0.08317901,-0.00046124,0.00026715,0.002811
 73,-0.00506565,-0.00066677,-0.00130080,-0.00036714,-0.00007800,-0.0000
 6872,0.00066551,0.00055056,0.00044188,0.00009620,0.00002925,0.00002064
 ,0.00131853,-0.00105323,-0.00056352,0.00006323,0.00002589,-0.00021265,
 -0.00035680,-0.00088167,0.00001192,-0.00013121,-0.00021076,-0.00014083
 ,0.00024464,0.00012446,-0.00001467,-0.00488389,-0.02865210,0.01354255,
 0.00075426,0.00960196,-0.00387392,-0.00007561,0.00051128,-0.00037650,-
 0.05787520,-0.03980365,0.01994826,0.00055025,0.00047614,0.00178689,0.0
 0032387,0.00040944,-0.00064715,0.00180418,-0.00096580,-0.00246714,0.00
 004232,-0.00006720,-0.00005684,-0.00005095,0.00005560,0.00007173,-0.00
 077696,-0.00033901,0.00040460,-0.00010825,-0.00006751,-0.00006802,-0.0
 0004598,0.00000360,0.00002744,-0.00002347,-0.00000295,-0.00001928,-0.0
 0054694,0.00065000,-0.00085406,-0.00021822,0.00027472,0.00050182,0.000
 00531,0.00001044,0.00006157,-0.00005429,0.00006938,0.00002922,-0.00006
 446,-0.00008341,-0.00007194,-0.00002201,0.00003975,-0.00000294,0.00002
 925,-0.00001956,0.00000600,-0.00001149,0.00010807,-0.00006178,-0.00005
 646,-0.00002098,-0.00001418,-0.00006667,0.00005661,0.00001143,-0.00006
 406,-0.00001713,0.00002240,0.00135718,0.00007989,-0.00068975,-0.003461
 69,-0.00010008,0.00328928,-0.00042918,0.00107442,0.00060106,0.06323195
 ,0.00248004,-0.00136631,-0.00382556,0.00012776,0.00007909,0.00073660,-
 0.00004196,-0.00002492,-0.00004875,0.00014983,0.00015477,0.00006150,0.
 00003926,0.00006199,-0.00000269,0.00008465,0.00061642,0.00018219,0.000
 37317,-0.00021970,0.00015130,-0.00054941,0.00015326,0.00053795,0.00011
 703,0.00018210,0.00029786,-0.00010834,-0.00014730,-0.00005001,0.000270
 26,0.00238554,-0.00066841,-0.00074916,-0.02294681,0.00816241,-0.000347
 23,-0.00066899,0.00028067,-0.04192825,-0.34629523,0.13886897,0.0002812
 8,-0.00008391,-0.00079599,-0.00028138,0.00063305,0.00040617,0.00045685
 ,0.00008331,-0.00143895,0.00001279,0.00001552,0.00001512,-0.00003345,0
 .00000628,0.00004413,-0.00024613,-0.00013318,0.00033336,-0.00001613,-0
 .00003473,0.00010280,-0.00003160,0.00001285,0.00004938,0.00002466,-0.0
 0003214,-0.00001562,-0.00010601,0.00073874,0.00029086,0.00001297,0.000
 08591,0.00021609,-0.00005744,0.00015773,0.00012831,-0.00004345,0.00008
 736,-0.00000140,0.00004603,-0.00004226,-0.00000486,0.00001321,0.000007
 52,-0.00001595,-0.00001328,0.00000290,-0.00000351,0.00000130,-0.000113
 18,0.00002158,0.00002080,0.00004411,-0.00000954,0.00010804,-0.00001179
 ,-0.00004281,0.00002138,0.00003133,-0.00001109,0.00138655,0.00204616,-
 0.00087442,0.00032293,0.00042555,-0.00008197,0.00025077,0.00091391,0.0
 0043606,0.03728577,0.36169296,0.00157599,-0.00136966,-0.00471574,-0.00
 025198,0.00044715,-0.00087682,0.00003973,-0.00028114,0.00011246,0.0000
 0969,0.00039455,-0.00021903,0.00008128,-0.00005681,0.00007254,0.000891
 64,-0.00163457,-0.00151980,0.00014588,0.00015480,-0.00031029,-0.000432
 87,-0.00070869,0.00083854,0.00016978,0.00029280,0.00025379,-0.00023052
 ,-0.00017139,-0.00000056,0.00007716,0.00731327,-0.00453712,-0.00239361
 ,-0.02518913,0.01169676,0.00016822,-0.00089955,0.00071266,0.02091585,0
 .14000438,-0.12250036,0.00089804,-0.00002922,-0.00098645,-0.00062725,-
 0.00021077,0.00079358,0.00104889,-0.00125322,-0.00250616,-0.00001374,0
 .00012544,0.00009120,-0.00012602,0.00011021,0.00012603,0.00091990,0.00
 009660,-0.00040951,0.00005925,-0.00006795,0.00024548,-0.00004091,0.000
 07327,0.00001158,-0.00002698,-0.00002079,-0.00003069,-0.00206889,0.001
 44858,-0.00044612,-0.00016074,0.00073720,0.00080866,-0.00001184,0.0000
 4405,-0.00000709,-0.00008995,0.00026901,0.00013168,0.00001069,0.000091
 79,-0.00008814,0.00003195,-0.00002961,-0.00000235,-0.00003646,0.000024
 52,-0.00000747,0.00002014,-0.00015502,0.00007205,0.00006958,0.00002755
 ,0.00000864,-0.00000402,0.00006035,-0.00000946,0.00006472,0.00001550,-
 0.00002199,0.00015240,-0.00001862,0.00076060,-0.00020166,-0.00043665,-
 0.00034797,0.00038282,0.00052479,0.00068270,-0.02779376,-0.14578081,0.
 12923777,0.00180006,-0.00140550,0.00107988,-0.01166320,-0.00164774,0.0
 1128737,-0.00005621,-0.00001923,-0.00005443,0.00014266,0.00002968,-0.0
 0003893,0.00013072,0.00008769,-0.00001964,0.00009019,0.00021286,-0.000
 16283,0.00089459,-0.00021782,0.00058667,-0.00174079,0.00219731,0.00129
 655,-0.00016391,-0.00006229,-0.00014332,0.00042202,0.00053032,-0.00007
 376,-0.03983680,0.00017384,-0.01421966,0.00946079,-0.00264839,0.008774
 34,-0.00036160,0.00047647,-0.00053541,-0.12835254,0.00576969,-0.107857
 03,0.00041472,0.00033829,-0.00295514,-0.00038208,0.00044583,-0.0001183
 0,-0.00742012,0.00076631,-0.00784553,0.00001822,0.00001137,0.00001350,
 -0.00003990,-0.00000571,0.00005573,0.00002648,0.00001919,-0.00005879,-
 0.00003640,-0.00005190,0.00007635,-0.00007305,0.00000944,0.00006778,-0
 .00000259,-0.00003519,-0.00003422,-0.00017795,0.00016796,-0.00003990,0
 .00001641,0.00000893,0.00018554,-0.00010525,0.00028158,0.00036734,-0.0
 0003799,0.00002455,-0.00005121,0.00005038,0.00000641,0.00001483,-0.000
 01686,0.00002351,0.00000588,0.00001319,-0.00006676,0.00003401,-0.00000
 802,0.00006383,-0.00002597,-0.00005037,-0.00003472,0.00001683,-0.00115
 490,0.00051113,0.00058539,-0.00006559,-0.00022274,0.00007221,-0.002394
 75,-0.00094809,0.00044519,-0.00236440,0.00066130,0.00041638,0.00015737
 ,-0.00016932,0.00060617,0.00473112,0.00066590,0.00677761,0.17813634,-0
 .00122471,-0.00057788,-0.00193470,-0.00453627,0.00086591,0.00005710,-0
 .00000513,-0.00006130,0.00006243,-0.00001898,0.00011888,-0.00001969,-0
 .00013190,-0.00010721,0.00001624,0.00053097,-0.00056880,0.00031978,-0.
 00143255,0.00047015,-0.00098848,0.00361202,-0.00413813,-0.00224225,-0.
 00005788,-0.00035160,0.00021283,0.00050404,-0.00022891,-0.00020880,-0.
 00152306,0.00234905,-0.00296430,-0.01665848,0.00048288,-0.02062991,0.0
 0023587,0.00019858,0.00036466,0.00082409,-0.06716018,0.00194281,0.0020
 6949,0.00225567,-0.00045732,-0.00014599,-0.00011167,0.00041397,0.00281
 936,-0.01172274,-0.00310228,-0.00000871,0.00000035,-0.00000048,-0.0000
 0326,0.00004038,-0.00000842,0.00001324,-0.00001328,-0.00000390,0.00002
 882,0.00002085,-0.00001737,0.00007691,0.00001629,-0.00004458,0.0000415
 4,0.00003535,0.00001957,-0.00015623,0.00041076,0.00026158,-0.00009227,
 0.00014123,0.00007931,0.00016383,-0.00038153,-0.00045254,0.00002053,-0
 .00001716,0.00006500,0.00002462,0.00008851,0.00035649,-0.00002498,0.00
 011992,-0.00004445,0.00002082,0.00002123,-0.00001079,-0.00001527,0.000
 07021,-0.00009303,-0.00007771,-0.00000096,-0.00006027,0.00052337,-0.00
 018766,-0.00046827,-0.00011534,0.00008908,-0.00001074,0.00024381,-0.00
 015612,0.00026509,-0.00090231,-0.00025577,0.00041390,0.00000028,0.0007
 9577,0.00067509,0.02132544,0.00150209,0.02605781,-0.00594799,0.0759477
 5,-0.00091620,-0.00327457,0.00431092,0.04488070,-0.00069687,0.00797230
 ,-0.00010537,-0.00005710,-0.00011130,0.00023142,0.00004487,-0.00007867
 ,0.00007054,0.00020311,-0.00000941,0.00051280,0.00019405,-0.00006029,0
 .00061013,-0.00049662,0.00025364,-0.00062309,0.00062608,0.00041859,-0.
 00032635,-0.00059009,-0.00005644,0.00060971,-0.00039362,-0.00009359,-0
 .00986865,-0.00034670,0.01345004,-0.00087230,-0.00805976,-0.01551328,-
 0.00032489,0.00135330,-0.00105833,-0.09293574,0.00728495,-0.16600453,-
 0.01580417,0.00067113,0.00046350,0.00064575,0.00139965,-0.00136737,-0.
 02729858,-0.00442236,0.01083187,0.00004847,0.00001672,0.00005061,-0.00
 009666,0.00000515,0.00012524,0.00010038,0.00007865,-0.00014018,-0.0000
 5321,-0.00011207,0.00019376,-0.00011148,0.00002978,0.00018546,0.000135
 09,-0.00006574,-0.00006087,-0.00037724,0.00047262,-0.00016214,0.000021
 82,-0.00006761,0.00052185,-0.00003265,0.00029176,0.00048058,-0.0000950
 2,0.00005985,-0.00007124,0.00023080,-0.00015578,0.00007599,-0.00006776
 ,0.00017733,-0.00005002,0.00007664,-0.00003477,0.00001185,-0.00006660,
 0.00028864,-0.00017518,-0.00019182,0.00014538,-0.00008702,0.00088869,-
 0.00038835,-0.00054243,-0.00019025,0.00010660,0.00003928,0.00205643,0.
 00004608,-0.00272570,0.00226239,0.00042270,-0.00255489,-0.00020027,0.0
 0071562,0.00014098,-0.00429198,0.00234904,-0.00711362,0.10146853,0.002
 17893,0.15851004\\0.00002007,0.00000221,-0.00001172,0.00000707,-0.0000
 0541,0.00001061,-0.00000321,0.00000241,0.00000081,-0.00001080,0.000003
 28,-0.00000160,-0.00000104,0.00000295,-0.00000126,-0.00000331,-0.00000
 867,0.00000080,0.00000087,-0.00000294,0.00000107,-0.00000509,0.0000035
 2,-0.00000409,0.00001166,-0.00000182,0.00000189,0.00001069,0.00001059,
 -0.00000270,-0.00000710,-0.00000844,-0.00000721,0.00000249,-0.00000328
 ,0.00000493,-0.00000018,0.00000366,-0.00000467,-0.00000758,0.00000179,
 0.00000514,-0.00000135,-0.00000846,0.00000011,-0.00000503,-0.00000620,
 0.00000487,-0.00000838,-0.00000348,0.00000084,-0.00000638,0.00000065,0
 .00000037,-0.00000696,0.00000466,-0.00000204,-0.00000758,0.00000279,0.
 00000014,-0.00001057,0.00000033,0.00000107,0.00000299,0.00000397,-0.00
 000073,-0.00000012,0.00000641,-0.00000093,-0.00001137,-0.00000423,0.00
 000253,-0.00000701,-0.00000762,0.00000279,0.00000214,-0.00000507,0.000
 00156,0.00000615,-0.00000246,-0.00000020,0.00000022,-0.00000616,0.0000
 0505,0.00001308,0.00000671,-0.00000256,0.00001368,0.00000104,-0.000000
 66,0.00001103,0.00000392,-0.00000234,0.00000620,0.00001091,-0.00000276
 ,-0.00000063,0.00000971,-0.00000282,0.00000466,0.00001086,-0.00000054,
 -0.00000476,-0.00000874,0.00000422,0.00000091,-0.00000960,0.00000196,0
 .00000017,0.00000176,0.00000425,-0.00000449,-0.00000348,-0.00000321,-0
 .00000114,0.00000193,-0.00000296\\\@


 Life may have no meaning.  Or even worse, it may have a
 meaning of which I disapprove.
                                 -- Ashleigh Brilliant
 Job cpu time:  0 days  7 hours 47 minutes 56.8 seconds.
 File lengths (MBytes):  RWF=    528 Int=      0 D2E=      0 Chk=     18 Scr=      1
 Normal termination of Gaussian 09 at Sat Feb 17 21:12:30 2018.
