 Entering Gaussian System, Link 0=g09
 Initial command:
 /home/fb_chem/chemsoft/lx24-amd64/Gaussian_09_C.01_NBO_3.1_64_istanbul-64/g09/l1.exe /local/2400027.1.parallel/Gau-21529.inp -scrdir=/local/2400027.1.parallel/
 Entering Link 1 = /home/fb_chem/chemsoft/lx24-amd64/Gaussian_09_C.01_NBO_3.1_64_istanbul-64/g09/l1.exe PID=     21531.
  
 Copyright (c) 1988,1990,1992,1993,1995,1998,2003,2009,2011,
            Gaussian, Inc.  All Rights Reserved.
  
 This is part of the Gaussian(R) 09 program.  It is based on
 the Gaussian(R) 03 system (copyright 2003, Gaussian, Inc.),
 the Gaussian(R) 98 system (copyright 1998, Gaussian, Inc.),
 the Gaussian(R) 94 system (copyright 1995, Gaussian, Inc.),
 the Gaussian 92(TM) system (copyright 1992, Gaussian, Inc.),
 the Gaussian 90(TM) system (copyright 1990, Gaussian, Inc.),
 the Gaussian 88(TM) system (copyright 1988, Gaussian, Inc.),
 the Gaussian 86(TM) system (copyright 1986, Carnegie Mellon
 University), and the Gaussian 82(TM) system (copyright 1983,
 Carnegie Mellon University). Gaussian is a federally registered
 trademark of Gaussian, Inc.
  
 This software contains proprietary and confidential information,
 including trade secrets, belonging to Gaussian, Inc.
  
 This software is provided under written license and may be
 used, copied, transmitted, or stored only in accord with that
 written license.
  
 The following legend is applicable only to US Government
 contracts under FAR:
  
                    RESTRICTED RIGHTS LEGEND
  
 Use, reproduction and disclosure by the US Government is
 subject to restrictions as set forth in subparagraphs (a)
 and (c) of the Commercial Computer Software - Restricted
 Rights clause in FAR 52.227-19.
  
 Gaussian, Inc.
 340 Quinnipiac St., Bldg. 40, Wallingford CT 06492
  
  
 ---------------------------------------------------------------
 Warning -- This program may not be used in any manner that
 competes with the business of Gaussian, Inc. or will provide
 assistance to any competitor of Gaussian, Inc.  The licensee
 of this program is prohibited from giving any competitor of
 Gaussian, Inc. access to this program.  By using this program,
 the user acknowledges that Gaussian, Inc. is engaged in the
 business of creating and licensing software in the field of
 computational chemistry and represents and warrants to the
 licensee that it is not a competitor of Gaussian, Inc. and that
 it will not use this program in any manner prohibited above.
 ---------------------------------------------------------------
  

 Cite this work as:
 Gaussian 09, Revision C.01,
 M. J. Frisch, G. W. Trucks, H. B. Schlegel, G. E. Scuseria, 
 M. A. Robb, J. R. Cheeseman, G. Scalmani, V. Barone, B. Mennucci, 
 G. A. Petersson, H. Nakatsuji, M. Caricato, X. Li, H. P. Hratchian, 
 A. F. Izmaylov, J. Bloino, G. Zheng, J. L. Sonnenberg, M. Hada, 
 M. Ehara, K. Toyota, R. Fukuda, J. Hasegawa, M. Ishida, T. Nakajima, 
 Y. Honda, O. Kitao, H. Nakai, T. Vreven, J. A. Montgomery, Jr., 
 J. E. Peralta, F. Ogliaro, M. Bearpark, J. J. Heyd, E. Brothers, 
 K. N. Kudin, V. N. Staroverov, T. Keith, R. Kobayashi, J. Normand, 
 K. Raghavachari, A. Rendell, J. C. Burant, S. S. Iyengar, J. Tomasi, 
 M. Cossi, N. Rega, J. M. Millam, M. Klene, J. E. Knox, J. B. Cross, 
 V. Bakken, C. Adamo, J. Jaramillo, R. Gomperts, R. E. Stratmann, 
 O. Yazyev, A. J. Austin, R. Cammi, C. Pomelli, J. W. Ochterski, 
 R. L. Martin, K. Morokuma, V. G. Zakrzewski, G. A. Voth, 
 P. Salvador, J. J. Dannenberg, S. Dapprich, A. D. Daniels, 
 O. Farkas, J. B. Foresman, J. V. Ortiz, J. Cioslowski, 
 and D. J. Fox, Gaussian, Inc., Wallingford CT, 2010.
 
 ******************************************
 Gaussian 09:  AM64L-G09RevC.01 23-Sep-2011
                17-Feb-2018 
 ******************************************
 %nprocs=2
 Will use up to    2 processors via shared memory.
 %chk=frag24-conf0.chk
 ----------------------------------------------------------------------
 #HF/6-31G* Geom=AllCheck Guess=Read Pop=(MK,ReadRadii) Integral=(Grid=
 UltraFine) iop(6/33=2)
 ----------------------------------------------------------------------
 1/29=7,38=1/1;
 2/12=2,40=1/2;
 3/5=1,6=6,7=1,11=9,14=-4,16=1,25=1,30=1,75=-5,116=-2/1,2,3;
 4/5=1/1;
 5/5=2,38=6/2;
 6/7=2,8=2,9=2,10=2,15=8,20=101,28=1,33=2/1,2;
 99/5=1,9=1/99;
 Structure from the checkpoint file:  frag24-conf0.chk
 -----------------------------
 Optimization for frag24-conf0
 -----------------------------
 Charge =  0 Multiplicity = 1
 Redundant internal coordinates found in file.
 C,0,-0.3589941064,-2.6818246444,2.1792325058
 C,0,0.5560381952,-0.3615257388,2.4639303553
 C,0,-0.787498844,-4.4922107146,3.7440289111
 C,0,-1.8567066003,-2.325141877,4.1744997544
 C,0,-1.4702024265,-0.3248997428,-2.0074042319
 C,0,-0.5157974668,-1.2090163872,1.7495126383
 N,0,-0.3970362563,-1.2408472042,0.2831727243
 N,0,-1.0022739,-3.1179979588,3.3042180747
 O,0,0.3844724457,-3.4097037506,1.521016787
 O,0,0.8146283863,0.6113881063,-1.073293499
 O,0,-1.3259237827,1.1139669216,0.2239729418
 S,0,-0.5046780261,0.1991083241,-0.5792020311
 H,0,1.5558250949,-0.7332720812,2.2173611245
 H,0,0.4765735125,0.6833002244,2.1546147338
 H,0,0.4312626916,-0.4089249501,3.5520300411
 H,0,-0.3044486572,-4.5082829392,4.7298037354
 H,0,-0.1505203797,-4.9940655151,3.0179165068
 H,0,-1.7478626477,-5.0173291214,3.8202770181
 H,0,-2.8463459666,-2.7925384803,4.2601182459
 H,0,-1.9892370602,-1.3125582806,3.7994808883
 H,0,-1.4233818021,-2.2634293674,5.1819162699
 H,0,-1.5804085585,0.5480984238,-2.6549878003
 H,0,-0.9300647611,-1.1156947964,-2.5317305258
 H,0,-2.4426568368,-0.6790696405,-1.6639411379
 H,0,-1.507279111,-0.8125252674,1.9704742156
 H,0,0.3937836105,-1.8178550364,-0.005360166
 Recover connectivity data from disk.
                          Input orientation:                          
 ---------------------------------------------------------------------
 Center     Atomic      Atomic             Coordinates (Angstroms)
 Number     Number       Type             X           Y           Z
 ---------------------------------------------------------------------
      1          6           0       -0.358994   -2.681825    2.179233
      2          6           0        0.556038   -0.361526    2.463930
      3          6           0       -0.787499   -4.492211    3.744029
      4          6           0       -1.856707   -2.325142    4.174500
      5          6           0       -1.470202   -0.324900   -2.007404
      6          6           0       -0.515797   -1.209016    1.749513
      7          7           0       -0.397036   -1.240847    0.283173
      8          7           0       -1.002274   -3.117998    3.304218
      9          8           0        0.384472   -3.409704    1.521017
     10          8           0        0.814628    0.611388   -1.073293
     11          8           0       -1.325924    1.113967    0.223973
     12         16           0       -0.504678    0.199108   -0.579202
     13          1           0        1.555825   -0.733272    2.217361
     14          1           0        0.476574    0.683300    2.154615
     15          1           0        0.431263   -0.408925    3.552030
     16          1           0       -0.304449   -4.508283    4.729804
     17          1           0       -0.150520   -4.994066    3.017917
     18          1           0       -1.747863   -5.017329    3.820277
     19          1           0       -2.846346   -2.792538    4.260118
     20          1           0       -1.989237   -1.312558    3.799481
     21          1           0       -1.423382   -2.263429    5.181916
     22          1           0       -1.580409    0.548098   -2.654988
     23          1           0       -0.930065   -1.115695   -2.531731
     24          1           0       -2.442657   -0.679070   -1.663941
     25          1           0       -1.507279   -0.812525    1.970474
     26          1           0        0.393784   -1.817855   -0.005360
 ---------------------------------------------------------------------
                    Distance matrix (angstroms):
                    1          2          3          4          5
     1  C    0.000000
     2  C    2.510403   0.000000
     3  C    2.430988   4.528389   0.000000
     4  C    2.520210   3.550095   2.454526   0.000000
     5  C    4.931309   4.909157   7.135233   6.508939   0.000000
     6  C    1.542210   1.541903   3.851140   2.987363   3.975799
     7  N    2.381786   2.537176   4.764594   4.295202   2.690239
     8  N    1.367351   3.276058   1.458774   1.454670   6.019442
     9  O    1.231178   3.195295   2.736260   3.638699   5.040396
    10  O    4.775098   3.677687   7.198620   6.580165   2.640009
    11  O    4.377902   3.276625   6.641530   5.264586   2.658984
    12  S    3.991235   3.271098   6.385827   5.549550   1.801828
    13  H    2.732187   1.094790   4.685243   4.243797   5.212701
    14  H    3.467397   1.092544   5.559679   4.309856   4.704126
    15  H    2.770406   1.096256   4.265614   3.048632   5.876218
    16  H    3.137569   4.803146   1.097883   2.735685   8.015588
    17  H    2.468463   4.718745   1.088503   3.372226   6.985450
    18  H    3.174360   5.368812   1.097206   2.717571   7.487180
    19  H    3.244882   4.551080   2.719207   1.097805   6.874944
    20  H    2.675404   3.027637   3.399623   1.087901   5.913102
    21  H    3.213112   3.863003   2.727514   1.098393   7.446235
    22  H    5.940870   5.620956   8.184182   7.414429   1.092536
    23  H    4.997205   5.266299   7.127857   6.877133   1.091798
    24  H    4.808603   5.111979   6.820977   6.094283   1.090445
    25  H    2.203728   2.168912   4.147730   2.695893   4.007826
    26  H    2.466893   2.871344   4.754527   4.774230   3.116334
                    6          7          8          9         10
     6  C    0.000000
     7  N    1.471486   0.000000
     8  N    2.509577   3.607870   0.000000
     9  O    2.388665   2.616668   2.277710   0.000000
    10  O    3.612775   2.595941   6.030925   4.804650   0.000000
    11  O    2.894793   2.532091   5.244253   5.007132   2.552930
    12  S    2.721369   1.681888   5.131447   4.269079   1.467880
    13  H    2.176427   2.795064   3.662246   3.003373   3.631238
    14  H    2.174803   2.822735   4.237741   4.142778   3.246359
    15  H    2.187724   3.473270   3.074982   3.623793   4.752013
    16  H    4.451063   5.518807   2.110011   3.460896   7.819163
    17  H    4.008600   4.650402   2.080164   2.244355   7.006470
    18  H    4.506584   5.347677   2.104680   3.523905   7.886435
    19  H    3.773876   4.921683   2.102444   4.280392   7.309906
    20  H    2.526681   3.860657   2.116363   3.901784   5.941983
    21  H    3.703632   5.108498   2.105557   4.240810   7.238848
    22  H    4.860090   3.637786   7.020444   6.079800   2.870882
    23  H    4.302252   2.867658   6.170310   4.838930   2.855487
    24  H    3.955414   2.879481   5.718888   5.058950   3.553034
    25  H    1.090443   2.064724   2.710924   3.244391   4.084520
    26  H    2.068236   1.020581   3.820034   2.205424   2.686785
                   11         12         13         14         15
    11  O    0.000000
    12  S    1.468503   0.000000
    13  H    3.961107   3.596633   0.000000
    14  H    2.676163   2.944665   1.781965   0.000000
    15  H    4.059910   4.279342   1.775157   1.774198   0.000000
    16  H    7.277061   7.098251   4.901397   5.847575   4.328182
    17  H    6.818780   6.327222   4.659063   5.776765   4.652662
    18  H    7.120690   6.936292   5.642414   6.341902   5.104697
    19  H    5.819187   6.152429   5.271864   5.249418   4.114088
    20  H    4.371758   4.864352   3.925066   3.573410   2.595497
    21  H    5.999792   6.332345   4.472767   4.632235   3.087948
    22  H    2.945061   2.363869   5.934447   5.232756   6.594679
    23  H    3.566791   2.392076   5.373990   5.213142   6.274144
    24  H    2.833071   2.388225   5.572728   4.995931   5.961438
    25  H    2.606632   2.920524   3.074059   2.491400   2.534197
    26  H    3.406694   2.281374   2.732609   3.305771   3.826423
                   16         17         18         19         20
    16  H    0.000000
    17  H    1.786123   0.000000
    18  H    1.780396   1.787687   0.000000
    19  H    3.102519   3.695573   2.519885   0.000000
    20  H    3.730505   4.188701   3.712684   1.771204   0.000000
    21  H    2.548683   3.709373   3.089225   1.776090   1.770727
    22  H    9.040476   8.058660   8.539970   7.783389   6.729736
    23  H    8.039336   6.815279   7.499303   7.253492   6.422215
    24  H    7.753372   6.767043   7.027082   6.302713   5.518684
    25  H    4.766479   4.519204   4.600003   3.309988   1.956421
    26  H    5.490693   4.418686   5.427595   5.444516   4.517845
                   21         22         23         24         25
    21  H    0.000000
    22  H    8.327449   0.000000
    23  H    7.814154   1.790628   0.000000
    24  H    7.100344   1.797662   1.797675   0.000000
    25  H    3.524985   4.821985   4.549169   3.755225   0.000000
    26  H    5.514387   4.063951   2.937371   3.477516   2.920385
                   26
    26  H    0.000000
 Stoichiometry    C6H14N2O3S
 Framework group  C1[X(C6H14N2O3S)]
 Deg. of freedom    72
 Full point group                 C1      NOp   1
 Largest Abelian subgroup         C1      NOp   1
 Largest concise Abelian subgroup C1      NOp   1
                         Standard orientation:                         
 ---------------------------------------------------------------------
 Center     Atomic      Atomic             Coordinates (Angstroms)
 Number     Number       Type             X           Y           Z
 ---------------------------------------------------------------------
      1          6           0        1.640682    0.479867    0.204540
      2          6           0        0.335368   -1.314354    1.378869
      3          6           0        4.019784    0.822584   -0.158947
      4          6           0        3.032995   -1.288879   -0.928798
      5          6           0       -3.020579    1.075338   -1.290741
      6          6           0        0.382451   -0.408929    0.131691
      7          7           0       -0.733228    0.544225    0.022017
      8          7           0        2.819612    0.005474   -0.300162
      9          8           0        1.555434    1.573871    0.762831
     10          8           0       -3.021440    0.176321    1.191479
     11          8           0       -2.224163   -1.383372   -0.665711
     12         16           0       -2.306516   -0.042922   -0.071647
     13          1           0        0.326812   -0.703522    2.287371
     14          1           0       -0.562420   -1.936596    1.357751
     15          1           0        1.210398   -1.973623    1.417139
     16          1           0        4.762742    0.308167    0.464541
     17          1           0        3.744463    1.767094    0.306819
     18          1           0        4.464884    1.010812   -1.143993
     19          1           0        3.450242   -1.155732   -1.935453
     20          1           0        2.108003   -1.854947   -1.015314
     21          1           0        3.745925   -1.884887   -0.343160
     22          1           0       -4.068032    0.788838   -1.410718
     23          1           0       -2.951568    2.099313   -0.918267
     24          1           0       -2.477629    0.965074   -2.229952
     25          1           0        0.355104   -1.021408   -0.770078
     26          1           0       -0.632209    1.301959    0.698196
 ---------------------------------------------------------------------
 Rotational constants (GHZ):      1.7366935      0.4069881      0.3900879
 Standard basis: 6-31G(d) (6D, 7F)
 There are   212 symmetry adapted basis functions of A   symmetry.
 Integral buffers will be    131072 words long.
 Raffenetti 1 integral format.
 Two-electron integral symmetry is turned on.
   212 basis functions,   416 primitive gaussians,   212 cartesian basis functions
    52 alpha electrons       52 beta electrons
       nuclear repulsion energy       912.0158500682 Hartrees.
 NAtoms=   26 NActive=   26 NUniq=   26 SFac= 1.00D+00 NAtFMM=   60 NAOKFM=F Big=F
 One-electron integrals computed using PRISM.
 NBasis=   212 RedAO= T  NBF=   212
 NBsUse=   212 1.00D-06 NBFU=   212
 Initial guess read from the checkpoint file:  frag24-conf0.chk
 B after Tr=     0.000000    0.000000    0.000000
         Rot=    1.000000    0.000000    0.000000    0.000000 Ang=   0.00 deg.
 Initial guess orbital symmetries:
       Occupied  (A) (A) (A) (A) (A) (A) (A) (A) (A) (A) (A) (A)
                 (A) (A) (A) (A) (A) (A) (A) (A) (A) (A) (A) (A)
                 (A) (A) (A) (A) (A) (A) (A) (A) (A) (A) (A) (A)
                 (A) (A) (A) (A) (A) (A) (A) (A) (A) (A) (A) (A)
                 (A) (A) (A) (A)
       Virtual   (A) (A) (A) (A) (A) (A) (A) (A) (A) (A) (A) (A)
                 (A) (A) (A) (A) (A) (A) (A) (A) (A) (A) (A) (A)
                 (A) (A) (A) (A) (A) (A) (A) (A) (A) (A) (A) (A)
                 (A) (A) (A) (A) (A) (A) (A) (A) (A) (A) (A) (A)
                 (A) (A) (A) (A) (A) (A) (A) (A) (A) (A) (A) (A)
                 (A) (A) (A) (A) (A) (A) (A) (A) (A) (A) (A) (A)
                 (A) (A) (A) (A) (A) (A) (A) (A) (A) (A) (A) (A)
                 (A) (A) (A) (A) (A) (A) (A) (A) (A) (A) (A) (A)
                 (A) (A) (A) (A) (A) (A) (A) (A) (A) (A) (A) (A)
                 (A) (A) (A) (A) (A) (A) (A) (A) (A) (A) (A) (A)
                 (A) (A) (A) (A) (A) (A) (A) (A) (A) (A) (A) (A)
                 (A) (A) (A) (A) (A) (A) (A) (A) (A) (A) (A) (A)
                 (A) (A) (A) (A) (A) (A) (A) (A) (A) (A) (A) (A)
                 (A) (A) (A) (A)
 Requested convergence on RMS density matrix=1.00D-08 within 128 cycles.
 Requested convergence on MAX density matrix=1.00D-06.
 Requested convergence on             energy=1.00D-06.
 No special actions if energy rises.
 SCF Done:  E(RHF) =  -966.281045517     A.U. after   13 cycles
             Convg  =    0.6020D-08             -V/T =  2.0022

 **********************************************************************

            Population analysis using the SCF density.

 **********************************************************************

 Orbital symmetries:
 BldTbl:  Degeneracy threshold= 1.00D-02
       Occupied  (A) (A) (A) (A) (A) (A) (A) (A) (A) (A) (A) (A)
                 (A) (A) (A) (A) (A) (A) (A) (A) (A) (A) (A) (A)
                 (A) (A) (A) (A) (A) (A) (A) (A) (A) (A) (A) (A)
                 (A) (A) (A) (A) (A) (A) (A) (A) (A) (A) (A) (A)
                 (A) (A) (A) (A)
       Virtual   (A) (A) (A) (A) (A) (A) (A) (A) (A) (A) (A) (A)
                 (A) (A) (A) (A) (A) (A) (A) (A) (A) (A) (A) (A)
                 (A) (A) (A) (A) (A) (A) (A) (A) (A) (A) (A) (A)
                 (A) (A) (A) (A) (A) (A) (A) (A) (A) (A) (A) (A)
                 (A) (A) (A) (A) (A) (A) (A) (A) (A) (A) (A) (A)
                 (A) (A) (A) (A) (A) (A) (A) (A) (A) (A) (A) (A)
                 (A) (A) (A) (A) (A) (A) (A) (A) (A) (A) (A) (A)
                 (A) (A) (A) (A) (A) (A) (A) (A) (A) (A) (A) (A)
                 (A) (A) (A) (A) (A) (A) (A) (A) (A) (A) (A) (A)
                 (A) (A) (A) (A) (A) (A) (A) (A) (A) (A) (A) (A)
                 (A) (A) (A) (A) (A) (A) (A) (A) (A) (A) (A) (A)
                 (A) (A) (A) (A) (A) (A) (A) (A) (A) (A) (A) (A)
                 (A) (A) (A) (A) (A) (A) (A) (A) (A) (A) (A) (A)
                 (A) (A) (A) (A)
 The electronic state is 1-A.
 Alpha  occ. eigenvalues --  -92.21024 -20.55614 -20.55394 -20.53722 -15.61068
 Alpha  occ. eigenvalues --  -15.60254 -11.36978 -11.30104 -11.28536 -11.27587
 Alpha  occ. eigenvalues --  -11.26625 -11.23476  -9.18135  -6.86727  -6.86703
 Alpha  occ. eigenvalues --   -6.86613  -1.45071  -1.39208  -1.33212  -1.25784
 Alpha  occ. eigenvalues --   -1.23416  -1.06119  -1.01833  -0.98606  -0.95523
 Alpha  occ. eigenvalues --   -0.89186  -0.82371  -0.75950  -0.73697  -0.68580
 Alpha  occ. eigenvalues --   -0.68057  -0.66938  -0.66448  -0.65170  -0.61673
 Alpha  occ. eigenvalues --   -0.61406  -0.60197  -0.59428  -0.58430  -0.57668
 Alpha  occ. eigenvalues --   -0.57024  -0.55563  -0.54624  -0.52861  -0.52213
 Alpha  occ. eigenvalues --   -0.50549  -0.49017  -0.46503  -0.45218  -0.43536
 Alpha  occ. eigenvalues --   -0.41452  -0.38331
 Alpha virt. eigenvalues --    0.17602   0.20815   0.22322   0.23839   0.24913
 Alpha virt. eigenvalues --    0.25778   0.26553   0.27551   0.28213   0.28623
 Alpha virt. eigenvalues --    0.29263   0.30055   0.30515   0.31492   0.31880
 Alpha virt. eigenvalues --    0.32161   0.32309   0.33629   0.34305   0.36511
 Alpha virt. eigenvalues --    0.38493   0.39508   0.43231   0.48160   0.50787
 Alpha virt. eigenvalues --    0.55607   0.57685   0.59548   0.65137   0.66581
 Alpha virt. eigenvalues --    0.68549   0.71040   0.71780   0.72010   0.73789
 Alpha virt. eigenvalues --    0.75857   0.76654   0.77898   0.83063   0.83809
 Alpha virt. eigenvalues --    0.87366   0.88242   0.89519   0.92236   0.94077
 Alpha virt. eigenvalues --    0.95090   0.95752   0.98381   1.00943   1.03287
 Alpha virt. eigenvalues --    1.05294   1.05768   1.06073   1.06765   1.08257
 Alpha virt. eigenvalues --    1.10007   1.11697   1.13199   1.13335   1.13971
 Alpha virt. eigenvalues --    1.14241   1.15029   1.16528   1.16796   1.18242
 Alpha virt. eigenvalues --    1.18880   1.20608   1.21226   1.23222   1.23657
 Alpha virt. eigenvalues --    1.25117   1.27055   1.29527   1.30783   1.33756
 Alpha virt. eigenvalues --    1.34338   1.37863   1.39888   1.40726   1.42108
 Alpha virt. eigenvalues --    1.49064   1.50727   1.51728   1.53680   1.54766
 Alpha virt. eigenvalues --    1.59514   1.63327   1.64922   1.69546   1.69784
 Alpha virt. eigenvalues --    1.71934   1.75400   1.80008   1.84601   1.89009
 Alpha virt. eigenvalues --    1.91882   1.97341   1.98055   2.00522   2.03134
 Alpha virt. eigenvalues --    2.03973   2.08101   2.10821   2.11185   2.12854
 Alpha virt. eigenvalues --    2.14968   2.15644   2.18434   2.19549   2.21233
 Alpha virt. eigenvalues --    2.23371   2.25672   2.26873   2.32957   2.34093
 Alpha virt. eigenvalues --    2.35910   2.36833   2.39732   2.41472   2.41874
 Alpha virt. eigenvalues --    2.44324   2.46169   2.46591   2.50867   2.51538
 Alpha virt. eigenvalues --    2.54180   2.55122   2.58396   2.59816   2.62778
 Alpha virt. eigenvalues --    2.63667   2.65748   2.68452   2.73856   2.74575
 Alpha virt. eigenvalues --    2.77811   2.83330   2.89145   2.94771   2.97639
 Alpha virt. eigenvalues --    3.00317   3.07672   3.12324   3.12618   3.18698
 Alpha virt. eigenvalues --    3.30090   3.37609   3.54588   4.18647   4.31293
 Alpha virt. eigenvalues --    4.37627   4.41251   4.45088   4.54876   4.61978
 Alpha virt. eigenvalues --    4.63319   4.69210   4.75666   4.85870   5.05077
          Condensed to atoms (all electrons):
              1          2          3          4          5          6
     1  C    4.180646  -0.057346  -0.031261  -0.024506  -0.000186   0.346533
     2  C   -0.057346   5.199033  -0.000276  -0.000356  -0.000221   0.329556
     3  C   -0.031261  -0.000276   4.977145  -0.050465   0.000000   0.003349
     4  C   -0.024506  -0.000356  -0.050465   4.951312   0.000000  -0.003557
     5  C   -0.000186  -0.000221   0.000000   0.000000   5.495552   0.001848
     6  C    0.346533   0.329556   0.003349  -0.003557   0.001848   5.064384
     7  N   -0.051564  -0.062940  -0.000083   0.000317  -0.065462   0.226861
     8  N    0.307676   0.001594   0.214752   0.222047   0.000001  -0.091336
     9  O    0.562038  -0.001434  -0.007617   0.001686   0.000006  -0.077320
    10  O   -0.000104   0.001272   0.000000   0.000000  -0.064060  -0.000948
    11  O    0.000226  -0.006730   0.000000   0.000003  -0.057915   0.006106
    12  S    0.000414  -0.003056   0.000000   0.000013   0.308627  -0.022517
    13  H   -0.003471   0.386444   0.000006  -0.000036   0.000009  -0.037987
    14  H    0.003895   0.389495   0.000003   0.000016   0.000025  -0.030242
    15  H   -0.001952   0.378891  -0.000043  -0.000658   0.000002  -0.034826
    16  H    0.001126   0.000032   0.399017  -0.001903   0.000000  -0.000050
    17  H   -0.005014  -0.000024   0.395398   0.003056   0.000000   0.000521
    18  H    0.001424  -0.000003   0.398664  -0.002201   0.000000  -0.000076
    19  H    0.000871   0.000004  -0.002082   0.400093   0.000000  -0.000106
    20  H   -0.002615  -0.001654   0.003397   0.398486   0.000000   0.000808
    21  H    0.000319   0.000210  -0.001357   0.398861   0.000000  -0.000235
    22  H    0.000001   0.000003   0.000000   0.000000   0.368596  -0.000025
    23  H   -0.000002   0.000006   0.000000   0.000000   0.355694  -0.000044
    24  H    0.000025   0.000001   0.000000   0.000000   0.355593  -0.000076
    25  H   -0.036352  -0.038692  -0.000082  -0.004889   0.000198   0.408404
    26  H   -0.008426   0.001327  -0.000010  -0.000037  -0.000286  -0.024625
              7          8          9         10         11         12
     1  C   -0.051564   0.307676   0.562038  -0.000104   0.000226   0.000414
     2  C   -0.062940   0.001594  -0.001434   0.001272  -0.006730  -0.003056
     3  C   -0.000083   0.214752  -0.007617   0.000000   0.000000   0.000000
     4  C    0.000317   0.222047   0.001686   0.000000   0.000003   0.000013
     5  C   -0.065462   0.000001   0.000006  -0.064060  -0.057915   0.308627
     6  C    0.226861  -0.091336  -0.077320  -0.000948   0.006106  -0.022517
     7  N    7.523848   0.000994  -0.011353  -0.053342  -0.053652   0.191228
     8  N    0.000994   7.360095  -0.090804   0.000000  -0.000001  -0.000146
     9  O   -0.011353  -0.090804   8.240235   0.000001  -0.000002  -0.000759
    10  O   -0.053342   0.000000   0.000001   8.336383  -0.037131   0.495706
    11  O   -0.053652  -0.000001  -0.000002  -0.037131   8.381247   0.466747
    12  S    0.191228  -0.000146  -0.000759   0.495706   0.466747  13.004210
    13  H   -0.000528   0.000310   0.002469   0.000077   0.000078  -0.000646
    14  H   -0.002698  -0.000071  -0.000046  -0.000692   0.004995   0.002231
    15  H    0.004139   0.000746   0.000139   0.000003  -0.000017   0.000386
    16  H   -0.000001  -0.048472   0.000463   0.000000   0.000000   0.000000
    17  H   -0.000007  -0.029745   0.010948   0.000000   0.000000   0.000000
    18  H    0.000004  -0.047482   0.000408   0.000000   0.000000   0.000000
    19  H    0.000012  -0.047907  -0.000019   0.000000   0.000000   0.000001
    20  H    0.000090  -0.033809   0.000038   0.000000  -0.000025  -0.000012
    21  H   -0.000011  -0.049715  -0.000006   0.000000   0.000000  -0.000001
    22  H    0.002443   0.000000   0.000000   0.000628   0.000225  -0.021042
    23  H    0.000449   0.000000  -0.000002   0.000214   0.001458  -0.009616
    24  H    0.001430   0.000000   0.000000   0.001609   0.000735  -0.011452
    25  H   -0.040446   0.003576   0.001844  -0.000015   0.004750  -0.002864
    26  H    0.293427   0.000828   0.021635   0.001116   0.000827  -0.004258
             13         14         15         16         17         18
     1  C   -0.003471   0.003895  -0.001952   0.001126  -0.005014   0.001424
     2  C    0.386444   0.389495   0.378891   0.000032  -0.000024  -0.000003
     3  C    0.000006   0.000003  -0.000043   0.399017   0.395398   0.398664
     4  C   -0.000036   0.000016  -0.000658  -0.001903   0.003056  -0.002201
     5  C    0.000009   0.000025   0.000002   0.000000   0.000000   0.000000
     6  C   -0.037987  -0.030242  -0.034826  -0.000050   0.000521  -0.000076
     7  N   -0.000528  -0.002698   0.004139  -0.000001  -0.000007   0.000004
     8  N    0.000310  -0.000071   0.000746  -0.048472  -0.029745  -0.047482
     9  O    0.002469  -0.000046   0.000139   0.000463   0.010948   0.000408
    10  O    0.000077  -0.000692   0.000003   0.000000   0.000000   0.000000
    11  O    0.000078   0.004995  -0.000017   0.000000   0.000000   0.000000
    12  S   -0.000646   0.002231   0.000386   0.000000   0.000000   0.000000
    13  H    0.497447  -0.020614  -0.022748   0.000001  -0.000004   0.000000
    14  H   -0.020614   0.455596  -0.022302   0.000000   0.000000   0.000000
    15  H   -0.022748  -0.022302   0.528773  -0.000007  -0.000002   0.000001
    16  H    0.000001   0.000000  -0.000007   0.539899  -0.021561  -0.039485
    17  H   -0.000004   0.000000  -0.000002  -0.021561   0.425052  -0.020863
    18  H    0.000000   0.000000   0.000001  -0.039485  -0.020863   0.537998
    19  H   -0.000002   0.000000   0.000062  -0.001001  -0.000025   0.004027
    20  H    0.000005   0.000082  -0.000082  -0.000056  -0.000086  -0.000019
    21  H    0.000021  -0.000011  -0.000068   0.004050  -0.000055  -0.001049
    22  H    0.000000   0.000000   0.000000   0.000000   0.000000   0.000000
    23  H   -0.000001  -0.000002   0.000000   0.000000   0.000000   0.000000
    24  H    0.000000   0.000001   0.000000   0.000000   0.000000   0.000000
    25  H    0.003591  -0.002815  -0.000405  -0.000001  -0.000015  -0.000005
    26  H    0.001776  -0.000186  -0.000057   0.000000  -0.000011   0.000000
             19         20         21         22         23         24
     1  C    0.000871  -0.002615   0.000319   0.000001  -0.000002   0.000025
     2  C    0.000004  -0.001654   0.000210   0.000003   0.000006   0.000001
     3  C   -0.002082   0.003397  -0.001357   0.000000   0.000000   0.000000
     4  C    0.400093   0.398486   0.398861   0.000000   0.000000   0.000000
     5  C    0.000000   0.000000   0.000000   0.368596   0.355694   0.355593
     6  C   -0.000106   0.000808  -0.000235  -0.000025  -0.000044  -0.000076
     7  N    0.000012   0.000090  -0.000011   0.002443   0.000449   0.001430
     8  N   -0.047907  -0.033809  -0.049715   0.000000   0.000000   0.000000
     9  O   -0.000019   0.000038  -0.000006   0.000000  -0.000002   0.000000
    10  O    0.000000   0.000000   0.000000   0.000628   0.000214   0.001609
    11  O    0.000000  -0.000025   0.000000   0.000225   0.001458   0.000735
    12  S    0.000001  -0.000012  -0.000001  -0.021042  -0.009616  -0.011452
    13  H   -0.000002   0.000005   0.000021   0.000000  -0.000001   0.000000
    14  H    0.000000   0.000082  -0.000011   0.000000  -0.000002   0.000001
    15  H    0.000062  -0.000082  -0.000068   0.000000   0.000000   0.000000
    16  H   -0.001001  -0.000056   0.004050   0.000000   0.000000   0.000000
    17  H   -0.000025  -0.000086  -0.000055   0.000000   0.000000   0.000000
    18  H    0.004027  -0.000019  -0.001049   0.000000   0.000000   0.000000
    19  H    0.527687  -0.024357  -0.039922   0.000000   0.000000   0.000000
    20  H   -0.024357   0.493863  -0.025531   0.000000   0.000000   0.000000
    21  H   -0.039922  -0.025531   0.534689   0.000000   0.000000   0.000000
    22  H    0.000000   0.000000   0.000000   0.450738  -0.016644  -0.016071
    23  H    0.000000   0.000000   0.000000  -0.016644   0.464282  -0.018914
    24  H    0.000000   0.000000   0.000000  -0.016071  -0.018914   0.460590
    25  H   -0.000003  -0.000332   0.000227  -0.000006  -0.000006   0.000023
    26  H    0.000001  -0.000006   0.000001  -0.000026   0.000024   0.000061
             25         26
     1  C   -0.036352  -0.008426
     2  C   -0.038692   0.001327
     3  C   -0.000082  -0.000010
     4  C   -0.004889  -0.000037
     5  C    0.000198  -0.000286
     6  C    0.408404  -0.024625
     7  N   -0.040446   0.293427
     8  N    0.003576   0.000828
     9  O    0.001844   0.021635
    10  O   -0.000015   0.001116
    11  O    0.004750   0.000827
    12  S   -0.002864  -0.004258
    13  H    0.003591   0.001776
    14  H   -0.002815  -0.000186
    15  H   -0.000405  -0.000057
    16  H   -0.000001   0.000000
    17  H   -0.000015  -0.000011
    18  H   -0.000005   0.000000
    19  H   -0.000003   0.000001
    20  H   -0.000332  -0.000006
    21  H    0.000227   0.000001
    22  H   -0.000006  -0.000026
    23  H   -0.000006   0.000024
    24  H    0.000023   0.000061
    25  H    0.473228   0.003280
    26  H    0.003280   0.282068
 Mulliken atomic charges:
              1
     1  C    0.817605
     2  C   -0.515137
     3  C   -0.298456
     4  C   -0.287283
     5  C   -0.698020
     6  C   -0.064403
     7  N   -0.903155
     8  N   -0.673131
     9  O   -0.652549
    10  O   -0.680717
    11  O   -0.711921
    12  S    1.606806
    13  H    0.193801
    14  H    0.223340
    15  H    0.170025
    16  H    0.167950
    17  H    0.242434
    18  H    0.168656
    19  H    0.182666
    20  H    0.191816
    21  H    0.179584
    22  H    0.231179
    23  H    0.223103
    24  H    0.226445
    25  H    0.227805
    26  H    0.431557
 Sum of Mulliken atomic charges =   0.00000
 Mulliken charges with hydrogens summed into heavy atoms:
              1
     1  C    0.817605
     2  C    0.072028
     3  C    0.280585
     4  C    0.266783
     5  C   -0.017293
     6  C    0.163402
     7  N   -0.471598
     8  N   -0.673131
     9  O   -0.652549
    10  O   -0.680717
    11  O   -0.711921
    12  S    1.606806
 Sum of Mulliken charges with hydrogens summed into heavy atoms =   0.00000
 DipInt: DoE/N= T F RetVal/Mat= T F Init=T NMatP=  1 IDeriv=0 Min/MaxMlt=  0  4
 Entering OneElI...
 OneElI was handed    33436552 working-precision words.
 Multipole integrals L=0 to 4 MinM= 0 MaxM= 0.
 Requested accuracy = 0.1000D-12
 PrsmSu:  NPrtUS=   1 ThrOK=F IAlg=1 NPAlg=1 LenDen=           0.
 Prism:   IPart=     0 DynPar=F LinDyn=F Incr=          26.
 PRISM was handed    33205231 working-precision words and  2662 shell-pairs
 IPart=  0 NShTot=        2662 NBatch=          65 AvBLen=        41.0
 PrSmSu:  NxtVal=             27.
 Electronic moments (au):
       -104.00000000          1.53967053         -0.01851961         -1.24042977
      -2276.56107321       -421.55774135       -317.15055249        -10.15450554
          3.69628568         -3.44188065      -2260.20395334        110.61176875
        -45.04360788       -355.60476545       -642.94149764       1040.75892124
        273.39105416         96.30396156          8.03076456       -385.25622877
     -87437.89740830      -4180.85405075      -2905.28932102       -142.99839544
       2801.30052622        103.44318673        -40.82793428       -131.29771971
        527.68147386      -8698.19482334      -7120.85233265      -1669.70093837
       -474.20880683       -659.17317039       1020.90771678
 Electronic spatial extent (au):  <R**2>=           3015.2694
 DipInt: DoE/N= F T RetVal/Mat= T F Init=T NMatP=  1 IDeriv=0 Min/MaxMlt=  0  4
 Nuclear    moments (au):
        104.00000000          0.00000000          0.00000000          0.00000000
       2220.93176741        359.25504428        256.55908305          0.00000000
          0.00000000          0.00000000       2320.11263389       -106.59149949
         36.52738528        352.59477270        666.89534033      -1097.98360889
       -270.72678539        -96.10315556         -8.29039511        396.33687602
      80097.36540079       2753.24908147       1848.54982810         52.42899713
      -2558.16784799       -180.38286022         37.53723210        156.94548554
       -518.57346924       7171.51038794       5604.27004647       1245.79636166
        405.29898961        618.31898021      -1043.67797231
 Total      moments (au):
          0.00000000          1.53967053         -0.01851961         -1.24042977
        -55.62930580        -62.30269706        -60.59146944        -10.15450554
          3.69628568         -3.44188065         59.90868055          4.02026926
         -8.51622261         -3.00999275         23.95384269        -57.22468765
          2.66426877          0.20080600         -0.25963055         11.08064725
      -7340.53200751      -1427.60496929      -1056.73949292        -90.56939830
        243.13267823        -76.93967348         -3.29070218         25.64776583
          9.10800462      -1526.68443540      -1516.58228618       -423.90457671
        -68.90981722        -40.85419018        -22.77025553
 Traceless Quadrup. (au):
          3.87851830         -2.79487296         -1.08364534        -10.15450554
          3.69628568         -3.44188065
 Charge=              0.0000 electrons
 Dipole moment (field-independent basis, Debye):
    X=              3.9135    Y=             -0.0471    Z=             -3.1529  Tot=              5.0257
 Quadrupole moment (field-independent basis, Debye-Ang):
   XX=            -74.8233   YY=            -83.7993   ZZ=            -81.4976
   XY=            -13.6582   XZ=              4.9716   YZ=             -4.6294
 Traceless Quadrupole moment (field-independent basis, Debye-Ang):
   XX=              5.2167   YY=             -3.7592   ZZ=             -1.4575
   XY=            -13.6582   XZ=              4.9716   YZ=             -4.6294
 Octapole moment (field-independent basis, Debye-Ang**2):
  XXX=             42.6407  YYY=              2.8615  ZZZ=             -6.0615  XYY=             -2.1424
  XXY=             17.0494  XXZ=            -40.7303  XZZ=              1.8963  YZZ=              0.1429
  YYZ=             -0.1848  XYZ=              7.8868
 Hexadecapole moment (field-independent basis, Debye-Ang**3):
 XXXX=          -2764.7962 YYYY=           -537.7045 ZZZZ=           -398.0187 XXXY=            -34.1128
 XXXZ=             91.5754 YYYX=            -28.9792 YYYZ=             -1.2394 ZZZX=              9.6602
 ZZZY=              3.4305 XXYY=           -575.0225 XXZZ=           -571.2176 YYZZ=           -159.6628
 XXYZ=            -25.9547 YYXZ=            -15.3876 ZZXY=             -8.5764
 N-N= 9.120158500682D+02 E-N=-4.102140939400D+03  KE= 9.641355045890D+02
 Entering OneElI...
 OneElI was handed    33345802 working-precision words.
 Calculate electrostatic properties
    NBasis =   212  MinDer = 0  MaxDer = 0
    NGrid  =    26  NMatD  =   1
 Requested accuracy = 0.1000D-12
 PrsmSu:  NPrtUS=   2 ThrOK=T IAlg=1 NPAlg=1 LenDen=           0.
 Prism:   IPart=     0 DynPar=F LinDyn=F Incr=         315.
 PRISM was handed    16529783 working-precision words and  2424 shell-pairs
 PRISM was handed    16529783 working-precision words and  2424 shell-pairs
 IPart=  0 NShTot=       31902 NBatch=        1227 AvBLen=        26.0
 IPart=  1 NShTot=       31122 NBatch=        1197 AvBLen=        26.0
 PrSmSu:  NxtVal=            631.
 --------------------------------------------------------
       Center         ----      EFG at Nuclei      ----
                      3XX-RR        3YY-RR        3ZZ-RR
 --------------------------------------------------------
     1   Atom        0.186113      0.188104     -0.374216
     2   Atom        0.044135      0.001488     -0.045622
     3   Atom       -0.169133      0.050577      0.118556
     4   Atom        0.130896     -0.184889      0.053993
     5   Atom        0.064613     -0.019183     -0.045430
     6   Atom       -0.191870      0.001938      0.189932
     7   Atom       -0.779322     -0.157970      0.937293
     8   Atom       -0.455126     -0.252390      0.707516
     9   Atom        1.480565     -0.837355     -0.643211
    10   Atom        0.223526      0.689715     -0.913241
    11   Atom        0.794536     -1.193374      0.398838
    12   Atom       -0.477850      0.177062      0.300787
    13   Atom        0.152726      0.005741     -0.158467
    14   Atom       -0.148805      0.001980      0.146825
    15   Atom       -0.133876     -0.009416      0.143292
    16   Atom       -0.056986      0.044013      0.012973
    17   Atom        0.116944     -0.190202      0.073258
    18   Atom        0.070191      0.135014     -0.205205
    19   Atom        0.088840      0.126555     -0.215395
    20   Atom       -0.180477      0.024866      0.155611
    21   Atom       -0.032295      0.011099      0.021196
    22   Atom       -0.256995      0.114909      0.142086
    23   Atom        0.150790     -0.241895      0.091105
    24   Atom        0.038271      0.144352     -0.182623
    25   Atom        0.136436      0.010093     -0.146529
    26   Atom        0.147144     -0.109279     -0.037866
 --------------------------------------------------------
                        XY            XZ            YZ
 --------------------------------------------------------
     1   Atom        0.135849     -0.101683      0.327854
     2   Atom        0.020444      0.013985      0.069351
     3   Atom       -0.219067     -0.046361      0.019554
     4   Atom        0.063224      0.027275     -0.155627
     5   Atom        0.086295     -0.106529      0.152017
     6   Atom        0.169418     -0.006004      0.032247
     7   Atom        0.009670     -0.200610     -0.555614
     8   Atom       -0.107005      0.287743     -0.580815
     9   Atom        0.396909     -0.256473     -0.236028
    10   Atom        0.144003      1.036169     -0.399731
    11   Atom        0.111365      0.077205     -0.960502
    12   Atom       -0.349949     -0.077706      0.053548
    13   Atom        0.002511      0.002347     -0.200014
    14   Atom       -0.204002     -0.008941      0.002299
    15   Atom        0.212997     -0.006238      0.013783
    16   Atom        0.129674     -0.168392      0.118485
    17   Atom        0.080464      0.041098     -0.164825
    18   Atom       -0.039864      0.155498      0.062439
    19   Atom       -0.021379      0.152566      0.044486
    20   Atom       -0.192332     -0.024163     -0.028023
    21   Atom        0.151486     -0.152164      0.116522
    22   Atom       -0.110577     -0.050122     -0.002786
    23   Atom       -0.024652     -0.018831     -0.139698
    24   Atom        0.030435      0.190436     -0.034050
    25   Atom        0.008865     -0.002683     -0.203762
    26   Atom       -0.012624     -0.031954     -0.283474
 --------------------------------------------------------


 ---------------------------------------------------------------------------------
              Nuclear Quadrupole in Principal Axis System
 ---------------------------------------------------------------------------------

       Atom             a.u.   MegaHertz   Gauss  10(-4) cm-1        Axes

              Baa    -0.5553   -74.510   -26.587   -24.854  0.1991 -0.4257  0.8827
     1 C(13)  Bbb     0.1772    23.784     8.487     7.933  0.8784 -0.3218 -0.3533
              Bcc     0.3780    50.727    18.101    16.921  0.4345  0.8457  0.3099
 
              Baa    -0.0953   -12.790    -4.564    -4.266  0.0040 -0.5829  0.8125
     2 C(13)  Bbb     0.0226     3.039     1.084     1.014  0.7552 -0.5308 -0.3846
              Bcc     0.0727     9.751     3.480     3.253  0.6555  0.6151  0.4381
 
              Baa    -0.3064   -41.111   -14.670   -13.713  0.8519  0.5191  0.0691
     3 C(13)  Bbb     0.1009    13.536     4.830     4.515  0.1728 -0.4031  0.8987
              Bcc     0.2055    27.575     9.840     9.198 -0.4943  0.7537  0.4331
 
              Baa    -0.2733   -36.678   -13.088   -12.234 -0.1677  0.8848  0.4347
     4 C(13)  Bbb     0.1298    17.418     6.215     5.810  0.2563 -0.3866  0.8859
              Bcc     0.1435    19.260     6.872     6.424  0.9519  0.2600 -0.1620
 
              Baa    -0.2453   -32.922   -11.747   -10.982  0.4041 -0.6115  0.6803
     5 C(13)  Bbb     0.1146    15.379     5.488     5.130  0.5409  0.7595  0.3614
              Bcc     0.1307    17.543     6.260     5.852  0.7377 -0.2219 -0.6376
 
              Baa    -0.2911   -39.062   -13.938   -13.030  0.8627 -0.5037  0.0445
     6 C(13)  Bbb     0.0938    12.593     4.493     4.201  0.4980  0.8310 -0.2478
              Bcc     0.1972    26.469     9.445     8.829  0.0878  0.2359  0.9678
 
              Baa    -0.8086   -31.185   -11.127   -10.402  0.9825  0.1123  0.1486
     7 N(14)  Bbb    -0.3794   -14.632    -5.221    -4.881 -0.1599  0.9180  0.3630
              Bcc     1.1879    45.816    16.348    15.283 -0.0957 -0.3804  0.9199
 
              Baa    -0.5473   -21.110    -7.532    -7.041 -0.6344  0.6358  0.4397
     8 N(14)  Bbb    -0.4961   -19.135    -6.828    -6.383  0.7467  0.6512  0.1357
              Bcc     1.0435    40.245    14.360    13.424  0.2001 -0.4144  0.8878
 
              Baa    -1.0119    73.218    26.126    24.423 -0.0870  0.8654  0.4935
     9 O(17)  Bbb    -0.5732    41.478    14.801    13.836  0.1983 -0.4704  0.8599
              Bcc     1.5851  -114.697   -40.927   -38.259  0.9763  0.1727 -0.1307
 
              Baa    -1.6027   115.973    41.382    38.684 -0.4961  0.1793  0.8495
    10 O(17)  Bbb     0.7152   -51.752   -18.466   -17.262  0.5441  0.8267  0.1433
              Bcc     0.8875   -64.222   -22.916   -21.422  0.6766 -0.5334  0.5077
 
              Baa    -1.6521   119.545    42.657    39.876 -0.0545  0.9035  0.4252
    11 O(17)  Bbb     0.7930   -57.382   -20.475   -19.141  0.9295  0.2015 -0.3090
              Bcc     0.8591   -62.163   -22.181   -20.735  0.3648 -0.3783  0.8508
 
              Baa    -0.6324   -25.926    -9.251    -8.648  0.9178  0.3933  0.0539
    12 S(33)  Bbb     0.2352     9.645     3.441     3.217  0.2181 -0.6130  0.7593
              Bcc     0.3971    16.281     5.810     5.431 -0.3316  0.6852  0.6485
 
              Baa    -0.2926  -156.116   -55.706   -52.075 -0.0075  0.5569  0.8306
    13 H(1)   Bbb     0.1398    74.591    26.616    24.881 -0.0600  0.8288 -0.5563
              Bcc     0.1528    81.526    29.090    27.194  0.9982  0.0540 -0.0272
 
              Baa    -0.2910  -155.255   -55.399   -51.787  0.8206  0.5713  0.0138
    14 H(1)   Bbb     0.1384    73.819    26.340    24.623 -0.4351  0.6403 -0.6330
              Bcc     0.1526    81.436    29.058    27.164 -0.3705  0.5135  0.7740
 
              Baa    -0.2939  -156.838   -55.964   -52.315  0.7995 -0.5999  0.0303
    15 H(1)   Bbb     0.1390    74.157    26.461    24.736 -0.3462 -0.4189  0.8395
              Bcc     0.1550    82.681    29.503    27.579  0.4909  0.6816  0.5426
 
              Baa    -0.2870  -153.114   -54.635   -51.073  0.6785 -0.4684  0.5659
    16 H(1)   Bbb     0.1324    70.664    25.215    23.571  0.6124  0.7861 -0.0835
              Bcc     0.1545    82.450    29.420    27.502 -0.4058  0.4032  0.8202
 
              Baa    -0.2895  -154.486   -55.124   -51.531 -0.2169  0.8793  0.4240
    17 H(1)   Bbb     0.1367    72.954    26.032    24.335  0.9675  0.2513 -0.0262
              Bcc     0.1528    81.531    29.092    27.196  0.1296 -0.4046  0.9053
 
              Baa    -0.2879  -153.621   -54.816   -51.243 -0.4084 -0.1709  0.8967
    18 H(1)   Bbb     0.1328    70.830    25.274    23.626  0.7032  0.5675  0.4284
              Bcc     0.1552    82.791    29.542    27.616 -0.5820  0.8055 -0.1116
 
              Baa    -0.2846  -151.864   -54.189   -50.657 -0.3813 -0.1190  0.9168
    19 H(1)   Bbb     0.1321    70.486    25.151    23.511  0.0767  0.9842  0.1597
              Bcc     0.1525    81.379    29.038    27.145  0.9213 -0.1312  0.3662
 
              Baa    -0.2985  -159.290   -56.839   -53.134  0.8540  0.5145  0.0772
    20 H(1)   Bbb     0.1346    71.806    25.622    23.952 -0.4929  0.7526  0.4365
              Bcc     0.1640    87.484    31.217    29.182  0.1665 -0.4108  0.8964
 
              Baa    -0.2838  -151.401   -54.023   -50.502  0.6493 -0.5437  0.5317
    21 H(1)   Bbb     0.1320    70.431    25.131    23.493  0.1482  0.7762  0.6128
              Bcc     0.1518    80.970    28.892    27.009  0.7459  0.3191 -0.5846
 
              Baa    -0.2929  -156.292   -55.769   -52.133  0.9589  0.2607  0.1122
    22 H(1)   Bbb     0.1359    72.493    25.867    24.181 -0.1233  0.7385 -0.6629
              Bcc     0.1571    83.798    29.901    27.952 -0.2557  0.6218  0.7402
 
              Baa    -0.2947  -157.241   -56.108   -52.450  0.0663  0.9371  0.3426
    23 H(1)   Bbb     0.1366    72.907    26.015    24.319  0.4965 -0.3288  0.8034
              Bcc     0.1581    84.334    30.092    28.131  0.8655  0.1168 -0.4871
 
              Baa    -0.2969  -158.386   -56.516   -52.832 -0.4984  0.1008  0.8610
    24 H(1)   Bbb     0.1391    74.210    26.480    24.754 -0.5920  0.6860 -0.4230
              Bcc     0.1578    84.176    30.036    28.078  0.6334  0.7206  0.2823
 
              Baa    -0.2865  -152.878   -54.551   -50.995 -0.0066  0.5663  0.8241
    25 H(1)   Bbb     0.1321    70.491    25.153    23.513  0.8974 -0.3602  0.2547
              Bcc     0.1544    82.387    29.398    27.481  0.4411  0.7413 -0.5059
 
              Baa    -0.3611  -192.682   -68.754   -64.272  0.0602  0.7475  0.6615
    26 H(1)   Bbb     0.1453    77.552    27.672    25.868  0.9721 -0.1945  0.1314
              Bcc     0.2158   115.130    41.081    38.403 -0.2269 -0.6351  0.7384
 

 ---------------------------------------------------------------------------------

 No NMR shielding tensors so no spin-rotation constants.
 Leave Link  601 at Sat Feb 17 21:00:38 2018, MaxMem=   33554432 cpu:       0.6
 Merz-Kollman atomic radii used.
 Read replacement radii for each type of atom:
 Atom Element Radius
    1     6    1.50
    2     6    1.50
    3     6    1.50
    4     6    1.50
    5     6    1.50
    6     6    1.50
    7     7    1.50
    8     7    1.50
    9     8    1.40
   10     8    1.40
   11     8    1.40
   12    16    1.75
   13     1    1.20
   14     1    1.20
   15     1    1.20
   16     1    1.20
   17     1    1.20
   18     1    1.20
   19     1    1.20
   20     1    1.20
   21     1    1.20
   22     1    1.20
   23     1    1.20
   24     1    1.20
   25     1    1.20
   26     1    1.20
 Generate VDW surfaces: Layer= 4 Dens= 1 Start= 1.400 Inc= 0.200

 **********************************************************************

            Electrostatic Properties Using The SCF Density

 **********************************************************************

       Atomic Center    1 is at   1.640682  0.479867  0.204540
       Atomic Center    2 is at   0.335368 -1.314354  1.378869
       Atomic Center    3 is at   4.019784  0.822584 -0.158947
       Atomic Center    4 is at   3.032995 -1.288879 -0.928798
       Atomic Center    5 is at  -3.020579  1.075338 -1.290741
       Atomic Center    6 is at   0.382451 -0.408929  0.131691
       Atomic Center    7 is at  -0.733228  0.544225  0.022017
       Atomic Center    8 is at   2.819612  0.005474 -0.300162
       Atomic Center    9 is at   1.555434  1.573871  0.762831
       Atomic Center   10 is at  -3.021440  0.176321  1.191479
       Atomic Center   11 is at  -2.224163 -1.383372 -0.665711
       Atomic Center   12 is at  -2.306516 -0.042922 -0.071647
       Atomic Center   13 is at   0.326812 -0.703522  2.287371
       Atomic Center   14 is at  -0.562420 -1.936596  1.357751
       Atomic Center   15 is at   1.210398 -1.973623  1.417139
       Atomic Center   16 is at   4.762742  0.308167  0.464541
       Atomic Center   17 is at   3.744463  1.767094  0.306819
       Atomic Center   18 is at   4.464884  1.010812 -1.143993
       Atomic Center   19 is at   3.450242 -1.155732 -1.935453
       Atomic Center   20 is at   2.108003 -1.854947 -1.015314
       Atomic Center   21 is at   3.745925 -1.884887 -0.343160
       Atomic Center   22 is at  -4.068032  0.788838 -1.410718
       Atomic Center   23 is at  -2.951568  2.099313 -0.918267
       Atomic Center   24 is at  -2.477629  0.965074 -2.229952
       Atomic Center   25 is at   0.355104 -1.021408 -0.770078
       Atomic Center   26 is at  -0.632209  1.301959  0.698196
      ESP Fit Center   27 is at   2.690682  0.479867  2.023194
      ESP Fit Center   28 is at   2.165682 -0.429460  2.023194
      ESP Fit Center   29 is at   1.115682  1.389194 -1.614113
      ESP Fit Center   30 is at  -0.189632 -2.223681  3.197522
      ESP Fit Center   31 is at   0.860368 -2.223681  3.197522
      ESP Fit Center   32 is at  -1.409618 -0.801981  2.428869
      ESP Fit Center   33 is at   0.076546 -3.114497  2.428869
      ESP Fit Center   34 is at   0.076546 -3.114497  0.328869
      ESP Fit Center   35 is at   4.019784  0.822584  1.941053
      ESP Fit Center   36 is at   5.549732  1.805822  0.891053
      ESP Fit Center   37 is at   5.879241  1.798503 -0.158947
      ESP Fit Center   38 is at   5.212719  2.550850 -0.158947
      ESP Fit Center   39 is at   3.760962  2.622726 -1.208947
      ESP Fit Center   40 is at   2.828819  2.197030 -1.208947
      ESP Fit Center   41 is at   2.774174 -3.089021 -1.978798
      ESP Fit Center   42 is at   3.788491 -2.943184 -1.978798
      ESP Fit Center   43 is at   1.982995 -1.288879 -2.747452
      ESP Fit Center   44 is at  -4.592452  2.467896 -1.290741
      ESP Fit Center   45 is at  -2.265083  2.729644 -2.340741
      ESP Fit Center   46 is at  -4.211544  2.449785 -2.340741
      ESP Fit Center   47 is at  -3.279400 -0.724804 -2.340741
      ESP Fit Center   48 is at  -3.545579  1.984665 -3.109394
      ESP Fit Center   49 is at  -4.070579  1.075338 -3.109394
      ESP Fit Center   50 is at   0.022268  2.198530 -1.027983
      ESP Fit Center   51 is at  -0.992049  2.344367 -1.027983
      ESP Fit Center   52 is at   0.316772  0.544225 -1.796637
      ESP Fit Center   53 is at  -0.208228  1.453551 -1.796637
      ESP Fit Center   54 is at  -0.733228  0.544225 -2.077983
      ESP Fit Center   55 is at   3.344612 -0.903853  1.518492
      ESP Fit Center   56 is at   2.560790  1.805616 -1.350162
      ESP Fit Center   57 is at   2.294612  0.914801 -2.118815
      ESP Fit Center   58 is at   1.769612  0.005474 -2.118815
      ESP Fit Center   59 is at   1.555434  1.573871  2.722831
      ESP Fit Center   60 is at   2.535434  1.573871  2.460240
      ESP Fit Center   61 is at   2.045434  2.422575  2.460240
      ESP Fit Center   62 is at   1.065434  2.422575  2.460240
      ESP Fit Center   63 is at   0.575434  1.573871  2.460240
      ESP Fit Center   64 is at   2.045434  0.725166  2.460240
      ESP Fit Center   65 is at   2.928668  2.571583  1.742831
      ESP Fit Center   66 is at   2.079963  3.188203  1.742831
      ESP Fit Center   67 is at   1.030906  3.188203  1.742831
      ESP Fit Center   68 is at   0.182201  2.571583  1.742831
      ESP Fit Center   69 is at   2.535434  3.271280  0.762831
      ESP Fit Center   70 is at   1.555434  3.533871  0.762831
      ESP Fit Center   71 is at   0.575434  3.271280  0.762831
      ESP Fit Center   72 is at   2.079963  3.188203 -0.217169
      ESP Fit Center   73 is at   1.030906  3.188203 -0.217169
      ESP Fit Center   74 is at   0.182201  2.571583 -0.217169
      ESP Fit Center   75 is at   2.045434  2.422575 -0.934579
      ESP Fit Center   76 is at   1.065434  2.422575 -0.934579
      ESP Fit Center   77 is at  -3.021440  0.176321  3.151479
      ESP Fit Center   78 is at  -2.041440  0.176321  2.888889
      ESP Fit Center   79 is at  -2.531440  1.025026  2.888889
      ESP Fit Center   80 is at  -3.511440  1.025026  2.888889
      ESP Fit Center   81 is at  -4.001440  0.176321  2.888889
      ESP Fit Center   82 is at  -3.511440 -0.672384  2.888889
      ESP Fit Center   83 is at  -2.531440 -0.672384  2.888889
      ESP Fit Center   84 is at  -1.324030  0.176321  2.171479
      ESP Fit Center   85 is at  -1.648206  1.174034  2.171479
      ESP Fit Center   86 is at  -2.496911  1.790654  2.171479
      ESP Fit Center   87 is at  -3.545968  1.790654  2.171479
      ESP Fit Center   88 is at  -4.394673  1.174034  2.171479
      ESP Fit Center   89 is at  -4.718849  0.176321  2.171479
      ESP Fit Center   90 is at  -4.394673 -0.821391  2.171479
      ESP Fit Center   91 is at  -3.545968 -1.438011  2.171479
      ESP Fit Center   92 is at  -2.496911 -1.438011  2.171479
      ESP Fit Center   93 is at  -1.648206 -0.821391  2.171479
      ESP Fit Center   94 is at  -3.021440  2.136321  1.191479
      ESP Fit Center   95 is at  -4.001440  1.873731  1.191479
      ESP Fit Center   96 is at  -4.718849  1.156321  1.191479
      ESP Fit Center   97 is at  -4.981440  0.176321  1.191479
      ESP Fit Center   98 is at  -4.718849 -0.803679  1.191479
      ESP Fit Center   99 is at  -4.001440 -1.521089  1.191479
      ESP Fit Center  100 is at  -2.714163 -2.232077  1.031699
      ESP Fit Center  101 is at  -3.597397 -2.381085  0.314289
      ESP Fit Center  102 is at  -2.748692 -2.997705  0.314289
      ESP Fit Center  103 is at  -1.699635 -2.997705  0.314289
      ESP Fit Center  104 is at  -3.921573 -2.363372 -0.665711
      ESP Fit Center  105 is at  -3.204163 -3.080782 -0.665711
      ESP Fit Center  106 is at  -2.224163 -3.343372 -0.665711
      ESP Fit Center  107 is at  -1.244163 -3.080782 -0.665711
      ESP Fit Center  108 is at  -3.921573 -1.383372 -1.645711
      ESP Fit Center  109 is at  -3.597397 -2.381085 -1.645711
      ESP Fit Center  110 is at  -2.748692 -2.997705 -1.645711
      ESP Fit Center  111 is at  -1.699635 -2.997705 -1.645711
      ESP Fit Center  112 is at  -0.850930 -2.381085 -1.645711
      ESP Fit Center  113 is at  -1.244163 -1.383372 -2.363121
      ESP Fit Center  114 is at  -3.204163 -1.383372 -2.363121
      ESP Fit Center  115 is at  -2.714163 -2.232077 -2.363121
      ESP Fit Center  116 is at  -1.734163 -2.232077 -2.363121
      ESP Fit Center  117 is at  -2.224163 -1.383372 -2.625711
      ESP Fit Center  118 is at  -1.243501 -0.042922  2.135727
      ESP Fit Center  119 is at  -2.579118 -1.938912  1.455903
      ESP Fit Center  120 is at  -4.458546 -1.079285  0.473530
      ESP Fit Center  121 is at  -3.795767 -1.910384  0.473530
      ESP Fit Center  122 is at  -4.458546 -1.079285 -0.616823
      ESP Fit Center  123 is at   0.326812 -0.703522  3.967371
      ESP Fit Center  124 is at   1.314292 -0.703522  3.646519
      ESP Fit Center  125 is at   0.631960  0.235627  3.646519
      ESP Fit Center  126 is at  -0.472075 -0.123096  3.646519
      ESP Fit Center  127 is at  -0.472075 -1.283947  3.646519
      ESP Fit Center  128 is at   0.631960 -1.642670  3.646519
      ESP Fit Center  129 is at   1.924587 -0.703522  2.806519
      ESP Fit Center  130 is at   1.550779  0.323508  2.806519
      ESP Fit Center  131 is at   0.604263  0.869980  2.806519
      ESP Fit Center  132 is at  -0.472075  0.680192  2.806519
      ESP Fit Center  133 is at  -1.174605 -0.157050  2.806519
      ESP Fit Center  134 is at  -1.361307 -1.356170  2.716900
      ESP Fit Center  135 is at  -1.361307 -2.517022  2.716900
      ESP Fit Center  136 is at  -0.257272 -2.875744  2.716900
      ESP Fit Center  137 is at  -2.063837 -2.483067  1.876900
      ESP Fit Center  138 is at  -1.361307 -3.320310  1.876900
      ESP Fit Center  139 is at  -0.284969 -3.510097  1.876900
      ESP Fit Center  140 is at  -1.361307 -3.320310  0.838603
      ESP Fit Center  141 is at  -0.284969 -3.510097  0.838603
      ESP Fit Center  142 is at  -0.257272 -2.875744 -0.001397
      ESP Fit Center  143 is at   2.197877 -1.973623  2.776287
      ESP Fit Center  144 is at   1.515545 -2.912771  2.776287
      ESP Fit Center  145 is at   2.808173 -1.973623  1.936287
      ESP Fit Center  146 is at   2.434364 -0.946593  1.936287
      ESP Fit Center  147 is at   0.411510 -3.357336  1.936287
      ESP Fit Center  148 is at   1.487848 -3.547124  1.936287
      ESP Fit Center  149 is at   2.434364 -3.000653  1.936287
      ESP Fit Center  150 is at   0.411510 -3.357336  0.897990
      ESP Fit Center  151 is at   1.487848 -3.547124  0.897990
      ESP Fit Center  152 is at   2.434364 -3.000653  0.897990
      ESP Fit Center  153 is at   4.762742  0.308167  2.144541
      ESP Fit Center  154 is at   5.750221  0.308167  1.823689
      ESP Fit Center  155 is at   5.067890  1.247316  1.823689
      ESP Fit Center  156 is at   3.963854 -0.272259  1.823689
      ESP Fit Center  157 is at   5.067890 -0.630981  1.823689
      ESP Fit Center  158 is at   6.360517  0.308167  0.983689
      ESP Fit Center  159 is at   5.986708  1.335197  0.983689
      ESP Fit Center  160 is at   5.040193 -1.265334  0.983689
      ESP Fit Center  161 is at   5.986708 -0.718863  0.983689
      ESP Fit Center  162 is at   6.360517  0.308167 -0.054608
      ESP Fit Center  163 is at   5.986708 -0.718863 -0.054608
      ESP Fit Center  164 is at   3.744463  1.767094  1.986819
      ESP Fit Center  165 is at   4.731942  1.767094  1.665967
      ESP Fit Center  166 is at   4.049611  2.706243  1.665967
      ESP Fit Center  167 is at   4.968430  2.794124  0.825967
      ESP Fit Center  168 is at   4.021914  3.340596  0.825967
      ESP Fit Center  169 is at   2.945576  3.150808  0.825967
      ESP Fit Center  170 is at   4.968430  2.794124 -0.212330
      ESP Fit Center  171 is at   4.021914  3.340596 -0.212330
      ESP Fit Center  172 is at   2.945576  3.150808 -0.212330
      ESP Fit Center  173 is at   6.062659  1.010812 -0.624845
      ESP Fit Center  174 is at   5.688851  2.037842 -0.624845
      ESP Fit Center  175 is at   6.062659  1.010812 -1.663142
      ESP Fit Center  176 is at   5.688851  2.037842 -1.663142
      ESP Fit Center  177 is at   4.742335  2.584313 -1.663142
      ESP Fit Center  178 is at   3.665997  2.394526 -1.663142
      ESP Fit Center  179 is at   5.688851 -0.016218 -1.663142
      ESP Fit Center  180 is at   5.452363  1.010812 -2.503142
      ESP Fit Center  181 is at   4.770032  1.949961 -2.503142
      ESP Fit Center  182 is at   3.665997  1.591238 -2.503142
      ESP Fit Center  183 is at   3.665997  0.430386 -2.503142
      ESP Fit Center  184 is at   4.770032  0.071664 -2.503142
      ESP Fit Center  185 is at   4.464884  1.010812 -2.823993
      ESP Fit Center  186 is at   5.048017 -1.155732 -2.454602
      ESP Fit Center  187 is at   4.674208 -0.128702 -2.454602
      ESP Fit Center  188 is at   2.651354  0.227982 -2.454602
      ESP Fit Center  189 is at   3.727692 -2.729233 -2.454602
      ESP Fit Center  190 is at   4.674208 -2.182762 -2.454602
      ESP Fit Center  191 is at   4.437721 -1.155732 -3.294602
      ESP Fit Center  192 is at   3.755390 -0.216583 -3.294602
      ESP Fit Center  193 is at   2.651354 -0.575306 -3.294602
      ESP Fit Center  194 is at   2.651354 -1.736157 -3.294602
      ESP Fit Center  195 is at   3.755390 -2.094880 -3.294602
      ESP Fit Center  196 is at   3.450242 -1.155732 -3.615453
      ESP Fit Center  197 is at   1.309115 -3.238660 -0.496165
      ESP Fit Center  198 is at   2.385453 -3.428448 -0.496165
      ESP Fit Center  199 is at   1.309115 -3.238660 -1.534462
      ESP Fit Center  200 is at   2.385453 -3.428448 -1.534462
      ESP Fit Center  201 is at   1.309115 -1.274521 -2.374462
      ESP Fit Center  202 is at   1.309115 -2.435372 -2.374462
      ESP Fit Center  203 is at   2.413151 -2.794095 -2.374462
      ESP Fit Center  204 is at   3.745925 -1.884887  1.336840
      ESP Fit Center  205 is at   4.733404 -1.884887  1.015989
      ESP Fit Center  206 is at   2.947037 -2.465313  1.015989
      ESP Fit Center  207 is at   4.051072 -2.824036  1.015989
      ESP Fit Center  208 is at   5.343700 -1.884887  0.175989
      ESP Fit Center  209 is at   2.947037 -3.268601  0.175989
      ESP Fit Center  210 is at   4.023375 -3.458388  0.175989
      ESP Fit Center  211 is at   4.969891 -2.911917  0.175989
      ESP Fit Center  212 is at   5.343700 -1.884887 -0.862308
      ESP Fit Center  213 is at   4.023375 -3.458388 -0.862308
      ESP Fit Center  214 is at   4.969891 -2.911917 -0.862308
      ESP Fit Center  215 is at  -4.866920  1.369264 -0.051569
      ESP Fit Center  216 is at  -4.866920  0.208412 -0.051569
      ESP Fit Center  217 is at  -4.866920  2.172551 -0.891569
      ESP Fit Center  218 is at  -5.569450  1.335309 -0.891569
      ESP Fit Center  219 is at  -5.569450  0.242367 -0.891569
      ESP Fit Center  220 is at  -4.866920 -0.594876 -0.891569
      ESP Fit Center  221 is at  -4.866920  2.172551 -1.929867
      ESP Fit Center  222 is at  -5.569450  1.335309 -1.929867
      ESP Fit Center  223 is at  -5.569450  0.242367 -1.929867
      ESP Fit Center  224 is at  -4.866920 -0.594876 -1.929867
      ESP Fit Center  225 is at  -3.790582 -0.784663 -1.929867
      ESP Fit Center  226 is at  -4.866920  1.369264 -2.769867
      ESP Fit Center  227 is at  -4.866920  0.208412 -2.769867
      ESP Fit Center  228 is at  -4.068032  0.788838 -3.090718
      ESP Fit Center  229 is at  -2.646420  3.038462  0.440882
      ESP Fit Center  230 is at  -3.750455  2.679739  0.440882
      ESP Fit Center  231 is at  -1.727601  3.126343 -0.399118
      ESP Fit Center  232 is at  -2.674117  3.672814 -0.399118
      ESP Fit Center  233 is at  -3.750455  3.483027 -0.399118
      ESP Fit Center  234 is at  -4.452985  2.645784 -0.399118
      ESP Fit Center  235 is at  -1.727601  3.126343 -1.437415
      ESP Fit Center  236 is at  -2.674117  3.672814 -1.437415
      ESP Fit Center  237 is at  -3.750455  3.483027 -1.437415
      ESP Fit Center  238 is at  -4.452985  2.645784 -1.437415
      ESP Fit Center  239 is at  -2.646420  3.038462 -2.277415
      ESP Fit Center  240 is at  -0.879854  0.965074 -2.749100
      ESP Fit Center  241 is at  -1.253662  1.992104 -2.749100
      ESP Fit Center  242 is at  -2.200178  2.538575 -2.749100
      ESP Fit Center  243 is at  -3.276516 -0.418640 -2.749100
      ESP Fit Center  244 is at  -2.200178 -0.608427 -2.749100
      ESP Fit Center  245 is at  -1.253662 -0.061956 -2.749100
      ESP Fit Center  246 is at  -1.490150  0.965074 -3.589100
      ESP Fit Center  247 is at  -2.172481  1.904222 -3.589100
      ESP Fit Center  248 is at  -3.276516  1.545500 -3.589100
      ESP Fit Center  249 is at  -3.276516  0.384648 -3.589100
      ESP Fit Center  250 is at  -2.172481  0.025925 -3.589100
      ESP Fit Center  251 is at  -2.477629  0.965074 -3.909952
      ESP Fit Center  252 is at  -0.443784 -2.405122 -1.289226
      ESP Fit Center  253 is at   0.660252 -0.082259 -2.129226
      ESP Fit Center  254 is at  -0.443784 -0.440982 -2.129226
      ESP Fit Center  255 is at  -0.443784 -1.601834 -2.129226
      ESP Fit Center  256 is at   0.660252 -1.960557 -2.129226
      ESP Fit Center  257 is at   0.355104 -1.021408 -2.450078
      ESP Fit Center  258 is at  -0.632209  1.301959  2.378196
      ESP Fit Center  259 is at  -0.327061  2.241108  2.057345
      ESP Fit Center  260 is at  -1.431096  1.882385  2.057345
      ESP Fit Center  261 is at  -0.354758  2.875461  1.217345
      ESP Fit Center  262 is at  -1.431096  2.685673  1.217345
      ESP Fit Center  263 is at  -0.354758  2.875461  0.179047
      ESP Fit Center  264 is at  -1.431096  2.685673  0.179047
      ESP Fit Center  265 is at   2.682003  0.479867  2.366866
      ESP Fit Center  266 is at   1.120021  1.381678 -1.957785
      ESP Fit Center  267 is at  -0.185293 -2.216165  3.541194
      ESP Fit Center  268 is at   0.856028 -2.216165  3.541194
      ESP Fit Center  269 is at   0.068329 -3.171651  2.875244
      ESP Fit Center  270 is at   0.068329 -3.171651 -0.117507
      ESP Fit Center  271 is at   4.019784  0.822584  2.241053
      ESP Fit Center  272 is at   3.499123 -0.079227  2.003379
      ESP Fit Center  273 is at   5.598308  1.837040  1.337429
      ESP Fit Center  274 is at   6.127895  1.837797  0.375104
      ESP Fit Center  275 is at   5.478642  2.651934  0.375104
      ESP Fit Center  276 is at   6.359610  0.822584 -0.692997
      ESP Fit Center  277 is at   5.478642  2.651934 -0.692997
      ESP Fit Center  278 is at   2.791006  2.240669 -1.655322
      ESP Fit Center  279 is at   5.372822 -1.288879 -1.462849
      ESP Fit Center  280 is at   3.553656 -3.570042 -1.462849
      ESP Fit Center  281 is at   2.765957 -3.146175 -2.425174
      ESP Fit Center  282 is at   3.812478 -2.995708 -2.425174
      ESP Fit Center  283 is at  -4.820967  1.603980  0.205635
      ESP Fit Center  284 is at  -0.912468  2.090551 -1.824791
      ESP Fit Center  285 is at  -4.479437  2.904689 -1.824791
      ESP Fit Center  286 is at  -3.287618  2.932635 -2.787116
      ESP Fit Center  287 is at  -4.249357  2.493424 -2.787116
      ESP Fit Center  288 is at  -3.287618 -0.781958 -2.787116
      ESP Fit Center  289 is at  -4.061900  1.075338 -3.453066
      ESP Fit Center  290 is at  -0.212568  2.825387 -0.512034
      ESP Fit Center  291 is at   0.046255  2.251054 -1.474359
      ESP Fit Center  292 is at  -1.000267  2.401521 -1.474359
      ESP Fit Center  293 is at   0.308093  0.544225 -2.140309
      ESP Fit Center  294 is at  -0.212568  1.446035 -2.140309
      ESP Fit Center  295 is at   3.340272 -0.896336  1.862164
      ESP Fit Center  296 is at   2.552573  1.862770 -1.796537
      ESP Fit Center  297 is at   2.298951  0.907284 -2.462487
      ESP Fit Center  298 is at   1.555434  1.573871  3.002831
      ESP Fit Center  299 is at   2.527334  1.573871  2.781001
      ESP Fit Center  300 is at   2.041384  2.415560  2.781001
      ESP Fit Center  301 is at   1.069485  2.415560  2.781001
      ESP Fit Center  302 is at   0.583535  1.573871  2.781001
      ESP Fit Center  303 is at   2.041384  0.732181  2.781001
      ESP Fit Center  304 is at   2.972268  2.603260  2.159448
      ESP Fit Center  305 is at   2.096617  3.239458  2.159448
      ESP Fit Center  306 is at   1.014252  3.239458  2.159448
      ESP Fit Center  307 is at   0.138601  2.603260  2.159448
      ESP Fit Center  308 is at   2.795996  3.371134  1.261277
      ESP Fit Center  309 is at   1.818667  3.741786  1.261277
      ESP Fit Center  310 is at   0.781035  3.615795  1.261277
      ESP Fit Center  311 is at   1.818667  3.741786  0.264384
      ESP Fit Center  312 is at   0.781035  3.615795  0.264384
      ESP Fit Center  313 is at   2.096617  3.239458 -0.633787
      ESP Fit Center  314 is at   1.014252  3.239458 -0.633787
      ESP Fit Center  315 is at   2.041384  2.415560 -1.255340
      ESP Fit Center  316 is at   1.069485  2.415560 -1.255340
      ESP Fit Center  317 is at  -3.021440  0.176321  3.431479
      ESP Fit Center  318 is at  -2.049540  0.176321  3.209650
      ESP Fit Center  319 is at  -2.535490  1.018011  3.209650
      ESP Fit Center  320 is at  -3.507389  1.018011  3.209650
      ESP Fit Center  321 is at  -3.993339  0.176321  3.209650
      ESP Fit Center  322 is at  -3.507389 -0.665369  3.209650
      ESP Fit Center  323 is at  -2.535490 -0.665369  3.209650
      ESP Fit Center  324 is at  -1.604606  1.205711  2.588097
      ESP Fit Center  325 is at  -2.480257  1.841909  2.588097
      ESP Fit Center  326 is at  -3.562622  1.841909  2.588097
      ESP Fit Center  327 is at  -4.438273  1.205711  2.588097
      ESP Fit Center  328 is at  -4.772742  0.176321  2.588097
      ESP Fit Center  329 is at  -4.438273 -0.853069  2.588097
      ESP Fit Center  330 is at  -3.562622 -1.489267  2.588097
      ESP Fit Center  331 is at  -2.480257 -1.489267  2.588097
      ESP Fit Center  332 is at  -2.758207  2.344237  1.689926
      ESP Fit Center  333 is at  -3.795839  2.218246  1.689926
      ESP Fit Center  334 is at  -4.656066  1.624474  1.689926
      ESP Fit Center  335 is at  -5.141820  0.698948  1.689926
      ESP Fit Center  336 is at  -5.141820 -0.346306  1.689926
      ESP Fit Center  337 is at  -4.656066 -1.271832  1.689926
      ESP Fit Center  338 is at  -3.795839 -1.865603  1.689926
      ESP Fit Center  339 is at  -4.656066  1.624474  0.693033
      ESP Fit Center  340 is at  -5.141820  0.698948  0.693033
      ESP Fit Center  341 is at  -5.141820 -0.346306  0.693033
      ESP Fit Center  342 is at  -3.640997 -2.412762  0.730906
      ESP Fit Center  343 is at  -2.765345 -3.048960  0.730906
      ESP Fit Center  344 is at  -3.858790 -2.831525 -0.167264
      ESP Fit Center  345 is at  -2.998563 -3.425297 -0.167264
      ESP Fit Center  346 is at  -1.960931 -3.551288 -0.167264
      ESP Fit Center  347 is at  -0.983602 -3.180636 -0.167264
      ESP Fit Center  348 is at  -4.344543 -1.905999 -1.164158
      ESP Fit Center  349 is at  -3.858790 -2.831525 -1.164158
      ESP Fit Center  350 is at  -2.998563 -3.425297 -1.164158
      ESP Fit Center  351 is at  -1.960931 -3.551288 -1.164158
      ESP Fit Center  352 is at  -0.983602 -3.180636 -1.164158
      ESP Fit Center  353 is at  -3.975466 -1.383372 -2.062328
      ESP Fit Center  354 is at  -3.640997 -2.412762 -2.062328
      ESP Fit Center  355 is at  -2.765345 -3.048960 -2.062328
      ESP Fit Center  356 is at  -1.682981 -3.048960 -2.062328
      ESP Fit Center  357 is at  -0.807330 -2.412762 -2.062328
      ESP Fit Center  358 is at  -1.252264 -1.383372 -2.683881
      ESP Fit Center  359 is at  -3.196063 -1.383372 -2.683881
      ESP Fit Center  360 is at  -2.710113 -2.225062 -2.683881
      ESP Fit Center  361 is at  -1.738213 -2.225062 -2.683881
      ESP Fit Center  362 is at  -2.224163 -1.383372 -2.905711
      ESP Fit Center  363 is at  -2.576917  2.529769  0.999867
      ESP Fit Center  364 is at  -3.599947 -2.283211  0.999867
      ESP Fit Center  365 is at  -5.058841 -0.557421 -0.071647
      ESP Fit Center  366 is at  -4.687124 -1.516932 -0.071647
      ESP Fit Center  367 is at  -4.021159 -1.032872 -2.051546
      ESP Fit Center  368 is at   0.326812 -0.703522  4.207371
      ESP Fit Center  369 is at   1.286812 -0.703522  3.950139
      ESP Fit Center  370 is at   0.806812  0.127863  3.950139
      ESP Fit Center  371 is at  -0.153188  0.127863  3.950139
      ESP Fit Center  372 is at  -0.633188 -0.703522  3.950139
      ESP Fit Center  373 is at  -0.153188 -1.534906  3.950139
      ESP Fit Center  374 is at   0.806812 -1.534906  3.950139
      ESP Fit Center  375 is at   1.989581 -0.703522  3.247371
      ESP Fit Center  376 is at   1.672021  0.273829  3.247371
      ESP Fit Center  377 is at   0.840636  0.877866  3.247371
      ESP Fit Center  378 is at  -0.187011  0.877866  3.247371
      ESP Fit Center  379 is at  -1.018396  0.273829  3.247371
      ESP Fit Center  380 is at  -1.335956 -0.703522  3.247371
      ESP Fit Center  381 is at  -1.522420 -1.936596  3.020520
      ESP Fit Center  382 is at  -1.042420 -2.767980  3.020520
      ESP Fit Center  383 is at  -2.225188 -1.936596  2.317751
      ESP Fit Center  384 is at  -1.907628 -2.913947  2.317751
      ESP Fit Center  385 is at  -1.076243 -3.517983  2.317751
      ESP Fit Center  386 is at  -0.048596 -3.517983  2.317751
      ESP Fit Center  387 is at  -2.225188 -2.896596  1.357751
      ESP Fit Center  388 is at  -1.522420 -3.599365  1.357751
      ESP Fit Center  389 is at  -0.562420 -3.856596  1.357751
      ESP Fit Center  390 is at  -1.076243 -3.517983  0.397751
      ESP Fit Center  391 is at  -0.048596 -3.517983  0.397751
      ESP Fit Center  392 is at   2.170398 -1.973623  3.079908
      ESP Fit Center  393 is at   1.690398 -2.805007  3.079908
      ESP Fit Center  394 is at   2.873166 -1.973623  2.377139
      ESP Fit Center  395 is at   2.555606 -0.996272  2.377139
      ESP Fit Center  396 is at   0.696574 -3.555010  2.377139
      ESP Fit Center  397 is at   1.724221 -3.555010  2.377139
      ESP Fit Center  398 is at   2.555606 -2.950974  2.377139
      ESP Fit Center  399 is at   1.210398 -3.893623  1.417139
      ESP Fit Center  400 is at   2.170398 -3.636391  1.417139
      ESP Fit Center  401 is at   2.873166 -2.933623  1.417139
      ESP Fit Center  402 is at   0.696574 -3.555010  0.457139
      ESP Fit Center  403 is at   1.724221 -3.555010  0.457139
      ESP Fit Center  404 is at   4.762742  0.308167  2.384541
      ESP Fit Center  405 is at   5.722742  0.308167  2.127309
      ESP Fit Center  406 is at   5.242742  1.139552  2.127309
      ESP Fit Center  407 is at   4.282742 -0.523217  2.127309
      ESP Fit Center  408 is at   5.242742 -0.523217  2.127309
      ESP Fit Center  409 is at   6.425511  0.308167  1.424541
      ESP Fit Center  410 is at   6.107950  1.285518  1.424541
      ESP Fit Center  411 is at   4.248918 -1.273220  1.424541
      ESP Fit Center  412 is at   5.276566 -1.273220  1.424541
      ESP Fit Center  413 is at   6.107950 -0.669184  1.424541
      ESP Fit Center  414 is at   6.682742  0.308167  0.464541
      ESP Fit Center  415 is at   6.425511  1.268167  0.464541
      ESP Fit Center  416 is at   5.722742 -1.354602  0.464541
      ESP Fit Center  417 is at   6.425511 -0.651833  0.464541
      ESP Fit Center  418 is at   6.425511  0.308167 -0.495459
      ESP Fit Center  419 is at   6.107950 -0.669184 -0.495459
      ESP Fit Center  420 is at   3.744463  1.767094  2.226819
      ESP Fit Center  421 is at   4.704463  1.767094  1.969588
      ESP Fit Center  422 is at   4.224463  2.598479  1.969588
      ESP Fit Center  423 is at   3.264463  2.598479  1.969588
      ESP Fit Center  424 is at   5.089671  2.744445  1.266819
      ESP Fit Center  425 is at   4.258287  3.348482  1.266819
      ESP Fit Center  426 is at   3.230639  3.348482  1.266819
      ESP Fit Center  427 is at   5.407232  2.727094  0.306819
      ESP Fit Center  428 is at   4.704463  3.429863  0.306819
      ESP Fit Center  429 is at   3.744463  3.687094  0.306819
      ESP Fit Center  430 is at   2.784463  3.429863  0.306819
      ESP Fit Center  431 is at   4.258287  3.348482 -0.653181
      ESP Fit Center  432 is at   3.230639  3.348482 -0.653181
      ESP Fit Center  433 is at   6.384884  1.010812 -1.143993
      ESP Fit Center  434 is at   6.127653  1.970812 -1.143993
      ESP Fit Center  435 is at   5.424884  2.673581 -1.143993
      ESP Fit Center  436 is at   6.127653  0.050812 -1.143993
      ESP Fit Center  437 is at   6.127653  1.010812 -2.103993
      ESP Fit Center  438 is at   5.810092  1.988163 -2.103993
      ESP Fit Center  439 is at   4.978708  2.592199 -2.103993
      ESP Fit Center  440 is at   3.951060  2.592199 -2.103993
      ESP Fit Center  441 is at   3.119676  1.988163 -2.103993
      ESP Fit Center  442 is at   5.810092  0.033461 -2.103993
      ESP Fit Center  443 is at   5.424884  1.010812 -2.806762
      ESP Fit Center  444 is at   4.944884  1.842197 -2.806762
      ESP Fit Center  445 is at   3.984884  1.842197 -2.806762
      ESP Fit Center  446 is at   3.504884  1.010812 -2.806762
      ESP Fit Center  447 is at   4.944884  0.179428 -2.806762
      ESP Fit Center  448 is at   4.464884  1.010812 -3.063993
      ESP Fit Center  449 is at   5.370242 -1.155732 -1.935453
      ESP Fit Center  450 is at   5.113011 -2.115732 -1.935453
      ESP Fit Center  451 is at   5.113011 -1.155732 -2.895453
      ESP Fit Center  452 is at   4.795450 -0.178381 -2.895453
      ESP Fit Center  453 is at   2.936418  0.425655 -2.895453
      ESP Fit Center  454 is at   2.105034 -0.178381 -2.895453
      ESP Fit Center  455 is at   2.936418 -2.737119 -2.895453
      ESP Fit Center  456 is at   3.964066 -2.737119 -2.895453
      ESP Fit Center  457 is at   4.795450 -2.133083 -2.895453
      ESP Fit Center  458 is at   4.410242 -1.155732 -3.598222
      ESP Fit Center  459 is at   3.930242 -0.324347 -3.598222
      ESP Fit Center  460 is at   2.970242 -0.324347 -3.598222
      ESP Fit Center  461 is at   2.490242 -1.155732 -3.598222
      ESP Fit Center  462 is at   2.970242 -1.987116 -3.598222
      ESP Fit Center  463 is at   3.930242 -1.987116 -3.598222
      ESP Fit Center  464 is at   3.450242 -1.155732 -3.855453
      ESP Fit Center  465 is at   1.594179 -3.436334 -0.055314
      ESP Fit Center  466 is at   1.148003 -3.517715 -1.015314
      ESP Fit Center  467 is at   2.108003 -3.774947 -1.015314
      ESP Fit Center  468 is at   0.762795 -2.832297 -1.975314
      ESP Fit Center  469 is at   1.594179 -3.436334 -1.975314
      ESP Fit Center  470 is at   2.621827 -3.436334 -1.975314
      ESP Fit Center  471 is at   1.148003 -1.854947 -2.678082
      ESP Fit Center  472 is at   1.628003 -2.686331 -2.678082
      ESP Fit Center  473 is at   3.745925 -1.884887  1.576840
      ESP Fit Center  474 is at   4.705925 -1.884887  1.319609
      ESP Fit Center  475 is at   3.265925 -2.716272  1.319609
      ESP Fit Center  476 is at   4.225925 -2.716272  1.319609
      ESP Fit Center  477 is at   5.408693 -1.884887  0.616840
      ESP Fit Center  478 is at   3.232101 -3.466274  0.616840
[...]
  444 Fit       0.015749
  445 Fit       0.013412
  446 Fit       0.016167
  447 Fit       0.022735
  448 Fit       0.018708
  449 Fit       0.022747
  450 Fit       0.022557
  451 Fit       0.022385
  452 Fit       0.023813
  453 Fit       0.016817
  454 Fit       0.017877
  455 Fit       0.022572
  456 Fit       0.022169
  457 Fit       0.021897
  458 Fit       0.021950
  459 Fit       0.021370
  460 Fit       0.019338
  461 Fit       0.019531
  462 Fit       0.020567
  463 Fit       0.021441
  464 Fit       0.020792
  465 Fit       0.022405
  466 Fit       0.019723
  467 Fit       0.021808
  468 Fit       0.019366
  469 Fit       0.020695
  470 Fit       0.023573
  471 Fit       0.022069
  472 Fit       0.021091
  473 Fit       0.019857
  474 Fit       0.021598
  475 Fit       0.022446
  476 Fit       0.021067
  477 Fit       0.023055
  478 Fit       0.021804
  479 Fit       0.021360
  480 Fit       0.021880
  481 Fit       0.022530
  482 Fit       0.021663
  483 Fit       0.021655
  484 Fit       0.021895
  485 Fit       0.022396
  486 Fit       0.022701
  487 Fit       0.022039
  488 Fit      -0.011168
  489 Fit       0.007859
  490 Fit       0.005341
  491 Fit       0.001178
  492 Fit       0.016307
  493 Fit       0.014120
  494 Fit       0.012647
  495 Fit       0.009333
  496 Fit       0.002478
  497 Fit       0.017017
  498 Fit       0.015519
  499 Fit       0.011802
  500 Fit       0.004124
  501 Fit       0.018685
  502 Fit       0.016145
  503 Fit       0.012281
  504 Fit       0.014093
  505 Fit       0.005241
  506 Fit       0.018774
  507 Fit       0.016205
  508 Fit       0.014203
  509 Fit       0.009805
  510 Fit       0.010752
  511 Fit       0.016051
  512 Fit       0.017587
  513 Fit       0.016725
  514 Fit       0.015003
  515 Fit       0.014018
  516 Fit       0.017491
  517 Fit       0.018417
  518 Fit       0.018468
  519 Fit       0.005047
  520 Fit       0.015318
  521 Fit       0.015592
  522 Fit       0.017745
  523 Fit       0.019704
  524 Fit       0.003046
  525 Fit       0.003407
  526 Fit       0.013152
  527 Fit       0.018229
  528 Fit       0.018947
  529 Fit       0.018933
  530 Fit       0.017255
  531 Fit       0.013892
  532 Fit       0.015001
  533 Fit       0.018139
  534 Fit       0.014101
  535 Fit       0.001075
  536 Fit       0.018591
  537 Fit       0.011205
  538 Fit       0.000628
  539 Fit       0.005968
  540 Fit       0.015945
  541 Fit      -0.001291
  542 Fit      -0.010317
  543 Fit       0.000323
  544 Fit      -0.014070
  545 Fit       0.006400
  546 Fit       0.001620
  547 Fit       0.001016
  548 Fit       0.017562
  549 Fit      -0.014666
  550 Fit      -0.008120
  551 Fit       0.004660
  552 Fit      -0.002303
  553 Fit       0.001907
  554 Fit       0.005700
  555 Fit       0.000159
  556 Fit       0.004737
  557 Fit       0.003706
  558 Fit       0.003737
  559 Fit      -0.000662
  560 Fit       0.000068
  561 Fit       0.003814
  562 Fit       0.007481
  563 Fit       0.010846
  564 Fit       0.007979
  565 Fit       0.012565
  566 Fit       0.010105
  567 Fit       0.006084
  568 Fit       0.017708
  569 Fit       0.002061
  570 Fit       0.020601
  571 Fit       0.020017
  572 Fit       0.020032
  573 Fit       0.020416
  574 Fit       0.020508
  575 Fit       0.014811
  576 Fit       0.019170
  577 Fit       0.019673
  578 Fit       0.013468
  579 Fit       0.011849
  580 Fit       0.015236
  581 Fit       0.016074
  582 Fit       0.015475
  583 Fit      -0.000783
  584 Fit       0.014903
  585 Fit      -0.009701
  586 Fit      -0.006592
  587 Fit       0.008215
  588 Fit       0.002542
  589 Fit       0.010019
  590 Fit       0.003404
  591 Fit       0.010170
  592 Fit      -0.021641
  593 Fit      -0.020584
  594 Fit      -0.027138
  595 Fit      -0.026064
  596 Fit      -0.016804
  597 Fit      -0.011604
  598 Fit      -0.021442
  599 Fit      -0.028360
  600 Fit      -0.029013
  601 Fit      -0.022192
  602 Fit      -0.028201
  603 Fit      -0.027473
  604 Fit      -0.017978
  605 Fit      -0.025114
  606 Fit      -0.025089
  607 Fit      -0.016135
  608 Fit      -0.017473
  609 Fit      -0.021170
  610 Fit      -0.017263
  611 Fit      -0.009087
  612 Fit      -0.012646
  613 Fit      -0.035595
  614 Fit      -0.028522
  615 Fit      -0.030790
  616 Fit      -0.034797
  617 Fit      -0.037745
  618 Fit      -0.038318
  619 Fit      -0.033375
  620 Fit      -0.013849
  621 Fit      -0.021616
  622 Fit      -0.028351
  623 Fit      -0.032724
  624 Fit      -0.035947
  625 Fit      -0.038649
  626 Fit      -0.040072
  627 Fit      -0.037469
  628 Fit      -0.027834
  629 Fit      -0.008375
  630 Fit      -0.018659
  631 Fit      -0.025317
  632 Fit      -0.029823
  633 Fit      -0.033408
  634 Fit      -0.036754
  635 Fit      -0.039537
  636 Fit      -0.016152
  637 Fit      -0.021206
  638 Fit      -0.038021
  639 Fit      -0.030621
  640 Fit      -0.033915
  641 Fit      -0.036512
  642 Fit      -0.033546
  643 Fit      -0.026195
  644 Fit      -0.029080
  645 Fit      -0.033739
  646 Fit      -0.032126
  647 Fit      -0.026476
  648 Fit      -0.015361
  649 Fit      -0.021485
  650 Fit      -0.029404
  651 Fit      -0.028665
  652 Fit      -0.022429
  653 Fit      -0.009434
  654 Fit      -0.008716
  655 Fit      -0.013943
  656 Fit      -0.023811
  657 Fit      -0.020056
  658 Fit      -0.012872
  659 Fit      -0.000162
  660 Fit      -0.036146
  661 Fit      -0.024732
  662 Fit      -0.031642
  663 Fit      -0.008922
  664 Fit      -0.026494
  665 Fit      -0.001309
  666 Fit       0.001169
  667 Fit      -0.002499
  668 Fit      -0.004903
  669 Fit      -0.007107
  670 Fit      -0.002858
  671 Fit       0.001346
  672 Fit       0.003112
  673 Fit      -0.004925
  674 Fit      -0.011841
  675 Fit      -0.007905
  676 Fit      -0.010214
  677 Fit      -0.019979
  678 Fit      -0.014280
  679 Fit      -0.005871
  680 Fit      -0.020854
  681 Fit      -0.009935
  682 Fit      -0.002867
  683 Fit      -0.020334
  684 Fit      -0.008665
  685 Fit      -0.000635
  686 Fit      -0.010263
  687 Fit       0.007427
  688 Fit       0.006913
  689 Fit       0.013175
  690 Fit       0.008925
  691 Fit       0.005683
  692 Fit       0.010354
  693 Fit       0.013380
  694 Fit       0.010634
  695 Fit       0.016134
  696 Fit       0.020672
  697 Fit       0.011244
  698 Fit       0.019601
  699 Fit       0.006598
  700 Fit       0.010489
  701 Fit       0.006073
  702 Fit       0.010311
  703 Fit       0.012477
  704 Fit       0.012943
  705 Fit       0.010544
  706 Fit       0.017493
  707 Fit       0.015119
  708 Fit       0.014379
  709 Fit       0.012969
  710 Fit       0.019787
  711 Fit       0.016400
  712 Fit       0.015876
  713 Fit       0.018017
  714 Fit      -0.009676
  715 Fit      -0.003738
  716 Fit       0.005611
  717 Fit      -0.000044
  718 Fit      -0.012197
  719 Fit       0.005005
  720 Fit      -0.001843
  721 Fit      -0.016017
  722 Fit       0.004749
  723 Fit      -0.003194
  724 Fit       0.014981
  725 Fit       0.013148
  726 Fit       0.010695
  727 Fit       0.015670
  728 Fit       0.013598
  729 Fit       0.010962
  730 Fit       0.007636
  731 Fit       0.004901
  732 Fit       0.018207
  733 Fit       0.016601
  734 Fit       0.013684
  735 Fit       0.011685
  736 Fit       0.014752
  737 Fit       0.020949
  738 Fit       0.016758
  739 Fit       0.020867
  740 Fit       0.019982
  741 Fit       0.021294
  742 Fit       0.015812
  743 Fit       0.014654
  744 Fit       0.020022
  745 Fit       0.019682
  746 Fit       0.019537
  747 Fit       0.019261
  748 Fit       0.018755
  749 Fit       0.016981
  750 Fit       0.017295
  751 Fit       0.018134
  752 Fit       0.018833
  753 Fit       0.018181
  754 Fit       0.019551
  755 Fit       0.012497
  756 Fit       0.016458
  757 Fit       0.019397
  758 Fit       0.015005
  759 Fit       0.017982
  760 Fit       0.018388
  761 Fit       0.017925
  762 Fit       0.017502
  763 Fit       0.019046
  764 Fit       0.020403
  765 Fit       0.018442
  766 Fit       0.020605
  767 Fit       0.018983
  768 Fit       0.018731
  769 Fit       0.019211
  770 Fit       0.020343
  771 Fit       0.019070
  772 Fit       0.019100
  773 Fit       0.019433
  774 Fit       0.020130
  775 Fit       0.019907
  776 Fit       0.006089
  777 Fit       0.003002
  778 Fit      -0.000543
  779 Fit       0.011728
  780 Fit       0.010002
  781 Fit       0.007628
  782 Fit       0.003091
  783 Fit       0.014820
  784 Fit       0.013103
  785 Fit       0.010721
  786 Fit       0.005938
  787 Fit      -0.002905
  788 Fit       0.013268
  789 Fit       0.009444
  790 Fit       0.009295
  791 Fit       0.000746
  792 Fit       0.012087
  793 Fit       0.011013
  794 Fit       0.008113
  795 Fit       0.003290
  796 Fit       0.005455
  797 Fit       0.011607
  798 Fit       0.013763
  799 Fit       0.013723
  800 Fit       0.012559
  801 Fit       0.010671
  802 Fit       0.014004
  803 Fit       0.015324
  804 Fit       0.015531
  805 Fit       0.012664
  806 Fit       0.012607
  807 Fit       0.014606
  808 Fit      -0.002185
  809 Fit       0.001628
  810 Fit       0.011062
  811 Fit       0.015058
  812 Fit       0.015876
  813 Fit       0.016111
  814 Fit       0.014542
  815 Fit       0.010918
  816 Fit       0.011816
  817 Fit       0.015000
  818 Fit       0.005851
  819 Fit       0.016077
  820 Fit       0.010279
  821 Fit       0.003346
  822 Fit       0.013533
  823 Fit      -0.005246
  824 Fit      -0.013557
  825 Fit      -0.004544
  826 Fit      -0.000945
  827 Fit       0.001375
  828 Fit      -0.007486
  829 Fit       0.009717
  830 Fit      -0.003473
  831 Fit       0.005549
  832 Fit      -0.002850
  833 Fit       0.000935
  834 Fit       0.004118
  835 Fit      -0.012581
  836 Fit      -0.005690
  837 Fit      -0.000719
  838 Fit       0.003197
  839 Fit       0.005289
  840 Fit       0.000501
  841 Fit       0.004096
  842 Fit       0.005340
  843 Fit       0.001234
  844 Fit      -0.001195
  845 Fit      -0.001031
  846 Fit       0.002643
  847 Fit       0.005534
  848 Fit       0.008946
  849 Fit       0.006027
  850 Fit       0.010618
  851 Fit       0.008294
  852 Fit       0.013514
  853 Fit       0.011766
  854 Fit       0.009573
  855 Fit       0.006616
  856 Fit       0.001976
  857 Fit      -0.004084
  858 Fit       0.003855
  859 Fit       0.019002
  860 Fit       0.017352
  861 Fit       0.018122
  862 Fit       0.017062
  863 Fit       0.017586
  864 Fit       0.018163
  865 Fit       0.013709
  866 Fit       0.015819
  867 Fit       0.016294
  868 Fit       0.017042
  869 Fit       0.000745
  870 Fit       0.007820
  871 Fit       0.003760
  872 Fit       0.012461
  873 Fit       0.010430
  874 Fit       0.012964
  875 Fit       0.013859
  876 Fit       0.013257
  877 Fit       0.012905
  878 Fit      -0.003840
  879 Fit       0.013925
  880 Fit       0.013331
  881 Fit       0.012955
  882 Fit       0.006217
  883 Fit       0.012646
  884 Fit      -0.004403
  885 Fit      -0.007871
  886 Fit      -0.001453
  887 Fit       0.009132
  888 Fit       0.008379
  889 Fit       0.005146
  890 Fit       0.010831
  891 Fit      -0.017045
  892 Fit      -0.016197
  893 Fit      -0.021450
  894 Fit      -0.020913
  895 Fit      -0.014244
  896 Fit      -0.009452
  897 Fit      -0.011167
  898 Fit      -0.017194
  899 Fit      -0.022262
  900 Fit      -0.023810
  901 Fit      -0.021057
  902 Fit      -0.013651
  903 Fit      -0.005262
  904 Fit      -0.022606
  905 Fit      -0.023277
  906 Fit      -0.018759
  907 Fit      -0.018093
  908 Fit      -0.021836
  909 Fit      -0.020319
  910 Fit      -0.012561
  911 Fit      -0.017043
  912 Fit      -0.018848
  913 Fit      -0.014599
  914 Fit      -0.010063
  915 Fit      -0.014331
  916 Fit      -0.013071
  917 Fit      -0.029868
  918 Fit      -0.024302
  919 Fit      -0.026225
  920 Fit      -0.029509
  921 Fit      -0.031953
  922 Fit      -0.032111
  923 Fit      -0.027985
  924 Fit      -0.015054
  925 Fit      -0.019443
  926 Fit      -0.023772
  927 Fit      -0.027157
  928 Fit      -0.029803
  929 Fit      -0.031985
  930 Fit      -0.033549
  931 Fit      -0.033516
  932 Fit      -0.030108
  933 Fit      -0.010271
  934 Fit      -0.017123
  935 Fit      -0.021929
  936 Fit      -0.025543
  937 Fit      -0.028436
  938 Fit      -0.031021
  939 Fit      -0.033240
  940 Fit      -0.034296
  941 Fit      -0.013575
  942 Fit      -0.018198
  943 Fit      -0.021727
  944 Fit      -0.025203
  945 Fit      -0.029021
  946 Fit      -0.032004
  947 Fit      -0.030682
  948 Fit      -0.026059
  949 Fit      -0.027654
  950 Fit      -0.029517
  951 Fit      -0.027846
  952 Fit      -0.023385
  953 Fit      -0.015620
  954 Fit      -0.016366
  955 Fit      -0.024840
  956 Fit      -0.026760
  957 Fit      -0.024636
  958 Fit      -0.019111
  959 Fit      -0.008492
  960 Fit      -0.019627
  961 Fit      -0.023019
  962 Fit      -0.021272
  963 Fit      -0.015341
  964 Fit      -0.004987
  965 Fit      -0.004764
  966 Fit      -0.009263
  967 Fit      -0.017326
  968 Fit      -0.014169
  969 Fit      -0.008025
  970 Fit      -0.006982
  971 Fit      -0.030590
  972 Fit      -0.028742
  973 Fit      -0.031251
  974 Fit      -0.010070
  975 Fit      -0.017677
  976 Fit      -0.026484
  977 Fit      -0.011824
  978 Fit       0.010095
  979 Fit      -0.002389
  980 Fit       0.000021
  981 Fit      -0.003257
  982 Fit      -0.005692
  983 Fit      -0.007172
  984 Fit      -0.003421
  985 Fit       0.000264
  986 Fit       0.001833
  987 Fit      -0.004272
  988 Fit      -0.009312
  989 Fit      -0.008297
  990 Fit      -0.010928
  991 Fit      -0.017272
  992 Fit      -0.014342
  993 Fit      -0.019444
  994 Fit      -0.009838
  995 Fit      -0.003444
  996 Fit      -0.023765
  997 Fit      -0.013021
  998 Fit      -0.005312
  999 Fit      -0.021340
 1000 Fit      -0.008759
 1001 Fit      -0.012655
 1002 Fit       0.005329
 1003 Fit       0.010141
 1004 Fit       0.004238
 1005 Fit       0.008007
 1006 Fit       0.010390
 1007 Fit       0.004451
 1008 Fit       0.009149
 1009 Fit       0.013223
 1010 Fit       0.016300
 1011 Fit       0.005926
 1012 Fit       0.012146
 1013 Fit       0.017735
 1014 Fit       0.005329
 1015 Fit       0.008595
 1016 Fit       0.004716
 1017 Fit       0.008445
 1018 Fit       0.010292
 1019 Fit       0.010837
 1020 Fit       0.008575
 1021 Fit       0.015719
 1022 Fit       0.014585
 1023 Fit       0.012750
 1024 Fit       0.012349
 1025 Fit       0.010816
 1026 Fit       0.016582
 1027 Fit       0.014110
 1028 Fit       0.013617
 1029 Fit       0.018555
 1030 Fit       0.015348
 1031 Fit      -0.009276
 1032 Fit      -0.004940
 1033 Fit       0.003473
 1034 Fit      -0.002036
 1035 Fit      -0.012983
 1036 Fit       0.003661
 1037 Fit      -0.002075
 1038 Fit      -0.012827
 1039 Fit       0.005565
 1040 Fit       0.000336
 1041 Fit      -0.008319
 1042 Fit      -0.001770
 1043 Fit       0.013787
 1044 Fit       0.012062
 1045 Fit       0.010022
 1046 Fit       0.007284
 1047 Fit       0.015839
 1048 Fit       0.014408
 1049 Fit       0.012411
 1050 Fit       0.010189
 1051 Fit       0.007692
 1052 Fit       0.006005
 1053 Fit       0.017000
 1054 Fit       0.015060
 1055 Fit       0.012499
 1056 Fit       0.011150
 1057 Fit       0.014119
 1058 Fit       0.018923
 1059 Fit       0.015246
 1060 Fit       0.018660
 1061 Fit       0.018258
 1062 Fit       0.017824
 1063 Fit       0.018501
 1064 Fit       0.014641
 1065 Fit       0.013859
 1066 Fit       0.017287
 1067 Fit       0.017355
 1068 Fit       0.017450
 1069 Fit       0.017045
 1070 Fit       0.016593
 1071 Fit       0.015341
 1072 Fit       0.015498
 1073 Fit       0.016111
 1074 Fit       0.016709
 1075 Fit       0.016161
 1076 Fit       0.010607
 1077 Fit       0.014907
 1078 Fit       0.010246
 1079 Fit       0.014471
 1080 Fit       0.012401
 1081 Fit       0.015617
 1082 Fit       0.015742
 1083 Fit       0.015795
 1084 Fit       0.015509
 1085 Fit       0.016629
 1086 Fit       0.016279
 1087 Fit       0.018356
 1088 Fit       0.017010
 1089 Fit       0.016533
 1090 Fit       0.016955
 1091 Fit       0.018670
 1092 Fit       0.017230
 1093 Fit       0.016726
 1094 Fit       0.016932
 1095 Fit       0.017431
 1096 Fit       0.018595
 1097 Fit       0.017429
 1098 Fit       0.017371
 1099 Fit       0.017694
 1100 Fit      -0.003047
 1101 Fit      -0.007494
 1102 Fit       0.006051
 1103 Fit       0.003855
 1104 Fit       0.000501
 1105 Fit       0.011826
 1106 Fit       0.009908
 1107 Fit       0.008108
 1108 Fit       0.005217
 1109 Fit      -0.000106
 1110 Fit       0.013061
 1111 Fit       0.011160
 1112 Fit       0.008807
 1113 Fit       0.004718
 1114 Fit       0.011312
 1115 Fit       0.008244
 1116 Fit      -0.004476
 1117 Fit       0.008304
 1118 Fit       0.006625
 1119 Fit       0.003345
 1120 Fit       0.007841
 1121 Fit       0.009939
 1122 Fit       0.010089
 1123 Fit       0.008914
 1124 Fit       0.007211
 1125 Fit       0.008764
 1126 Fit       0.011390
 1127 Fit       0.012132
 1128 Fit       0.011927
 1129 Fit       0.012433
 1130 Fit       0.013486
 1131 Fit       0.005764
 1132 Fit       0.009147
 1133 Fit       0.011887
 1134 Fit       0.011842
 1135 Fit       0.013006
 1136 Fit       0.014387
 1137 Fit       0.000518
 1138 Fit       0.003447
 1139 Fit       0.010099
 1140 Fit       0.012861
 1141 Fit       0.013637
 1142 Fit       0.013815
 1143 Fit       0.012425
 1144 Fit       0.009540
 1145 Fit       0.010237
 1146 Fit       0.012697
 1147 Fit      -0.002052
 1148 Fit       0.004843
 1149 Fit       0.014342
 1150 Fit       0.010218
 1151 Fit       0.003677
 1152 Fit       0.011877
 1153 Fit      -0.008130
 1154 Fit      -0.004939
 1155 Fit      -0.005063
 1156 Fit       0.001088
 1157 Fit       0.005552
 -----------------------------------------------------------------
 Leave Link  602 at Sat Feb 17 21:00:38 2018, MaxMem=   33554432 cpu:       0.6

 Test job not archived.
 1\1\GINC-NODE004\SP\RHF\6-31G(d)\C6H14N2O3S1\WULSDORT\17-Feb-2018\0\\#
 HF/6-31G* Geom=AllCheck Guess=Read Pop=(MK,ReadRadii) Integral=(Grid=U
 ltraFine) iop(6/33=2)\\Optimization for frag24-conf0\\0,1\C,0,-0.35899
 41064,-2.6818246444,2.1792325058\C,0,0.5560381952,-0.3615257388,2.4639
 303553\C,0,-0.787498844,-4.4922107146,3.7440289111\C,0,-1.8567066003,-
 2.325141877,4.1744997544\C,0,-1.4702024265,-0.3248997428,-2.0074042319
 \C,0,-0.5157974668,-1.2090163872,1.7495126383\N,0,-0.3970362563,-1.240
 8472042,0.2831727243\N,0,-1.0022739,-3.1179979588,3.3042180747\O,0,0.3
 844724457,-3.4097037506,1.521016787\O,0,0.8146283863,0.6113881063,-1.0
 73293499\O,0,-1.3259237827,1.1139669216,0.2239729418\S,0,-0.5046780261
 ,0.1991083241,-0.5792020311\H,0,1.5558250949,-0.7332720812,2.217361124
 5\H,0,0.4765735125,0.6833002244,2.1546147338\H,0,0.4312626916,-0.40892
 49501,3.5520300411\H,0,-0.3044486572,-4.5082829392,4.7298037354\H,0,-0
 .1505203797,-4.9940655151,3.0179165068\H,0,-1.7478626477,-5.0173291214
 ,3.8202770181\H,0,-2.8463459666,-2.7925384803,4.2601182459\H,0,-1.9892
 370602,-1.3125582806,3.7994808883\H,0,-1.4233818021,-2.2634293674,5.18
 19162699\H,0,-1.5804085585,0.5480984238,-2.6549878003\H,0,-0.930064761
 1,-1.1156947964,-2.5317305258\H,0,-2.4426568368,-0.6790696405,-1.66394
 11379\H,0,-1.507279111,-0.8125252674,1.9704742156\H,0,0.3937836105,-1.
 8178550364,-0.005360166\\Version=AM64L-G09RevC.01\State=1-A\HF=-966.28
 10455\RMSD=6.020e-09\Dipole=-1.3074192,-1.087779,1.0084573\Quadrupole=
 -2.5002019,-9.907556,12.4077579,1.2955002,3.0456938,-0.7079322\PG=C01 
 [X(C6H14N2O3S1)]\\@


 I am not a vegetarian because I love animals;
 I am a vegetarian because I hate plants.
                               -- A. Whitney Brown
 Job cpu time:  0 days  0 hours  2 minutes 58.9 seconds.
 File lengths (MBytes):  RWF=     29 Int=      0 D2E=      0 Chk=      4 Scr=      1
 Normal termination of Gaussian 09 at Sat Feb 17 21:00:38 2018.
