 Entering Gaussian System, Link 0=g09
 Initial command:
 /home/fb_chem/chemsoft/lx24-amd64/Gaussian_09_C.01_NBO_3.1_64_istanbul-64/g09/l1.exe /local/2397396.1.parallel_long/Gau-25608.inp -scrdir=/local/2397396.1.parallel_long/
 Entering Link 1 = /home/fb_chem/chemsoft/lx24-amd64/Gaussian_09_C.01_NBO_3.1_64_istanbul-64/g09/l1.exe PID=     25609.
  
 Copyright (c) 1988,1990,1992,1993,1995,1998,2003,2009,2011,
            Gaussian, Inc.  All Rights Reserved.
  
 This is part of the Gaussian(R) 09 program.  It is based on
 the Gaussian(R) 03 system (copyright 2003, Gaussian, Inc.),
 the Gaussian(R) 98 system (copyright 1998, Gaussian, Inc.),
 the Gaussian(R) 94 system (copyright 1995, Gaussian, Inc.),
 the Gaussian 92(TM) system (copyright 1992, Gaussian, Inc.),
 the Gaussian 90(TM) system (copyright 1990, Gaussian, Inc.),
 the Gaussian 88(TM) system (copyright 1988, Gaussian, Inc.),
 the Gaussian 86(TM) system (copyright 1986, Carnegie Mellon
 University), and the Gaussian 82(TM) system (copyright 1983,
 Carnegie Mellon University). Gaussian is a federally registered
 trademark of Gaussian, Inc.
  
 This software contains proprietary and confidential information,
 including trade secrets, belonging to Gaussian, Inc.
  
 This software is provided under written license and may be
 used, copied, transmitted, or stored only in accord with that
 written license.
  
 The following legend is applicable only to US Government
 contracts under FAR:
  
                    RESTRICTED RIGHTS LEGEND
  
 Use, reproduction and disclosure by the US Government is
 subject to restrictions as set forth in subparagraphs (a)
 and (c) of the Commercial Computer Software - Restricted
 Rights clause in FAR 52.227-19.
  
 Gaussian, Inc.
 340 Quinnipiac St., Bldg. 40, Wallingford CT 06492
  
  
 ---------------------------------------------------------------
 Warning -- This program may not be used in any manner that
 competes with the business of Gaussian, Inc. or will provide
 assistance to any competitor of Gaussian, Inc.  The licensee
 of this program is prohibited from giving any competitor of
 Gaussian, Inc. access to this program.  By using this program,
 the user acknowledges that Gaussian, Inc. is engaged in the
 business of creating and licensing software in the field of
 computational chemistry and represents and warrants to the
 licensee that it is not a competitor of Gaussian, Inc. and that
 it will not use this program in any manner prohibited above.
 ---------------------------------------------------------------
  

 Cite this work as:
 Gaussian 09, Revision C.01,
 M. J. Frisch, G. W. Trucks, H. B. Schlegel, G. E. Scuseria, 
 M. A. Robb, J. R. Cheeseman, G. Scalmani, V. Barone, B. Mennucci, 
 G. A. Petersson, H. Nakatsuji, M. Caricato, X. Li, H. P. Hratchian, 
 A. F. Izmaylov, J. Bloino, G. Zheng, J. L. Sonnenberg, M. Hada, 
 M. Ehara, K. Toyota, R. Fukuda, J. Hasegawa, M. Ishida, T. Nakajima, 
 Y. Honda, O. Kitao, H. Nakai, T. Vreven, J. A. Montgomery, Jr., 
 J. E. Peralta, F. Ogliaro, M. Bearpark, J. J. Heyd, E. Brothers, 
 K. N. Kudin, V. N. Staroverov, T. Keith, R. Kobayashi, J. Normand, 
 K. Raghavachari, A. Rendell, J. C. Burant, S. S. Iyengar, J. Tomasi, 
 M. Cossi, N. Rega, J. M. Millam, M. Klene, J. E. Knox, J. B. Cross, 
 V. Bakken, C. Adamo, J. Jaramillo, R. Gomperts, R. E. Stratmann, 
 O. Yazyev, A. J. Austin, R. Cammi, C. Pomelli, J. W. Ochterski, 
 R. L. Martin, K. Morokuma, V. G. Zakrzewski, G. A. Voth, 
 P. Salvador, J. J. Dannenberg, S. Dapprich, A. D. Daniels, 
 O. Farkas, J. B. Foresman, J. V. Ortiz, J. Cioslowski, 
 and D. J. Fox, Gaussian, Inc., Wallingford CT, 2010.
 
 ******************************************
 Gaussian 09:  AM64L-G09RevC.01 23-Sep-2011
                16-Feb-2018 
 ******************************************
 %nprocs=4
 Will use up to    4 processors via shared memory.
 %chk=frag36-conf0.chk
 ---------------------------------------------------------
 #B3LYP/6-31G* Integral=(Grid=UltraFine) freq Opt pop=none
 ---------------------------------------------------------
 1/14=-1,18=20,19=15,26=3,38=1/1,3;
 2/9=110,12=2,17=6,18=5,40=1/2;
 3/5=1,6=6,7=1,11=2,16=1,25=1,30=1,71=1,74=-5,75=-5/1,2,3;
 4//1;
 5/5=2,38=5/2;
 7//1,2,3,16;
 1/14=-1,18=20,19=15/3(2);
 2/9=110/2;
 99//99;
 2/9=110/2;
 3/5=1,6=6,7=1,11=2,16=1,25=1,30=1,71=1,74=-5,75=-5/1,2,3;
 4/5=5,16=3/1;
 5/5=2,38=5/2;
 7//1,2,3,16;
 1/14=-1,18=20,19=15/3(-5);
 2/9=110/2;
 99/9=1/99;
 -----------------------------
 Optimization for frag36-conf0
 -----------------------------
 Charge =  0 Multiplicity = 1
 Symbolic Z-Matrix:
 C                     4.03935  -2.19131  -0.08242 
 C                     1.80532  -1.17471  -0.15564 
 C                     2.90338  -1.48001   1.97508 
 C                     0.70331  -0.61072   0.49331 
 C                     1.80118  -0.91596   2.62364 
 C                     2.9083   -1.6129    0.58334 
 C                     0.68732  -0.48566   1.88938 
 C                    -1.23737   2.37308   3.3285 
 C                    -0.88047   3.83428   3.34012 
 C                    -0.48807   0.14831   2.58622 
 N                     4.95691  -2.66083  -0.62254 
 N                    -0.3099    1.57669   2.70795 
 O                    -2.28356   1.94301   3.81013 
 H                     1.79601  -1.26612  -1.2409 
 H                     3.75715  -1.81135   2.5646 
 H                    -0.14489  -0.26741  -0.09869 
 H                     1.81703  -0.81277   3.70847 
 H                    -1.23358   4.29782   2.41522 
 H                    -1.35803   4.31853   4.19634 
 H                     0.20139   3.97149   3.4234 
 H                    -1.41668  -0.04212   2.03514 
 H                    -0.62158  -0.27577   3.58855 
 H                     0.5246    2.00008   2.31156 
 

 GradGradGradGradGradGradGradGradGradGradGradGradGradGradGradGradGradGrad
 Berny optimization.
 Initialization pass.
                           ----------------------------
                           !    Initial Parameters    !
                           ! (Angstroms and Degrees)  !
 --------------------------                            --------------------------
 ! Name  Definition              Value          Derivative Info.                !
 --------------------------------------------------------------------------------
 ! R1    R(1,6)                  1.4343         estimate D2E/DX2                !
 ! R2    R(1,11)                 1.1637         estimate D2E/DX2                !
 ! R3    R(2,4)                  1.3977         estimate D2E/DX2                !
 ! R4    R(2,6)                  1.3981         estimate D2E/DX2                !
 ! R5    R(2,14)                 1.0891         estimate D2E/DX2                !
 ! R6    R(3,5)                  1.3977         estimate D2E/DX2                !
 ! R7    R(3,6)                  1.3981         estimate D2E/DX2                !
 ! R8    R(3,15)                 1.0891         estimate D2E/DX2                !
 ! R9    R(4,7)                  1.4018         estimate D2E/DX2                !
 ! R10   R(4,16)                 1.0898         estimate D2E/DX2                !
 ! R11   R(5,7)                  1.4018         estimate D2E/DX2                !
 ! R12   R(5,17)                 1.0898         estimate D2E/DX2                !
 ! R13   R(7,10)                 1.5063         estimate D2E/DX2                !
 ! R14   R(8,9)                  1.5042         estimate D2E/DX2                !
 ! R15   R(8,12)                 1.371          estimate D2E/DX2                !
 ! R16   R(8,13)                 1.2294         estimate D2E/DX2                !
 ! R17   R(9,18)                 1.0932         estimate D2E/DX2                !
 ! R18   R(9,19)                 1.0935         estimate D2E/DX2                !
 ! R19   R(9,20)                 1.0937         estimate D2E/DX2                !
 ! R20   R(10,12)                1.4446         estimate D2E/DX2                !
 ! R21   R(10,21)                1.0965         estimate D2E/DX2                !
 ! R22   R(10,22)                1.0965         estimate D2E/DX2                !
 ! R23   R(12,23)                1.0163         estimate D2E/DX2                !
 ! A1    A(4,2,6)              120.203          estimate D2E/DX2                !
 ! A2    A(4,2,14)             119.3248         estimate D2E/DX2                !
 ! A3    A(6,2,14)             120.472          estimate D2E/DX2                !
 ! A4    A(5,3,6)              120.2011         estimate D2E/DX2                !
 ! A5    A(5,3,15)             119.3255         estimate D2E/DX2                !
 ! A6    A(6,3,15)             120.4732         estimate D2E/DX2                !
 ! A7    A(2,4,7)              120.491          estimate D2E/DX2                !
 ! A8    A(2,4,16)             119.2435         estimate D2E/DX2                !
 ! A9    A(7,4,16)             120.2655         estimate D2E/DX2                !
 ! A10   A(3,5,7)              120.4931         estimate D2E/DX2                !
 ! A11   A(3,5,17)             119.2498         estimate D2E/DX2                !
 ! A12   A(7,5,17)             120.2571         estimate D2E/DX2                !
 ! A13   A(1,6,2)              120.2112         estimate D2E/DX2                !
 ! A14   A(1,6,3)              120.211          estimate D2E/DX2                !
 ! A15   A(2,6,3)              119.5775         estimate D2E/DX2                !
 ! A16   A(4,7,5)              119.0271         estimate D2E/DX2                !
 ! A17   A(4,7,10)             120.4764         estimate D2E/DX2                !
 ! A18   A(5,7,10)             120.4583         estimate D2E/DX2                !
 ! A19   A(9,8,12)             114.0338         estimate D2E/DX2                !
 ! A20   A(9,8,13)             122.5952         estimate D2E/DX2                !
 ! A21   A(12,8,13)            123.3541         estimate D2E/DX2                !
 ! A22   A(8,9,18)             109.1916         estimate D2E/DX2                !
 ! A23   A(8,9,19)             109.4283         estimate D2E/DX2                !
 ! A24   A(8,9,20)             110.9261         estimate D2E/DX2                !
 ! A25   A(18,9,19)            109.4901         estimate D2E/DX2                !
 ! A26   A(18,9,20)            109.3141         estimate D2E/DX2                !
 ! A27   A(19,9,20)            108.4712         estimate D2E/DX2                !
 ! A28   A(7,10,12)            111.0322         estimate D2E/DX2                !
 ! A29   A(7,10,21)            110.8081         estimate D2E/DX2                !
 ! A30   A(7,10,22)            110.7996         estimate D2E/DX2                !
 ! A31   A(12,10,21)           108.5739         estimate D2E/DX2                !
 ! A32   A(12,10,22)           108.6876         estimate D2E/DX2                !
 ! A33   A(21,10,22)           106.8063         estimate D2E/DX2                !
 ! A34   A(8,12,10)            121.9436         estimate D2E/DX2                !
 ! A35   A(8,12,23)            119.3448         estimate D2E/DX2                !
 ! A36   A(10,12,23)           118.7084         estimate D2E/DX2                !
 ! A37   L(6,1,11,15,-1)       179.9998         estimate D2E/DX2                !
 ! A38   L(6,1,11,15,-2)       179.9843         estimate D2E/DX2                !
 ! D1    D(6,2,4,7)             -0.3984         estimate D2E/DX2                !
 ! D2    D(6,2,4,16)           179.5356         estimate D2E/DX2                !
 ! D3    D(14,2,4,7)           179.7686         estimate D2E/DX2                !
 ! D4    D(14,2,4,16)           -0.2974         estimate D2E/DX2                !
 ! D5    D(4,2,6,1)           -179.9827         estimate D2E/DX2                !
 ! D6    D(4,2,6,3)             -0.172          estimate D2E/DX2                !
 ! D7    D(14,2,6,1)            -0.1516         estimate D2E/DX2                !
 ! D8    D(14,2,6,3)           179.6591         estimate D2E/DX2                !
 ! D9    D(6,3,5,7)              0.3983         estimate D2E/DX2                !
 ! D10   D(6,3,5,17)          -179.5308         estimate D2E/DX2                !
 ! D11   D(15,3,5,7)          -179.77           estimate D2E/DX2                !
 ! D12   D(15,3,5,17)            0.3009         estimate D2E/DX2                !
 ! D13   D(5,3,6,1)            179.9828         estimate D2E/DX2                !
 ! D14   D(5,3,6,2)              0.172          estimate D2E/DX2                !
 ! D15   D(15,3,6,1)             0.153          estimate D2E/DX2                !
 ! D16   D(15,3,6,2)          -179.6577         estimate D2E/DX2                !
 ! D17   D(2,4,7,5)              0.9558         estimate D2E/DX2                !
 ! D18   D(2,4,7,10)           178.7203         estimate D2E/DX2                !
 ! D19   D(16,4,7,5)          -178.9775         estimate D2E/DX2                !
 ! D20   D(16,4,7,10)           -1.213          estimate D2E/DX2                !
 ! D21   D(3,5,7,4)             -0.9558         estimate D2E/DX2                !
 ! D22   D(3,5,7,10)          -178.7207         estimate D2E/DX2                !
 ! D23   D(17,5,7,4)           178.9726         estimate D2E/DX2                !
 ! D24   D(17,5,7,10)            1.2076         estimate D2E/DX2                !
 ! D25   D(4,7,10,12)          -89.1955         estimate D2E/DX2                !
 ! D26   D(4,7,10,21)           31.5482         estimate D2E/DX2                !
 ! D27   D(4,7,10,22)          149.9227         estimate D2E/DX2                !
 ! D28   D(5,7,10,12)           88.5368         estimate D2E/DX2                !
 ! D29   D(5,7,10,21)         -150.7194         estimate D2E/DX2                !
 ! D30   D(5,7,10,22)          -32.345          estimate D2E/DX2                !
 ! D31   D(12,8,9,18)           86.5433         estimate D2E/DX2                !
 ! D32   D(12,8,9,19)         -153.6301         estimate D2E/DX2                !
 ! D33   D(12,8,9,20)          -33.9899         estimate D2E/DX2                !
 ! D34   D(13,8,9,18)          -92.0045         estimate D2E/DX2                !
 ! D35   D(13,8,9,19)           27.8221         estimate D2E/DX2                !
 ! D36   D(13,8,9,20)          147.4623         estimate D2E/DX2                !
 ! D37   D(9,8,12,10)         -179.3122         estimate D2E/DX2                !
 ! D38   D(9,8,12,23)            0.0259         estimate D2E/DX2                !
 ! D39   D(13,8,12,10)          -0.7769         estimate D2E/DX2                !
 ! D40   D(13,8,12,23)         178.5611         estimate D2E/DX2                !
 ! D41   D(7,10,12,8)         -178.8475         estimate D2E/DX2                !
 ! D42   D(7,10,12,23)           1.8104         estimate D2E/DX2                !
 ! D43   D(21,10,12,8)          59.0987         estimate D2E/DX2                !
 ! D44   D(21,10,12,23)       -120.2434         estimate D2E/DX2                !
 ! D45   D(22,10,12,8)         -56.7286         estimate D2E/DX2                !
 ! D46   D(22,10,12,23)        123.9293         estimate D2E/DX2                !
 --------------------------------------------------------------------------------
 Trust Radius=3.00D-01 FncErr=1.00D-07 GrdErr=1.00D-06
 Number of steps in this run=    117 maximum allowed number of steps=    138.
 GradGradGradGradGradGradGradGradGradGradGradGradGradGradGradGradGradGrad

                          Input orientation:                          
 ---------------------------------------------------------------------
 Center     Atomic      Atomic             Coordinates (Angstroms)
 Number     Number       Type             X           Y           Z
 ---------------------------------------------------------------------
      1          6           0        4.039353   -2.191314   -0.082416
      2          6           0        1.805320   -1.174715   -0.155640
      3          6           0        2.903381   -1.480008    1.975084
      4          6           0        0.703311   -0.610722    0.493309
      5          6           0        1.801179   -0.915964    2.623636
      6          6           0        2.908300   -1.612895    0.583339
      7          6           0        0.687315   -0.485662    1.889384
      8          6           0       -1.237371    2.373077    3.328496
      9          6           0       -0.880468    3.834280    3.340124
     10          6           0       -0.488071    0.148313    2.586222
     11          7           0        4.956906   -2.660834   -0.622537
     12          7           0       -0.309901    1.576692    2.707949
     13          8           0       -2.283560    1.943009    3.810128
     14          1           0        1.796013   -1.266122   -1.240904
     15          1           0        3.757150   -1.811346    2.564598
     16          1           0       -0.144885   -0.267410   -0.098688
     17          1           0        1.817025   -0.812773    3.708472
     18          1           0       -1.233578    4.297817    2.415218
     19          1           0       -1.358030    4.318531    4.196337
     20          1           0        0.201385    3.971495    3.423405
     21          1           0       -1.416685   -0.042116    2.035142
     22          1           0       -0.621576   -0.275769    3.588548
     23          1           0        0.524600    2.000077    2.311559
 ---------------------------------------------------------------------
                    Distance matrix (angstroms):
                    1          2          3          4          5
     1  C    0.000000
     2  C    2.455553   0.000000
     3  C    2.455544   2.416387   0.000000
     4  C    3.736162   1.397729   2.791348   0.000000
     5  C    3.736129   2.791298   1.397717   2.415943   0.000000
     6  C    1.434252   1.398091   1.398084   2.423723   2.423684
     7  C    4.246575   2.430401   2.430435   1.401756   1.401777
     8  C    7.766068   5.829580   5.815824   4.550559   4.532925
     9  C    8.498600   6.672620   6.665021   5.510967   5.501763
    10  C    5.752656   3.811542   3.811412   2.525037   2.524827
    11  N    1.163651   3.515543   3.515531   4.851922   4.851889
    12  N    6.395312   4.499393   4.495073   3.273531   3.267583
    13  O    8.498456   6.493570   6.479875   5.142395   5.125093
    14  H    2.688987   1.089147   3.408019   2.151986   3.880375
    15  H    2.688995   3.408025   1.089144   3.880421   2.151980
    16  H    4.605380   2.151685   3.881089   1.089844   3.408642
    17  H    4.605426   3.881044   2.151745   3.408586   1.089848
    18  H    8.726443   6.767039   7.119790   5.615962   6.036282
    19  H    9.477212   7.689098   7.531045   6.500698   6.312996
    20  H    8.062319   6.470366   6.254382   5.462060   5.204442
    21  H    6.234698   4.057539   4.553472   2.682339   3.385939
    22  H    6.234545   4.551579   4.059406   3.383493   2.685265
    23  H    5.970961   4.219790   4.228807   3.186573   3.198491
                    6          7          8          9         10
     6  C    0.000000
     7  C    2.812327   0.000000
     8  C    6.372633   3.734682   0.000000
     9  C    7.185148   4.819179   1.504203   0.000000
    10  C    4.318418   1.506333   2.462113   3.782684   0.000000
    11  N    2.597903   5.410225   8.906178   9.589793   6.916301
    12  N    5.004423   2.432651   1.370952   2.412861   1.444586
    13  O    7.071919   4.291130   1.229406   2.401349   2.818272
    14  H    2.164555   3.411309   6.582143   7.359583   4.675956
    15  H    2.164559   3.411340   6.560349   7.347247   4.675750
    16  H    3.405501   2.166246   4.462207   5.402811   2.738493
    17  H    3.405515   2.166179   4.429826   5.385838   2.737992
    18  H    7.446305   5.181506   2.130425   1.093162   4.219409
    19  H    8.150898   5.708392   2.133658   1.093465   4.554121
    20  H    6.824865   4.738734   2.152664   1.093696   3.974034
    21  H    4.824995   2.155178   2.745556   4.125161   1.096483
    22  H    4.824854   2.155089   2.731889   4.125681   1.096506
    23  H    4.660724   2.526581   2.068292   2.529122   2.128374
                   11         12         13         14         15
    11  N    0.000000
    12  N    7.535783   0.000000
    13  O    9.657548   2.290047   0.000000
    14  H    3.509821   5.301877   7.242538   0.000000
    15  H    3.509825   5.295305   7.220575   4.315690   0.000000
    16  H    5.659609   3.362313   4.973803   2.463569   4.970182
    17  H    5.659667   3.351776   4.941606   4.970141   2.463673
    18  H    9.796575   2.888493   2.931442   7.314579   7.889966
    19  H   10.574096   3.291133   2.578540   8.408325   8.148806
    20  H    9.108920   2.551151   3.230985   7.192443   6.842680
    21  H    7.385364   2.073205   2.800494   4.748905   5.493548
    22  H    7.385204   2.074658   2.781055   5.490824   4.751812
    23  H    7.069538   1.016254   3.183508   4.990446   5.004035
                   16         17         18         19         20
    16  H    0.000000
    17  H    4.317521   0.000000
    18  H    5.324122   6.090716   0.000000
    19  H    6.399204   6.053864   1.785582   0.000000
    20  H    5.522079   5.057744   1.783829   1.774721   0.000000
    21  H    2.494286   3.721670   4.360390   4.867180   4.544722
    22  H    3.717931   2.499906   4.761191   4.692479   4.329410
    23  H    3.376241   3.396153   2.895089   3.531559   2.286297
                   21         22         23
    21  H    0.000000
    22  H    1.760642   0.000000
    23  H    2.831174   2.850245   0.000000
 Stoichiometry    C10H10N2O
 Framework group  C1[X(C10H10N2O)]
 Deg. of freedom    63
 Full point group                 C1      NOp   1
 Largest Abelian subgroup         C1      NOp   1
 Largest concise Abelian subgroup C1      NOp   1
                         Standard orientation:                         
 ---------------------------------------------------------------------
 Center     Atomic      Atomic             Coordinates (Angstroms)
 Number     Number       Type             X           Y           Z
 ---------------------------------------------------------------------
      1          6           0        4.219661   -0.018881    0.421159
      2          6           0        2.149679    1.210675   -0.061653
      3          6           0        2.141318   -1.204727   -0.130167
      4          6           0        0.793757    1.224787   -0.400655
      5          6           0        0.785409   -1.190170   -0.469154
      6          6           0        2.828400   -0.004184    0.072943
      7          6           0        0.102243    0.024870   -0.617280
      8          6           0       -3.543074   -0.018709    0.193657
      9          6           0       -4.204337   -0.042558    1.544505
     10          6           0       -1.365802    0.039276   -0.954439
     11          7           0        5.348495   -0.030804    0.703429
     12          7           0       -2.173136    0.000270    0.242857
     13          8           0       -4.182205    0.009664   -0.856174
     14          1           0        2.669281    2.154362    0.098687
     15          1           0        2.654319   -2.159567   -0.023662
     16          1           0        0.278209    2.180434   -0.493989
     17          1           0        0.263127   -2.135326   -0.616361
     18          1           0       -4.321078    0.982616    1.905607
     19          1           0       -5.187442   -0.513747    1.459946
     20          1           0       -3.607251   -0.612909    2.261693
     21          1           0       -1.626259    0.940496   -1.522102
     22          1           0       -1.629187   -0.819059   -1.583896
     23          1           0       -1.707125   -0.003146    1.145959
 ---------------------------------------------------------------------
 Rotational constants (GHZ):      2.7989275      0.2910212      0.2904368
 Standard basis: 6-31G(d) (6D, 7F)
 There are   215 symmetry adapted basis functions of A   symmetry.
 Integral buffers will be    131072 words long.
 Raffenetti 2 integral format.
 Two-electron integral symmetry is turned on.
   215 basis functions,   404 primitive gaussians,   215 cartesian basis functions
    46 alpha electrons       46 beta electrons
       nuclear repulsion energy       686.2332476848 Hartrees.
 NAtoms=   23 NActive=   23 NUniq=   23 SFac= 1.00D+00 NAtFMM=   60 NAOKFM=F Big=F
 One-electron integrals computed using PRISM.
 NBasis=   215 RedAO= T  NBF=   215
 NBsUse=   215 1.00D-06 NBFU=   215
 Harris functional with IExCor=  402 diagonalized for initial guess.
 ExpMin= 1.61D-01 ExpMax= 5.48D+03 ExpMxC= 8.25D+02 IAcc=3 IRadAn=         5 AccDes= 0.00D+00
 HarFok:  IExCor=  402 AccDes= 0.00D+00 IRadAn=         5 IDoV= 1
 ScaDFX=  1.000000  1.000000  1.000000  1.000000
 FoFCou: FMM=F IPFlag=           0 FMFlag=      100000 FMFlg1=           0
         NFxFlg=           0 DoJE=T BraDBF=F KetDBF=T FulRan=T
         Omega=  0.000000  0.000000  1.000000  0.000000  0.000000 ICntrl=     500 IOpCl=  0
         NMat0=    1 NMatS0=    1 NMatT0=    0 NMatD0=    1 NMtDS0=    0 NMtDT0=    0
         I1Cent=           4 NGrid=           0.
 Petite list used in FoFCou.
 Initial guess orbital symmetries:
       Occupied  (A) (A) (A) (A) (A) (A) (A) (A) (A) (A) (A) (A)
                 (A) (A) (A) (A) (A) (A) (A) (A) (A) (A) (A) (A)
                 (A) (A) (A) (A) (A) (A) (A) (A) (A) (A) (A) (A)
                 (A) (A) (A) (A) (A) (A) (A) (A) (A) (A)
       Virtual   (A) (A) (A) (A) (A) (A) (A) (A) (A) (A) (A) (A)
                 (A) (A) (A) (A) (A) (A) (A) (A) (A) (A) (A) (A)
                 (A) (A) (A) (A) (A) (A) (A) (A) (A) (A) (A) (A)
                 (A) (A) (A) (A) (A) (A) (A) (A) (A) (A) (A) (A)
                 (A) (A) (A) (A) (A) (A) (A) (A) (A) (A) (A) (A)
                 (A) (A) (A) (A) (A) (A) (A) (A) (A) (A) (A) (A)
                 (A) (A) (A) (A) (A) (A) (A) (A) (A) (A) (A) (A)
                 (A) (A) (A) (A) (A) (A) (A) (A) (A) (A) (A) (A)
                 (A) (A) (A) (A) (A) (A) (A) (A) (A) (A) (A) (A)
                 (A) (A) (A) (A) (A) (A) (A) (A) (A) (A) (A) (A)
                 (A) (A) (A) (A) (A) (A) (A) (A) (A) (A) (A) (A)
                 (A) (A) (A) (A) (A) (A) (A) (A) (A) (A) (A) (A)
                 (A) (A) (A) (A) (A) (A) (A) (A) (A) (A) (A) (A)
                 (A) (A) (A) (A) (A) (A) (A) (A) (A) (A) (A) (A)
                 (A)
 The electronic state of the initial guess is 1-A.
 Requested convergence on RMS density matrix=1.00D-08 within 128 cycles.
 Requested convergence on MAX density matrix=1.00D-06.
 Requested convergence on             energy=1.00D-06.
 No special actions if energy rises.
 Integral accuracy reduced to 1.0D-05 until final iterations.
 Initial convergence to 1.0D-05 achieved.  Increase integral accuracy.
 SCF Done:  E(RB3LYP) =  -571.815402804     A.U. after   15 cycles
             Convg  =    0.5905D-08             -V/T =  2.0095
 Calling FoFJK, ICntrl=      2127 FMM=F ISym2X=0 I1Cent= 0 IOpClX= 0 NMat=1 NMatS=1 NMatT=0.
 ***** Axes restored to original set *****
 -------------------------------------------------------------------
 Center     Atomic                   Forces (Hartrees/Bohr)
 Number     Number              X              Y              Z
 -------------------------------------------------------------------
      1        6           0.001200329   -0.000880360   -0.000749525
      2        6          -0.009956480    0.004544166   -0.005402930
      3        6          -0.001080950    0.002090437    0.012072832
      4        6           0.005084984   -0.002664129   -0.001862362
      5        6           0.004254403   -0.002417890   -0.003597087
      6        6           0.003025954   -0.001567139   -0.001847812
      7        6           0.000517117    0.001007656   -0.000118270
      8        6          -0.007419937   -0.005736689    0.002711927
      9        6           0.003535986    0.005492885    0.004198154
     10        6          -0.006114493   -0.006475044    0.000759186
     11        7          -0.000887518    0.000572395    0.000538560
     12        7           0.004445967    0.011783208    0.000719117
     13        8           0.008631535   -0.003042817   -0.004466681
     14        1           0.001691266   -0.000710071    0.002622208
     15        1          -0.001192584    0.000088190   -0.002965828
     16        1           0.001053043   -0.001070135    0.002096639
     17        1          -0.001172997   -0.000413644   -0.002270681
     18        1          -0.000061725    0.003265575   -0.000509306
     19        1          -0.001246812   -0.000360838   -0.002430553
     20        1           0.001226590    0.003171036   -0.001903533
     21        1          -0.000456416   -0.002462268    0.000041659
     22        1          -0.000523950   -0.001452755   -0.000222348
     23        1          -0.004553312   -0.002761769    0.002586634
 -------------------------------------------------------------------
 Cartesian Forces:  Max     0.012072832 RMS     0.003813989

 GradGradGradGradGradGradGradGradGradGradGradGradGradGradGradGradGradGrad
 Berny optimization.
 Internal  Forces:  Max     0.012315957 RMS     0.002802221
 Search for a local minimum.
 Step number   1 out of a maximum of  117
 All quantities printed in internal units (Hartrees-Bohrs-Radians)
 Mixed Optimization -- RFO/linear search
 Second derivative matrix not updated -- first step.
 ITU=  0
     Eigenvalues ---    0.00682   0.00710   0.01102   0.01264   0.01495
     Eigenvalues ---    0.01509   0.02072   0.02076   0.02089   0.02094
     Eigenvalues ---    0.02107   0.02114   0.02115   0.02116   0.02117
     Eigenvalues ---    0.04818   0.04818   0.05240   0.06600   0.07349
     Eigenvalues ---    0.07512   0.09875   0.13185   0.15999   0.16000
     Eigenvalues ---    0.16000   0.16000   0.16000   0.16000   0.16000
     Eigenvalues ---    0.16000   0.21947   0.21999   0.22000   0.22971
     Eigenvalues ---    0.23995   0.24980   0.24992   0.25000   0.25000
     Eigenvalues ---    0.31722   0.31940   0.34071   0.34074   0.34389
     Eigenvalues ---    0.34415   0.34450   0.34830   0.34831   0.34911
     Eigenvalues ---    0.34912   0.38963   0.40384   0.41599   0.41852
     Eigenvalues ---    0.44941   0.45454   0.45653   0.45952   0.46000
     Eigenvalues ---    0.50794   0.91334   1.25434
 RFO step:  Lambda=-2.94160460D-03 EMin= 6.82167379D-03
 Linear search not attempted -- first point.
 Iteration  1 RMS(Cart)=  0.03652482 RMS(Int)=  0.00067376
 Iteration  2 RMS(Cart)=  0.00096753 RMS(Int)=  0.00004641
 Iteration  3 RMS(Cart)=  0.00000070 RMS(Int)=  0.00004641
 Variable       Old X    -DE/DX   Delta X   Delta X   Delta X     New X
                                 (Linear)    (Quad)   (Total)
    R1        2.71034   0.00047   0.00000   0.00115   0.00115   2.71150
    R2        2.19898  -0.00118   0.00000  -0.00094  -0.00094   2.19804
    R3        2.64132  -0.00463   0.00000  -0.01000  -0.01000   2.63133
    R4        2.64201   0.00470   0.00000   0.01074   0.01074   2.65275
    R5        2.05819  -0.00257   0.00000  -0.00729  -0.00729   2.05090
    R6        2.64130  -0.00470   0.00000  -0.01015  -0.01015   2.63115
    R7        2.64200   0.00478   0.00000   0.01092   0.01091   2.65291
    R8        2.05818  -0.00257   0.00000  -0.00729  -0.00729   2.05089
    R9        2.64894  -0.00002   0.00000  -0.00063  -0.00062   2.64831
   R10        2.05951  -0.00230   0.00000  -0.00654  -0.00654   2.05297
   R11        2.64898   0.00000   0.00000  -0.00060  -0.00060   2.64838
   R12        2.05951  -0.00232   0.00000  -0.00660  -0.00660   2.05292
   R13        2.84656   0.00326   0.00000   0.01020   0.01020   2.85675
   R14        2.84253   0.01205   0.00000   0.03739   0.03739   2.87992
   R15        2.59072  -0.00262   0.00000  -0.00513  -0.00513   2.58559
   R16        2.32324  -0.00803   0.00000  -0.00876  -0.00876   2.31448
   R17        2.06578   0.00184   0.00000   0.00528   0.00528   2.07106
   R18        2.06635  -0.00152   0.00000  -0.00437  -0.00437   2.06197
   R19        2.06679   0.00147   0.00000   0.00423   0.00423   2.07101
   R20        2.72987   0.01232   0.00000   0.03137   0.03137   2.76124
   R21        2.07205   0.00079   0.00000   0.00231   0.00231   2.07436
   R22        2.07210   0.00042   0.00000   0.00123   0.00123   2.07333
   R23        1.92044  -0.00590   0.00000  -0.01304  -0.01304   1.90740
    A1        2.09794  -0.00173   0.00000  -0.00659  -0.00661   2.09133
    A2        2.08261   0.00283   0.00000   0.01533   0.01532   2.09793
    A3        2.10263  -0.00109   0.00000  -0.00872  -0.00872   2.09391
    A4        2.09790  -0.00171   0.00000  -0.00647  -0.00649   2.09141
    A5        2.08262   0.00281   0.00000   0.01525   0.01524   2.09787
    A6        2.10265  -0.00110   0.00000  -0.00875  -0.00876   2.09389
    A7        2.10296   0.00203   0.00000   0.00782   0.00781   2.11078
    A8        2.08119  -0.00003   0.00000   0.00212   0.00211   2.08330
    A9        2.09903  -0.00200   0.00000  -0.00993  -0.00994   2.08908
   A10        2.10300   0.00201   0.00000   0.00773   0.00772   2.11072
   A11        2.08130  -0.00002   0.00000   0.00220   0.00219   2.08349
   A12        2.09888  -0.00199   0.00000  -0.00991  -0.00992   2.08896
   A13        2.09808  -0.00001   0.00000  -0.00112  -0.00112   2.09696
   A14        2.09808   0.00000   0.00000  -0.00107  -0.00107   2.09701
   A15        2.08702   0.00002   0.00000   0.00221   0.00219   2.08921
   A16        2.07742  -0.00061   0.00000  -0.00446  -0.00449   2.07292
   A17        2.10271   0.00033   0.00000   0.00256   0.00252   2.10524
   A18        2.10239   0.00029   0.00000   0.00243   0.00240   2.10479
   A19        1.99027   0.00720   0.00000   0.02844   0.02843   2.01870
   A20        2.13969   0.00365   0.00000   0.01440   0.01440   2.15409
   A21        2.15293  -0.01084   0.00000  -0.04291  -0.04291   2.11003
   A22        1.90575   0.00264   0.00000   0.01222   0.01207   1.91783
   A23        1.90988  -0.00153   0.00000  -0.01005  -0.01010   1.89978
   A24        1.93603   0.00454   0.00000   0.03260   0.03241   1.96844
   A25        1.91096  -0.00235   0.00000  -0.02405  -0.02405   1.88691
   A26        1.90789  -0.00339   0.00000  -0.01927  -0.01953   1.88837
   A27        1.89318  -0.00003   0.00000   0.00774   0.00764   1.90082
   A28        1.93788  -0.00153   0.00000  -0.00481  -0.00479   1.93309
   A29        1.93397  -0.00068   0.00000  -0.00701  -0.00703   1.92694
   A30        1.93382  -0.00020   0.00000  -0.00652  -0.00653   1.92729
   A31        1.89497   0.00227   0.00000   0.02036   0.02034   1.91531
   A32        1.89696   0.00119   0.00000   0.00912   0.00909   1.90604
   A33        1.86412  -0.00094   0.00000  -0.01050  -0.01065   1.85347
   A34        2.12832  -0.00267   0.00000  -0.01199  -0.01200   2.11631
   A35        2.08296   0.00160   0.00000   0.00761   0.00759   2.09055
   A36        2.07185   0.00106   0.00000   0.00429   0.00428   2.07613
   A37        3.14159   0.00000   0.00000   0.00000   0.00000   3.14159
   A38        3.14132   0.00019   0.00000   0.00366   0.00366   3.14498
    D1       -0.00695   0.00013   0.00000   0.00640   0.00642  -0.00053
    D2        3.13349   0.00033   0.00000   0.01434   0.01439  -3.13531
    D3        3.13755  -0.00006   0.00000  -0.00208  -0.00213   3.13543
    D4       -0.00519   0.00014   0.00000   0.00586   0.00584   0.00065
    D5       -3.14129  -0.00013   0.00000  -0.00542  -0.00539   3.13650
    D6       -0.00300   0.00006   0.00000   0.00293   0.00296  -0.00004
    D7       -0.00265   0.00008   0.00000   0.00320   0.00317   0.00053
    D8        3.13564   0.00026   0.00000   0.01155   0.01153  -3.13602
    D9        0.00695  -0.00013   0.00000  -0.00620  -0.00622   0.00074
   D10       -3.13340  -0.00031   0.00000  -0.01354  -0.01358   3.13620
   D11       -3.13758   0.00006   0.00000   0.00207   0.00211  -3.13547
   D12        0.00525  -0.00012   0.00000  -0.00527  -0.00525   0.00000
   D13        3.14129   0.00013   0.00000   0.00532   0.00529  -3.13660
   D14        0.00300  -0.00006   0.00000  -0.00303  -0.00306  -0.00006
   D15        0.00267  -0.00007   0.00000  -0.00309  -0.00306  -0.00039
   D16       -3.13562  -0.00026   0.00000  -0.01144  -0.01141   3.13616
   D17        0.01668  -0.00033   0.00000  -0.01549  -0.01549   0.00119
   D18        3.11926  -0.00003   0.00000   0.00031   0.00028   3.11954
   D19       -3.12375  -0.00053   0.00000  -0.02352  -0.02350   3.13594
   D20       -0.02117  -0.00023   0.00000  -0.00772  -0.00772  -0.02889
   D21       -0.01668   0.00033   0.00000   0.01539   0.01539  -0.00129
   D22       -3.11926   0.00003   0.00000  -0.00041  -0.00038  -3.11965
   D23        3.12366   0.00051   0.00000   0.02281   0.02279  -3.13674
   D24        0.02108   0.00021   0.00000   0.00701   0.00701   0.02809
   D25       -1.55676  -0.00051   0.00000  -0.01541  -0.01542  -1.57217
   D26        0.55062   0.00087   0.00000   0.00238   0.00232   0.55294
   D27        2.61664  -0.00086   0.00000  -0.01931  -0.01930   2.59735
   D28        1.54526  -0.00023   0.00000   0.00047   0.00049   1.54575
   D29       -2.63055   0.00115   0.00000   0.01825   0.01823  -2.61232
   D30       -0.56453  -0.00058   0.00000  -0.00343  -0.00339  -0.56791
   D31        1.51047   0.00083   0.00000   0.01424   0.01432   1.52479
   D32       -2.68135  -0.00136   0.00000  -0.01375  -0.01380  -2.69515
   D33       -0.59324   0.00046   0.00000   0.00973   0.00965  -0.58359
   D34       -1.60578   0.00098   0.00000   0.01797   0.01808  -1.58770
   D35        0.48559  -0.00121   0.00000  -0.01002  -0.01004   0.47554
   D36        2.57370   0.00061   0.00000   0.01345   0.01341   2.58711
   D37       -3.12959   0.00064   0.00000   0.03141   0.03139  -3.09820
   D38        0.00045   0.00046   0.00000   0.02189   0.02186   0.02231
   D39       -0.01356   0.00073   0.00000   0.02861   0.02864   0.01509
   D40        3.11648   0.00056   0.00000   0.01909   0.01911   3.13559
   D41       -3.12148  -0.00003   0.00000  -0.00074  -0.00073  -3.12221
   D42        0.03160   0.00014   0.00000   0.00870   0.00870   0.04030
   D43        1.03147   0.00030   0.00000  -0.00246  -0.00242   1.02905
   D44       -2.09864   0.00046   0.00000   0.00698   0.00701  -2.09163
   D45       -0.99010  -0.00045   0.00000  -0.00589  -0.00593  -0.99603
   D46        2.16297  -0.00028   0.00000   0.00355   0.00350   2.16648
         Item               Value     Threshold  Converged?
 Maximum Force            0.012316     0.000450     NO 
 RMS     Force            0.002802     0.000300     NO 
 Maximum Displacement     0.220670     0.001800     NO 
 RMS     Displacement     0.036902     0.001200     NO 
 Predicted change in Energy=-1.497687D-03
 GradGradGradGradGradGradGradGradGradGradGradGradGradGradGradGradGradGrad

                          Input orientation:                          
 ---------------------------------------------------------------------
 Center     Atomic      Atomic             Coordinates (Angstroms)
 Number     Number       Type             X           Y           Z
 ---------------------------------------------------------------------
      1          6           0        4.040411   -2.212844   -0.085359
      2          6           0        1.808734   -1.180459   -0.165171
      3          6           0        2.905478   -1.498502    1.977343
      4          6           0        0.715237   -0.616930    0.487197
      5          6           0        1.805036   -0.932852    2.615853
      6          6           0        2.912582   -1.625368    0.579246
      7          6           0        0.697511   -0.486170    1.882397
      8          6           0       -1.213811    2.382570    3.337393
      9          6           0       -0.908111    3.875494    3.353792
     10          6           0       -0.481167    0.152567    2.581006
     11          7           0        4.956006   -2.686219   -0.624367
     12          7           0       -0.284696    1.594275    2.714973
     13          8           0       -2.231929    1.897197    3.814788
     14          1           0        1.807389   -1.281149   -1.245776
     15          1           0        3.754412   -1.845635    2.557561
     16          1           0       -0.137526   -0.280490   -0.095760
     17          1           0        1.805214   -0.842879    3.698479
     18          1           0       -1.294987    4.345222    2.442307
     19          1           0       -1.411518    4.329045    4.209058
     20          1           0        0.164961    4.088268    3.419456
     21          1           0       -1.407794   -0.045405    2.026817
     22          1           0       -0.620241   -0.286842    3.576662
     23          1           0        0.545927    2.012745    2.322874
 ---------------------------------------------------------------------
                    Distance matrix (angstroms):
                    1          2          3          4          5
     1  C    0.000000
     2  C    2.460198   0.000000
     3  C    2.460304   2.427831   0.000000
     4  C    3.732499   1.392438   2.791928   0.000000
     5  C    3.732537   2.792028   1.392347   2.412187   0.000000
     6  C    1.434862   1.403774   1.403859   2.419451   2.419505
     7  C    4.245992   2.430923   2.430833   1.401426   1.401461
     8  C    7.774311   5.839427   5.820739   4.565287   4.541594
     9  C    8.566417   6.732533   6.731858   5.570861   5.570090
    10  C    5.757547   3.816031   3.815732   2.531313   2.531022
    11  N    1.163154   3.519020   3.519124   4.847851   4.847880
    12  N    6.406448   4.514070   4.504063   3.294280   3.280728
    13  O    8.452564   6.452828   6.426502   5.106807   5.073825
    14  H    2.683470   1.085287   3.411970   2.153411   3.877306
    15  H    2.683592   3.411949   1.085285   3.877204   2.153286
    16  H    4.603179   2.145388   3.878296   1.086386   3.398819
    17  H    4.603297   3.878372   2.145398   3.398741   1.086358
    18  H    8.824047   6.853114   7.211742   5.699685   6.123588
    19  H    9.537393   7.736830   7.587972   6.545075   6.369621
    20  H    8.185772   6.581112   6.387655   5.571341   5.342965
    21  H    6.232337   4.054530   4.551732   2.684089   3.384790
    22  H    6.232300   4.549702   4.056679   3.381901   2.687462
    23  H    5.988873   4.240471   4.244494   3.211474   3.216789
                    6          7          8          9         10
     6  C    0.000000
     7  C    2.811140   0.000000
     8  C    6.379503   3.741636   0.000000
     9  C    7.249502   4.875155   1.523988   0.000000
    10  C    4.322688   1.511729   2.466131   3.826181   0.000000
    11  N    2.598014   5.409146   8.913743   9.657624   6.920692
    12  N    5.014979   2.446664   1.368236   2.449632   1.461187
    13  O    7.024470   4.242192   1.224768   2.424597   2.762447
    14  H    2.161167   3.413105   6.599692   7.424347   4.683727
    15  H    2.161233   3.413010   6.570320   7.423236   4.683321
    16  H    3.401101   2.157011   4.476250   5.455768   2.733259
    17  H    3.401201   2.156943   4.432654   5.453805   2.732618
    18  H    7.538075   5.256035   2.158651   1.095958   4.273160
    19  H    8.205389   5.748709   2.141880   1.091150   4.578108
    20  H    6.947075   4.855064   2.194801   1.095933   4.075564
    21  H    4.822592   2.155793   2.765918   4.169411   1.097705
    22  H    4.822550   2.155629   2.745057   4.178226   1.097156
    23  H    4.677302   2.541962   2.064630   2.578150   2.140518
                   11         12         13         14         15
    11  N    0.000000
    12  N    7.545779   0.000000
    13  O    9.611462   2.256783   0.000000
    14  H    3.503450   5.322820   7.212994   0.000000
    15  H    3.503581   5.307745   7.171171   4.309863   0.000000
    16  H    5.657829   3.381807   4.941784   2.471144   4.963565
    17  H    5.657950   3.357787   4.880580   4.963643   2.471151
    18  H    9.895483   2.943254   2.958782   7.408289   7.989771
    19  H   10.635849   3.313757   2.596614   8.461138   8.218330
    20  H    9.230401   2.630303   3.271416   7.300179   6.988436
    21  H    7.382455   2.103201   2.765816   4.751246   5.492804
    22  H    7.382425   2.096115   2.724750   5.489804   4.754577
    23  H    7.086274   1.009353   3.155256   5.017597   5.023599
                   16         17         18         19         20
    16  H    0.000000
    17  H    4.299625   0.000000
    18  H    5.401732   6.172975   0.000000
    19  H    6.434464   6.112025   1.770665   0.000000
    20  H    5.615540   5.204277   1.775471   1.779531   0.000000
    21  H    2.484790   3.708617   4.411685   4.888558   4.636837
    22  H    3.704017   2.491355   4.816437   4.725722   4.447791
    23  H    3.402326   3.410672   2.973833   3.571349   2.378114
                   21         22         23
    21  H    0.000000
    22  H    1.755150   0.000000
    23  H    2.853183   2.867060   0.000000
 Stoichiometry    C10H10N2O
 Framework group  C1[X(C10H10N2O)]
 Deg. of freedom    63
 Full point group                 C1      NOp   1
 Largest Abelian subgroup         C1      NOp   1
 Largest concise Abelian subgroup C1      NOp   1
                         Standard orientation:                         
 ---------------------------------------------------------------------
 Center     Atomic      Atomic             Coordinates (Angstroms)
 Number     Number       Type             X           Y           Z
 ---------------------------------------------------------------------
      1          6           0        4.224146    0.049177    0.424157
      2          6           0        2.153312    1.191746   -0.253160
      3          6           0        2.143224   -1.214544    0.069375
      4          6           0        0.803541    1.144029   -0.591870
      5          6           0        0.793576   -1.246739   -0.271277
      6          6           0        2.831724    0.008841    0.080118
      7          6           0        0.106902   -0.071898   -0.606422
      8          6           0       -3.546714    0.005871    0.196620
      9          6           0       -4.270076    0.229569    1.519211
     10          6           0       -1.365278   -0.111844   -0.947617
     11          7           0        5.352129    0.082280    0.706089
     12          7           0       -2.180089    0.034682    0.256410
     13          8           0       -4.126207   -0.159788   -0.869590
     14          1           0        2.682577    2.139229   -0.251311
     15          1           0        2.664681   -2.132377    0.321388
     16          1           0        0.287321    2.063221   -0.854238
     17          1           0        0.269256   -2.198130   -0.282103
     18          1           0       -4.418828    1.302518    1.685881
     19          1           0       -5.251263   -0.245159    1.469078
     20          1           0       -3.722117   -0.177219    2.376726
     21          1           0       -1.614132    0.682968   -1.662671
     22          1           0       -1.618266   -1.058213   -1.441716
     23          1           0       -1.719999    0.177484    1.143382
 ---------------------------------------------------------------------
 Rotational constants (GHZ):      2.7865357      0.2902163      0.2896771
 Standard basis: 6-31G(d) (6D, 7F)
 There are   215 symmetry adapted basis functions of A   symmetry.
 Integral buffers will be    131072 words long.
 Raffenetti 2 integral format.
 Two-electron integral symmetry is turned on.
   215 basis functions,   404 primitive gaussians,   215 cartesian basis functions
    46 alpha electrons       46 beta electrons
       nuclear repulsion energy       685.3648932129 Hartrees.
 NAtoms=   23 NActive=   23 NUniq=   23 SFac= 1.00D+00 NAtFMM=   60 NAOKFM=F Big=F
 One-electron integrals computed using PRISM.
 NBasis=   215 RedAO= T  NBF=   215
 NBsUse=   215 1.00D-06 NBFU=   215
 Initial guess read from the read-write file.
 B after Tr=     0.000000    0.000000    0.000000
         Rot=    1.000000    0.000000    0.000000    0.000000 Ang=   0.00 deg.
 Initial guess orbital symmetries:
       Occupied  (A) (A) (A) (A) (A) (A) (A) (A) (A) (A) (A) (A)
                 (A) (A) (A) (A) (A) (A) (A) (A) (A) (A) (A) (A)
                 (A) (A) (A) (A) (A) (A) (A) (A) (A) (A) (A) (A)
                 (A) (A) (A) (A) (A) (A) (A) (A) (A) (A)
       Virtual   (A) (A) (A) (A) (A) (A) (A) (A) (A) (A) (A) (A)
                 (A) (A) (A) (A) (A) (A) (A) (A) (A) (A) (A) (A)
                 (A) (A) (A) (A) (A) (A) (A) (A) (A) (A) (A) (A)
                 (A) (A) (A) (A) (A) (A) (A) (A) (A) (A) (A) (A)
                 (A) (A) (A) (A) (A) (A) (A) (A) (A) (A) (A) (A)
                 (A) (A) (A) (A) (A) (A) (A) (A) (A) (A) (A) (A)
                 (A) (A) (A) (A) (A) (A) (A) (A) (A) (A) (A) (A)
                 (A) (A) (A) (A) (A) (A) (A) (A) (A) (A) (A) (A)
                 (A) (A) (A) (A) (A) (A) (A) (A) (A) (A) (A) (A)
                 (A) (A) (A) (A) (A) (A) (A) (A) (A) (A) (A) (A)
                 (A) (A) (A) (A) (A) (A) (A) (A) (A) (A) (A) (A)
                 (A) (A) (A) (A) (A) (A) (A) (A) (A) (A) (A) (A)
                 (A) (A) (A) (A) (A) (A) (A) (A) (A) (A) (A) (A)
                 (A) (A) (A) (A) (A) (A) (A) (A) (A) (A) (A) (A)
                 (A)
 Harris functional with IExCor=  402 diagonalized for initial guess.
 ExpMin= 1.61D-01 ExpMax= 5.48D+03 ExpMxC= 8.25D+02 IAcc=3 IRadAn=         5 AccDes= 0.00D+00
 HarFok:  IExCor=  402 AccDes= 0.00D+00 IRadAn=         5 IDoV= 1
 ScaDFX=  1.000000  1.000000  1.000000  1.000000
 FoFCou: FMM=F IPFlag=           0 FMFlag=      100000 FMFlg1=           0
         NFxFlg=           0 DoJE=T BraDBF=F KetDBF=T FulRan=T
         Omega=  0.000000  0.000000  1.000000  0.000000  0.000000 ICntrl=     500 IOpCl=  0
         NMat0=    1 NMatS0=    1 NMatT0=    0 NMatD0=    1 NMtDS0=    0 NMtDT0=    0
         I1Cent=           4 NGrid=           0.
 Petite list used in FoFCou.
 Requested convergence on RMS density matrix=1.00D-08 within 128 cycles.
 Requested convergence on MAX density matrix=1.00D-06.
 Requested convergence on             energy=1.00D-06.
 No special actions if energy rises.
 Integral accuracy reduced to 1.0D-05 until final iterations.
 Initial convergence to 1.0D-05 achieved.  Increase integral accuracy.
 SCF Done:  E(RB3LYP) =  -571.816722881     A.U. after   15 cycles
             Convg  =    0.8056D-08             -V/T =  2.0096
 Calling FoFJK, ICntrl=      2127 FMM=F ISym2X=0 I1Cent= 0 IOpClX= 0 NMat=1 NMatS=1 NMatT=0.
 ***** Axes restored to original set *****
 -------------------------------------------------------------------
 Center     Atomic                   Forces (Hartrees/Bohr)
 Number     Number              X              Y              Z
 -------------------------------------------------------------------
      1        6          -0.000389301    0.000443775    0.000265585
      2        6          -0.001724039    0.000630959   -0.000342656
      3        6          -0.000711140    0.000381117    0.001783312
      4        6           0.001296279   -0.000547617   -0.000221274
      5        6           0.001021454   -0.000408481   -0.001024124
      6        6           0.000727428   -0.000547036   -0.000501402
      7        6          -0.000217122    0.000890198    0.000194545
      8        6          -0.001555417   -0.003316083   -0.000279624
      9        6           0.000923637   -0.000751127    0.000819234
     10        6          -0.000880394   -0.001831273    0.000437083
     11        7           0.000171446   -0.000136565   -0.000109850
     12        7           0.001969455    0.002901432   -0.000375649
     13        8          -0.000841903    0.002237472    0.000848879
     14        1           0.000642223   -0.000282661    0.000078232
     15        1           0.000281746   -0.000190351   -0.000622678
     16        1          -0.000422496    0.000201684    0.000111811
     17        1          -0.000324460    0.000177300    0.000313201
     18        1          -0.000239170   -0.000116389   -0.000234119
     19        1          -0.000677696   -0.000373796    0.000158682
     20        1          -0.000136386   -0.000399568   -0.000652690
     21        1           0.000283905    0.001134066    0.000124647
     22        1           0.000024539    0.000889011   -0.000112968
     23        1           0.000777411   -0.000986065   -0.000658179
 -------------------------------------------------------------------
 Cartesian Forces:  Max     0.003316083 RMS     0.000931243

 GradGradGradGradGradGradGradGradGradGradGradGradGradGradGradGradGradGrad
 Berny optimization.
 Using GEDIIS/GDIIS optimizer.
 Internal  Forces:  Max     0.003890347 RMS     0.000642850
 Search for a local minimum.
 Step number   2 out of a maximum of  117
 All quantities printed in internal units (Hartrees-Bohrs-Radians)
 Mixed Optimization -- En-DIIS/RFO-DIIS
 Update second derivatives using D2CorX and points    1    2
 DE= -1.32D-03 DEPred=-1.50D-03 R= 8.81D-01
 SS=  1.41D+00  RLast= 1.35D-01 DXNew= 5.0454D-01 4.0370D-01
 Trust test= 8.81D-01 RLast= 1.35D-01 DXMaxT set to 4.04D-01
 ITU=  1  0
 Use linear search instead of GDIIS.
     Eigenvalues ---    0.00682   0.00709   0.01102   0.01242   0.01496
     Eigenvalues ---    0.01506   0.02073   0.02078   0.02089   0.02094
     Eigenvalues ---    0.02107   0.02115   0.02116   0.02117   0.02120
     Eigenvalues ---    0.04818   0.04819   0.05242   0.06651   0.07037
     Eigenvalues ---    0.07418   0.10032   0.13182   0.15007   0.15999
     Eigenvalues ---    0.16000   0.16000   0.16000   0.16000   0.16000
     Eigenvalues ---    0.16336   0.21398   0.21935   0.22000   0.22871
     Eigenvalues ---    0.23998   0.24964   0.24993   0.25000   0.27885
     Eigenvalues ---    0.31694   0.33367   0.34072   0.34158   0.34400
     Eigenvalues ---    0.34416   0.34510   0.34830   0.34861   0.34912
     Eigenvalues ---    0.35212   0.39683   0.40477   0.41607   0.41707
     Eigenvalues ---    0.44933   0.45395   0.45456   0.45846   0.45952
     Eigenvalues ---    0.50884   0.91225   1.25450
 RFO step:  Lambda=-1.66229431D-04 EMin= 6.81954774D-03
 Quartic linear search produced a step of -0.08908.
 Iteration  1 RMS(Cart)=  0.00839582 RMS(Int)=  0.00006061
 Iteration  2 RMS(Cart)=  0.00006743 RMS(Int)=  0.00001176
 Iteration  3 RMS(Cart)=  0.00000001 RMS(Int)=  0.00001176
 Variable       Old X    -DE/DX   Delta X   Delta X   Delta X     New X
                                 (Linear)    (Quad)   (Total)
    R1        2.71150  -0.00037  -0.00010  -0.00067  -0.00077   2.71073
    R2        2.19804   0.00024   0.00008   0.00004   0.00012   2.19817
    R3        2.63133  -0.00055   0.00089  -0.00254  -0.00165   2.62967
    R4        2.65275   0.00051  -0.00096   0.00260   0.00164   2.65439
    R5        2.05090  -0.00005   0.00065  -0.00119  -0.00054   2.05035
    R6        2.63115  -0.00061   0.00090  -0.00267  -0.00177   2.62939
    R7        2.65291   0.00056  -0.00097   0.00273   0.00175   2.65466
    R8        2.05089  -0.00005   0.00065  -0.00119  -0.00054   2.05035
    R9        2.64831   0.00018   0.00006   0.00024   0.00029   2.64860
   R10        2.05297   0.00033   0.00058  -0.00007   0.00051   2.05348
   R11        2.64838   0.00025   0.00005   0.00038   0.00043   2.64881
   R12        2.05292   0.00033   0.00059  -0.00010   0.00049   2.05341
   R13        2.85675   0.00005  -0.00091   0.00162   0.00071   2.85746
   R14        2.87992  -0.00163  -0.00333   0.00076  -0.00257   2.87735
   R15        2.58559   0.00045   0.00046   0.00006   0.00052   2.58611
   R16        2.31448   0.00014   0.00078  -0.00112  -0.00034   2.31413
   R17        2.07106   0.00023  -0.00047   0.00137   0.00090   2.07196
   R18        2.06197   0.00028   0.00039   0.00011   0.00050   2.06248
   R19        2.07101  -0.00025  -0.00038  -0.00005  -0.00043   2.07059
   R20        2.76124  -0.00080  -0.00279   0.00268  -0.00012   2.76113
   R21        2.07436  -0.00051  -0.00021  -0.00102  -0.00123   2.07313
   R22        2.07333  -0.00046  -0.00011  -0.00106  -0.00117   2.07216
   R23        1.90740   0.00049   0.00116  -0.00090   0.00026   1.90766
    A1        2.09133  -0.00022   0.00059  -0.00178  -0.00119   2.09014
    A2        2.09793   0.00083  -0.00136   0.00674   0.00537   2.10330
    A3        2.09391  -0.00061   0.00078  -0.00496  -0.00418   2.08973
    A4        2.09141  -0.00022   0.00058  -0.00176  -0.00118   2.09024
    A5        2.09787   0.00084  -0.00136   0.00674   0.00538   2.10325
    A6        2.09389  -0.00062   0.00078  -0.00498  -0.00420   2.08969
    A7        2.11078   0.00018  -0.00070   0.00180   0.00110   2.11188
    A8        2.08330   0.00026  -0.00019   0.00199   0.00180   2.08511
    A9        2.08908  -0.00045   0.00089  -0.00380  -0.00291   2.08617
   A10        2.11072   0.00018  -0.00069   0.00177   0.00109   2.11180
   A11        2.08349   0.00028  -0.00020   0.00207   0.00188   2.08537
   A12        2.08896  -0.00046   0.00088  -0.00385  -0.00297   2.08599
   A13        2.09696  -0.00007   0.00010  -0.00049  -0.00040   2.09656
   A14        2.09701  -0.00006   0.00010  -0.00046  -0.00037   2.09664
   A15        2.08921   0.00013  -0.00019   0.00097   0.00077   2.08998
   A16        2.07292  -0.00005   0.00040  -0.00100  -0.00060   2.07232
   A17        2.10524   0.00003  -0.00022   0.00053   0.00031   2.10555
   A18        2.10479   0.00003  -0.00021   0.00053   0.00032   2.10511
   A19        2.01870  -0.00191  -0.00253  -0.00276  -0.00531   2.01339
   A20        2.15409  -0.00197  -0.00128  -0.00501  -0.00631   2.14777
   A21        2.11003   0.00389   0.00382   0.00807   0.01187   2.12190
   A22        1.91783  -0.00033  -0.00108  -0.00121  -0.00228   1.91555
   A23        1.89978  -0.00068   0.00090  -0.00483  -0.00393   1.89585
   A24        1.96844  -0.00022  -0.00289   0.00400   0.00113   1.96956
   A25        1.88691   0.00026   0.00214  -0.00322  -0.00109   1.88582
   A26        1.88837   0.00014   0.00174  -0.00293  -0.00117   1.88719
   A27        1.90082   0.00087  -0.00068   0.00802   0.00735   1.90817
   A28        1.93309  -0.00057   0.00043  -0.00410  -0.00367   1.92942
   A29        1.92694   0.00071   0.00063   0.00399   0.00459   1.93153
   A30        1.92729   0.00061   0.00058   0.00434   0.00491   1.93220
   A31        1.91531  -0.00061  -0.00181  -0.00403  -0.00584   1.90947
   A32        1.90604  -0.00034  -0.00081  -0.00277  -0.00357   1.90247
   A33        1.85347   0.00021   0.00095   0.00276   0.00369   1.85716
   A34        2.11631  -0.00171   0.00107  -0.00880  -0.00773   2.10859
   A35        2.09055   0.00212  -0.00068   0.01184   0.01116   2.10172
   A36        2.07613  -0.00042  -0.00038  -0.00308  -0.00346   2.07267
   A37        3.14159   0.00000   0.00000   0.00006   0.00006   3.14165
   A38        3.14498  -0.00008  -0.00033  -0.00090  -0.00122   3.14376
    D1       -0.00053  -0.00002  -0.00057  -0.00013  -0.00070  -0.00123
    D2       -3.13531  -0.00001  -0.00128   0.00148   0.00019  -3.13512
    D3        3.13543   0.00002   0.00019   0.00062   0.00082   3.13625
    D4        0.00065   0.00003  -0.00052   0.00222   0.00171   0.00236
    D5        3.13650   0.00010   0.00048   0.00365   0.00413   3.14063
    D6       -0.00004   0.00003  -0.00026   0.00188   0.00161   0.00157
    D7        0.00053   0.00006  -0.00028   0.00287   0.00259   0.00312
    D8       -3.13602  -0.00001  -0.00103   0.00109   0.00008  -3.13594
    D9        0.00074   0.00002   0.00055  -0.00006   0.00049   0.00123
   D10        3.13620   0.00001   0.00121  -0.00144  -0.00023   3.13597
   D11       -3.13547  -0.00002  -0.00019  -0.00050  -0.00070  -3.13616
   D12        0.00000  -0.00003   0.00047  -0.00188  -0.00142  -0.00142
   D13       -3.13660  -0.00010  -0.00047  -0.00356  -0.00402  -3.14062
   D14       -0.00006  -0.00003   0.00027  -0.00178  -0.00151  -0.00157
   D15       -0.00039  -0.00006   0.00027  -0.00308  -0.00281  -0.00320
   D16        3.13616   0.00001   0.00102  -0.00131  -0.00030   3.13586
   D17        0.00119   0.00001   0.00138  -0.00170  -0.00032   0.00087
   D18        3.11954   0.00002  -0.00003   0.00105   0.00103   3.12057
   D19        3.13594   0.00000   0.00209  -0.00328  -0.00119   3.13475
   D20       -0.02889   0.00001   0.00069  -0.00053   0.00016  -0.02873
   D21       -0.00129  -0.00001  -0.00137   0.00179   0.00042  -0.00087
   D22       -3.11965  -0.00002   0.00003  -0.00096  -0.00093  -3.12057
   D23       -3.13674   0.00000  -0.00203   0.00316   0.00113  -3.13561
   D24        0.02809  -0.00001  -0.00062   0.00041  -0.00022   0.02787
   D25       -1.57217   0.00006   0.00137  -0.00559  -0.00421  -1.57639
   D26        0.55294  -0.00062  -0.00021  -0.01074  -0.01096   0.54198
   D27        2.59735   0.00045   0.00172  -0.00228  -0.00055   2.59680
   D28        1.54575   0.00006  -0.00004  -0.00281  -0.00285   1.54290
   D29       -2.61232  -0.00061  -0.00162  -0.00796  -0.00960  -2.62192
   D30       -0.56791   0.00046   0.00030   0.00050   0.00081  -0.56710
   D31        1.52479   0.00024  -0.00128   0.02154   0.02023   1.54502
   D32       -2.69515  -0.00004   0.00123   0.01406   0.01528  -2.67988
   D33       -0.58359   0.00043  -0.00086   0.02345   0.02257  -0.56101
   D34       -1.58770   0.00003  -0.00161   0.00956   0.00796  -1.57974
   D35        0.47554  -0.00025   0.00089   0.00208   0.00301   0.47855
   D36        2.58711   0.00022  -0.00119   0.01147   0.01031   2.59742
   D37       -3.09820  -0.00002  -0.00280  -0.00018  -0.00301  -3.10121
   D38        0.02231  -0.00005  -0.00195  -0.00238  -0.00437   0.01794
   D39        0.01509   0.00009  -0.00255   0.01125   0.00874   0.02382
   D40        3.13559   0.00005  -0.00170   0.00904   0.00737  -3.14022
   D41       -3.12221   0.00002   0.00007   0.00214   0.00221  -3.12000
   D42        0.04030   0.00002  -0.00078   0.00415   0.00338   0.04368
   D43        1.02905  -0.00009   0.00022   0.00255   0.00277   1.03181
   D44       -2.09163  -0.00009  -0.00062   0.00457   0.00393  -2.08770
   D45       -0.99603   0.00019   0.00053   0.00308   0.00362  -0.99241
   D46        2.16648   0.00019  -0.00031   0.00509   0.00479   2.17126
         Item               Value     Threshold  Converged?
 Maximum Force            0.003890     0.000450     NO 
 RMS     Force            0.000643     0.000300     NO 
 Maximum Displacement     0.034807     0.001800     NO 
 RMS     Displacement     0.008403     0.001200     NO 
 Predicted change in Energy=-9.624599D-05
 GradGradGradGradGradGradGradGradGradGradGradGradGradGradGradGradGradGrad

                          Input orientation:                          
 ---------------------------------------------------------------------
 Center     Atomic      Atomic             Coordinates (Angstroms)
 Number     Number       Type             X           Y           Z
 ---------------------------------------------------------------------
      1          6           0        4.041964   -2.209335   -0.081577
      2          6           0        1.807405   -1.183242   -0.165409
      3          6           0        2.904186   -1.496229    1.980208
      4          6           0        0.714677   -0.618936    0.485707
      5          6           0        1.803521   -0.929687    2.615499
      6          6           0        2.911871   -1.625358    0.581390
      7          6           0        0.695960   -0.484578    1.880707
      8          6           0       -1.214250    2.379125    3.335192
      9          6           0       -0.904537    3.869777    3.355870
     10          6           0       -0.484062    0.154479    2.577568
     11          7           0        4.959186   -2.681051   -0.619411
     12          7           0       -0.282218    1.595459    2.710687
     13          8           0       -2.230874    1.901253    3.822764
     14          1           0        1.811358   -1.287905   -1.245342
     15          1           0        3.755192   -1.842711    2.557238
     16          1           0       -0.139806   -0.284025   -0.096113
     17          1           0        1.800148   -0.836814    3.698134
     18          1           0       -1.307679    4.344557    2.453525
     19          1           0       -1.396959    4.316105    4.221606
     20          1           0        0.169764    4.080513    3.401037
     21          1           0       -1.410727   -0.033916    2.021394
     22          1           0       -0.627351   -0.279584    3.574291
     23          1           0        0.550346    2.007742    2.315804
 ---------------------------------------------------------------------
                    Distance matrix (angstroms):
                    1          2          3          4          5
     1  C    0.000000
     2  C    2.460314   0.000000
     3  C    2.460491   2.429930   0.000000
     4  C    3.731221   1.391563   2.792334   0.000000
     5  C    3.731265   2.792446   1.391412   2.412087   0.000000
     6  C    1.434455   1.404642   1.404787   2.418616   2.418677
     7  C    4.245124   2.431055   2.430967   1.401581   1.401689
     8  C    7.768916   5.837385   5.815141   4.563847   4.535763
     9  C    8.558009   6.729565   6.722562   5.568504   5.560269
    10  C    5.757045   3.816312   3.816005   2.532001   2.531776
    11  N    1.163219   3.518988   3.519211   4.846592   4.846663
    12  N    6.400917   4.512165   4.499478   3.293613   3.276543
    13  O    8.455134   6.459669   6.427032   5.115034   5.074254
    14  H    2.679363   1.085000   3.412015   2.155634   3.877431
    15  H    2.679551   3.411976   1.084999   3.877318   2.155464
    16  H    4.603719   2.145932   3.878974   1.086656   3.397976
    17  H    4.603886   3.879050   2.145926   3.397853   1.086616
    18  H    8.831700   6.864337   7.216552   5.709510   6.125640
    19  H    9.522638   7.730244   7.570135   6.539923   6.351456
    20  H    8.166071   6.565708   6.371489   5.557059   5.328071
    21  H    6.235926   4.057023   4.556154   2.686620   3.389213
    22  H    6.236330   4.553020   4.061167   3.384605   2.692778
    23  H    5.976836   4.233084   4.234501   3.205573   3.207610
                    6          7          8          9         10
     6  C    0.000000
     7  C    2.810670   0.000000
     8  C    6.375280   3.737008   0.000000
     9  C    7.242874   4.868070   1.522627   0.000000
    10  C    4.322604   1.512105   2.460939   3.819162   0.000000
    11  N    2.597674   5.408343   8.908175   9.648806   6.920249
    12  N    5.010966   2.443820   1.368511   2.444599   1.461125
    13  O    7.027896   4.246191   1.224586   2.419141   2.766421
    14  H    2.159155   3.414912   6.601720   7.426232   4.686583
    15  H    2.159261   3.414838   6.566922   7.415080   4.686198
    16  H    3.401605   2.155584   4.474444   5.454821   2.731184
    17  H    3.401738   2.155537   4.422735   5.439160   2.730557
    18  H    7.546482   5.259586   2.156151   1.096434   4.272059
    19  H    8.192569   5.736435   2.137991   1.091415   4.566769
    20  H    6.930118   4.840284   2.194209   1.095707   4.064399
    21  H    4.826092   2.158940   2.754530   4.156426   1.097056
    22  H    4.826454   2.159028   2.733195   4.164341   1.096540
    23  H    4.667378   2.534201   2.071443   2.581781   2.138482
                   11         12         13         14         15
    11  N    0.000000
    12  N    7.539921   0.000000
    13  O    9.613917   2.264395   0.000000
    14  H    3.498781   5.324191   7.224684   0.000000
    15  H    3.499073   5.305209   7.172992   4.306497   0.000000
    16  H    5.658559   3.380957   4.950314   2.477002   4.963948
    17  H    5.658792   3.350708   4.874595   4.964027   2.477029
    18  H    9.903318   2.945377   2.949040   7.425270   7.995355
    19  H   10.620557   3.305668   2.585730   8.460836   8.200353
    20  H    9.209849   2.618466   3.269570   7.287220   6.975089
    21  H    7.386269   2.098457   2.768114   4.756667   5.499599
    22  H    7.386716   2.093016   2.718285   5.494804   4.762819
    23  H    7.073764   1.009492   3.165036   5.013303   5.015508
                   16         17         18         19         20
    16  H    0.000000
    17  H    4.297127   0.000000
    18  H    5.411872   6.168812   0.000000
    19  H    6.433066   6.086714   1.770563   0.000000
    20  H    5.601347   5.189077   1.774920   1.784225   0.000000
    21  H    2.482264   3.710232   4.400952   4.874813   4.618430
    22  H    3.702646   2.493710   4.806417   4.704431   4.435748
    23  H    3.397919   3.400638   2.988633   3.571081   2.370433
                   21         22         23
    21  H    0.000000
    22  H    1.756565   0.000000
    23  H    2.846200   2.864022   0.000000
 Stoichiometry    C10H10N2O
 Framework group  C1[X(C10H10N2O)]
 Deg. of freedom    63
 Full point group                 C1      NOp   1
 Largest Abelian subgroup         C1      NOp   1
 Largest concise Abelian subgroup C1      NOp   1
                         Standard orientation:                         
 ---------------------------------------------------------------------
 Center     Atomic      Atomic             Coordinates (Angstroms)
 Number     Number       Type             X           Y           Z
 ---------------------------------------------------------------------
      1          6           0        4.222188    0.024646    0.426698
      2          6           0        2.154836    1.203667   -0.197090
      3          6           0        2.140251   -1.217646    0.006856
      4          6           0        0.805466    1.174198   -0.535877
      5          6           0        0.791133   -1.229333   -0.333395
      6          6           0        2.830960    0.003546    0.077839
      7          6           0        0.105926   -0.038099   -0.609416
      8          6           0       -3.543236   -0.001775    0.195276
      9          6           0       -4.263733    0.148904    1.528157
     10          6           0       -1.366751   -0.058467   -0.951861
     11          7           0        5.349859    0.041991    0.711540
     12          7           0       -2.176594    0.025478    0.261396
     13          8           0       -4.131307   -0.121472   -0.872177
     14          1           0        2.689834    2.146285   -0.147342
     15          1           0        2.664094   -2.144944    0.214052
     16          1           0        0.288515    2.104896   -0.753555
     17          1           0        0.262589   -2.176924   -0.392101
     18          1           0       -4.430090    1.211455    1.741417
     19          1           0       -5.237848   -0.337824    1.454786
     20          1           0       -3.704440   -0.283357    2.365363
     21          1           0       -1.620933    0.775189   -1.618150
     22          1           0       -1.626600   -0.976816   -1.491781
     23          1           0       -1.709765    0.123689    1.151058
 ---------------------------------------------------------------------
 Rotational constants (GHZ):      2.7878601      0.2904274      0.2898931
 Standard basis: 6-31G(d) (6D, 7F)
 There are   215 symmetry adapted basis functions of A   symmetry.
 Integral buffers will be    131072 words long.
 Raffenetti 2 integral format.
 Two-electron integral symmetry is turned on.
   215 basis functions,   404 primitive gaussians,   215 cartesian basis functions
    46 alpha electrons       46 beta electrons
       nuclear repulsion energy       685.5183730842 Hartrees.
 NAtoms=   23 NActive=   23 NUniq=   23 SFac= 1.00D+00 NAtFMM=   60 NAOKFM=F Big=F
 One-electron integrals computed using PRISM.
 NBasis=   215 RedAO= T  NBF=   215
 NBsUse=   215 1.00D-06 NBFU=   215
 Initial guess read from the read-write file.
 B after Tr=     0.000000    0.000000    0.000000
         Rot=    1.000000    0.000000    0.000000    0.000000 Ang=   0.00 deg.
 Initial guess orbital symmetries:
       Occupied  (A) (A) (A) (A) (A) (A) (A) (A) (A) (A) (A) (A)
                 (A) (A) (A) (A) (A) (A) (A) (A) (A) (A) (A) (A)
                 (A) (A) (A) (A) (A) (A) (A) (A) (A) (A) (A) (A)
                 (A) (A) (A) (A) (A) (A) (A) (A) (A) (A)
       Virtual   (A) (A) (A) (A) (A) (A) (A) (A) (A) (A) (A) (A)
                 (A) (A) (A) (A) (A) (A) (A) (A) (A) (A) (A) (A)
                 (A) (A) (A) (A) (A) (A) (A) (A) (A) (A) (A) (A)
                 (A) (A) (A) (A) (A) (A) (A) (A) (A) (A) (A) (A)
                 (A) (A) (A) (A) (A) (A) (A) (A) (A) (A) (A) (A)
                 (A) (A) (A) (A) (A) (A) (A) (A) (A) (A) (A) (A)
                 (A) (A) (A) (A) (A) (A) (A) (A) (A) (A) (A) (A)
                 (A) (A) (A) (A) (A) (A) (A) (A) (A) (A) (A) (A)
                 (A) (A) (A) (A) (A) (A) (A) (A) (A) (A) (A) (A)
                 (A) (A) (A) (A) (A) (A) (A) (A) (A) (A) (A) (A)
                 (A) (A) (A) (A) (A) (A) (A) (A) (A) (A) (A) (A)
                 (A) (A) (A) (A) (A) (A) (A) (A) (A) (A) (A) (A)
                 (A) (A) (A) (A) (A) (A) (A) (A) (A) (A) (A) (A)
                 (A) (A) (A) (A) (A) (A) (A) (A) (A) (A) (A) (A)
                 (A)
 Harris functional with IExCor=  402 diagonalized for initial guess.
 ExpMin= 1.61D-01 ExpMax= 5.48D+03 ExpMxC= 8.25D+02 IAcc=3 IRadAn=         5 AccDes= 0.00D+00
 HarFok:  IExCor=  402 AccDes= 0.00D+00 IRadAn=         5 IDoV= 1
 ScaDFX=  1.000000  1.000000  1.000000  1.000000
 FoFCou: FMM=F IPFlag=           0 FMFlag=      100000 FMFlg1=           0
         NFxFlg=           0 DoJE=T BraDBF=F KetDBF=T FulRan=T
         Omega=  0.000000  0.000000  1.000000  0.000000  0.000000 ICntrl=     500 IOpCl=  0
         NMat0=    1 NMatS0=    1 NMatT0=    0 NMatD0=    1 NMtDS0=    0 NMtDT0=    0
         I1Cent=           4 NGrid=           0.
 Petite list used in FoFCou.
 Requested convergence on RMS density matrix=1.00D-08 within 128 cycles.
 Requested convergence on MAX density matrix=1.00D-06.
 Requested convergence on             energy=1.00D-06.
 No special actions if energy rises.
 Integral accuracy reduced to 1.0D-05 until final iterations.
 Initial convergence to 1.0D-05 achieved.  Increase integral accuracy.
 SCF Done:  E(RB3LYP) =  -571.816826092     A.U. after   12 cycles
             Convg  =    0.9047D-08             -V/T =  2.0096
 Calling FoFJK, ICntrl=      2127 FMM=F ISym2X=0 I1Cent= 0 IOpClX= 0 NMat=1 NMatS=1 NMatT=0.
 ***** Axes restored to original set *****
 -------------------------------------------------------------------
 Center     Atomic                   Forces (Hartrees/Bohr)
 Number     Number              X              Y              Z
 -------------------------------------------------------------------
      1        6          -0.000252098    0.000097149    0.000141434
      2        6          -0.000096209    0.000105368    0.000183614
      3        6          -0.000223571    0.000157469    0.000053051
      4        6           0.000085453   -0.000090618   -0.000074640
      5        6           0.000197447   -0.000038983   -0.000030220
      6        6           0.000134963   -0.000075628   -0.000113009
      7        6          -0.000357807    0.000006239    0.000128131
      8        6           0.000755160   -0.000353538    0.000891581
      9        6           0.000075176    0.000020039   -0.000041292
     10        6           0.000040831   -0.001035456   -0.000145276
     11        7           0.000121995   -0.000041312   -0.000067806
     12        7          -0.000252158    0.000925831    0.000250750
     13        8          -0.000132656    0.000259403   -0.000649491
     14        1           0.000143880   -0.000084248   -0.000120758
     15        1           0.000172379   -0.000096276   -0.000068570
     16        1          -0.000189408    0.000096776   -0.000034077
     17        1          -0.000080860    0.000064634    0.000195464
     18        1          -0.000158327   -0.000016776    0.000006313
     19        1          -0.000057894   -0.000020918    0.000084313
     20        1          -0.000184094   -0.000167815   -0.000202048
     21        1           0.000171711    0.000151965   -0.000063776
     22        1           0.000049065    0.000185064   -0.000082777
     23        1           0.000037022   -0.000048372   -0.000240912
 -------------------------------------------------------------------
 Cartesian Forces:  Max     0.001035456 RMS     0.000270673

 GradGradGradGradGradGradGradGradGradGradGradGradGradGradGradGradGradGrad
 Berny optimization.
 Using GEDIIS/GDIIS optimizer.
 Internal  Forces:  Max     0.000609876 RMS     0.000134721
 Search for a local minimum.
 Step number   3 out of a maximum of  117
 All quantities printed in internal units (Hartrees-Bohrs-Radians)
 Mixed Optimization -- En-DIIS/RFO-DIIS
 Swaping is turned off.
 Update second derivatives using D2CorX and points    1    2    3
 DE= -1.03D-04 DEPred=-9.62D-05 R= 1.07D+00
 SS=  1.41D+00  RLast= 5.12D-02 DXNew= 6.7894D-01 1.5363D-01
 Trust test= 1.07D+00 RLast= 5.12D-02 DXMaxT set to 4.04D-01
 ITU=  1  1  0
     Eigenvalues ---    0.00623   0.00686   0.01092   0.01392   0.01499
     Eigenvalues ---    0.01519   0.02071   0.02089   0.02090   0.02107
     Eigenvalues ---    0.02110   0.02115   0.02117   0.02117   0.02131
     Eigenvalues ---    0.04818   0.04821   0.05279   0.06546   0.06973
     Eigenvalues ---    0.07431   0.09889   0.13152   0.14220   0.15999
     Eigenvalues ---    0.16000   0.16000   0.16000   0.16000   0.16050
     Eigenvalues ---    0.16174   0.21288   0.21957   0.22000   0.22962
     Eigenvalues ---    0.24009   0.24860   0.24994   0.25000   0.28295
     Eigenvalues ---    0.31890   0.32973   0.33978   0.34075   0.34388
     Eigenvalues ---    0.34420   0.34447   0.34830   0.34833   0.34912
     Eigenvalues ---    0.34977   0.40281   0.40721   0.41610   0.41922
     Eigenvalues ---    0.44980   0.45348   0.45461   0.45872   0.45955
     Eigenvalues ---    0.51229   0.91215   1.25434
 En-DIIS/RFO-DIIS IScMMF=        0 using points:     3    2
 RFO step:  Lambda=-7.13454903D-06.
 DidBck=F Rises=F RFO-DIIS coefs:    1.07059   -0.07059
 Iteration  1 RMS(Cart)=  0.00628363 RMS(Int)=  0.00004775
 Iteration  2 RMS(Cart)=  0.00006012 RMS(Int)=  0.00001783
 Iteration  3 RMS(Cart)=  0.00000000 RMS(Int)=  0.00001783
 Variable       Old X    -DE/DX   Delta X   Delta X   Delta X     New X
                                  (DIIS)     (GDIIS)  (Total)
    R1        2.71073  -0.00016  -0.00005  -0.00055  -0.00061   2.71012
    R2        2.19817   0.00014   0.00001   0.00013   0.00014   2.19830
    R3        2.62967   0.00000  -0.00012  -0.00051  -0.00063   2.62904
    R4        2.65439  -0.00003   0.00012   0.00045   0.00056   2.65495
    R5        2.05035   0.00013  -0.00004   0.00015   0.00011   2.05046
    R6        2.62939  -0.00003  -0.00012  -0.00062  -0.00075   2.62864
    R7        2.65466   0.00001   0.00012   0.00056   0.00068   2.65534
    R8        2.05035   0.00013  -0.00004   0.00015   0.00011   2.05047
    R9        2.64860   0.00008   0.00002   0.00024   0.00026   2.64887
   R10        2.05348   0.00020   0.00004   0.00058   0.00062   2.05410
   R11        2.64881   0.00012   0.00003   0.00038   0.00041   2.64922
   R12        2.05341   0.00020   0.00003   0.00059   0.00062   2.05403
   R13        2.85746  -0.00040   0.00005  -0.00102  -0.00097   2.85649
   R14        2.87735  -0.00025  -0.00018  -0.00062  -0.00080   2.87655
   R15        2.58611  -0.00032   0.00004  -0.00068  -0.00065   2.58547
   R16        2.31413  -0.00025  -0.00002  -0.00053  -0.00056   2.31357
   R17        2.07196   0.00005   0.00006   0.00042   0.00049   2.07245
   R18        2.06248   0.00008   0.00004   0.00028   0.00031   2.06279
   R19        2.07059  -0.00022  -0.00003  -0.00070  -0.00073   2.06986
[...]
 00005115,0.00014043,0.06430115,-0.00166316,-0.00297889,0.00121174,0.02
 356988,-0.06810096,-0.08774025,0.00251041,0.00476890,-0.00033258,0.001
 16754,-0.00071348,-0.01289740,0.00010838,-0.00045899,0.00039839,-0.000
 29641,0.00420196,0.00471851,0.00467888,0.00507096,-0.00096704,0.000016
 09,0.00003456,0.00012252,-0.00001782,-0.00000446,-0.00002349,-0.000119
 48,0.00003424,-0.00045751,0.00009808,0.00037026,-0.00014618,0.00000886
 ,-0.00004858,-0.00020754,0.00001848,-0.00001141,-0.00004754,-0.0283405
 9,0.06118396,0.00151877,0.00038582,0.00007435,0.04407990,-0.08693587,-
 0.30777325,-0.00430128,0.00018251,-0.00066409,-0.00065839,-0.00095634,
 -0.00186086,-0.00020017,0.00034253,0.00053141,0.00567996,-0.00717581,-
 0.01605057,0.00038501,-0.00156810,0.00186855,0.00001896,0.00004541,0.0
 0015810,-0.00001074,-0.00001008,-0.00001563,-0.00030637,0.00025237,-0.
 00017433,-0.00050875,0.00017862,0.00031425,0.00006559,-0.00017304,-0.0
 0011898,0.00001130,-0.00001754,-0.00006840,-0.04692116,0.09495235,0.32
 406370,0.00033440,-0.00159103,0.00074484,0.00122883,0.00222183,0.00123
 467,-0.19594988,0.03328575,-0.14291378,-0.00019110,0.00018299,0.000897
 07,-0.01410027,0.00258874,-0.02059430,0.00751245,-0.00040873,0.0064344
 0,-0.00217708,0.00490601,0.00204322,-0.00002413,0.00000077,-0.00051891
 ,0.00000151,0.00001064,0.00002965,-0.00041631,-0.00043837,-0.00128174,
 0.00014394,0.00007580,-0.00017798,0.00009854,0.00011266,0.00030717,0.0
 0004186,-0.00008524,0.00027368,0.00050569,0.00017460,0.00032049,0.2032
 8695,-0.00206362,-0.00268331,0.00073065,0.00256987,0.00380898,-0.00282
 307,0.03373909,-0.04616037,0.02173799,0.00007194,-0.00034914,-0.000298
 69,0.00924362,0.00203860,0.01052301,-0.00725880,0.00405545,-0.00779562
 ,0.00453994,0.00522857,-0.00283011,0.00007359,0.00004177,0.00030984,-0
 .00000327,-0.00000443,-0.00000747,0.00026675,0.00024726,0.00073054,0.0
 0027624,0.00028987,0.00000384,-0.00003567,-0.00026740,-0.00022884,-0.0
 0005202,0.00003386,-0.00013404,-0.00020710,0.00067281,-0.00051106,-0.0
 3901459,0.03744336,-0.00120836,0.00154458,0.00050062,0.00235061,-0.003
 32061,-0.00385197,-0.14121034,0.02073115,-0.20043493,0.00074638,-0.000
 25394,-0.00002779,0.00689041,-0.00141829,0.00990125,-0.02134730,0.0044
 4074,-0.01649714,0.00137252,-0.00234691,0.00076629,-0.00000689,-0.0000
 7137,0.00009982,0.00001072,0.00000608,-0.00000388,0.00033185,-0.000036
 58,0.00036841,0.00059538,-0.00031936,0.00012605,-0.00006347,0.00007193
 ,-0.00002125,-0.00003995,0.00007354,-0.00006117,-0.00122065,0.00013873
 ,-0.00076599,0.15252297,-0.02061683,0.20939696,-0.00066233,0.00026797,
 -0.00121016,-0.01580725,0.00218510,-0.02127257,0.00000812,0.00004717,0
 .00070360,-0.19015453,0.03051173,-0.13832044,0.00143033,0.00225894,0.0
 0124309,-0.00205831,0.00443809,0.00224202,0.00606890,-0.00024385,0.004
 11300,0.00000882,-0.00000593,0.00037148,-0.00003401,-0.00000446,-0.000
 03393,0.00026442,-0.00086491,0.00197126,-0.00020436,0.00007119,0.00029
 909,0.00013855,-0.00071573,-0.00044819,0.00002530,0.00007304,-0.000110
 17,0.00032003,-0.00161683,0.00060921,-0.00016435,-0.00041757,0.0000075
 7,0.20011460,0.00064064,0.00050033,0.00048562,0.00938785,0.00088176,0.
 01085179,0.00012468,-0.00048052,-0.00035125,0.03042534,-0.04431039,0.0
 1733684,0.00252061,0.00437566,-0.00306477,0.00434617,0.00474057,-0.002
 41107,-0.00687945,0.00451851,-0.00690602,0.00004244,-0.00018287,-0.000
 05402,-0.00006139,0.00001119,-0.00002913,-0.00254429,-0.00296574,0.000
 96896,0.00001283,-0.00023787,-0.00011935,0.00045770,-0.00035649,-0.000
 49257,0.00006081,0.00003699,0.00011883,-0.00177063,-0.00295052,0.00087
 107,-0.00043911,-0.00091460,0.00028230,-0.03602422,0.03650337,0.000316
 22,-0.00017148,0.00048639,0.00694592,-0.00125122,0.00896977,0.00092928
 ,-0.00039679,-0.00035883,-0.13818470,0.01778490,-0.19715339,0.00209128
 ,-0.00354004,-0.00422220,0.00145055,-0.00218128,0.00120558,-0.02198363
 ,0.00409317,-0.01703420,-0.00003546,0.00017652,-0.00054444,-0.00002852
 ,0.00000878,0.00005081,-0.00211573,0.00165471,0.00028146,0.00003281,-0
 .00000141,-0.00015656,0.00028530,0.00009076,0.00061626,0.00016068,-0.0
 0017602,0.00028590,0.00011387,0.00110283,0.00058279,-0.00000811,0.0003
 1218,-0.00000280,0.14974746,-0.01731347,0.20741023,0.00004547,0.000536
 00,0.00135206,-0.00093439,0.00013383,-0.00042409,-0.00111624,0.0083155
 4,0.02690763,-0.00260289,0.00285796,-0.00353987,-0.06697817,0.02285025
 ,0.04745537,-0.00306334,0.00449335,-0.00029552,0.00814563,-0.00715330,
 -0.02244159,-0.00039491,0.00173231,-0.00235766,-0.00020171,-0.00021254
 ,0.00018544,0.00073118,-0.00178825,-0.00039474,-0.00029815,0.00000265,
 -0.00018539,0.00032794,0.00032581,0.00082748,0.00033250,-0.00125984,0.
 00124842,-0.00004372,-0.00045724,0.00015151,0.00027456,-0.00190616,0.0
 0015415,0.00038673,-0.00034654,-0.00133532,0.06587822,0.00022177,0.000
 27761,-0.00069561,0.00006578,-0.00031715,0.00038731,0.00172689,-0.0007
 4767,-0.01233626,0.00286110,0.00495720,-0.00032022,0.02249635,-0.06946
 966,-0.08474429,0.00451706,0.00533425,-0.00121222,-0.00079554,0.005370
 39,0.00437739,0.00112548,-0.00182761,0.00191538,0.00010872,-0.00005050
 ,-0.00001284,-0.00078734,-0.00169487,0.00105580,0.00003124,-0.00017643
 ,0.00011439,-0.00048796,-0.00064508,-0.00115580,-0.00061107,0.00040897
 ,-0.00106645,-0.00043672,-0.00094627,0.00021319,-0.00178251,-0.0032205
 0,0.00109104,0.00003355,0.00036722,0.00029860,-0.02774151,0.06232485,-
 0.00001377,-0.00008480,0.00001044,-0.00045353,0.00040273,0.00044489,-0
 .00029285,-0.00089892,-0.00089579,-0.00395260,-0.00000944,-0.00074340,
 0.04533901,-0.08385093,-0.30825550,-0.00013442,-0.00125911,0.00201737,
 0.00526514,-0.00707119,-0.01658243,-0.00013900,0.00056877,0.00036440,0
 .00007952,0.00005268,-0.00000905,0.00098657,0.00025938,0.00023693,-0.0
 0002629,0.00003808,-0.00004464,-0.00017006,0.00028638,-0.00018603,0.00
 074980,-0.00095031,-0.00096403,0.00016696,0.00019604,-0.00008163,0.000
 56888,0.00089403,0.00053442,0.00022623,-0.00040605,-0.00079719,-0.0477
 5527,0.09184027,0.32471586,0.00000706,-0.00000793,-0.00000047,-0.00000
 524,-0.00000015,0.00000294,0.00001547,0.00000212,-0.00000717,-0.000001
 53,0.00000365,-0.00001377,0.00000105,0.00000657,0.00001244,0.00000418,
 -0.00000125,0.00000323,-0.00002577,0.00009840,0.00002009,0.00457561,-0
 .00342123,-0.00398620,-0.18203717,0.06349376,0.12303811,-0.00052241,-0
 .00019960,-0.00019993,-0.00000601,0.00000687,0.00000089,-0.00053687,-0
 .00073446,-0.00053699,0.00034362,0.00060256,-0.00067991,-0.00000112,-0
 .00000036,0.00000110,0.,-0.00000561,0.00000182,0.00000102,-0.00000004,
 0.00000328,-0.00000502,-0.00002130,0.00000612,0.19559653,-0.00003341,0
 .00001270,0.00001011,-0.00001715,0.00000826,-0.00000214,-0.00000628,0.
 00000452,0.00001694,0.00005595,-0.00001477,-0.00001306,0.00002733,-0.0
 0001871,-0.00001682,0.00003548,-0.00001311,-0.00000780,-0.00013469,0.0
 0023012,0.00009625,0.02681737,-0.01117537,-0.02389075,0.06416764,-0.07
 539985,-0.05292885,-0.00137031,0.00017436,-0.00113859,0.00002683,-0.00
 001081,-0.00000650,-0.00148289,-0.00454295,0.00083469,-0.00370130,0.00
 263251,0.00154179,0.00000621,-0.00000426,-0.00000463,0.00001057,-0.000
 00763,-0.00000045,-0.00000736,0.00000306,0.00001637,0.00002124,0.00000
 799,-0.00002332,-0.06690543,0.08063052,-0.00001197,0.00000705,0.000006
 00,-0.00001458,0.00000630,0.00000634,0.00000230,0.00000109,0.00001608,
 0.00002817,-0.00001377,-0.00000383,0.00000403,-0.00000025,-0.00003926,
 0.00001081,-0.00000266,0.00000125,-0.00006088,0.00010269,0.00001515,0.
 00240326,-0.00295004,-0.00534507,0.12374510,-0.05336989,-0.15575216,-0
 .00051248,-0.00002874,-0.00001981,0.00000798,-0.00000644,-0.00000269,-
 0.00023317,-0.00153093,0.00025746,-0.00050131,0.00168059,0.00052426,0.
 00000242,0.00000020,-0.00000123,0.00000379,-0.00000065,-0.00000120,0.0
 0000273,0.00000480,0.00000662,0.00003601,-0.00003527,-0.00000489,-0.13
 401896,0.06063645,0.16559324,-0.00001182,0.00000794,0.00000247,0.00001
 047,-0.00000258,0.00000290,-0.00001633,0.00000111,0.00000912,-0.000003
 72,-0.00001159,0.00002612,0.00000627,-0.00003359,-0.00003440,0.0000054
 0,-0.00000541,-0.00001386,-0.00000698,-0.00000363,0.00000948,-0.001154
 04,0.00045822,-0.00128107,-0.26046431,-0.04287041,-0.10330109,-0.00015
 558,0.00027588,0.00000519,0.00001093,-0.00000618,-0.00000165,-0.000083
 47,-0.00040708,0.00071132,0.00128994,-0.00021155,0.00068421,0.00000304
 ,0.00000154,-0.00000188,0.00000407,-0.00000086,-0.00000083,-0.00000194
 ,0.00000172,0.00000387,0.00000462,0.00001841,-0.00001958,-0.02047297,-
 0.00420009,-0.01069499,0.28058546,-0.00003518,0.00001285,0.00001192,-0
 .00000653,0.00004729,-0.00001980,-0.00000978,0.00002932,0.00000620,0.0
 0016005,-0.00007251,0.00000305,0.00010376,-0.00001254,-0.00009820,0.00
 006098,-0.00004003,-0.00001987,-0.00037689,-0.00031344,-0.00011982,-0.
 03361507,-0.00574210,-0.01545817,-0.04459636,-0.05513046,-0.01777009,0
 .00145143,-0.00018671,-0.00064724,0.00002769,-0.00000816,-0.00000410,0
 .00077242,-0.00407209,0.00001458,0.00424992,0.00120836,0.00044906,0.00
 001474,-0.00000889,-0.00000449,0.00002072,-0.00002242,0.00000026,-0.00
 001206,-0.00001528,0.00001491,-0.00011014,-0.00002212,0.00003581,0.009
 78381,0.00197008,0.00555703,0.04615931,0.05914659,-0.00001018,-0.00000
 333,0.00000762,0.00000039,0.00002471,-0.00000304,0.00002297,0.00001987
 ,0.00001624,0.00005697,-0.00002243,-0.00001212,0.00004677,0.00001534,-
 0.00005400,0.00002816,-0.00002137,-0.00001072,-0.00017490,-0.00016994,
 -0.00001004,-0.00443174,-0.00244802,-0.00455875,-0.10398199,-0.0175374
 8,-0.09513115,0.00062117,-0.00004485,-0.00013173,0.00000883,0.00000571
 ,-0.00000250,0.00046570,-0.00200952,0.00008460,0.00044419,0.00146023,0
 .00012599,0.00000435,-0.00000479,-0.00000158,0.00000623,-0.00001388,0.
 00000450,-0.00000576,-0.00000630,0.00001315,-0.00000032,-0.00004642,0.
 00002931,0.01955827,0.00456686,0.01005922,0.11307851,0.02221170,0.0998
 8540,-0.00000010,0.00000385,-0.00000140,-0.00000371,-0.00000380,0.0000
 0458,-0.00001026,-0.00000125,-0.00001169,-0.00000757,-0.00000491,0.000
 01818,0.00000278,-0.00000766,0.00000496,-0.00000464,0.00000315,0.00000
 194,0.00002480,0.00003543,-0.00000813,-0.00368886,-0.00085254,0.004145
 84,-0.05023000,0.00896434,-0.01508321,-0.00003979,0.00001928,0.0001022
 5,-0.00000115,-0.00000519,0.00000152,-0.00041204,0.00026224,-0.0001917
 8,0.00261853,-0.00169722,-0.00009264,0.00000057,0.00000333,0.00000079,
 0.00000150,0.00000268,-0.00000274,0.00000442,0.00000397,-0.00000368,-0
 .00003271,-0.00000320,-0.00000342,0.00289155,-0.01366663,0.01935746,0.
 00046808,0.01631563,-0.02489614,0.04744764,-0.00000974,0.00000146,-0.0
 0000770,-0.00000169,-0.00001010,-0.00002164,-0.00001603,-0.00000814,-0
 .00006252,-0.00000412,-0.00000178,-0.00000469,0.00005211,0.00002105,0.
 00016007,0.00001621,-0.00001015,-0.00000087,-0.00001008,0.00007639,0.0
 0002237,0.00376031,-0.00656841,0.03388295,0.00865028,-0.12078408,0.113
 17498,0.00012825,0.00032086,-0.00030479,0.00001143,-0.00000093,-0.0000
 0354,-0.00046918,0.00155879,-0.00175480,-0.00144157,-0.01049982,-0.000
 99271,0.00000111,-0.00000392,-0.00000258,-0.00000449,-0.00000189,0.000
 00552,-0.00000818,-0.00000617,-0.00001383,-0.00014304,0.00005809,-0.00
 000596,-0.00245234,0.00629667,-0.00989717,0.00087112,0.00327108,-0.006
 27643,-0.00920838,0.12772475,0.00002107,-0.00000971,-0.00000203,0.0000
 1207,-0.00000488,0.00001185,0.00001146,0.00000668,0.00001137,-0.000041
 41,0.00001116,0.00001464,-0.00001923,0.00000139,-0.00004825,-0.0000216
 1,0.00000864,0.00000203,0.00008655,-0.00000886,-0.00001217,0.00082892,
 -0.00357589,0.00280210,-0.01457540,0.11664932,-0.24686056,0.00017353,0
 .00050657,0.00054924,-0.00001868,0.00000610,0.00000789,0.00019347,-0.0
 0087134,-0.00012676,-0.00044184,-0.00144366,0.00260247,-0.00000285,0.0
 0000534,0.00000395,0.00000233,0.00000022,-0.00000460,0.00000700,0.0000
 0335,0.00000113,0.00001729,-0.00003111,0.00000706,-0.00320484,0.010235
 35,-0.01588764,0.00066922,0.00601313,-0.01068484,0.01665377,-0.1263982
 2,0.26672642,0.00014556,-0.00005651,0.00009410,-0.00004086,0.00008385,
 0.00023243,-0.00027920,-0.00006311,-0.00166924,0.00133846,-0.00113893,
 -0.00232182,-0.00440825,0.00281655,0.00314763,0.00015541,-0.00000219,0
 .00028652,-0.02062153,0.00018699,-0.02360777,-0.00022871,-0.00043383,0
 .00244306,0.00014421,0.00001732,-0.00012728,-0.15993039,-0.01183705,-0
 .12572326,-0.00006636,0.00003439,0.00001017,0.00136835,-0.00402727,-0.
 00239593,0.00020903,0.00112788,0.00017649,-0.00000668,-0.00001901,0.00
 001585,-0.00041220,0.00019679,0.00013994,0.00025213,0.00023742,0.00146
 737,0.00004495,-0.00013699,0.00014038,-0.00001396,-0.00004291,-0.00001
 475,-0.00000756,-0.00000621,0.00000086,-0.00000110,-0.00000313,-0.0000
 2878,0.17172721,-0.00006951,0.00004852,-0.00002476,0.00008258,-0.00011
 962,-0.00011509,0.00031943,-0.00005499,0.00075313,0.00022396,-0.000194
 31,0.00099454,0.00276529,-0.00022480,-0.00159726,-0.00006594,0.0000586
 0,-0.00008965,0.00844452,0.00192056,0.01010218,-0.00345587,-0.00545069
 ,0.00640263,0.00145401,-0.00022091,-0.00139305,-0.01052568,-0.04887281
 ,-0.00785132,0.00005495,-0.00003072,-0.00000980,-0.02118021,-0.0150703
 5,-0.03743054,0.00005555,0.00292750,-0.00095155,0.00002514,-0.00003109
 ,-0.00001353,0.00016110,-0.00024337,-0.00002306,-0.00009986,0.00019170
 ,-0.00037647,-0.00010259,-0.00003859,-0.00014847,-0.00011959,-0.000586
 93,-0.00015324,-0.00004923,0.00003227,0.00003281,-0.00000094,0.0000132
 4,0.00008490,0.01086205,0.06269567,0.00003980,0.00000472,0.00003080,-0
 .00023810,0.00018673,0.00027260,0.00032911,-0.00037311,0.00024058,0.00
 166445,-0.00036968,0.00086104,0.00074160,-0.00081971,-0.00014242,0.000
 05910,0.00001759,0.00019276,0.00670156,0.00070895,0.00533318,-0.001289
 71,0.00037385,0.00030940,-0.00006689,-0.00000005,-0.00027699,-0.128171
 09,-0.01258968,-0.20286868,-0.00003506,0.00001710,0.00000303,-0.001577
 33,-0.00401395,-0.00490679,-0.00008074,-0.00170493,-0.00036692,-0.0000
 3478,0.00002290,0.00000567,0.00008784,-0.00000195,-0.00001713,-0.00018
 744,0.00011672,0.00027189,0.00026240,0.00006182,0.00013520,-0.00005329
 ,-0.00007824,-0.00000958,-0.00000843,-0.00006988,-0.00001252,-0.000011
 50,-0.00001586,0.00005750,0.13867586,0.02178390,0.21743006,0.00011009,
 -0.00013064,-0.00006678,0.00045328,0.00099854,0.00057347,0.00042690,0.
 00051066,-0.00001270,-0.00350619,0.00087144,-0.00078012,0.00147929,0.0
 0042680,0.00064481,-0.00025050,-0.00004933,0.00011875,-0.01349605,-0.0
 0943795,0.02574776,0.00091034,-0.00104258,0.00202684,0.00013483,0.0002
 1732,-0.00006816,-0.09387676,-0.04762434,0.08274790,-0.00009001,0.0000
 5698,0.00001993,-0.00016049,-0.00439443,0.00200998,-0.00056444,0.00174
 470,-0.00039434,-0.00024697,0.00017183,0.00005917,-0.00000402,-0.00005
 460,-0.00001537,-0.00000166,-0.00022198,0.00024721,-0.00058181,-0.0004
 3387,-0.00051101,0.00000669,0.00001726,-0.00001912,-0.00001095,0.00003
 480,-0.00001372,0.00000525,0.00011295,-0.00004972,0.01052783,0.0111739
 5,-0.01722198,0.09870894,-0.00016475,0.00016741,0.00004216,-0.00002045
 ,-0.00100795,0.00009377,-0.00048734,-0.00004252,-0.00003025,0.00156380
 ,-0.00066801,-0.00008834,0.00018899,0.00010453,-0.00023028,0.00030753,
 -0.00013689,-0.00039217,0.00679530,0.00726446,-0.01217612,-0.00043086,
 -0.00214660,0.00676971,0.00031834,-0.00000531,-0.00011822,-0.04379584,
 -0.09458413,0.08900684,0.00013188,-0.00008399,-0.00003040,-0.01320879,
 -0.02954214,0.02838999,0.00126867,0.00338794,-0.00205723,0.00011144,-0
 .00007205,-0.00005343,0.00000704,0.00002767,0.00002328,0.00019567,0.00
 038560,-0.00005447,-0.00006539,0.00015464,0.00014095,-0.00000337,0.000
 00517,-0.00017341,-0.00003738,0.00007743,-0.00002564,-0.00002598,0.000
 36283,-0.00011748,0.00253056,0.00220988,-0.00276418,0.04725477,0.11911
 807,0.00024761,0.00001787,-0.00003654,-0.00014918,-0.00026907,-0.00019
 272,0.00056052,-0.00071626,-0.00037608,0.00120247,-0.00006428,0.000157
 39,-0.00206046,0.00026541,0.00054339,-0.00022241,0.00019331,0.00047020
 ,0.00415802,-0.00041367,-0.00467556,-0.00058020,-0.00192269,0.00122662
 ,0.00032182,0.00057007,-0.00044420,0.08582589,0.09980473,-0.22668618,-
 0.00010156,0.00001584,0.00001833,-0.00413064,-0.00196984,0.00817033,0.
 00017087,-0.00086104,-0.00261085,0.00006863,-0.00001569,-0.00001476,0.
 00000319,0.00002951,-0.00000549,0.00017333,0.00025971,0.00016252,0.000
 10999,0.00032554,0.00012601,0.00000464,0.00000831,-0.00007255,0.000003
 32,0.00002033,0.00003326,0.00000167,0.00033979,0.00017112,0.00921596,0
 .00967527,-0.01681585,-0.09470917,-0.10308536,0.24109928,-0.00006468,0
 .00004483,0.00000917,-0.00017538,-0.00005453,-0.00000182,-0.00002934,-
 0.00007705,-0.00013779,0.00009180,-0.00012155,0.00043140,-0.00061486,-
 0.00010757,-0.00013063,0.00001426,0.00006465,0.00010549,0.00078745,0.0
 0085209,-0.00079570,-0.00824975,0.00438897,-0.00617925,-0.00309468,0.0
 0004210,0.00039812,-0.00461963,-0.00035985,0.00321539,0.00004809,-0.00
 004497,-0.00001548,-0.01077250,-0.04727440,0.04869961,0.00738889,-0.00
 175179,-0.00187658,0.00001319,0.00000300,-0.00000888,0.00000503,0.0000
 3937,-0.00000846,0.00006538,0.00002546,-0.00009994,0.00008126,0.000031
 65,-0.00005680,0.00018530,0.00038258,0.00047816,0.00000139,-0.00038704
 ,-0.00082861,0.00096681,0.00016821,-0.00027232,0.00010366,0.00004690,0
 .00041463,0.00002642,-0.00243385,-0.00011432,0.01784189,0.00002076,-0.
 00001096,-0.00001600,0.00022079,-0.00009451,-0.00003524,-0.00013349,0.
 00012600,0.00014137,0.00021489,0.00010286,-0.00003946,0.00057122,0.000
 03466,-0.00002434,-0.00004016,-0.00006941,-0.00019301,-0.00083586,0.00
 024604,0.00023162,0.00408892,0.01230039,-0.00544384,0.00036650,-0.0002
 2970,-0.00174330,-0.00430499,-0.01395707,0.02386041,-0.00002639,0.0000
 1617,0.00000958,-0.04408438,-0.23139904,0.18547959,-0.00180780,0.00145
 903,-0.00572896,0.00001214,-0.00000390,0.00000265,0.00000486,-0.000013
 13,-0.00000176,-0.00006149,-0.00009554,-0.00007725,0.00001757,-0.00010
 478,-0.00000663,-0.00012507,-0.00020157,0.00016629,0.00004434,-0.00014
 855,0.00029318,-0.00013621,-0.00180984,-0.00107099,-0.00032667,0.00104
 126,-0.00049303,-0.00020228,-0.00497604,-0.00220779,0.04652279,0.23778
 762,-0.00006857,0.00001310,0.00000311,0.00014110,0.00000657,-0.0001220
 1,-0.00019266,0.00011773,0.00018023,0.00024013,0.00017768,0.00006256,0
 .00041741,0.00002490,-0.00001125,0.00001283,-0.00005967,-0.00018069,-0
 .00125301,0.00024841,0.00030863,0.00623253,0.02964828,-0.01581516,-0.0
 0083616,0.00043298,-0.00004245,-0.00155645,-0.00999542,0.01131077,0.00
 003649,-0.00001142,-0.00001406,0.04149399,0.18170583,-0.28200877,-0.00
 110344,-0.00447465,-0.00624010,0.00003060,-0.00002955,-0.00001148,0.00
 001439,-0.00000959,-0.00000297,-0.00012843,-0.00014598,-0.00007489,0.0
 0002202,-0.00002422,-0.00005733,0.00004860,0.00014806,0.00065427,0.000
 15206,-0.00012632,0.00035371,0.00001337,-0.00182236,0.00065806,-0.0001
 5777,0.00034845,0.00027315,-0.00033364,-0.00306970,-0.00024767,-0.0432
 2539,-0.19310310,0.29102435\\-0.00000266,-0.00000246,-0.00000448,0.000
 00267,-0.00000073,-0.00000273,-0.00000511,0.00000297,0.00000031,-0.000
 00229,0.00000048,0.00000184,0.00000637,-0.00000276,0.00000181,0.000002
 05,0.00000095,0.00000622,-0.00000301,0.00000214,-0.00000098,-0.0000003
 9,-0.00000268,0.00000145,0.00000056,0.00000336,0.00000381,0.00000333,-
 0.00000478,-0.00000199,0.00000120,0.00000034,0.00000171,0.00000009,0.0
 0000470,0.00000251,-0.00000072,0.00000025,-0.00000362,0.00000137,-0.00
 000074,0.00000047,0.00000057,-0.00000069,0.00000020,0.00000036,0.,-0.0
 0000041,-0.00000245,0.00000057,0.00000035,-0.00000080,0.00000010,-0.00
 000197,0.00000029,-0.00000029,-0.00000175,-0.00000042,-0.00000114,-0.0
 0000111,0.00000039,0.00000093,0.00000032,-0.00000147,-0.00000040,-0.00
 000042,0.00000007,-0.00000012,-0.00000151\\\@


 ON A TOMBSTONE, "HERE LIES LESTER MOORE,
 FOUR SLUGS FROM A 44, NO LES, NO MORE".
 Job cpu time:  0 days  1 hours  1 minutes 28.8 seconds.
 File lengths (MBytes):  RWF=    140 Int=      0 D2E=      0 Chk=      4 Scr=      1
 Normal termination of Gaussian 09 at Fri Feb 16 21:45:07 2018.
