 Entering Gaussian System, Link 0=g09
 Initial command:
 /home/fb_chem/chemsoft/lx24-amd64/Gaussian_09_C.01_NBO_3.1_64_istanbul-64/g09/l1.exe /local/2399990.1.parallel/Gau-18571.inp -scrdir=/local/2399990.1.parallel/
 Entering Link 1 = /home/fb_chem/chemsoft/lx24-amd64/Gaussian_09_C.01_NBO_3.1_64_istanbul-64/g09/l1.exe PID=     18572.
  
 Copyright (c) 1988,1990,1992,1993,1995,1998,2003,2009,2011,
            Gaussian, Inc.  All Rights Reserved.
  
 This is part of the Gaussian(R) 09 program.  It is based on
 the Gaussian(R) 03 system (copyright 2003, Gaussian, Inc.),
 the Gaussian(R) 98 system (copyright 1998, Gaussian, Inc.),
 the Gaussian(R) 94 system (copyright 1995, Gaussian, Inc.),
 the Gaussian 92(TM) system (copyright 1992, Gaussian, Inc.),
 the Gaussian 90(TM) system (copyright 1990, Gaussian, Inc.),
 the Gaussian 88(TM) system (copyright 1988, Gaussian, Inc.),
 the Gaussian 86(TM) system (copyright 1986, Carnegie Mellon
 University), and the Gaussian 82(TM) system (copyright 1983,
 Carnegie Mellon University). Gaussian is a federally registered
 trademark of Gaussian, Inc.
  
 This software contains proprietary and confidential information,
 including trade secrets, belonging to Gaussian, Inc.
  
 This software is provided under written license and may be
 used, copied, transmitted, or stored only in accord with that
 written license.
  
 The following legend is applicable only to US Government
 contracts under FAR:
  
                    RESTRICTED RIGHTS LEGEND
  
 Use, reproduction and disclosure by the US Government is
 subject to restrictions as set forth in subparagraphs (a)
 and (c) of the Commercial Computer Software - Restricted
 Rights clause in FAR 52.227-19.
  
 Gaussian, Inc.
 340 Quinnipiac St., Bldg. 40, Wallingford CT 06492
  
  
 ---------------------------------------------------------------
 Warning -- This program may not be used in any manner that
 competes with the business of Gaussian, Inc. or will provide
 assistance to any competitor of Gaussian, Inc.  The licensee
 of this program is prohibited from giving any competitor of
 Gaussian, Inc. access to this program.  By using this program,
 the user acknowledges that Gaussian, Inc. is engaged in the
 business of creating and licensing software in the field of
 computational chemistry and represents and warrants to the
 licensee that it is not a competitor of Gaussian, Inc. and that
 it will not use this program in any manner prohibited above.
 ---------------------------------------------------------------
  

 Cite this work as:
 Gaussian 09, Revision C.01,
 M. J. Frisch, G. W. Trucks, H. B. Schlegel, G. E. Scuseria, 
 M. A. Robb, J. R. Cheeseman, G. Scalmani, V. Barone, B. Mennucci, 
 G. A. Petersson, H. Nakatsuji, M. Caricato, X. Li, H. P. Hratchian, 
 A. F. Izmaylov, J. Bloino, G. Zheng, J. L. Sonnenberg, M. Hada, 
 M. Ehara, K. Toyota, R. Fukuda, J. Hasegawa, M. Ishida, T. Nakajima, 
 Y. Honda, O. Kitao, H. Nakai, T. Vreven, J. A. Montgomery, Jr., 
 J. E. Peralta, F. Ogliaro, M. Bearpark, J. J. Heyd, E. Brothers, 
 K. N. Kudin, V. N. Staroverov, T. Keith, R. Kobayashi, J. Normand, 
 K. Raghavachari, A. Rendell, J. C. Burant, S. S. Iyengar, J. Tomasi, 
 M. Cossi, N. Rega, J. M. Millam, M. Klene, J. E. Knox, J. B. Cross, 
 V. Bakken, C. Adamo, J. Jaramillo, R. Gomperts, R. E. Stratmann, 
 O. Yazyev, A. J. Austin, R. Cammi, C. Pomelli, J. W. Ochterski, 
 R. L. Martin, K. Morokuma, V. G. Zakrzewski, G. A. Voth, 
 P. Salvador, J. J. Dannenberg, S. Dapprich, A. D. Daniels, 
 O. Farkas, J. B. Foresman, J. V. Ortiz, J. Cioslowski, 
 and D. J. Fox, Gaussian, Inc., Wallingford CT, 2010.
 
 ******************************************
 Gaussian 09:  AM64L-G09RevC.01 23-Sep-2011
                17-Feb-2018 
 ******************************************
 %nprocs=2
 Will use up to    2 processors via shared memory.
 %chk=frag11-conf0.chk
 ----------------------------------------------------------------------
 #HF/6-31G* Geom=AllCheck Guess=Read Pop=(MK,ReadRadii) Integral=(Grid=
 UltraFine) iop(6/33=2)
 ----------------------------------------------------------------------
 1/29=7,38=1/1;
 2/12=2,40=1/2;
 3/5=1,6=6,7=1,11=9,14=-4,16=1,25=1,30=1,75=-5,116=-2/1,2,3;
 4/5=1/1;
 5/5=2,38=6/2;
 6/7=2,8=2,9=2,10=2,15=8,20=101,28=1,33=2/1,2;
 99/5=1,9=1/99;
 Structure from the checkpoint file:  frag11-conf0.chk
 -----------------------------
 Optimization for frag11-conf0
 -----------------------------
 Charge =  1 Multiplicity = 1
 Redundant internal coordinates found in file.
 C,0,0.581497326,1.7884391818,3.9529791116
 C,0,-0.0377528948,6.3145321649,-1.7507074845
 C,0,-0.4400041262,2.4620515305,3.2797572532
 C,0,1.6743885421,1.2970112364,3.2366693546
 C,0,1.2727978435,5.8974360574,-1.5091614714
 C,0,-1.0931888646,5.4225057783,-1.5588593688
 C,0,-0.3739858869,2.6383765193,1.8971025317
 C,0,1.7385811529,1.4716266956,1.85296924
 C,0,1.5257575867,4.5956035208,-1.0777037295
 C,0,-0.8402373686,4.1201594077,-1.1207344918
 C,0,0.7123311077,2.1361923819,1.1674109183
 C,0,0.4743120592,3.6899358055,-0.8661204049
 C,0,0.6307168473,-0.22532237,-0.9278846562
 C,0,0.9171611391,-2.3633253069,0.1614505226
 C,0,-0.8374323606,-0.8470579088,1.0049266269
 C,0,0.8090207728,2.2881922782,-0.3519176336
 C,0,-0.0145386885,1.1808358943,-1.0857455274
 N,0,0.2204882024,-1.0776086675,0.0211378056
 N,0,0.1195964712,1.4226198724,-2.5788025553
 O,0,1.537129731,-0.4703926483,-1.7427534728
 H,0,0.5331444022,1.6611722457,5.0303526178
 H,0,-0.2349777269,7.3272088121,-2.0888682365
 H,0,-1.2843489972,2.8634263631,3.8325582927
 H,0,2.4840581849,0.7904224257,3.7539481646
 H,0,2.1004675966,6.5841219001,-1.6592257707
 H,0,-2.1157486408,5.738101799,-1.7438665917
 H,0,-1.1618654284,3.192889642,1.3959560115
 H,0,2.5999856555,1.096334457,1.3047522298
 H,0,2.5493343901,4.2820085601,-0.8869688932
 H,0,-1.6837636512,3.4503729647,-0.9643899159
 H,0,1.4008023899,-2.4121120284,1.1428136001
 H,0,1.6647505712,-2.45563419,-0.6232982292
 H,0,0.1917260431,-3.1793252858,0.0828843748
 H,0,-1.3579312174,0.0917560565,0.8324546744
 H,0,-0.407484703,-0.8116694363,2.0108570392
 H,0,-1.5581236025,-1.6697570665,0.9532492434
 H,0,1.8536040414,2.0886805936,-0.622344384
 H,0,-1.0735880648,1.2262957175,-0.8372844536
 H,0,0.9865145378,0.8823441735,-2.8242090496
 H,0,0.2097776948,2.429554656,-2.774245005
 H,0,-0.6620164973,1.0424754912,-3.1211093654
 Recover connectivity data from disk.
                          Input orientation:                          
 ---------------------------------------------------------------------
 Center     Atomic      Atomic             Coordinates (Angstroms)
 Number     Number       Type             X           Y           Z
 ---------------------------------------------------------------------
      1          6           0        0.581497    1.788439    3.952979
      2          6           0       -0.037753    6.314532   -1.750707
      3          6           0       -0.440004    2.462052    3.279757
      4          6           0        1.674389    1.297011    3.236669
      5          6           0        1.272798    5.897436   -1.509161
      6          6           0       -1.093189    5.422506   -1.558859
      7          6           0       -0.373986    2.638377    1.897103
      8          6           0        1.738581    1.471627    1.852969
      9          6           0        1.525758    4.595604   -1.077704
     10          6           0       -0.840237    4.120159   -1.120734
     11          6           0        0.712331    2.136192    1.167411
     12          6           0        0.474312    3.689936   -0.866120
     13          6           0        0.630717   -0.225322   -0.927885
     14          6           0        0.917161   -2.363325    0.161451
     15          6           0       -0.837432   -0.847058    1.004927
     16          6           0        0.809021    2.288192   -0.351918
     17          6           0       -0.014539    1.180836   -1.085746
     18          7           0        0.220488   -1.077609    0.021138
     19          7           0        0.119596    1.422620   -2.578803
     20          8           0        1.537130   -0.470393   -1.742753
     21          1           0        0.533144    1.661172    5.030353
     22          1           0       -0.234978    7.327209   -2.088868
     23          1           0       -1.284349    2.863426    3.832558
     24          1           0        2.484058    0.790422    3.753948
     25          1           0        2.100468    6.584122   -1.659226
     26          1           0       -2.115749    5.738102   -1.743867
     27          1           0       -1.161865    3.192890    1.395956
     28          1           0        2.599986    1.096334    1.304752
     29          1           0        2.549334    4.282009   -0.886969
     30          1           0       -1.683764    3.450373   -0.964390
     31          1           0        1.400802   -2.412112    1.142814
     32          1           0        1.664751   -2.455634   -0.623298
     33          1           0        0.191726   -3.179325    0.082884
     34          1           0       -1.357931    0.091756    0.832455
     35          1           0       -0.407485   -0.811669    2.010857
     36          1           0       -1.558124   -1.669757    0.953249
     37          1           0        1.853604    2.088681   -0.622344
     38          1           0       -1.073588    1.226296   -0.837284
     39          1           0        0.986515    0.882344   -2.824209
     40          1           0        0.209778    2.429555   -2.774245
     41          1           0       -0.662016    1.042475   -3.121109
 ---------------------------------------------------------------------
                    Distance matrix (angstroms):
                    1          2          3          4          5
     1  C    0.000000
     2  C    7.307601   0.000000
     3  C    1.396584   6.348936   0.000000
     4  C    1.396070   7.278796   2.414504   0.000000
     5  C    6.869988   1.396373   6.137532   6.621789   0.000000
     6  C    6.811122   1.395157   5.709917   6.904802   2.413695
     7  C    2.421151   5.189768   1.395415   2.790974   4.993596
     8  C    2.418523   6.292502   2.786198   1.396151   5.577514
     9  C    5.837771   2.419135   5.234857   5.432920   1.394601
    10  C    5.762015   2.419942   4.719516   5.768923   2.788280
    11  C    2.810238   5.151365   2.428182   2.431380   4.650281
    12  C    5.181785   2.816596   4.419499   4.898893   2.433955
    13  C    5.280198   6.625224   5.106141   4.555245   6.183714
    14  C    5.632540   8.937193   5.903389   4.840292   8.435496
    15  C    4.201216   7.715010   4.035221   3.985844   7.500794
    16  C    4.339776   4.345693   3.844392   3.822206   3.818500
    17  C    5.110106   5.176635   4.569480   4.642116   4.907426
    18  N    4.878928   7.605910   4.856341   4.253503   7.218062
    19  N    6.558304   4.964001   5.976311   6.021036   4.743204
    20  O    6.201365   6.965309   6.142793   5.285566   6.377592
    21  H    1.085941   8.243935   2.157084   2.156931   7.826766
    22  H    8.237021   1.085709   7.248029   8.268634   2.157243
    23  H    2.156729   6.681092   1.086098   3.400422   6.654186
    24  H    2.157635   8.196130   3.401373   1.086174   7.432971
    25  H    7.536756   2.157089   6.916575   7.218370   1.085861
    26  H    7.438348   2.156475   6.227152   7.674253   3.400400
    27  H    3.398553   4.572720   2.145674   3.876457   4.656379
    28  H    3.400942   6.597203   3.873934   2.151582   5.721024
    29  H    5.789246   3.401502   5.441507   5.165281   2.150878
    30  H    5.663387   3.395741   4.531722   5.793363   3.876358
    31  H    5.119856   9.305709   5.631391   4.268100   8.723414
    32  H    6.334659   9.004743   6.621742   5.383474   8.409052
    33  H    6.309377   9.672024   6.514922   5.672939   9.278519
    34  H    4.046948   6.865751   3.528481   4.053129   6.790421
    35  H    3.392711   8.066525   3.511184   3.206766   7.760540
    36  H    5.053264   8.565733   4.871824   4.946196   8.446301
    37  H    4.758360   4.765318   4.541634   3.943456   3.953530
    38  H    5.099210   5.272328   4.344946   4.914619   5.270341
    39  H    6.849476   5.631181   6.464428   6.113867   5.192538
    40  H    6.767921   4.025165   6.088860   6.289581   3.841438
    41  H    7.221185   5.482909   6.560151   6.778269   5.469234
                    6          7          8          9         10
     6  C    0.000000
     7  C    4.495809   0.000000
     8  C    5.938766   2.413751   0.000000
     9  C    2.788218   4.035992   4.288749   0.000000
    10  C    1.397156   3.394173   4.744254   2.413676   0.000000
    11  C    4.635980   1.401686   1.401723   3.427959   3.403264
    12  C    2.436954   3.075839   3.729976   1.403759   1.406400
    13  C    5.938682   4.146173   3.440952   4.905596   4.591744
    14  C    8.223147   5.449456   4.271162   7.094546   6.838715
    15  C    6.778336   3.627535   3.568098   6.288448   5.402934
    16  C    3.859926   2.565195   2.528317   2.522821   2.582099
    17  C    4.402168   3.339313   3.434244   3.746093   3.053297
    18  N    6.817157   4.204901   3.486949   5.924231   5.426399
    19  N    4.302350   4.664270   4.718486   3.781324   3.213092
    20  O    6.455900   5.154160   4.091606   5.109475   5.206914
    21  H    7.759530   3.405153   3.403641   6.848687   6.765254
    22  H    2.155303   6.155683   7.329451   3.403573   3.404231
    23  H    5.970998   2.150674   3.872207   5.916740   5.129495
    24  H    7.904354   3.877013   2.152556   6.224356   6.775000
    25  H    3.399833   5.859974   6.213218   2.150038   3.874123
    26  H    1.086028   5.089076   6.782027   3.874228   2.152431
    27  H    3.702275   1.085996   3.403557   3.912789   2.701297
    28  H    6.368325   3.401952   1.087844   4.367487   5.182821
    29  H    3.875583   4.358713   4.007846   1.087396   3.401476
    30  H    2.142774   3.250076   4.854420   3.409607   1.088391
    31  H    8.654494   5.406132   3.962555   7.352169   7.267495
    32  H    8.399202   6.038030   4.643353   7.067231   7.054323
    33  H    8.850866   6.120218   5.211268   7.973464   7.469680
    34  H    5.848535   2.930341   3.540322   5.678821   4.506771
    35  H    7.216509   3.452083   3.137510   6.520371   5.858078
    36  H    7.538372   4.566515   4.641772   7.272540   6.191922
    37  H    4.546981   3.407629   2.553657   2.568949   3.410584
    38  H    4.257844   3.155992   3.899480   4.262233   2.917061
    39  H    5.151635   5.217796   4.773767   4.138763   4.089290
    40  H    3.483194   4.712311   4.966485   3.049889   2.587426
    41  H    4.670246   5.273738   5.539720   4.646136   3.674969
                   11         12         13         14         15
    11  C    0.000000
    12  C    2.570218   0.000000
    13  C    3.158113   3.918868   0.000000
    14  C    4.615146   6.155809   2.416559   0.000000
    15  C    3.365702   5.079941   2.505549   2.467614   0.000000
    16  C    1.529971   1.530137   2.584818   4.681010   3.792312
    17  C    2.552990   2.565695   1.555171   3.871000   3.026618
    18  N    3.447371   4.856041   1.339897   1.469050   1.462939
    19  N    3.859357   2.863534   2.387988   4.741147   4.348615
    20  O    3.992948   4.382511   1.243244   2.755639   3.651050
    21  H    3.896161   6.236003   6.250518   6.328527   4.936978
    22  H    6.200597   3.902302   7.690126  10.014879   8.760888
    23  H    3.408608   5.084642   5.989129   6.755932   4.686462
    24  H    3.411787   5.813028   5.136747   5.030639   4.612023
    25  H    5.449851   3.413167   7.004538   9.207165   8.423265
    26  H    5.426539   3.416700   6.615990   8.857872   7.249433
    27  H    2.163667   2.835687   4.505304   6.059528   4.071773
    28  H    2.159492   3.994740   3.257217   4.013513   3.960115
    29  H    3.492790   2.157939   4.898857   6.922690   6.430924
    30  H    3.465965   2.173554   4.343833   6.467721   4.802332
    31  H    4.600182   6.490700   3.108516   1.095154   2.734612
    32  H    5.019822   6.264514   2.477153   1.087769   3.391099
    33  H    5.449950   6.940260   3.152856   1.094662   2.710867
    34  H    2.928806   4.380545   2.674706   3.413754   1.087215
    35  H    3.264242   5.414704   3.171414   2.753657   1.094533
    36  H    4.436900   6.013918   3.227395   2.689799   1.094943
    37  H    2.123202   2.127414   2.635037   4.616451   4.302121
    38  H    2.834823   2.909699   2.240549   4.224445   2.783578
    39  H    4.192892   3.461074   2.224761   4.410594   4.580381
    40  H    3.984379   2.302060   3.261075   5.664839   5.110282
    41  H    4.634270   3.658588   2.844065   4.986831   4.541506
                   16         17         18         19         20
    16  C    0.000000
    17  C    1.563007   0.000000
    18  N    3.437173   2.526064   0.000000
    19  N    2.486672   1.518444   3.608464   0.000000
    20  O    3.174013   2.359214   2.283324   2.508361   0.000000
    21  H    5.425688   6.159329   5.717596   7.624118   7.171229
    22  H    5.431263   6.231593   8.677588   5.935481   8.003921
    23  H    4.714120   5.351004   5.685351   6.719564   7.082315
    24  H    4.680513   5.460590   4.748385   6.789262   5.718396
    25  H    4.672462   5.830749   8.065982   5.604514   7.077464
    26  H    4.732195   5.061312   7.418029   4.931254   7.203397
    27  H    2.785306   3.394637   4.694484   4.535935   5.527722
    28  H    2.715260   3.543636   3.469251   4.619609   3.587699
    29  H    2.700051   4.028676   5.913855   4.116070   4.933786
    30  H    2.817758   2.819900   5.009996   3.157565   5.133460
    31  H    4.967624   4.458581   2.105278   5.495187   3.480712
    32  H    4.828023   4.032094   2.097652   4.610027   2.282685
    33  H    5.519407   4.518766   2.102820   5.316736   3.532900
    34  H    3.304959   2.582691   2.125337   3.948539   3.915238
    35  H    4.083103   3.703165   2.103344   5.131748   4.241178
    36  H    4.792932   3.829626   2.093545   4.985271   4.276389
    37  H    1.097310   2.128117   3.620293   2.697804   2.811464
    38  H    2.215270   1.088754   2.778398   2.120169   3.242603
    39  H    2.849586   2.028167   3.538956   1.050557   1.817311
    40  H    2.499349   2.112024   4.484916   1.029683   3.351945
    41  H    3.374046   2.140345   3.891952   1.024463   3.004144
                   21         22         23         24         25
    21  H    0.000000
    22  H    9.131116   0.000000
    23  H    2.486646   7.489314   0.000000
    24  H    2.488670   9.179392   4.301676   0.000000
    25  H    8.452360   2.488187   7.447164   7.938296   0.000000
    26  H    8.338347   2.486280   6.328625   8.709978   4.301092
    27  H    4.292791   5.485956   2.461824   4.962332   5.610473
    28  H    4.297787   7.640515   4.959886   2.470948   6.257036
    29  H    6.778532   4.297697   6.243672   5.808059   2.469329
    30  H    6.637233   4.288740   4.849201   6.834383   4.962216
    31  H    5.697143  10.391050   6.502005   4.271732   9.448449
    32  H    7.084659  10.072779   7.539513   5.510756   9.109346
    33  H    6.929966  10.737125   7.263174   5.872852  10.099661
    34  H    4.864317   7.883332   4.085118   4.876899   7.766583
    35  H    4.014609   9.114760   4.194498   3.737123   8.628851
    36  H    5.664915   9.589087   5.377279   5.498694   9.398768
    37  H    5.820598   5.827096   5.503920   4.608132   4.620071
    38  H    6.099170   6.284176   4.952984   5.824624   6.281442
    39  H    7.906090   6.600686   7.307124   6.747091   5.925230
    40  H    7.848995   4.965336   6.787526   7.104675   4.698766
    41  H    8.261811   6.383240   7.215030   7.564901   6.362253
                   26         27         28         29         30
    26  H    0.000000
    27  H    4.152889   0.000000
    28  H    7.285481   4.307596   0.000000
    29  H    4.961601   4.491206   3.867134   0.000000
    30  H    2.455178   2.431030   5.388971   4.314711   0.000000
    31  H    9.334079   6.168257   3.711261   7.088751   6.951517
    32  H    9.093138   6.631212   4.148316   6.800576   6.797780
    33  H    9.390525   6.645411   5.057068   7.884823   6.969013
    34  H    6.252435   3.158007   4.110638   5.981752   3.822973
    35  H    7.740518   4.121127   3.630970   6.563972   5.352195
    36  H    7.903275   4.898810   5.006465   7.461979   5.468899
    37  H    5.507436   3.792871   2.292496   2.316194   3.805808
    38  H    4.718515   2.977020   4.254451   4.739770   2.309760
    39  H    5.862556   5.269151   4.438176   4.213434   4.145369
    40  H    4.173276   4.455857   4.912106   3.530853   2.811253
    41  H    5.104806   5.027724   5.498346   5.079245   3.390188
                   31         32         33         34         35
    31  H    0.000000
    32  H    1.786257   0.000000
    33  H    1.781553   1.786680   0.000000
    34  H    3.738488   4.212484   3.696386   0.000000
    35  H    2.566090   3.733035   3.111579   1.762997   0.000000
    36  H    3.056512   3.672877   2.469475   1.776963   1.782924
    37  H    4.855713   4.548237   5.568759   4.051926   4.523085
    38  H    4.825081   4.593571   4.675171   2.038642   3.564955
    39  H    5.173233   4.055381   5.057671   4.415048   5.309499
    40  H    6.340633   5.532503   6.294684   4.575073   5.812379
    41  H    5.862630   4.887707   5.368245   4.125389   5.462574
                   36         37         38         39         40
    36  H    0.000000
    37  H    5.314907   0.000000
    38  H    3.439172   3.059144   0.000000
    39  H    5.220881   2.656181   2.882741   0.000000
    40  H    5.815844   2.729292   2.616615   1.731958   0.000000
    41  H    4.975903   3.696852   2.327883   1.682690   1.674613
                   41
    41  H    0.000000
 Stoichiometry    C17H21N2O(1+)
 Framework group  C1[X(C17H21N2O)]
 Deg. of freedom   117
 Full point group                 C1      NOp   1
 Largest Abelian subgroup         C1      NOp   1
 Largest concise Abelian subgroup C1      NOp   1
                         Standard orientation:                         
 ---------------------------------------------------------------------
 Center     Atomic      Atomic             Coordinates (Angstroms)
 Number     Number       Type             X           Y           Z
 ---------------------------------------------------------------------
      1          6           0        1.646063    3.539142   -0.076905
      2          6           0       -4.735090   -0.015969    0.130697
      3          6           0        0.700026    3.177751    0.884790
      4          6           0        1.902050    2.683786   -1.150147
      5          6           0       -4.169857    0.041817   -1.144854
      6          6           0       -3.910592   -0.171176    1.245405
      7          6           0        0.017626    1.965172    0.779122
      8          6           0        1.220709    1.469601   -1.253904
      9          6           0       -2.787733   -0.054618   -1.304058
     10          6           0       -2.525467   -0.261638    1.086379
     11          6           0        0.278023    1.093390   -0.287139
     12          6           0       -1.942894   -0.196769   -0.192042
     13          6           0        1.657603   -1.741009   -0.095779
     14          6           0        4.063071   -1.546415   -0.220730
     15          6           0        2.864682   -0.180675    1.448921
     16          6           0       -0.431661   -0.255037   -0.424637
     17          6           0        0.256353   -1.349659    0.453674
     18          7           0        2.776145   -1.184261    0.388182
     19          7           0       -0.523697   -2.639909    0.273541
     20          8           0        1.636243   -2.592983   -1.000952
     21          1           0        2.168656    4.487819    0.001695
     22          1           0       -5.811217    0.056703    0.254938
     23          1           0        0.481992    3.846262    1.712536
     24          1           0        2.620486    2.965499   -1.914517
     25          1           0       -4.804433    0.159010   -2.018165
     26          1           0       -4.341220   -0.216799    2.241365
     27          1           0       -0.737447    1.716454    1.518981
     28          1           0        1.417564    0.815136   -2.100265
     29          1           0       -2.356712   -0.002942   -2.301044
     30          1           0       -1.905180   -0.366518    1.974545
     31          1           0        4.512862   -0.659753   -0.679950
     32          1           0        3.901395   -2.311645   -0.976723
     33          1           0        4.737241   -1.924783    0.554265
     34          1           0        1.897643    0.019055    1.903874
     35          1           0        3.242466    0.760968    1.038324
     36          1           0        3.555548   -0.536737    2.220169
     37          1           0       -0.279322   -0.586810   -1.459437
     38          1           0        0.236879   -1.096604    1.512433
     39          1           0       -0.059417   -3.076892   -0.561420
     40          1           0       -1.520962   -2.438995    0.114342
     41          1           0       -0.431371   -3.281535    1.066837
 ---------------------------------------------------------------------
 Rotational constants (GHZ):      0.4739432      0.2698157      0.2023583
 Standard basis: 6-31G(d) (6D, 7F)
 There are   342 symmetry adapted basis functions of A   symmetry.
 Integral buffers will be    131072 words long.
 Raffenetti 1 integral format.
 Two-electron integral symmetry is turned on.
   342 basis functions,   644 primitive gaussians,   342 cartesian basis functions
    72 alpha electrons       72 beta electrons
       nuclear repulsion energy      1567.7915564165 Hartrees.
 NAtoms=   41 NActive=   41 NUniq=   41 SFac= 1.00D+00 NAtFMM=   60 NAOKFM=F Big=F
 One-electron integrals computed using PRISM.
 NBasis=   342 RedAO= T  NBF=   342
 NBsUse=   342 1.00D-06 NBFU=   342
 Initial guess read from the checkpoint file:  frag11-conf0.chk
 B after Tr=     0.000000    0.000000    0.000000
         Rot=    1.000000    0.000000    0.000000    0.000000 Ang=   0.00 deg.
 Initial guess orbital symmetries:
       Occupied  (A) (A) (A) (A) (A) (A) (A) (A) (A) (A) (A) (A)
                 (A) (A) (A) (A) (A) (A) (A) (A) (A) (A) (A) (A)
                 (A) (A) (A) (A) (A) (A) (A) (A) (A) (A) (A) (A)
                 (A) (A) (A) (A) (A) (A) (A) (A) (A) (A) (A) (A)
                 (A) (A) (A) (A) (A) (A) (A) (A) (A) (A) (A) (A)
                 (A) (A) (A) (A) (A) (A) (A) (A) (A) (A) (A) (A)
       Virtual   (A) (A) (A) (A) (A) (A) (A) (A) (A) (A) (A) (A)
                 (A) (A) (A) (A) (A) (A) (A) (A) (A) (A) (A) (A)
                 (A) (A) (A) (A) (A) (A) (A) (A) (A) (A) (A) (A)
                 (A) (A) (A) (A) (A) (A) (A) (A) (A) (A) (A) (A)
                 (A) (A) (A) (A) (A) (A) (A) (A) (A) (A) (A) (A)
                 (A) (A) (A) (A) (A) (A) (A) (A) (A) (A) (A) (A)
                 (A) (A) (A) (A) (A) (A) (A) (A) (A) (A) (A) (A)
                 (A) (A) (A) (A) (A) (A) (A) (A) (A) (A) (A) (A)
                 (A) (A) (A) (A) (A) (A) (A) (A) (A) (A) (A) (A)
                 (A) (A) (A) (A) (A) (A) (A) (A) (A) (A) (A) (A)
                 (A) (A) (A) (A) (A) (A) (A) (A) (A) (A) (A) (A)
                 (A) (A) (A) (A) (A) (A) (A) (A) (A) (A) (A) (A)
                 (A) (A) (A) (A) (A) (A) (A) (A) (A) (A) (A) (A)
                 (A) (A) (A) (A) (A) (A) (A) (A) (A) (A) (A) (A)
                 (A) (A) (A) (A) (A) (A) (A) (A) (A) (A) (A) (A)
                 (A) (A) (A) (A) (A) (A) (A) (A) (A) (A) (A) (A)
                 (A) (A) (A) (A) (A) (A) (A) (A) (A) (A) (A) (A)
                 (A) (A) (A) (A) (A) (A) (A) (A) (A) (A) (A) (A)
                 (A) (A) (A) (A) (A) (A) (A) (A) (A) (A) (A) (A)
                 (A) (A) (A) (A) (A) (A) (A) (A) (A) (A) (A) (A)
                 (A) (A) (A) (A) (A) (A) (A) (A) (A) (A) (A) (A)
                 (A) (A) (A) (A) (A) (A) (A) (A) (A) (A) (A) (A)
                 (A) (A) (A) (A) (A) (A)
 Requested convergence on RMS density matrix=1.00D-08 within 128 cycles.
 Requested convergence on MAX density matrix=1.00D-06.
 Requested convergence on             energy=1.00D-06.
 No special actions if energy rises.
 SCF Done:  E(RHF) =  -839.550040009     A.U. after   14 cycles
             Convg  =    0.4385D-08             -V/T =  2.0023

 **********************************************************************

            Population analysis using the SCF density.

 **********************************************************************

 Orbital symmetries:
 BldTbl:  Degeneracy threshold= 1.00D-02
       Occupied  (A) (A) (A) (A) (A) (A) (A) (A) (A) (A) (A) (A)
                 (A) (A) (A) (A) (A) (A) (A) (A) (A) (A) (A) (A)
                 (A) (A) (A) (A) (A) (A) (A) (A) (A) (A) (A) (A)
                 (A) (A) (A) (A) (A) (A) (A) (A) (A) (A) (A) (A)
                 (A) (A) (A) (A) (A) (A) (A) (A) (A) (A) (A) (A)
                 (A) (A) (A) (A) (A) (A) (A) (A) (A) (A) (A) (A)
       Virtual   (A) (A) (A) (A) (A) (A) (A) (A) (A) (A) (A) (A)
                 (A) (A) (A) (A) (A) (A) (A) (A) (A) (A) (A) (A)
                 (A) (A) (A) (A) (A) (A) (A) (A) (A) (A) (A) (A)
                 (A) (A) (A) (A) (A) (A) (A) (A) (A) (A) (A) (A)
                 (A) (A) (A) (A) (A) (A) (A) (A) (A) (A) (A) (A)
                 (A) (A) (A) (A) (A) (A) (A) (A) (A) (A) (A) (A)
                 (A) (A) (A) (A) (A) (A) (A) (A) (A) (A) (A) (A)
                 (A) (A) (A) (A) (A) (A) (A) (A) (A) (A) (A) (A)
                 (A) (A) (A) (A) (A) (A) (A) (A) (A) (A) (A) (A)
                 (A) (A) (A) (A) (A) (A) (A) (A) (A) (A) (A) (A)
                 (A) (A) (A) (A) (A) (A) (A) (A) (A) (A) (A) (A)
                 (A) (A) (A) (A) (A) (A) (A) (A) (A) (A) (A) (A)
                 (A) (A) (A) (A) (A) (A) (A) (A) (A) (A) (A) (A)
                 (A) (A) (A) (A) (A) (A) (A) (A) (A) (A) (A) (A)
                 (A) (A) (A) (A) (A) (A) (A) (A) (A) (A) (A) (A)
                 (A) (A) (A) (A) (A) (A) (A) (A) (A) (A) (A) (A)
                 (A) (A) (A) (A) (A) (A) (A) (A) (A) (A) (A) (A)
                 (A) (A) (A) (A) (A) (A) (A) (A) (A) (A) (A) (A)
                 (A) (A) (A) (A) (A) (A) (A) (A) (A) (A) (A) (A)
                 (A) (A) (A) (A) (A) (A) (A) (A) (A) (A) (A) (A)
                 (A) (A) (A) (A) (A) (A) (A) (A) (A) (A) (A) (A)
                 (A) (A) (A) (A) (A) (A) (A) (A) (A) (A) (A) (A)
                 (A) (A) (A) (A) (A) (A)
 The electronic state is 1-A.
 Alpha  occ. eigenvalues --  -20.67697 -15.84394 -15.74195 -11.51186 -11.46905
 Alpha  occ. eigenvalues --  -11.40438 -11.39017 -11.37694 -11.37318 -11.36583
 Alpha  occ. eigenvalues --  -11.36480 -11.35831 -11.35661 -11.35274 -11.35093
 Alpha  occ. eigenvalues --  -11.34945 -11.34860 -11.34377 -11.34335 -11.34168
 Alpha  occ. eigenvalues --   -1.53678  -1.45602  -1.38659  -1.28789  -1.26126
 Alpha  occ. eigenvalues --   -1.21408  -1.14304  -1.13376  -1.12477  -1.12087
 Alpha  occ. eigenvalues --   -1.09642  -1.07218  -1.02504  -0.95927  -0.93858
 Alpha  occ. eigenvalues --   -0.93577  -0.93175  -0.92229  -0.89139  -0.87602
 Alpha  occ. eigenvalues --   -0.82504  -0.82339  -0.80773  -0.80134  -0.78266
 Alpha  occ. eigenvalues --   -0.77383  -0.75954  -0.74347  -0.74054  -0.72902
 Alpha  occ. eigenvalues --   -0.71619  -0.70361  -0.69894  -0.69220  -0.68866
 Alpha  occ. eigenvalues --   -0.68157  -0.67949  -0.66456  -0.65973  -0.65404
 Alpha  occ. eigenvalues --   -0.62455  -0.61611  -0.60923  -0.60068  -0.59668
 Alpha  occ. eigenvalues --   -0.59301  -0.57558  -0.51015  -0.45758  -0.45480
 Alpha  occ. eigenvalues --   -0.44202  -0.43481
 Alpha virt. eigenvalues --   -0.00036   0.01391   0.02436   0.02765   0.03859
 Alpha virt. eigenvalues --    0.04508   0.09153   0.10860   0.12220   0.12555
 Alpha virt. eigenvalues --    0.14363   0.14860   0.15148   0.16768   0.18325
 Alpha virt. eigenvalues --    0.18844   0.19238   0.19647   0.20280   0.20711
 Alpha virt. eigenvalues --    0.21365   0.21902   0.22418   0.22591   0.23069
 Alpha virt. eigenvalues --    0.23530   0.24342   0.24770   0.25547   0.27265
 Alpha virt. eigenvalues --    0.28355   0.28824   0.29249   0.31061   0.32753
 Alpha virt. eigenvalues --    0.35779   0.37266   0.37358   0.37948   0.38468
 Alpha virt. eigenvalues --    0.40348   0.41016   0.42700   0.44038   0.46415
 Alpha virt. eigenvalues --    0.51354   0.54026   0.56197   0.57421   0.59378
 Alpha virt. eigenvalues --    0.59874   0.60704   0.61662   0.63570   0.64579
 Alpha virt. eigenvalues --    0.65193   0.65451   0.65623   0.67533   0.68066
 Alpha virt. eigenvalues --    0.68681   0.69276   0.70006   0.70721   0.71444
 Alpha virt. eigenvalues --    0.72325   0.72379   0.72794   0.73087   0.73375
 Alpha virt. eigenvalues --    0.74071   0.74610   0.75238   0.76037   0.76284
 Alpha virt. eigenvalues --    0.77853   0.78483   0.79058   0.81010   0.81963
 Alpha virt. eigenvalues --    0.82853   0.83371   0.84467   0.85525   0.87707
 Alpha virt. eigenvalues --    0.88590   0.90982   0.92641   0.94474   0.95404
 Alpha virt. eigenvalues --    0.96318   0.96726   0.97740   0.98139   0.98871
 Alpha virt. eigenvalues --    0.99195   0.99929   1.00417   1.00441   1.01312
 Alpha virt. eigenvalues --    1.01555   1.01730   1.02694   1.03267   1.04458
 Alpha virt. eigenvalues --    1.04856   1.05586   1.06144   1.07044   1.07289
 Alpha virt. eigenvalues --    1.07843   1.09378   1.10201   1.11512   1.12007
 Alpha virt. eigenvalues --    1.12570   1.13236   1.14530   1.15040   1.15997
 Alpha virt. eigenvalues --    1.17177   1.17875   1.19634   1.21917   1.23877
 Alpha virt. eigenvalues --    1.24336   1.24954   1.27683   1.28632   1.29368
 Alpha virt. eigenvalues --    1.30732   1.32065   1.32849   1.34851   1.36934
 Alpha virt. eigenvalues --    1.38824   1.40588   1.42428   1.47057   1.48517
 Alpha virt. eigenvalues --    1.50206   1.51675   1.56090   1.57279   1.58027
 Alpha virt. eigenvalues --    1.58230   1.59685   1.60080   1.60540   1.62397
 Alpha virt. eigenvalues --    1.63486   1.64414   1.65113   1.65895   1.67114
 Alpha virt. eigenvalues --    1.67225   1.68439   1.69339   1.72653   1.76122
 Alpha virt. eigenvalues --    1.78459   1.79338   1.86868   1.88732   1.91253
 Alpha virt. eigenvalues --    1.91954   1.95119   1.95588   1.99370   1.99980
 Alpha virt. eigenvalues --    2.02000   2.03125   2.03456   2.04093   2.06003
 Alpha virt. eigenvalues --    2.07219   2.08109   2.10889   2.11126   2.12046
 Alpha virt. eigenvalues --    2.13532   2.14684   2.15016   2.18925   2.20065
 Alpha virt. eigenvalues --    2.20497   2.21581   2.24155   2.25348   2.26234
 Alpha virt. eigenvalues --    2.27655   2.27810   2.29062   2.30689   2.31488
 Alpha virt. eigenvalues --    2.33879   2.34210   2.35492   2.36061   2.36295
 Alpha virt. eigenvalues --    2.37281   2.38533   2.41197   2.44176   2.45081
 Alpha virt. eigenvalues --    2.45924   2.46907   2.48421   2.49794   2.51041
 Alpha virt. eigenvalues --    2.52177   2.52757   2.53125   2.53823   2.55615
 Alpha virt. eigenvalues --    2.59525   2.62133   2.63646   2.65375   2.65908
 Alpha virt. eigenvalues --    2.69918   2.75867   2.77839   2.79462   2.80389
 Alpha virt. eigenvalues --    2.81949   2.82233   2.84707   2.85773   2.88425
 Alpha virt. eigenvalues --    2.88790   2.92330   2.94044   2.95615   2.96617
 Alpha virt. eigenvalues --    2.98770   2.99738   3.00188   3.01548   3.04004
 Alpha virt. eigenvalues --    3.04504   3.12052   3.17041   3.19308   3.24204
 Alpha virt. eigenvalues --    3.31182   3.33280   3.42592   3.66116   3.67485
 Alpha virt. eigenvalues --    4.08580   4.30529   4.40284   4.42214   4.42855
 Alpha virt. eigenvalues --    4.44831   4.46036   4.49036   4.51063   4.53891
 Alpha virt. eigenvalues --    4.62395   4.64241   4.66080   4.67771   4.72331
 Alpha virt. eigenvalues --    4.75947   4.81634   4.95347   5.03761   5.05873
          Condensed to atoms (all electrons):
              1          2          3          4          5          6
     1  C    4.892352   0.000000   0.545068   0.546684   0.000000   0.000000
     2  C    0.000000   4.888019   0.000000   0.000000   0.544500   0.548800
     3  C    0.545068   0.000000   4.890883  -0.041392   0.000000  -0.000001
     4  C    0.546684   0.000000  -0.041392   4.898939   0.000000   0.000000
     5  C    0.000000   0.544500   0.000000   0.000000   4.884268  -0.040891
     6  C    0.000000   0.548800  -0.000001   0.000000  -0.040891   4.879990
     7  C   -0.046004   0.000004   0.541729  -0.035554  -0.000017  -0.000202
     8  C   -0.046503   0.000000  -0.035871   0.539822  -0.000001   0.000001
     9  C   -0.000003  -0.045224  -0.000006   0.000004   0.544484  -0.034288
    10  C    0.000001  -0.046343   0.000057   0.000001  -0.035129   0.542075
    11  C   -0.028469   0.000031  -0.039674  -0.043963  -0.000062   0.000030
    12  C   -0.000005  -0.028636   0.000269  -0.000067  -0.043801  -0.043414
    13  C    0.000006   0.000000  -0.000027   0.000016   0.000000   0.000000
    14  C    0.000000   0.000000   0.000000  -0.000021   0.000000   0.000000
    15  C   -0.000589   0.000000  -0.000545  -0.000942   0.000000   0.000000
    16  C    0.000086   0.000068   0.002578   0.003234   0.003073   0.002357
    17  C    0.000007   0.000008   0.000084  -0.000086  -0.000089  -0.000088
    18  N    0.000008   0.000000   0.000056  -0.000056   0.000000   0.000000
    19  N    0.000000   0.000059   0.000001   0.000000   0.000039  -0.000140
    20  O    0.000000   0.000000   0.000000   0.000001   0.000000   0.000000
    21  H    0.380726   0.000000  -0.027401  -0.027591   0.000000   0.000000
    22  H    0.000000   0.380401   0.000000   0.000000  -0.026598  -0.027439
    23  H   -0.025904   0.000000   0.381268   0.002296   0.000000   0.000000
    24  H   -0.026048   0.000000   0.002295   0.380616   0.000000   0.000000
    25  H    0.000000  -0.025929   0.000000   0.000000   0.380098   0.002325
    26  H    0.000000  -0.024260   0.000000   0.000000   0.002268   0.381052
    27  H    0.002305  -0.000002  -0.022893   0.000089  -0.000041   0.000496
    28  H    0.002287   0.000000   0.000098  -0.022878   0.000000   0.000000
    29  H    0.000000   0.002322   0.000000   0.000000  -0.022369   0.000077
    30  H    0.000000   0.002305  -0.000001   0.000000   0.000146  -0.021054
    31  H    0.000000   0.000000  -0.000002   0.000126   0.000000   0.000000
    32  H    0.000000   0.000000   0.000000  -0.000001   0.000000   0.000000
    33  H    0.000000   0.000000   0.000000   0.000000   0.000000   0.000000
    34  H   -0.000058   0.000000   0.000679  -0.000225   0.000000   0.000000
    35  H    0.001923   0.000000   0.000130   0.003062   0.000000   0.000000
    36  H   -0.000009   0.000000   0.000001  -0.000003   0.000000   0.000000
    37  H   -0.000002  -0.000010  -0.000034   0.000313   0.000260  -0.000015
    38  H    0.000000   0.000000  -0.000030  -0.000001   0.000001   0.000025
    39  H    0.000000   0.000000   0.000000   0.000000  -0.000004   0.000001
    40  H    0.000000  -0.000346   0.000000   0.000000  -0.000352  -0.000362
    41  H    0.000000  -0.000002   0.000000   0.000000  -0.000001  -0.000001
              7          8          9         10         11         12
     1  C   -0.046004  -0.046503  -0.000003   0.000001  -0.028469  -0.000005
     2  C    0.000004   0.000000  -0.045224  -0.046343   0.000031  -0.028636
     3  C    0.541729  -0.035871  -0.000006   0.000057  -0.039674   0.000269
     4  C   -0.035554   0.539822   0.000004   0.000001  -0.043963  -0.000067
     5  C   -0.000017  -0.000001   0.544484  -0.035129  -0.000062  -0.043801
     6  C   -0.000202   0.000001  -0.034288   0.542075   0.000030  -0.043414
     7  C    4.947090  -0.036102   0.000378  -0.002471   0.553154  -0.005076
     8  C   -0.036102   4.935078   0.000167  -0.000063   0.556348   0.000898
     9  C    0.000378   0.000167   4.906762  -0.041332  -0.002099   0.556643
    10  C   -0.002471  -0.000063  -0.041332   5.002936  -0.003162   0.528089
    11  C    0.553154   0.556348  -0.002099  -0.003162   4.866324  -0.046047
    12  C   -0.005076   0.000898   0.556643   0.528089  -0.046047   4.956087
    13  C   -0.000248   0.002214  -0.000092   0.000166   0.000694   0.003217
    14  C    0.000003  -0.000123   0.000000   0.000000  -0.000029   0.000001
    15  C   -0.002026  -0.000457   0.000000  -0.000003  -0.002440   0.000019
    16  C   -0.045595  -0.039810  -0.035517  -0.056392   0.335095   0.332764
    17  C   -0.001350  -0.003915   0.002666  -0.005145  -0.061147  -0.055062
    18  N    0.000142  -0.001209   0.000000  -0.000002   0.000184  -0.000068
    19  N    0.000033  -0.000033  -0.000846  -0.006035   0.002405  -0.019218
    20  O   -0.000010  -0.000168  -0.000010   0.000000  -0.000281  -0.000068
    21  H    0.002444   0.002407   0.000000   0.000000   0.000242   0.000000
    22  H    0.000000   0.000000   0.002324   0.002556   0.000000   0.000237
    23  H   -0.028871   0.000252   0.000000  -0.000001   0.001795  -0.000001
    24  H    0.000223  -0.028183   0.000000   0.000000   0.001946   0.000001
    25  H    0.000000   0.000000  -0.027338   0.000197   0.000001   0.002135
    26  H   -0.000001   0.000000   0.000228  -0.030083   0.000001   0.001836
    27  H    0.378088   0.002351  -0.000121   0.002475  -0.037261   0.000060
    28  H    0.002305   0.380615  -0.000030  -0.000001  -0.037314   0.000151
    29  H    0.000027   0.000075   0.381239   0.002292   0.000330  -0.037066
    30  H   -0.000219  -0.000005   0.001955   0.383048   0.000230  -0.044248
    31  H   -0.000002   0.000255   0.000000   0.000000   0.000008   0.000000
    32  H    0.000000  -0.000008   0.000000   0.000000   0.000000   0.000000
    33  H    0.000000   0.000004   0.000000   0.000000   0.000001   0.000000
    34  H    0.003330  -0.000661   0.000001  -0.000019   0.000071   0.000052
    35  H   -0.000940   0.000563   0.000000   0.000000  -0.002003  -0.000003
    36  H    0.000064   0.000089   0.000000   0.000000   0.000235   0.000000
    37  H    0.001985   0.000278  -0.002280   0.002882  -0.042089  -0.046775
    38  H    0.000389   0.000350  -0.000037   0.001498  -0.001602  -0.003663
    39  H   -0.000003   0.000001  -0.000008   0.000147  -0.000020   0.000067
    40  H   -0.000007  -0.000009   0.002392   0.011313   0.000524   0.026980
    41  H    0.000000   0.000000   0.000013   0.000111  -0.000040   0.000140
             13         14         15         16         17         18
     1  C    0.000006   0.000000  -0.000589   0.000086   0.000007   0.000008
     2  C    0.000000   0.000000   0.000000   0.000068   0.000008   0.000000
     3  C   -0.000027   0.000000  -0.000545   0.002578   0.000084   0.000056
     4  C    0.000016  -0.000021  -0.000942   0.003234  -0.000086  -0.000056
     5  C    0.000000   0.000000   0.000000   0.003073  -0.000089   0.000000
     6  C    0.000000   0.000000   0.000000   0.002357  -0.000088   0.000000
     7  C   -0.000248   0.000003  -0.002026  -0.045595  -0.001350   0.000142
     8  C    0.002214  -0.000123  -0.000457  -0.039810  -0.003915  -0.001209
     9  C   -0.000092   0.000000   0.000000  -0.035517   0.002666   0.000000
    10  C    0.000166   0.000000  -0.000003  -0.056392  -0.005145  -0.000002
    11  C    0.000694  -0.000029  -0.002440   0.335095  -0.061147   0.000184
    12  C    0.003217   0.000001   0.000019   0.332764  -0.055062  -0.000068
    13  C    4.156158  -0.034141  -0.028759  -0.040253   0.336315   0.355869
    14  C   -0.034141   5.018192  -0.045063  -0.000088   0.003253   0.190753
    15  C   -0.028759  -0.045063   4.999316   0.000040  -0.001129   0.195688
    16  C   -0.040253  -0.000088   0.000040   5.142601   0.300919  -0.000282
    17  C    0.336315   0.003253  -0.001129   0.300919   5.365929  -0.087242
    18  N    0.355869   0.190753   0.195688  -0.000282  -0.087242   7.320875
    19  N   -0.059677  -0.000069   0.000264  -0.057294   0.163466  -0.000171
    20  O    0.512748  -0.006386   0.001458  -0.002519  -0.086984  -0.084433
    21  H    0.000000   0.000000  -0.000001   0.000005   0.000000   0.000000
    22  H    0.000000   0.000000   0.000000   0.000005   0.000000   0.000000
    23  H    0.000000   0.000000  -0.000004  -0.000108   0.000000   0.000000
    24  H    0.000000  -0.000001   0.000000  -0.000107   0.000002   0.000001
    25  H    0.000000   0.000000   0.000000  -0.000103   0.000001   0.000000
    26  H    0.000000   0.000000   0.000000  -0.000096   0.000001   0.000000
    27  H   -0.000009   0.000000   0.000004  -0.001343   0.000115  -0.000001
    28  H    0.000434   0.000083   0.000007  -0.002651   0.000129  -0.000397
    29  H   -0.000006   0.000000   0.000000  -0.002230   0.000157   0.000000
    30  H    0.000091   0.000000  -0.000005  -0.001491  -0.000114   0.000000
    31  H    0.000896   0.397999  -0.001536   0.000022  -0.000079  -0.044663
    32  H   -0.004183   0.395282   0.002631  -0.000010   0.000440  -0.028128
    33  H    0.001552   0.398016  -0.002469  -0.000003  -0.000094  -0.042934
    34  H   -0.003803   0.003162   0.395246  -0.000951   0.000696  -0.034162
    35  H    0.000423  -0.000941   0.398044   0.000254  -0.000343  -0.044499
    36  H    0.001259  -0.002445   0.396155  -0.000040  -0.000107  -0.043771
    37  H   -0.002262   0.000007  -0.000034   0.419794  -0.051100   0.000269
    38  H   -0.027662  -0.000066  -0.001464  -0.021752   0.390311   0.003352
    39  H   -0.009920  -0.000008  -0.000058   0.001124  -0.029722   0.001953
    40  H    0.004090   0.000002   0.000000  -0.005883  -0.025239  -0.000067
    41  H   -0.000586  -0.000002   0.000004   0.002781  -0.016461   0.000090
             19         20         21         22         23         24
     1  C    0.000000   0.000000   0.380726   0.000000  -0.025904  -0.026048
     2  C    0.000059   0.000000   0.000000   0.380401   0.000000   0.000000
     3  C    0.000001   0.000000  -0.027401   0.000000   0.381268   0.002295
     4  C    0.000000   0.000001  -0.027591   0.000000   0.002296   0.380616
     5  C    0.000039   0.000000   0.000000  -0.026598   0.000000   0.000000
     6  C   -0.000140   0.000000   0.000000  -0.027439   0.000000   0.000000
     7  C    0.000033  -0.000010   0.002444   0.000000  -0.028871   0.000223
     8  C   -0.000033  -0.000168   0.002407   0.000000   0.000252  -0.028183
     9  C   -0.000846  -0.000010   0.000000   0.002324   0.000000   0.000000
    10  C   -0.006035   0.000000   0.000000   0.002556  -0.000001   0.000000
    11  C    0.002405  -0.000281   0.000242   0.000000   0.001795   0.001946
    12  C   -0.019218  -0.000068   0.000000   0.000237  -0.000001   0.000001
    13  C   -0.059677   0.512748   0.000000   0.000000   0.000000   0.000000
    14  C   -0.000069  -0.006386   0.000000   0.000000   0.000000  -0.000001
    15  C    0.000264   0.001458  -0.000001   0.000000  -0.000004   0.000000
    16  C   -0.057294  -0.002519   0.000005   0.000005  -0.000108  -0.000107
    17  C    0.163466  -0.086984   0.000000   0.000000   0.000000   0.000002
    18  N   -0.000171  -0.084433   0.000000   0.000000   0.000000   0.000001
    19  N    7.105531  -0.039389   0.000000   0.000000   0.000000   0.000000
    20  O   -0.039389   8.313657   0.000000   0.000000   0.000000   0.000000
    21  H    0.000000   0.000000   0.435789   0.000000  -0.001175  -0.001188
    22  H    0.000000   0.000000   0.000000   0.429172   0.000000   0.000000
    23  H    0.000000   0.000000  -0.001175   0.000000   0.439330  -0.000092
    24  H    0.000000   0.000000  -0.001188   0.000000  -0.000092   0.438453
    25  H    0.000000   0.000000   0.000000  -0.001180   0.000000   0.000000
    26  H   -0.000003   0.000000   0.000000  -0.001157   0.000000   0.000000
    27  H   -0.000011   0.000000  -0.000096   0.000000  -0.001068   0.000009
    28  H   -0.000016   0.000248  -0.000093   0.000000   0.000009  -0.001170
    29  H    0.000004  -0.000004   0.000000  -0.000090   0.000000   0.000000
    30  H    0.000330  -0.000001   0.000000  -0.000102   0.000000   0.000000
    31  H   -0.000001   0.000435   0.000000   0.000000   0.000000   0.000005
    32  H   -0.000003   0.005848   0.000000   0.000000   0.000000   0.000000
    33  H    0.000004   0.000401   0.000000   0.000000   0.000000   0.000000
    34  H    0.000228   0.000031  -0.000001   0.000000   0.000003   0.000001
    35  H   -0.000012  -0.000006   0.000007   0.000000  -0.000001   0.000010
    36  H    0.000008  -0.000017   0.000000   0.000000   0.000000   0.000000
    37  H    0.000317   0.005238   0.000000   0.000000   0.000002  -0.000012
    38  H   -0.033777   0.001996   0.000000   0.000000   0.000002   0.000000
    39  H    0.250022   0.056532   0.000000   0.000000   0.000000   0.000000
    40  H    0.279670   0.000245   0.000000   0.000000   0.000000   0.000000
    41  H    0.305714   0.001129   0.000000   0.000000   0.000000   0.000000
             25         26         27         28         29         30
     1  C    0.000000   0.000000   0.002305   0.002287   0.000000   0.000000
     2  C   -0.025929  -0.024260  -0.000002   0.000000   0.002322   0.002305
     3  C    0.000000   0.000000  -0.022893   0.000098   0.000000  -0.000001
     4  C    0.000000   0.000000   0.000089  -0.022878   0.000000   0.000000
     5  C    0.380098   0.002268  -0.000041   0.000000  -0.022369   0.000146
     6  C    0.002325   0.381052   0.000496   0.000000   0.000077  -0.021054
     7  C    0.000000  -0.000001   0.378088   0.002305   0.000027  -0.000219
     8  C    0.000000   0.000000   0.002351   0.380615   0.000075  -0.000005
     9  C   -0.027338   0.000228  -0.000121  -0.000030   0.381239   0.001955
    10  C    0.000197  -0.030083   0.002475  -0.000001   0.002292   0.383048
    11  C    0.000001   0.000001  -0.037261  -0.037314   0.000330   0.000230
    12  C    0.002135   0.001836   0.000060   0.000151  -0.037066  -0.044248
    13  C    0.000000   0.000000  -0.000009   0.000434  -0.000006   0.000091
    14  C    0.000000   0.000000   0.000000   0.000083   0.000000   0.000000
    15  C    0.000000   0.000000   0.000004   0.000007   0.000000  -0.000005
    16  C   -0.000103  -0.000096  -0.001343  -0.002651  -0.002230  -0.001491
    17  C    0.000001   0.000001   0.000115   0.000129   0.000157  -0.000114
    18  N    0.000000   0.000000  -0.000001  -0.000397   0.000000   0.000000
    19  N    0.000000  -0.000003  -0.000011  -0.000016   0.000004   0.000330
    20  O    0.000000   0.000000   0.000000   0.000248  -0.000004  -0.000001
    21  H    0.000000   0.000000  -0.000096  -0.000093   0.000000   0.000000
    22  H   -0.001180  -0.001157   0.000000   0.000000  -0.000090  -0.000102
    23  H    0.000000   0.000000  -0.001068   0.000009   0.000000   0.000000
    24  H    0.000000   0.000000   0.000009  -0.001170   0.000000   0.000000
    25  H    0.429282  -0.000089   0.000000   0.000000  -0.001215   0.000009
    26  H   -0.000089   0.435522  -0.000006   0.000000   0.000008  -0.001197
    27  H    0.000000  -0.000006   0.454707  -0.000098  -0.000003  -0.000296
    28  H    0.000000   0.000000  -0.000098   0.453392   0.000004   0.000000
    29  H   -0.001215   0.000008  -0.000003   0.000004   0.443229  -0.000098
    30  H    0.000009  -0.001197  -0.000296   0.000000  -0.000098   0.479228
    31  H    0.000000   0.000000   0.000000   0.000047   0.000000   0.000000
    32  H    0.000000   0.000000   0.000000   0.000002   0.000000   0.000000
    33  H    0.000000   0.000000   0.000000   0.000000   0.000000   0.000000
    34  H    0.000000   0.000000   0.000056   0.000001   0.000000  -0.000017
    35  H    0.000000   0.000000   0.000001   0.000034   0.000000   0.000000
    36  H    0.000000   0.000000   0.000000  -0.000001   0.000000   0.000000
    37  H   -0.000007   0.000001  -0.000022   0.002711   0.001986  -0.000058
    38  H    0.000000   0.000001   0.000192  -0.000001  -0.000003   0.000857
    39  H    0.000000   0.000000   0.000000  -0.000002   0.000001   0.000000
    40  H   -0.000002   0.000002  -0.000006  -0.000002   0.000030  -0.000113
    41  H    0.000000   0.000000   0.000001   0.000000   0.000000  -0.000001
             31         32         33         34         35         36
     1  C    0.000000   0.000000   0.000000  -0.000058   0.001923  -0.000009
     2  C    0.000000   0.000000   0.000000   0.000000   0.000000   0.000000
     3  C   -0.000002   0.000000   0.000000   0.000679   0.000130   0.000001
     4  C    0.000126  -0.000001   0.000000  -0.000225   0.003062  -0.000003
     5  C    0.000000   0.000000   0.000000   0.000000   0.000000   0.000000
     6  C    0.000000   0.000000   0.000000   0.000000   0.000000   0.000000
     7  C   -0.000002   0.000000   0.000000   0.003330  -0.000940   0.000064
     8  C    0.000255  -0.000008   0.000004  -0.000661   0.000563   0.000089
     9  C    0.000000   0.000000   0.000000   0.000001   0.000000   0.000000
    10  C    0.000000   0.000000   0.000000  -0.000019   0.000000   0.000000
    11  C    0.000008   0.000000   0.000001   0.000071  -0.002003   0.000235
    12  C    0.000000   0.000000   0.000000   0.000052  -0.000003   0.000000
    13  C    0.000896  -0.004183   0.001552  -0.003803   0.000423   0.001259
    14  C    0.397999   0.395282   0.398016   0.003162  -0.000941  -0.002445
    15  C   -0.001536   0.002631  -0.002469   0.395246   0.398044   0.396155
    16  C    0.000022  -0.000010  -0.000003  -0.000951   0.000254  -0.000040
    17  C   -0.000079   0.000440  -0.000094   0.000696  -0.000343  -0.000107
    18  N   -0.044663  -0.028128  -0.042934  -0.034162  -0.044499  -0.043771
    19  N   -0.000001  -0.000003   0.000004   0.000228  -0.000012   0.000008
    20  O    0.000435   0.005848   0.000401   0.000031  -0.000006  -0.000017
    21  H    0.000000   0.000000   0.000000  -0.000001   0.000007   0.000000
    22  H    0.000000   0.000000   0.000000   0.000000   0.000000   0.000000
    23  H    0.000000   0.000000   0.000000   0.000003  -0.000001   0.000000
    24  H    0.000005   0.000000   0.000000   0.000001   0.000010   0.000000
    25  H    0.000000   0.000000   0.000000   0.000000   0.000000   0.000000
    26  H    0.000000   0.000000   0.000000   0.000000   0.000000   0.000000
    27  H    0.000000   0.000000   0.000000   0.000056   0.000001   0.000000
    28  H    0.000047   0.000002   0.000000   0.000001   0.000034  -0.000001
    29  H    0.000000   0.000000   0.000000   0.000000   0.000000   0.000000
    30  H    0.000000   0.000000   0.000000  -0.000017   0.000000   0.000000
    31  H    0.496455  -0.020063  -0.032319  -0.000069   0.003176  -0.000758
    32  H   -0.020063   0.415385  -0.019528  -0.000078  -0.000047   0.000002
    33  H   -0.032319  -0.019528   0.495125  -0.000015  -0.000674   0.003342
    34  H   -0.000069  -0.000078  -0.000015   0.500142  -0.024358  -0.023588
    35  H    0.003176  -0.000047  -0.000674  -0.024358   0.475840  -0.031858
    36  H   -0.000758   0.000002   0.003342  -0.023588  -0.031858   0.494540
    37  H    0.000003  -0.000002   0.000000  -0.000022   0.000016   0.000000
    38  H   -0.000001  -0.000009  -0.000001  -0.000174   0.000035   0.000047
    39  H   -0.000001  -0.000007   0.000001  -0.000011   0.000001   0.000003
    40  H    0.000000   0.000000   0.000000   0.000000   0.000000   0.000000
    41  H    0.000000  -0.000001   0.000000  -0.000004   0.000000  -0.000002
             37         38         39         40         41
     1  C   -0.000002   0.000000   0.000000   0.000000   0.000000
     2  C   -0.000010   0.000000   0.000000  -0.000346  -0.000002
     3  C   -0.000034  -0.000030   0.000000   0.000000   0.000000
     4  C    0.000313  -0.000001   0.000000   0.000000   0.000000
     5  C    0.000260   0.000001  -0.000004  -0.000352  -0.000001
     6  C   -0.000015   0.000025   0.000001  -0.000362  -0.000001
     7  C    0.001985   0.000389  -0.000003  -0.000007   0.000000
     8  C    0.000278   0.000350   0.000001  -0.000009   0.000000
     9  C   -0.002280  -0.000037  -0.000008   0.002392   0.000013
    10  C    0.002882   0.001498   0.000147   0.011313   0.000111
    11  C   -0.042089  -0.001602  -0.000020   0.000524  -0.000040
    12  C   -0.046775  -0.003663   0.000067   0.026980   0.000140
    13  C   -0.002262  -0.027662  -0.009920   0.004090  -0.000586
    14  C    0.000007  -0.000066  -0.000008   0.000002  -0.000002
    15  C   -0.000034  -0.001464  -0.000058   0.000000   0.000004
    16  C    0.419794  -0.021752   0.001124  -0.005883   0.002781
    17  C   -0.051100   0.390311  -0.029722  -0.025239  -0.016461
    18  N    0.000269   0.003352   0.001953  -0.000067   0.000090
    19  N    0.000317  -0.033777   0.250022   0.279670   0.305714
    20  O    0.005238   0.001996   0.056532   0.000245   0.001129
    21  H    0.000000   0.000000   0.000000   0.000000   0.000000
    22  H    0.000000   0.000000   0.000000   0.000000   0.000000
    23  H    0.000002   0.000002   0.000000   0.000000   0.000000
    24  H   -0.000012   0.000000   0.000000   0.000000   0.000000
    25  H   -0.000007   0.000000   0.000000  -0.000002   0.000000
    26  H    0.000001   0.000001   0.000000   0.000002   0.000000
    27  H   -0.000022   0.000192   0.000000  -0.000006   0.000001
    28  H    0.002711  -0.000001  -0.000002  -0.000002   0.000000
    29  H    0.001986  -0.000003   0.000001   0.000030   0.000000
    30  H   -0.000058   0.000857   0.000000  -0.000113  -0.000001
    31  H    0.000003  -0.000001  -0.000001   0.000000   0.000000
    32  H   -0.000002  -0.000009  -0.000007   0.000000  -0.000001
    33  H    0.000000  -0.000001   0.000001   0.000000   0.000000
    34  H   -0.000022  -0.000174  -0.000011   0.000000  -0.000004
    35  H    0.000016   0.000035   0.000001   0.000000   0.000000
    36  H    0.000000   0.000047   0.000003   0.000000  -0.000002
    37  H    0.466280   0.003124   0.001493  -0.000806  -0.000050
    38  H    0.003124   0.434158   0.002560  -0.000348  -0.001402
    39  H    0.001493   0.002560   0.229595  -0.004022  -0.004751
    40  H   -0.000806  -0.000348  -0.004022   0.253525  -0.008298
    41  H   -0.000050  -0.001402  -0.004751  -0.008298   0.266121
 Mulliken atomic charges:
              1
     1  C   -0.197859
     2  C   -0.195765
     3  C   -0.197315
     4  C   -0.202421
     5  C   -0.189780
     6  C   -0.189334
     7  C   -0.226688
     8  C   -0.228647
     9  C   -0.210024
    10  C   -0.253666
    11  C    0.028052
    12  C   -0.036431
    13  C    0.835481
    14  C   -0.317368
    15  C   -0.301353
    16  C   -0.232284
    17  C   -0.139002
    18  N   -0.657156
    19  N   -0.891398
    20  O   -0.679691
    21  H    0.235926
    22  H    0.241872
    23  H    0.232267
    24  H    0.233238
    25  H    0.241813
    26  H    0.235972
    27  H    0.222328
    28  H    0.222098
    29  H    0.231303
    30  H    0.200819
    31  H    0.200065
    32  H    0.252477
    33  H    0.199592
    34  H    0.184518
    35  H    0.222164
    36  H    0.206854
    37  H    0.238621
    38  H    0.253095
    39  H    0.505039
    40  H    0.467088
    41  H    0.455496
 Sum of Mulliken atomic charges =   1.00000
 Mulliken charges with hydrogens summed into heavy atoms:
              1
     1  C    0.038067
     2  C    0.046107
     3  C    0.034952
     4  C    0.030817
     5  C    0.052033
     6  C    0.046639
     7  C   -0.004360
     8  C   -0.006549
     9  C    0.021279
    10  C   -0.052846
    11  C    0.028052
    12  C   -0.036431
    13  C    0.835481
    14  C    0.334766
    15  C    0.312183
    16  C    0.006337
    17  C    0.114093
    18  N   -0.657156
    19  N    0.536225
    20  O   -0.679691
 Sum of Mulliken charges with hydrogens summed into heavy atoms =   1.00000
 DipInt: DoE/N= T F RetVal/Mat= T F Init=T NMatP=  1 IDeriv=0 Min/MaxMlt=  0  4
 Entering OneElI...
 OneElI was handed    33253181 working-precision words.
 Multipole integrals L=0 to 4 MinM= 0 MaxM= 0.
 Requested accuracy = 0.1000D-12
 PrsmSu:  NPrtUS=   1 ThrOK=F IAlg=1 NPAlg=1 LenDen=           0.
 Prism:   IPart=     0 DynPar=F LinDyn=F Incr=          62.
 PRISM was handed    32741704 working-precision words and  6207 shell-pairs
 IPart=  0 NShTot=        6207 NBatch=          85 AvBLen=        73.0
 PrSmSu:  NxtVal=             63.
 Electronic moments (au):
       -144.00000000         -0.14763941         -1.83779730          1.34610220
      -3338.61185185      -1730.71061196       -559.55173388          7.34593824
          1.56939448         -5.26168328       6083.03587746      -2597.86780562
        -18.58304610      -3662.02943531       1735.42920944        -93.04467845
        291.79457216       -280.83035067        181.88012926         17.27938336
    -177902.52909032     -53708.44452203      -5643.56556937      11669.60675932
      -2108.07789218      -8813.63331324      -2161.23620854       -593.97971893
        339.22613041     -19553.73782712     -14517.72773963      -5322.01841951
       1230.26499511       3008.51626655       -694.89674836
 Electronic spatial extent (au):  <R**2>=           5628.8742
 DipInt: DoE/N= F T RetVal/Mat= T F Init=T NMatP=  1 IDeriv=0 Min/MaxMlt=  0  4
 Nuclear    moments (au):
        145.00000000          0.00000000          0.00000000          0.00000000
       3280.73930223       1661.19313037        481.32413564          0.00000000
          0.00000000          0.00000000      -6103.29507104       2544.40756883
         25.25624449       3690.26985501      -1752.01996398         94.63470310
       -302.30096336        273.20779779       -136.18943068        -32.50777604
     168410.55477250      48608.85103324       3822.21642171     -11953.31026490
       2137.59234391       9254.79694422       2099.06309744        596.03267684
       -365.00967032      16589.54667042      12480.97727556       4042.55800814
      -1337.18032107      -3024.73373249        720.62152555
 Total      moments (au):
          1.00000000         -0.14763941         -1.83779730          1.34610220
        -57.87254961        -69.51748159        -78.22759824          7.34593824
          1.56939448         -5.26168328        -20.25919358        -53.46023679
          6.67319839         28.24041970        -16.59075453          1.59002464
        -10.50639120         -7.62255287         45.69069858        -15.22839268
      -9491.97431781      -5099.59348879      -1821.34914766       -283.70350558
         29.51445174        441.16363098        -62.17311109          2.05295791
        -25.78353991      -2964.19115670      -2036.75046407      -1279.46041136
       -106.91532595        -16.21746595         25.72477720
 Traceless Quadrup. (au):
         10.66666020         -0.97827177         -9.68838843          7.34593824
          1.56939448         -5.26168328
 Charge=              1.0000 electrons
 Dipole moment (field-independent basis, Debye):
    X=             -0.3753    Y=             -4.6712    Z=              3.4215  Tot=              5.8024
 Quadrupole moment (field-independent basis, Debye-Ang):
   XX=            -77.8406   YY=            -93.5034   ZZ=           -105.2188
   XY=              9.8805   XZ=              2.1109   YZ=             -7.0771
 Traceless Quadrupole moment (field-independent basis, Debye-Ang):
   XX=             14.3470   YY=             -1.3158   ZZ=            -13.0312
   XY=              9.8805   XZ=              2.1109   YZ=             -7.0771
 Octapole moment (field-independent basis, Debye-Ang**2):
  XXX=            -14.4197  YYY=            -38.0509  ZZZ=              4.7497  XYY=             20.1004
  XXY=            -11.8087  XXZ=              1.1317  XZZ=             -7.4780  YZZ=             -5.4254
  YYZ=             32.5209  XYZ=            -10.8390
 Hexadecapole moment (field-independent basis, Debye-Ang**3):
 XXXX=          -3575.1324 YYYY=          -1920.7513 ZZZZ=           -686.0074 XXXY=           -106.8563
 XXXZ=             11.1166 YYYX=            166.1634 YYYZ=            -23.4174 ZZZX=              0.7732
 ZZZY=             -9.7113 XXYY=          -1116.4565 XXZZ=           -767.1378 YYZZ=           -481.9061
 XXYZ=            -40.2694 YYXZ=             -6.1083 ZZXY=              9.6892
 N-N= 1.567791556416D+03 E-N=-5.074087017779D+03  KE= 8.376419757754D+02
 Entering OneElI...
 OneElI was handed    33017886 working-precision words.
 Calculate electrostatic properties
    NBasis =   342  MinDer = 0  MaxDer = 0
    NGrid  =    41  NMatD  =   1
 Requested accuracy = 0.1000D-12
 PrsmSu:  NPrtUS=   2 ThrOK=T IAlg=1 NPAlg=1 LenDen=           0.
 Prism:   IPart=     0 DynPar=F LinDyn=F Incr=         512.
 PRISM was handed    16201320 working-precision words and  5564 shell-pairs
 PRISM was handed    16201320 working-precision words and  5564 shell-pairs
 IPart=  0 NShTot=      114472 NBatch=        2792 AvBLen=        41.0
 IPart=  1 NShTot=      113652 NBatch=        2772 AvBLen=        41.0
 PrSmSu:  NxtVal=           1025.
 --------------------------------------------------------
       Center         ----      EFG at Nuclei      ----
                      3XX-RR        3YY-RR        3ZZ-RR
 --------------------------------------------------------
     1   Atom       -0.101615      0.062786      0.038829
     2   Atom        0.174006     -0.367358      0.193352
     3   Atom       -0.085307      0.063478      0.021829
     4   Atom       -0.108320      0.077155      0.031166
     5   Atom        0.181128     -0.370031      0.188902
     6   Atom        0.174026     -0.354043      0.180017
     7   Atom       -0.079838      0.084405     -0.004567
     8   Atom       -0.082720      0.081469      0.001250
     9   Atom        0.197815     -0.327135      0.129320
    10   Atom        0.171402     -0.275060      0.103658
    11   Atom       -0.066644     -0.020417      0.087060
    12   Atom        0.053218     -0.260273      0.207055
    13   Atom        0.203732     -0.127658     -0.076074
    14   Atom       -0.255477      0.156843      0.098634
    15   Atom        0.152096     -0.049131     -0.102965
    16   Atom       -0.000844     -0.025744      0.026588
    17   Atom       -0.020144     -0.229611      0.249755
    18   Atom       -0.441660      0.289196      0.152464
    19   Atom        0.006776     -0.063074      0.056298
    20   Atom        1.412618     -0.697701     -0.714917
    21   Atom        0.048881     -0.194404      0.145524
    22   Atom       -0.296281      0.160528      0.135753
    23   Atom        0.134890     -0.022454     -0.112436
    24   Atom       -0.043015      0.116290     -0.073276
    25   Atom       -0.010328      0.157330     -0.147002
    26   Atom        0.072089      0.162213     -0.234302
    27   Atom       -0.058857      0.118106     -0.059249
    28   Atom        0.138407     -0.019058     -0.119348
    29   Atom        0.066792      0.163433     -0.230225
    30   Atom       -0.010047      0.160346     -0.150299
    31   Atom        0.066521     -0.142238      0.075717
    32   Atom        0.127764     -0.065279     -0.062485
    33   Atom       -0.024174      0.103221     -0.079046
    34   Atom       -0.215047      0.140753      0.074295
    35   Atom        0.099652     -0.174075      0.074424
    36   Atom       -0.021376      0.093375     -0.072000
    37   Atom        0.129243      0.098835     -0.228078
    38   Atom        0.144617      0.117456     -0.262073
    39   Atom        0.085261      0.037265     -0.122526
    40   Atom       -0.290200      0.138968      0.151232
    41   Atom        0.165997     -0.025389     -0.140609
 --------------------------------------------------------
                        XY            XZ            YZ
 --------------------------------------------------------
     1   Atom        0.172537     -0.219456      0.134487
     2   Atom       -0.038038     -0.003907     -0.044685
     3   Atom        0.177506     -0.210975      0.116400
     4   Atom        0.167115     -0.197140      0.140064
     5   Atom       -0.036284     -0.014511     -0.042209
     6   Atom       -0.037244      0.017653     -0.047170
     7   Atom        0.162142     -0.167931      0.126766
     8   Atom        0.180932     -0.171533      0.096842
     9   Atom       -0.038063     -0.004114     -0.026891
    10   Atom       -0.023593     -0.041373     -0.045833
    11   Atom        0.056240     -0.190021      0.093324
    12   Atom       -0.032078      0.025249     -0.033093
    13   Atom        0.044106     -0.050547      0.406104
    14   Atom        0.125769      0.201075     -0.013371
    15   Atom       -0.025178     -0.025018     -0.262367
    16   Atom        0.082254     -0.066970      0.096448
    17   Atom       -0.312629     -0.006991     -0.069666
    18   Atom       -0.129471      0.016431     -0.628362
    19   Atom       -0.075237     -0.074338      0.113009
    20   Atom       -0.013050     -0.228974     -0.370950
    21   Atom       -0.194702     -0.007707     -0.033424
    22   Atom        0.030849      0.050857     -0.001643
    23   Atom        0.047886      0.077066     -0.214506
    24   Atom       -0.083179      0.216336      0.075743
    25   Atom        0.029671     -0.209016      0.039801
    26   Atom       -0.005622      0.161304      0.019860
    27   Atom       -0.080372      0.221500      0.066612
    28   Atom        0.038233      0.070691     -0.213069
    29   Atom       -0.004300      0.161993      0.019746
    30   Atom        0.030353     -0.209095      0.037625
    31   Atom       -0.137030      0.082303      0.145622
    32   Atom       -0.038832     -0.034397     -0.218915
    33   Atom        0.097469     -0.181280      0.105027
    34   Atom        0.060081      0.164375     -0.047911
    35   Atom       -0.130090      0.060296      0.130589
    36   Atom        0.094564     -0.191849      0.089669
    37   Atom        0.017884      0.050877     -0.116398
    38   Atom       -0.010604      0.008664     -0.098341
    39   Atom        0.064263      0.107935     -0.140973
    40   Atom        0.079620     -0.072349      0.019368
    41   Atom        0.026624     -0.040289      0.251900
 --------------------------------------------------------


 ---------------------------------------------------------------------------------
              Nuclear Quadrupole in Principal Axis System
 ---------------------------------------------------------------------------------

       Atom             a.u.   MegaHertz   Gauss  10(-4) cm-1        Axes

              Baa    -0.3718   -49.896   -17.804   -16.644  0.7183 -0.4495  0.5311
     1 C(13)  Bbb     0.1714    23.002     8.208     7.673  0.4836  0.8713  0.0834
              Bcc     0.2004    26.894     9.596     8.971 -0.5002  0.1969  0.8432
 
              Baa    -0.3736   -50.129   -17.887   -16.721  0.0696  0.9944  0.0789
     2 C(13)  Bbb     0.1766    23.703     8.458     7.906  0.9966 -0.0728  0.0383
              Bcc     0.1969    26.426     9.429     8.815 -0.0438 -0.0759  0.9962
 
              Baa    -0.3562   -47.800   -17.056   -15.944  0.7133 -0.4506  0.5368
     3 C(13)  Bbb     0.1609    21.591     7.704     7.202 -0.0094  0.7597  0.6502
              Bcc     0.1953    26.209     9.352     8.742  0.7008  0.4689 -0.5377
 
              Baa    -0.3567   -47.865   -17.079   -15.966  0.7210 -0.4483  0.5284
     4 C(13)  Bbb     0.1606    21.550     7.690     7.188  0.6929  0.4701 -0.5467
              Bcc     0.1961    26.315     9.390     8.778 -0.0033  0.7603  0.6496
 
              Baa    -0.3757   -50.415   -17.989   -16.817  0.0668  0.9949  0.0761
     5 C(13)  Bbb     0.1754    23.535     8.398     7.850  0.8163 -0.0984  0.5691
              Bcc     0.2003    26.880     9.591     8.966 -0.5737 -0.0241  0.8187
 
              Baa    -0.3605   -48.382   -17.264   -16.138  0.0665  0.9942  0.0846
     6 C(13)  Bbb     0.1591    21.353     7.619     7.123  0.7675  0.0032 -0.6411
              Bcc     0.2014    27.029     9.645     9.016  0.6377 -0.1075  0.7628
 
              Baa    -0.3192   -42.838   -15.286   -14.289  0.6969 -0.4542  0.5549
     7 C(13)  Bbb     0.1298    17.421     6.216     5.811 -0.6103  0.0307  0.7916
              Bcc     0.1894    25.417     9.070     8.478  0.3766  0.8903  0.2558
 
              Baa    -0.3198   -42.919   -15.315   -14.316  0.7229 -0.4520  0.5225
     8 C(13)  Bbb     0.1205    16.166     5.768     5.392 -0.3689  0.3869  0.8451
              Bcc     0.1994    26.754     9.546     8.924  0.5842  0.8037 -0.1129
 
              Baa    -0.3315   -44.481   -15.872   -14.837  0.0721  0.9957  0.0587
     9 C(13)  Bbb     0.1308    17.559     6.265     5.857  0.0267 -0.0608  0.9978
              Bcc     0.2006    26.922     9.607     8.980  0.9970 -0.0703 -0.0310
 
              Baa    -0.2823   -37.884   -13.518   -12.637  0.0628  0.9903  0.1243
    10 C(13)  Bbb     0.0913    12.252     4.372     4.087  0.4218 -0.1392  0.8959
              Bcc     0.1910    25.631     9.146     8.550  0.9045 -0.0039 -0.4264
 
              Baa    -0.2401   -32.226   -11.499   -10.749  0.7293 -0.4170  0.5425
    11 C(13)  Bbb     0.0155     2.074     0.740     0.692  0.4592  0.8860  0.0638
              Bcc     0.2247    30.152    10.759    10.058 -0.5073  0.2025  0.8377
 
              Baa    -0.2655   -35.626   -12.712   -11.883  0.0949  0.9934  0.0645
    12 C(13)  Bbb     0.0514     6.892     2.459     2.299  0.9809 -0.0822 -0.1765
              Bcc     0.2141    28.733    10.253     9.584  0.1701 -0.0800  0.9822
 
              Baa    -0.5150   -69.107   -24.659   -23.051 -0.0925  0.7255 -0.6819
    13 C(13)  Bbb     0.2095    28.109    10.030     9.376  0.9933  0.1148 -0.0126
              Bcc     0.3055    40.998    14.629    13.675 -0.0691  0.6786  0.7313
 
              Baa    -0.3737   -50.144   -17.893   -16.726  0.8949 -0.2219 -0.3873
    14 C(13)  Bbb     0.1481    19.876     7.092     6.630 -0.1229  0.7116 -0.6918
              Bcc     0.2256    30.268    10.800    10.096  0.4291  0.6667  0.6095
 
              Baa    -0.3423   -45.938   -16.392   -15.323  0.0715  0.6685  0.7402
    15 C(13)  Bbb     0.1545    20.736     7.399     6.917  0.9958 -0.0049 -0.0917
              Bcc     0.1878    25.202     8.993     8.406 -0.0577  0.7437 -0.6661
 
              Baa    -0.1671   -22.427    -8.002    -7.481 -0.5377  0.6658 -0.5174
    16 C(13)  Bbb     0.0665     8.929     3.186     2.978  0.8401  0.4747 -0.2623
              Bcc     0.1006    13.498     4.816     4.502 -0.0710  0.5757  0.8146
 
              Baa    -0.4598   -61.698   -22.015   -20.580  0.5783  0.8113  0.0854
    17 C(13)  Bbb     0.1869    25.085     8.951     8.368  0.7472 -0.4848 -0.4545
              Bcc     0.2728    36.612    13.064    12.213  0.3274 -0.3266  0.8866
 
              Baa    -0.5074   -19.570    -6.983    -6.528  0.7901  0.4536  0.4123
    18 N(14)  Bbb    -0.3544   -13.667    -4.877    -4.559 -0.6074  0.4890  0.6260
              Bcc     0.8618    33.237    11.860    11.087 -0.0823  0.7450 -0.6619
 
              Baa    -0.1377    -5.311    -1.895    -1.771  0.2412  0.8759 -0.4178
    19 N(14)  Bbb    -0.0466    -1.798    -0.642    -0.600  0.8293  0.0377  0.5576
              Bcc     0.1843     7.109     2.537     2.371 -0.5041  0.4810  0.7173
 
              Baa    -1.0895    78.832    28.129    26.296  0.0698  0.6871  0.7232
    20 O(17)  Bbb    -0.3479    25.171     8.982     8.396 -0.0833  0.7264 -0.6822
              Bcc     1.4373  -104.003   -37.111   -34.692  0.9941  0.0127 -0.1079
 
              Baa    -0.3048  -162.602   -58.021   -54.238  0.4822  0.8730  0.0731
    21 H(1)   Bbb     0.1419    75.736    27.024    25.263 -0.4990  0.2052  0.8420
              Bcc     0.1628    86.867    30.996    28.976  0.7200 -0.4425  0.5346
 
              Baa    -0.3042  -162.324   -57.921   -54.145  0.9912 -0.0662 -0.1148
    22 H(1)   Bbb     0.1415    75.489    26.936    25.180  0.1086 -0.0906  0.9899
              Bcc     0.1627    86.835    30.985    28.965  0.0759  0.9937  0.0826
 
              Baa    -0.3050  -162.759   -58.076   -54.290 -0.2006  0.6137  0.7637
    23 H(1)   Bbb     0.1413    75.403    26.906    25.152  0.6673  0.6563 -0.3521
              Bcc     0.1637    87.356    31.171    29.139  0.7173 -0.4390  0.5411
 
              Baa    -0.3049  -162.665   -58.043   -54.259 -0.6627 -0.2574  0.7032
    24 H(1)   Bbb     0.1416    75.530    26.951    25.194  0.1781  0.8580  0.4819
              Bcc     0.1633    87.135    31.092    29.065  0.7274 -0.4446  0.5228
 
              Baa    -0.3039  -162.153   -57.860   -54.088  0.5838 -0.1070  0.8048
    25 H(1)   Bbb     0.1412    75.348    26.886    25.133  0.8072 -0.0302 -0.5895
              Bcc     0.1627    86.805    30.974    28.955  0.0874  0.9938  0.0688
 
              Baa    -0.3045  -162.447   -57.965   -54.186 -0.3939 -0.0438  0.9181
    26 H(1)   Bbb     0.1410    75.247    26.850    25.100  0.9144 -0.1198  0.3866
              Bcc     0.1634    87.200    31.115    29.087  0.0930  0.9918  0.0873
 
              Baa    -0.3060  -163.284   -58.264   -54.466  0.6900  0.2381 -0.6836
    27 H(1)   Bbb     0.1396    74.497    26.582    24.850  0.1149  0.8963  0.4282
              Bcc     0.1664    88.787    31.681    29.616  0.7147 -0.3740  0.5911
 
              Baa    -0.3023  -161.305   -57.558   -53.806 -0.1769  0.6068  0.7749
    28 H(1)   Bbb     0.1374    73.303    26.156    24.451  0.6573  0.6589 -0.3658
              Bcc     0.1649    88.002    31.401    29.354  0.7326 -0.4446  0.5154
 
              Baa    -0.3023  -161.306   -57.558   -53.806 -0.4019 -0.0425  0.9147
    29 H(1)   Bbb     0.1374    73.336    26.168    24.462  0.9080 -0.1477  0.3921
              Bcc     0.1649    87.969    31.390    29.343  0.1185  0.9881  0.0980
 
              Baa    -0.3057  -163.114   -58.203   -54.409  0.5814 -0.1030  0.8071
    30 H(1)   Bbb     0.1401    74.745    26.671    24.932  0.8007 -0.1039 -0.5900
              Bcc     0.1656    88.369    31.532    29.477  0.1446  0.9892  0.0221
 
              Baa    -0.2871  -153.159   -54.651   -51.088  0.4112  0.8098 -0.4184
    31 H(1)   Bbb     0.1312    70.018    24.984    23.355  0.7653 -0.5561 -0.3242
              Bcc     0.1558    83.141    29.667    27.733  0.4952  0.1868  0.8484
 
              Baa    -0.2892  -154.321   -55.066   -51.476  0.1233  0.7045  0.6989
    32 H(1)   Bbb     0.1338    71.383    25.471    23.811  0.9829  0.0102 -0.1836
              Bcc     0.1554    82.939    29.595    27.665 -0.1365  0.7096 -0.6913
 
              Baa    -0.2874  -153.366   -54.725   -51.157  0.6156 -0.3442  0.7089
    33 H(1)   Bbb     0.1307    69.740    24.885    23.263  0.6955 -0.1857 -0.6941
              Bcc     0.1567    83.626    29.840    27.895  0.3705  0.9204  0.1251
 
              Baa    -0.3019  -161.082   -57.478   -53.731  0.8957 -0.1662 -0.4125
    34 H(1)   Bbb     0.1322    70.514    25.161    23.521  0.4137  0.6517  0.6357
              Bcc     0.1697    90.568    32.317    30.210 -0.1632  0.7401 -0.6524
 
              Baa    -0.2837  -151.355   -54.007   -50.487  0.3502  0.8594 -0.3724
    35 H(1)   Bbb     0.1298    69.251    24.710    23.100 -0.1516  0.4444  0.8829
              Bcc     0.1539    82.104    29.297    27.387  0.9243 -0.2528  0.2859
 
              Baa    -0.2848  -151.939   -54.216   -50.682  0.6303 -0.3248  0.7052
    36 H(1)   Bbb     0.1302    69.464    24.786    23.171 -0.2428  0.7802  0.5764
              Bcc     0.1546    82.476    29.429    27.511  0.7374  0.5345 -0.4129
 
              Baa    -0.2725  -145.404   -51.884   -48.501 -0.1330  0.3023  0.9439
    37 H(1)   Bbb     0.1347    71.877    25.648    23.976 -0.6499  0.6924 -0.3133
              Bcc     0.1378    73.526    26.236    24.526  0.7483  0.6551 -0.1044
 
              Baa    -0.2861  -152.661   -54.473   -50.922 -0.0137  0.2364  0.9716
[...]
  827 Fit       0.100930
  828 Fit       0.099334
  829 Fit       0.125639
  830 Fit       0.129332
  831 Fit       0.126766
  832 Fit       0.118498
  833 Fit       0.094330
  834 Fit       0.100759
  835 Fit       0.088171
  836 Fit       0.087686
  837 Fit       0.086527
  838 Fit       0.085204
  839 Fit       0.086399
  840 Fit       0.086870
  841 Fit       0.095504
  842 Fit       0.107881
  843 Fit       0.115899
  844 Fit       0.098550
  845 Fit       0.102122
  846 Fit       0.135704
  847 Fit       0.126738
  848 Fit       0.112766
  849 Fit       0.109298
  850 Fit       0.151797
  851 Fit       0.142848
  852 Fit       0.141579
  853 Fit       0.141412
  854 Fit       0.137411
  855 Fit       0.138371
  856 Fit       0.136513
  857 Fit       0.137604
  858 Fit       0.139130
  859 Fit       0.104809
  860 Fit       0.113328
  861 Fit       0.088454
  862 Fit       0.083041
  863 Fit       0.092791
  864 Fit       0.075167
  865 Fit       0.072289
  866 Fit       0.097512
  867 Fit       0.076487
  868 Fit       0.066670
  869 Fit       0.070469
  870 Fit       0.070596
  871 Fit       0.081337
  872 Fit       0.091584
  873 Fit       0.089549
  874 Fit       0.076346
  875 Fit       0.066571
  876 Fit       0.073812
  877 Fit       0.083589
  878 Fit       0.082770
  879 Fit       0.080295
  880 Fit       0.079297
  881 Fit       0.079990
  882 Fit       0.083923
  883 Fit       0.083632
  884 Fit       0.080205
  885 Fit       0.078006
  886 Fit       0.076650
  887 Fit       0.075979
  888 Fit       0.087786
  889 Fit       0.081313
  890 Fit       0.077563
  891 Fit       0.075011
  892 Fit       0.081284
  893 Fit       0.088569
  894 Fit       0.088541
  895 Fit       0.080977
  896 Fit       0.081909
  897 Fit       0.083462
  898 Fit       0.086104
  899 Fit       0.078257
  900 Fit       0.079386
  901 Fit       0.080442
  902 Fit       0.081566
  903 Fit       0.083055
  904 Fit       0.081666
  905 Fit       0.082242
  906 Fit       0.083181
  907 Fit       0.084719
  908 Fit       0.089190
  909 Fit       0.087682
  910 Fit       0.084341
  911 Fit       0.084694
  912 Fit       0.090831
  913 Fit       0.098770
  914 Fit       0.094823
  915 Fit       0.085144
  916 Fit       0.082705
  917 Fit       0.080968
  918 Fit       0.081673
  919 Fit       0.086287
  920 Fit       0.081619
  921 Fit       0.078393
  922 Fit       0.078421
  923 Fit       0.082160
  924 Fit       0.086889
  925 Fit       0.084177
  926 Fit       0.084311
  927 Fit       0.093175
  928 Fit       0.084940
  929 Fit       0.081743
  930 Fit       0.079898
  931 Fit       0.077699
  932 Fit       0.098519
  933 Fit       0.090438
  934 Fit       0.083743
  935 Fit       0.079937
  936 Fit       0.078142
  937 Fit       0.092168
  938 Fit       0.089704
  939 Fit       0.083129
  940 Fit       0.078828
  941 Fit       0.081970
  942 Fit       0.085232
  943 Fit       0.086702
  944 Fit       0.086457
  945 Fit       0.080328
  946 Fit       0.080311
  947 Fit       0.081666
  948 Fit       0.082978
  949 Fit       0.084530
  950 Fit       0.088205
  951 Fit       0.087798
  952 Fit       0.082655
  953 Fit       0.082891
  954 Fit       0.085764
  955 Fit       0.092655
  956 Fit       0.086938
  957 Fit       0.095509
  958 Fit       0.106834
  959 Fit       0.096628
  960 Fit       0.089832
  961 Fit       0.089956
  962 Fit       0.094515
  963 Fit       0.103608
  964 Fit       0.087292
  965 Fit       0.086324
  966 Fit       0.087872
  967 Fit       0.089471
  968 Fit       0.092233
  969 Fit       0.099206
  970 Fit       0.111620
  971 Fit       0.093557
  972 Fit       0.092340
  973 Fit       0.108598
  974 Fit       0.103206
  975 Fit       0.099957
  976 Fit       0.106814
  977 Fit       0.125633
  978 Fit       0.093105
  979 Fit       0.096132
  980 Fit       0.085106
  981 Fit       0.097143
  982 Fit       0.102989
  983 Fit       0.095305
  984 Fit       0.096770
  985 Fit       0.092645
  986 Fit       0.090937
  987 Fit       0.088105
  988 Fit       0.095970
  989 Fit       0.099194
  990 Fit       0.094301
  991 Fit       0.091802
  992 Fit       0.101799
  993 Fit       0.090687
  994 Fit       0.086834
  995 Fit       0.103756
  996 Fit       0.112186
  997 Fit       0.100446
  998 Fit       0.093326
  999 Fit       0.090906
 1000 Fit       0.094416
 1001 Fit       0.096180
 1002 Fit       0.100572
 1003 Fit       0.094253
 1004 Fit       0.116642
 1005 Fit       0.129444
 1006 Fit       0.117468
 1007 Fit       0.109901
 1008 Fit       0.119660
 1009 Fit       0.130473
 1010 Fit       0.137168
 1011 Fit       0.157203
 1012 Fit       0.094566
 1013 Fit       0.101763
 1014 Fit       0.088090
 1015 Fit       0.088831
 1016 Fit       0.093238
 1017 Fit       0.100006
 1018 Fit       0.086028
 1019 Fit       0.087764
 1020 Fit       0.093030
 1021 Fit       0.100189
 1022 Fit       0.086770
 1023 Fit       0.090730
 1024 Fit       0.097967
 1025 Fit       0.090328
 1026 Fit       0.082514
 1027 Fit       0.084220
 1028 Fit       0.074868
 1029 Fit       0.079961
 1030 Fit       0.082551
 1031 Fit       0.083374
 1032 Fit       0.088396
 1033 Fit       0.072504
 1034 Fit       0.079232
 1035 Fit       0.080853
 1036 Fit       0.096391
 1037 Fit       0.107587
 1038 Fit       0.096891
 1039 Fit       0.089106
 1040 Fit       0.093839
 1041 Fit       0.097688
 1042 Fit       0.090727
 1043 Fit       0.088234
 1044 Fit       0.086529
 1045 Fit       0.090520
 1046 Fit       0.089969
 1047 Fit       0.086361
 1048 Fit       0.085323
 1049 Fit       0.113759
 1050 Fit       0.112351
 1051 Fit       0.126184
 1052 Fit       0.128498
 1053 Fit       0.095120
 1054 Fit       0.093723
 1055 Fit       0.101218
 1056 Fit       0.095281
 1057 Fit       0.092847
 1058 Fit       0.098400
 1059 Fit       0.100432
 1060 Fit       0.095612
 1061 Fit       0.096874
 1062 Fit       0.104467
 1063 Fit       0.108057
 1064 Fit       0.099961
 1065 Fit       0.095270
 1066 Fit       0.094487
 1067 Fit       0.097732
 1068 Fit       0.112076
 1069 Fit       0.103825
 1070 Fit       0.098829
 1071 Fit       0.099808
 1072 Fit       0.097654
 1073 Fit       0.115190
 1074 Fit       0.105743
 1075 Fit       0.110290
 1076 Fit       0.139917
 1077 Fit       0.151545
 1078 Fit       0.145553
 1079 Fit       0.128261
 1080 Fit       0.133573
 1081 Fit       0.121080
 1082 Fit       0.132269
 1083 Fit       0.119311
 1084 Fit       0.133425
 1085 Fit       0.126169
 1086 Fit       0.137031
 1087 Fit       0.126664
 1088 Fit       0.136944
 1089 Fit       0.152469
 1090 Fit       0.155065
 1091 Fit       0.164484
 1092 Fit       0.151491
 1093 Fit       0.144768
 1094 Fit       0.145376
 1095 Fit       0.158374
 1096 Fit       0.149836
 1097 Fit       0.143295
 1098 Fit       0.140262
 1099 Fit       0.140554
 1100 Fit       0.145391
 1101 Fit       0.141877
 1102 Fit       0.139296
 1103 Fit       0.138745
 1104 Fit       0.141581
 1105 Fit       0.084567
 1106 Fit       0.081758
 1107 Fit       0.083915
 1108 Fit       0.083844
 1109 Fit       0.068216
 1110 Fit       0.071086
 1111 Fit       0.067147
 1112 Fit       0.065590
 1113 Fit       0.066668
 1114 Fit       0.070926
 1115 Fit       0.067219
 1116 Fit       0.076677
 1117 Fit       0.087439
 1118 Fit       0.072072
 1119 Fit       0.072092
 1120 Fit       0.075023
 1121 Fit       0.083118
 1122 Fit       0.088281
 1123 Fit       0.071668
 1124 Fit       0.074895
 1125 Fit       0.081847
 1126 Fit       0.086677
 1127 Fit       0.100185
 1128 Fit       0.081016
 1129 Fit       0.082772
 1130 Fit       0.088928
 1131 Fit       0.097298
 1132 Fit       0.087351
 1133 Fit       0.083596
 1134 Fit       0.087935
 1135 Fit       0.076148
 1136 Fit       0.072323
 1137 Fit       0.069923
 1138 Fit       0.070545
 1139 Fit       0.067043
 1140 Fit       0.067859
 1141 Fit       0.087960
 1142 Fit       0.084110
 1143 Fit       0.094750
 1144 Fit       0.072138
 1145 Fit       0.067985
 1146 Fit       0.067484
 1147 Fit       0.072657
 1148 Fit       0.070242
 1149 Fit       0.073401
 1150 Fit       0.075399
 1151 Fit       0.070908
 1152 Fit       0.071159
 1153 Fit       0.111743
 1154 Fit       0.071775
 1155 Fit       0.071974
 1156 Fit       0.075118
 1157 Fit       0.083263
 1158 Fit       0.083020
 1159 Fit       0.088560
 1160 Fit       0.102355
 1161 Fit       0.075082
 1162 Fit       0.083949
 1163 Fit       0.089909
 1164 Fit       0.088573
 1165 Fit       0.095230
 1166 Fit       0.114548
 1167 Fit       0.089019
 1168 Fit       0.081174
 1169 Fit       0.080224
 1170 Fit       0.092848
 1171 Fit       0.103016
 1172 Fit       0.078772
 1173 Fit       0.075571
 1174 Fit       0.088845
 1175 Fit       0.097673
 1176 Fit       0.117996
 1177 Fit       0.074485
 1178 Fit       0.097942
 1179 Fit       0.115637
 1180 Fit       0.079679
 1181 Fit       0.073558
 1182 Fit       0.070409
 1183 Fit       0.069319
 1184 Fit       0.073995
 1185 Fit       0.075430
 1186 Fit       0.084450
 1187 Fit       0.080878
 1188 Fit       0.088077
 1189 Fit       0.072815
 1190 Fit       0.074032
 1191 Fit       0.106181
 1192 Fit       0.080780
 1193 Fit       0.077863
 1194 Fit       0.103037
 1195 Fit       0.116684
 1196 Fit       0.096726
 1197 Fit       0.097748
 1198 Fit       0.120084
 1199 Fit       0.130542
 1200 Fit       0.128228
 1201 Fit       0.115788
 1202 Fit       0.098460
 1203 Fit       0.086667
 1204 Fit       0.087876
 1205 Fit       0.082189
 1206 Fit       0.082161
 1207 Fit       0.081217
 1208 Fit       0.081210
 1209 Fit       0.081497
 1210 Fit       0.080236
 1211 Fit       0.081773
 1212 Fit       0.082689
 1213 Fit       0.091673
 1214 Fit       0.097178
 1215 Fit       0.102671
 1216 Fit       0.109964
 1217 Fit       0.094026
 1218 Fit       0.098003
 1219 Fit       0.126487
 1220 Fit       0.091857
 1221 Fit       0.092928
 1222 Fit       0.121122
 1223 Fit       0.093378
 1224 Fit       0.122739
 1225 Fit       0.109886
 1226 Fit       0.105947
 1227 Fit       0.148138
 1228 Fit       0.141020
 1229 Fit       0.137345
 1230 Fit       0.133402
 1231 Fit       0.132560
 1232 Fit       0.128194
 1233 Fit       0.126826
 1234 Fit       0.125007
 1235 Fit       0.128066
 1236 Fit       0.125358
 1237 Fit       0.127626
 1238 Fit       0.125514
 1239 Fit       0.127816
 1240 Fit       0.111657
 1241 Fit       0.092913
 1242 Fit       0.089359
 1243 Fit       0.104638
 1244 Fit       0.085433
 1245 Fit       0.077621
 1246 Fit       0.081851
 1247 Fit       0.071743
 1248 Fit       0.071533
 1249 Fit       0.111454
 1250 Fit       0.100807
 1251 Fit       0.085147
 1252 Fit       0.072534
 1253 Fit       0.067323
 1254 Fit       0.070616
 1255 Fit       0.071865
 1256 Fit       0.081208
 1257 Fit       0.089639
 1258 Fit       0.087527
 1259 Fit       0.076469
 1260 Fit       0.068575
 1261 Fit       0.075218
 1262 Fit       0.081413
 1263 Fit       0.080663
 1264 Fit       0.077536
 1265 Fit       0.076553
 1266 Fit       0.077981
 1267 Fit       0.080398
 1268 Fit       0.076774
 1269 Fit       0.074667
 1270 Fit       0.073732
 1271 Fit       0.073932
 1272 Fit       0.082060
 1273 Fit       0.077342
 1274 Fit       0.074378
 1275 Fit       0.072605
 1276 Fit       0.071656
 1277 Fit       0.078681
 1278 Fit       0.074405
 1279 Fit       0.071967
 1280 Fit       0.086388
 1281 Fit       0.078710
 1282 Fit       0.079009
 1283 Fit       0.080681
 1284 Fit       0.084202
 1285 Fit       0.075617
 1286 Fit       0.076099
 1287 Fit       0.077037
 1288 Fit       0.078600
 1289 Fit       0.081202
 1290 Fit       0.075786
 1291 Fit       0.076218
 1292 Fit       0.077013
 1293 Fit       0.078339
 1294 Fit       0.080534
 1295 Fit       0.079865
 1296 Fit       0.079677
 1297 Fit       0.080584
 1298 Fit       0.082765
 1299 Fit       0.086083
 1300 Fit       0.085134
 1301 Fit       0.081218
 1302 Fit       0.081544
 1303 Fit       0.087458
 1304 Fit       0.094870
 1305 Fit       0.092235
 1306 Fit       0.081518
 1307 Fit       0.078969
 1308 Fit       0.077727
 1309 Fit       0.078939
 1310 Fit       0.083834
 1311 Fit       0.082139
 1312 Fit       0.078199
 1313 Fit       0.075907
 1314 Fit       0.076008
 1315 Fit       0.079007
 1316 Fit       0.075211
 1317 Fit       0.073691
 1318 Fit       0.085362
 1319 Fit       0.082445
 1320 Fit       0.082577
 1321 Fit       0.079399
 1322 Fit       0.078288
 1323 Fit       0.077947
 1324 Fit       0.088538
 1325 Fit       0.080697
 1326 Fit       0.077444
 1327 Fit       0.075604
 1328 Fit       0.074107
 1329 Fit       0.093389
 1330 Fit       0.086005
 1331 Fit       0.079785
 1332 Fit       0.076368
 1333 Fit       0.075533
 1334 Fit       0.085266
 1335 Fit       0.079683
 1336 Fit       0.075637
 1337 Fit       0.076366
 1338 Fit       0.078084
 1339 Fit       0.079700
 1340 Fit       0.080787
 1341 Fit       0.082211
 1342 Fit       0.077571
 1343 Fit       0.076604
 1344 Fit       0.077298
 1345 Fit       0.078612
 1346 Fit       0.080786
 1347 Fit       0.085144
 1348 Fit       0.084056
 1349 Fit       0.079065
 1350 Fit       0.079002
 1351 Fit       0.082043
 1352 Fit       0.088425
 1353 Fit       0.082991
 1354 Fit       0.091475
 1355 Fit       0.101470
 1356 Fit       0.092889
 1357 Fit       0.086398
 1358 Fit       0.086133
 1359 Fit       0.090577
 1360 Fit       0.098848
 1361 Fit       0.092371
 1362 Fit       0.084958
 1363 Fit       0.082878
 1364 Fit       0.083500
 1365 Fit       0.085134
 1366 Fit       0.088485
 1367 Fit       0.095595
 1368 Fit       0.106953
 1369 Fit       0.082226
 1370 Fit       0.084659
 1371 Fit       0.086356
 1372 Fit       0.086982
 1373 Fit       0.089220
 1374 Fit       0.104902
 1375 Fit       0.096946
 1376 Fit       0.103439
 1377 Fit       0.119599
 1378 Fit       0.091363
 1379 Fit       0.095169
 1380 Fit       0.085509
 1381 Fit       0.086365
 1382 Fit       0.091758
 1383 Fit       0.097157
 1384 Fit       0.090921
 1385 Fit       0.091416
 1386 Fit       0.088136
 1387 Fit       0.086713
 1388 Fit       0.085350
 1389 Fit       0.091569
 1390 Fit       0.093754
 1391 Fit       0.089721
 1392 Fit       0.087802
 1393 Fit       0.105681
 1394 Fit       0.096320
 1395 Fit       0.087465
 1396 Fit       0.084153
 1397 Fit       0.087114
 1398 Fit       0.098070
 1399 Fit       0.103884
 1400 Fit       0.107064
 1401 Fit       0.094659
 1402 Fit       0.089032
 1403 Fit       0.086898
 1404 Fit       0.089525
 1405 Fit       0.091531
 1406 Fit       0.094942
 1407 Fit       0.089707
 1408 Fit       0.111458
 1409 Fit       0.121671
 1410 Fit       0.111954
 1411 Fit       0.105790
 1412 Fit       0.114096
 1413 Fit       0.122651
 1414 Fit       0.128197
 1415 Fit       0.142942
 1416 Fit       0.086485
 1417 Fit       0.090426
 1418 Fit       0.082826
 1419 Fit       0.083650
 1420 Fit       0.087450
 1421 Fit       0.093751
 1422 Fit       0.082036
 1423 Fit       0.083803
 1424 Fit       0.089082
 1425 Fit       0.083436
 1426 Fit       0.087216
 1427 Fit       0.094326
 1428 Fit       0.087207
 1429 Fit       0.083401
 1430 Fit       0.077846
 1431 Fit       0.079128
 1432 Fit       0.072435
 1433 Fit       0.076027
 1434 Fit       0.078216
 1435 Fit       0.079726
 1436 Fit       0.085436
 1437 Fit       0.072016
 1438 Fit       0.076065
 1439 Fit       0.078346
 1440 Fit       0.093872
 1441 Fit       0.105093
 1442 Fit       0.094460
 1443 Fit       0.086486
 1444 Fit       0.091468
 1445 Fit       0.096109
 1446 Fit       0.088511
 1447 Fit       0.085643
 1448 Fit       0.082983
 1449 Fit       0.086601
 1450 Fit       0.086731
 1451 Fit       0.083045
 1452 Fit       0.081913
 1453 Fit       0.082831
 1454 Fit       0.082211
 1455 Fit       0.081425
 1456 Fit       0.109155
 1457 Fit       0.107983
 1458 Fit       0.119050
 1459 Fit       0.121095
 1460 Fit       0.091377
 1461 Fit       0.091113
 1462 Fit       0.089349
 1463 Fit       0.093007
 1464 Fit       0.090490
 1465 Fit       0.096785
 1466 Fit       0.096344
 1467 Fit       0.091523
 1468 Fit       0.092895
 1469 Fit       0.103114
 1470 Fit       0.095549
 1471 Fit       0.090326
 1472 Fit       0.089985
 1473 Fit       0.093014
 1474 Fit       0.106490
 1475 Fit       0.098253
 1476 Fit       0.093279
 1477 Fit       0.092652
 1478 Fit       0.091349
 1479 Fit       0.106107
 1480 Fit       0.096657
 1481 Fit       0.115835
 1482 Fit       0.108507
 1483 Fit       0.101176
 1484 Fit       0.104801
 1485 Fit       0.132258
 1486 Fit       0.141051
 1487 Fit       0.136533
 1488 Fit       0.149736
 1489 Fit       0.121354
 1490 Fit       0.110034
 1491 Fit       0.121336
 1492 Fit       0.110277
 1493 Fit       0.121645
 1494 Fit       0.110317
 1495 Fit       0.124207
 1496 Fit       0.121107
 1497 Fit       0.129285
 1498 Fit       0.127511
 1499 Fit       0.142375
 1500 Fit       0.144576
 1501 Fit       0.141503
 1502 Fit       0.135223
 1503 Fit       0.135867
 1504 Fit       0.147383
 1505 Fit       0.138746
 1506 Fit       0.133149
 1507 Fit       0.130581
 1508 Fit       0.131214
 1509 Fit       0.136118
 1510 Fit       0.133258
 1511 Fit       0.129787
 1512 Fit       0.128604
 1513 Fit       0.129652
 1514 Fit       0.134820
 -----------------------------------------------------------------
 Leave Link  602 at Sat Feb 17 21:00:38 2018, MaxMem=   33554432 cpu:       0.9

 Test job not archived.
 1\1\GINC-NODE019\SP\RHF\6-31G(d)\C17H21N2O1(1+)\WULSDORT\17-Feb-2018\0
 \\#HF/6-31G* Geom=AllCheck Guess=Read Pop=(MK,ReadRadii) Integral=(Gri
 d=UltraFine) iop(6/33=2)\\Optimization for frag11-conf0\\1,1\C,0,0.581
 497326,1.7884391818,3.9529791116\C,0,-0.0377528948,6.3145321649,-1.750
 7074845\C,0,-0.4400041262,2.4620515305,3.2797572532\C,0,1.6743885421,1
 .2970112364,3.2366693546\C,0,1.2727978435,5.8974360574,-1.5091614714\C
 ,0,-1.0931888646,5.4225057783,-1.5588593688\C,0,-0.3739858869,2.638376
 5193,1.8971025317\C,0,1.7385811529,1.4716266956,1.85296924\C,0,1.52575
 75867,4.5956035208,-1.0777037295\C,0,-0.8402373686,4.1201594077,-1.120
 7344918\C,0,0.7123311077,2.1361923819,1.1674109183\C,0,0.4743120592,3.
 6899358055,-0.8661204049\C,0,0.6307168473,-0.22532237,-0.9278846562\C,
 0,0.9171611391,-2.3633253069,0.1614505226\C,0,-0.8374323606,-0.8470579
 088,1.0049266269\C,0,0.8090207728,2.2881922782,-0.3519176336\C,0,-0.01
 45386885,1.1808358943,-1.0857455274\N,0,0.2204882024,-1.0776086675,0.0
 211378056\N,0,0.1195964712,1.4226198724,-2.5788025553\O,0,1.537129731,
 -0.4703926483,-1.7427534728\H,0,0.5331444022,1.6611722457,5.0303526178
 \H,0,-0.2349777269,7.3272088121,-2.0888682365\H,0,-1.2843489972,2.8634
 263631,3.8325582927\H,0,2.4840581849,0.7904224257,3.7539481646\H,0,2.1
 004675966,6.5841219001,-1.6592257707\H,0,-2.1157486408,5.738101799,-1.
 7438665917\H,0,-1.1618654284,3.192889642,1.3959560115\H,0,2.5999856555
 ,1.096334457,1.3047522298\H,0,2.5493343901,4.2820085601,-0.8869688932\
 H,0,-1.6837636512,3.4503729647,-0.9643899159\H,0,1.4008023899,-2.41211
 20284,1.1428136001\H,0,1.6647505712,-2.45563419,-0.6232982292\H,0,0.19
 17260431,-3.1793252858,0.0828843748\H,0,-1.3579312174,0.0917560565,0.8
 324546744\H,0,-0.407484703,-0.8116694363,2.0108570392\H,0,-1.558123602
 5,-1.6697570665,0.9532492434\H,0,1.8536040414,2.0886805936,-0.62234438
 4\H,0,-1.0735880648,1.2262957175,-0.8372844536\H,0,0.9865145378,0.8823
 441735,-2.8242090496\H,0,0.2097776948,2.429554656,-2.774245005\H,0,-0.
 6620164973,1.0424754912,-3.1211093654\\Version=AM64L-G09RevC.01\State=
 1-A\HF=-839.55004\RMSD=4.385e-09\Dipole=-1.3426832,-0.6485514,-1.72854
 57\Quadrupole=-9.8712799,4.2027193,5.6685607,2.3652771,5.1875619,-9.07
 12044\PG=C01 [X(C17H21N2O1)]\\@


 I am not a vegetarian because I love animals;
 I am a vegetarian because I hate plants.
                               -- A. Whitney Brown
 Job cpu time:  0 days  0 hours  9 minutes 41.3 seconds.
 File lengths (MBytes):  RWF=     64 Int=      0 D2E=      0 Chk=      9 Scr=      1
 Normal termination of Gaussian 09 at Sat Feb 17 21:00:38 2018.
