 Entering Gaussian System, Link 0=g09
 Initial command:
 /home/fb_chem/chemsoft/lx24-amd64/Gaussian_09_C.01_NBO_3.1_64_istanbul-64/g09/l1.exe /local/2400088.1.parallel/Gau-31097.inp -scrdir=/local/2400088.1.parallel/
 Entering Link 1 = /home/fb_chem/chemsoft/lx24-amd64/Gaussian_09_C.01_NBO_3.1_64_istanbul-64/g09/l1.exe PID=     31098.
  
 Copyright (c) 1988,1990,1992,1993,1995,1998,2003,2009,2011,
            Gaussian, Inc.  All Rights Reserved.
  
 This is part of the Gaussian(R) 09 program.  It is based on
 the Gaussian(R) 03 system (copyright 2003, Gaussian, Inc.),
 the Gaussian(R) 98 system (copyright 1998, Gaussian, Inc.),
 the Gaussian(R) 94 system (copyright 1995, Gaussian, Inc.),
 the Gaussian 92(TM) system (copyright 1992, Gaussian, Inc.),
 the Gaussian 90(TM) system (copyright 1990, Gaussian, Inc.),
 the Gaussian 88(TM) system (copyright 1988, Gaussian, Inc.),
 the Gaussian 86(TM) system (copyright 1986, Carnegie Mellon
 University), and the Gaussian 82(TM) system (copyright 1983,
 Carnegie Mellon University). Gaussian is a federally registered
 trademark of Gaussian, Inc.
  
 This software contains proprietary and confidential information,
 including trade secrets, belonging to Gaussian, Inc.
  
 This software is provided under written license and may be
 used, copied, transmitted, or stored only in accord with that
 written license.
  
 The following legend is applicable only to US Government
 contracts under FAR:
  
                    RESTRICTED RIGHTS LEGEND
  
 Use, reproduction and disclosure by the US Government is
 subject to restrictions as set forth in subparagraphs (a)
 and (c) of the Commercial Computer Software - Restricted
 Rights clause in FAR 52.227-19.
  
 Gaussian, Inc.
 340 Quinnipiac St., Bldg. 40, Wallingford CT 06492
  
  
 ---------------------------------------------------------------
 Warning -- This program may not be used in any manner that
 competes with the business of Gaussian, Inc. or will provide
 assistance to any competitor of Gaussian, Inc.  The licensee
 of this program is prohibited from giving any competitor of
 Gaussian, Inc. access to this program.  By using this program,
 the user acknowledges that Gaussian, Inc. is engaged in the
 business of creating and licensing software in the field of
 computational chemistry and represents and warrants to the
 licensee that it is not a competitor of Gaussian, Inc. and that
 it will not use this program in any manner prohibited above.
 ---------------------------------------------------------------
  

 Cite this work as:
 Gaussian 09, Revision C.01,
 M. J. Frisch, G. W. Trucks, H. B. Schlegel, G. E. Scuseria, 
 M. A. Robb, J. R. Cheeseman, G. Scalmani, V. Barone, B. Mennucci, 
 G. A. Petersson, H. Nakatsuji, M. Caricato, X. Li, H. P. Hratchian, 
 A. F. Izmaylov, J. Bloino, G. Zheng, J. L. Sonnenberg, M. Hada, 
 M. Ehara, K. Toyota, R. Fukuda, J. Hasegawa, M. Ishida, T. Nakajima, 
 Y. Honda, O. Kitao, H. Nakai, T. Vreven, J. A. Montgomery, Jr., 
 J. E. Peralta, F. Ogliaro, M. Bearpark, J. J. Heyd, E. Brothers, 
 K. N. Kudin, V. N. Staroverov, T. Keith, R. Kobayashi, J. Normand, 
 K. Raghavachari, A. Rendell, J. C. Burant, S. S. Iyengar, J. Tomasi, 
 M. Cossi, N. Rega, J. M. Millam, M. Klene, J. E. Knox, J. B. Cross, 
 V. Bakken, C. Adamo, J. Jaramillo, R. Gomperts, R. E. Stratmann, 
 O. Yazyev, A. J. Austin, R. Cammi, C. Pomelli, J. W. Ochterski, 
 R. L. Martin, K. Morokuma, V. G. Zakrzewski, G. A. Voth, 
 P. Salvador, J. J. Dannenberg, S. Dapprich, A. D. Daniels, 
 O. Farkas, J. B. Foresman, J. V. Ortiz, J. Cioslowski, 
 and D. J. Fox, Gaussian, Inc., Wallingford CT, 2010.
 
 ******************************************
 Gaussian 09:  AM64L-G09RevC.01 23-Sep-2011
                17-Feb-2018 
 ******************************************
 %nprocs=2
 Will use up to    2 processors via shared memory.
 %chk=frag49-conf0.chk
 ----------------------------------------------------------------------
 #HF/6-31G* Geom=AllCheck Guess=Read Pop=(MK,ReadRadii) Integral=(Grid=
 UltraFine) iop(6/33=2)
 ----------------------------------------------------------------------
 1/29=7,38=1/1;
 2/12=2,40=1/2;
 3/5=1,6=6,7=1,11=9,14=-4,16=1,25=1,30=1,75=-5,116=-2/1,2,3;
 4/5=1/1;
 5/5=2,38=6/2;
 6/7=2,8=2,9=2,10=2,15=8,20=101,28=1,33=2/1,2;
 99/5=1,9=1/99;
 Structure from the checkpoint file:  frag49-conf0.chk
 -----------------------------
 Optimization for frag49-conf0
 -----------------------------
 Charge =  0 Multiplicity = 1
 Redundant internal coordinates found in file.
 C,0,-5.0831639091,3.3283549959,-1.6479284333
 C,0,-2.1238405563,1.5237383854,-0.316896605
 C,0,-5.6040159455,3.4102033697,-3.0750278187
 C,0,-0.2619274383,0.4668847765,0.9201194313
 C,0,-3.3603867326,2.4163576387,-0.1737782334
 N,0,-1.4587178095,1.2879580784,0.8453412777
 N,0,-3.9605581701,2.5788830717,-1.4730116402
 O,0,-5.6357609903,3.8991023128,-0.7123350879
 O,0,-1.7798437109,1.0687886933,-1.4043150546
 H,0,-6.631772271,3.0347341024,-3.0981123334
 H,0,-5.6344546979,4.460753037,-3.3803576641
 H,0,-5.0025057899,2.8470096157,-3.7951601495
 H,0,-0.4165752832,-0.3972630755,1.5764090389
 H,0,0.5915911195,1.0461207182,1.2907720595
 H,0,-0.0436926257,0.1148176872,-0.0886212805
 H,0,-4.0722705658,1.9671369462,0.5331923897
 H,0,-3.0778098854,3.3897137673,0.2518321926
 H,0,-1.8137162154,1.7042902073,1.695134718
 H,0,-3.48847266,2.0995295849,-2.2305104136
 Recover connectivity data from disk.
                          Input orientation:                          
 ---------------------------------------------------------------------
 Center     Atomic      Atomic             Coordinates (Angstroms)
 Number     Number       Type             X           Y           Z
 ---------------------------------------------------------------------
      1          6           0       -5.083164    3.328355   -1.647928
      2          6           0       -2.123841    1.523738   -0.316897
      3          6           0       -5.604016    3.410203   -3.075028
      4          6           0       -0.261927    0.466885    0.920119
      5          6           0       -3.360387    2.416358   -0.173778
      6          7           0       -1.458718    1.287958    0.845341
      7          7           0       -3.960558    2.578883   -1.473012
      8          8           0       -5.635761    3.899102   -0.712335
      9          8           0       -1.779844    1.068789   -1.404315
     10          1           0       -6.631772    3.034734   -3.098112
     11          1           0       -5.634455    4.460753   -3.380358
     12          1           0       -5.002506    2.847010   -3.795160
     13          1           0       -0.416575   -0.397263    1.576409
     14          1           0        0.591591    1.046121    1.290772
     15          1           0       -0.043693    0.114818   -0.088621
     16          1           0       -4.072271    1.967137    0.533192
     17          1           0       -3.077810    3.389714    0.251832
     18          1           0       -1.813716    1.704290    1.695135
     19          1           0       -3.488473    2.099530   -2.230510
 ---------------------------------------------------------------------
                    Distance matrix (angstroms):
                    1          2          3          4          5
     1  C    0.000000
     2  C    3.712934   0.000000
     3  C    1.521381   4.824693   0.000000
     4  C    6.166620   2.472624   7.291244   0.000000
     5  C    2.443935   1.531763   3.799849   3.820668   0.000000
     6  N    4.849353   1.359698   6.087423   1.453293   2.434797
     7  N    1.361083   2.413185   2.441004   4.885436   1.440357
     8  O    1.227376   4.258205   2.412954   6.582029   2.768737
     9  O    4.009602   1.227922   4.785164   2.840661   2.414183
    10  H    2.141830   5.508150   1.094437   7.957070   4.431262
    11  H    2.141859   5.507745   1.094444   7.956704   4.430924
    12  H    2.202000   4.704899   1.094346   7.097319   3.999553
    13  H    6.786283   3.192116   7.939912   1.096076   4.432341
    14  H    6.785823   3.191596   7.939436   1.096080   4.431770
    15  H    6.176935   2.522733   7.120069   1.090475   4.037920
    16  H    2.762627   2.171551   4.177073   4.113294   1.099266
    17  H    2.763024   2.171491   4.177336   4.113239   1.099280
    18  H    4.950045   2.043782   6.327003   2.130697   2.528253
    19  H    2.095818   2.419850   2.628041   4.796102   2.084930
                    6          7          8          9         10
     6  N    0.000000
     7  N    3.646979   0.000000
     8  O    5.166442   2.264489   0.000000
     9  O    2.283005   2.653417   4.832971   0.000000
    10  H    6.735172   3.159769   2.726005   5.502281   0.000000
    11  H    6.734979   3.159325   2.726499   5.501654   1.762905
    12  H    6.043453   2.559281   3.318391   4.389050   1.782028
    13  H    2.111988   5.542222   7.137017   3.590616   8.500496
    14  H    2.112028   5.541654   7.136656   3.589946   8.682964
    15  H    2.061757   4.830113   6.780933   2.378094   7.809337
    16  H    2.718341   2.100373   2.779988   3.133079   4.569156
    17  H    2.718656   2.100423   2.780685   3.132768   4.896814
    18  H    1.010695   3.925684   5.022065   3.164111   6.925241
    19  H    3.773515   1.013138   3.186560   2.159731   3.392296
                   11         12         13         14         15
    11  H    0.000000
    12  H    1.782018   0.000000
    13  H    8.683094   7.772375   0.000000
    14  H    8.499577   7.771990   1.783632   0.000000
    15  H    7.808925   6.767062   1.781458   1.781470   0.000000
    16  H    4.896367   4.513773   4.476918   4.813918   4.477408
    17  H    4.569066   4.514103   4.814340   4.476196   4.477356
    18  H    6.925081   6.451165   2.526386   2.526302   2.973414
    19  H    3.391572   2.301989   5.492100   5.491450   4.515892
                   16         17         18         19
    16  H    0.000000
    17  H    1.758363   0.000000
    18  H    2.553481   2.553763   0.000000
    19  H    2.827791   2.827586   4.286224   0.000000
 Stoichiometry    C5H10N2O2
 Framework group  C1[X(C5H10N2O2)]
 Deg. of freedom    51
 Full point group                 C1      NOp   1
 Largest Abelian subgroup         C1      NOp   1
 Largest concise Abelian subgroup C1      NOp   1
                         Standard orientation:                         
 ---------------------------------------------------------------------
 Center     Atomic      Atomic             Coordinates (Angstroms)
 Number     Number       Type             X           Y           Z
 ---------------------------------------------------------------------
      1          6           0        2.339352   -0.175688    0.000037
      2          6           0       -1.358804    0.155255   -0.000070
      3          6           0        3.406740    0.908416    0.000250
      4          6           0       -3.825278   -0.019031    0.000141
      5          6           0       -0.057549   -0.652850   -0.000418
      6          7           0       -2.491696   -0.596630    0.000395
      7          7           0        1.051850    0.265770   -0.000215
      8          8           0        2.616321   -1.371405    0.000094
      9          8           0       -1.354815    1.383170   -0.000155
     10          1           0        4.042563    0.778046    0.881457
     11          1           0        4.042073    0.778924   -0.881448
     12          1           0        3.000706    1.924649    0.000854
     13          1           0       -4.386514   -0.321496    0.891720
     14          1           0       -4.386025   -0.321014   -0.891912
     15          1           0       -3.711596    1.065502    0.000475
     16          1           0       -0.020559   -1.311982    0.878537
     17          1           0       -0.020789   -1.311414   -0.879826
     18          1           0       -2.400392   -1.603193   -0.000018
     19          1           0        0.800636    1.247269   -0.000254
 ---------------------------------------------------------------------
 Rotational constants (GHZ):      5.0229162      0.6736840      0.6006889
 Standard basis: 6-31G(d) (6D, 7F)
 There are   155 symmetry adapted basis functions of A   symmetry.
 Integral buffers will be    131072 words long.
 Raffenetti 1 integral format.
 Two-electron integral symmetry is turned on.
   155 basis functions,   292 primitive gaussians,   155 cartesian basis functions
    35 alpha electrons       35 beta electrons
       nuclear repulsion energy       448.0851500488 Hartrees.
 NAtoms=   19 NActive=   19 NUniq=   19 SFac= 1.00D+00 NAtFMM=   60 NAOKFM=F Big=F
 One-electron integrals computed using PRISM.
 NBasis=   155 RedAO= T  NBF=   155
 NBsUse=   155 1.00D-06 NBFU=   155
 Initial guess read from the checkpoint file:  frag49-conf0.chk
 B after Tr=     0.000000    0.000000    0.000000
         Rot=    1.000000    0.000000    0.000000    0.000000 Ang=   0.00 deg.
 Initial guess orbital symmetries:
       Occupied  (A) (A) (A) (A) (A) (A) (A) (A) (A) (A) (A) (A)
                 (A) (A) (A) (A) (A) (A) (A) (A) (A) (A) (A) (A)
                 (A) (A) (A) (A) (A) (A) (A) (A) (A) (A) (A)
       Virtual   (A) (A) (A) (A) (A) (A) (A) (A) (A) (A) (A) (A)
                 (A) (A) (A) (A) (A) (A) (A) (A) (A) (A) (A) (A)
                 (A) (A) (A) (A) (A) (A) (A) (A) (A) (A) (A) (A)
                 (A) (A) (A) (A) (A) (A) (A) (A) (A) (A) (A) (A)
                 (A) (A) (A) (A) (A) (A) (A) (A) (A) (A) (A) (A)
                 (A) (A) (A) (A) (A) (A) (A) (A) (A) (A) (A) (A)
                 (A) (A) (A) (A) (A) (A) (A) (A) (A) (A) (A) (A)
                 (A) (A) (A) (A) (A) (A) (A) (A) (A) (A) (A) (A)
                 (A) (A) (A) (A) (A) (A) (A) (A) (A) (A) (A) (A)
                 (A) (A) (A) (A) (A) (A) (A) (A) (A) (A) (A) (A)
 Requested convergence on RMS density matrix=1.00D-08 within 128 cycles.
 Requested convergence on MAX density matrix=1.00D-06.
 Requested convergence on             energy=1.00D-06.
 No special actions if energy rises.
 SCF Done:  E(RHF) =  -453.819592155     A.U. after   13 cycles
             Convg  =    0.6375D-08             -V/T =  2.0028

 **********************************************************************

            Population analysis using the SCF density.

 **********************************************************************

 Orbital symmetries:
 BldTbl:  Degeneracy threshold= 1.00D-02
       Occupied  (A) (A) (A) (A) (A) (A) (A) (A) (A) (A) (A) (A)
                 (A) (A) (A) (A) (A) (A) (A) (A) (A) (A) (A) (A)
                 (A) (A) (A) (A) (A) (A) (A) (A) (A) (A) (A)
       Virtual   (A) (A) (A) (A) (A) (A) (A) (A) (A) (A) (A) (A)
                 (A) (A) (A) (A) (A) (A) (A) (A) (A) (A) (A) (A)
                 (A) (A) (A) (A) (A) (A) (A) (A) (A) (A) (A) (A)
                 (A) (A) (A) (A) (A) (A) (A) (A) (A) (A) (A) (A)
                 (A) (A) (A) (A) (A) (A) (A) (A) (A) (A) (A) (A)
                 (A) (A) (A) (A) (A) (A) (A) (A) (A) (A) (A) (A)
                 (A) (A) (A) (A) (A) (A) (A) (A) (A) (A) (A) (A)
                 (A) (A) (A) (A) (A) (A) (A) (A) (A) (A) (A) (A)
                 (A) (A) (A) (A) (A) (A) (A) (A) (A) (A) (A) (A)
                 (A) (A) (A) (A) (A) (A) (A) (A) (A) (A) (A) (A)
 The electronic state is 1-A.
 Alpha  occ. eigenvalues --  -20.54172 -20.51591 -15.60521 -15.58487 -11.37033
 Alpha  occ. eigenvalues --  -11.34959 -11.28455 -11.27150 -11.23455  -1.39370
 Alpha  occ. eigenvalues --   -1.36760  -1.24200  -1.22642  -1.02959  -0.98387
 Alpha  occ. eigenvalues --   -0.92645  -0.80381  -0.78984  -0.72373  -0.66715
 Alpha  occ. eigenvalues --   -0.65973  -0.65626  -0.63119  -0.62100  -0.58987
 Alpha  occ. eigenvalues --   -0.58367  -0.56300  -0.55711  -0.54899  -0.53240
 Alpha  occ. eigenvalues --   -0.49395  -0.43907  -0.41288  -0.40604  -0.38280
 Alpha virt. eigenvalues --    0.18100   0.20561   0.20957   0.23850   0.25981
 Alpha virt. eigenvalues --    0.26792   0.28469   0.30885   0.31258   0.33292
 Alpha virt. eigenvalues --    0.33715   0.34994   0.35218   0.39288   0.41214
 Alpha virt. eigenvalues --    0.45180   0.51187   0.51421   0.54535   0.64391
 Alpha virt. eigenvalues --    0.71675   0.72414   0.74801   0.74986   0.76733
 Alpha virt. eigenvalues --    0.78696   0.79426   0.81936   0.84181   0.85295
 Alpha virt. eigenvalues --    0.90604   0.92893   0.96279   0.97188   0.98211
 Alpha virt. eigenvalues --    0.99635   1.00657   1.03009   1.08074   1.08080
 Alpha virt. eigenvalues --    1.09687   1.09965   1.12560   1.14097   1.16351
 Alpha virt. eigenvalues --    1.16473   1.17427   1.18761   1.19355   1.19589
 Alpha virt. eigenvalues --    1.21021   1.22771   1.32440   1.32784   1.34309
 Alpha virt. eigenvalues --    1.36721   1.42170   1.48688   1.55148   1.56179
 Alpha virt. eigenvalues --    1.57580   1.60518   1.61478   1.62613   1.63093
 Alpha virt. eigenvalues --    1.72976   1.75908   1.80132   1.83705   1.95652
 Alpha virt. eigenvalues --    1.98684   2.04855   2.05564   2.07280   2.11552
 Alpha virt. eigenvalues --    2.12126   2.14406   2.14544   2.16722   2.18734
 Alpha virt. eigenvalues --    2.21693   2.24496   2.30948   2.32626   2.34144
 Alpha virt. eigenvalues --    2.36795   2.41792   2.44571   2.53627   2.55043
 Alpha virt. eigenvalues --    2.57851   2.58503   2.61718   2.63411   2.65342
 Alpha virt. eigenvalues --    2.69062   2.71102   2.75615   2.80639   2.86796
 Alpha virt. eigenvalues --    2.93061   2.98624   3.01949   3.03540   3.07637
 Alpha virt. eigenvalues --    3.21786   3.27717   3.33346   3.36555   3.49690
 Alpha virt. eigenvalues --    3.57172   4.37167   4.39593   4.45606   4.50841
 Alpha virt. eigenvalues --    4.59846   4.63216   4.73445   4.88565   4.96681
          Condensed to atoms (all electrons):
              1          2          3          4          5          6
     1  C    4.150806   0.004078   0.362906   0.000001  -0.031266  -0.000103
     2  C    0.004078   4.147537   0.000033  -0.022781   0.353776   0.300801
     3  C    0.362906   0.000033   5.242586   0.000000   0.005431   0.000000
     4  C    0.000001  -0.022781   0.000000   4.948471   0.003482   0.185691
     5  C   -0.031266   0.353776   0.005431   0.003482   5.040791  -0.109859
     6  N   -0.000103   0.300801   0.000000   0.185691  -0.109859   7.307208
     7  N    0.267208  -0.036745  -0.103941  -0.000055   0.205358   0.002476
     8  O    0.587322   0.000590  -0.068560   0.000000   0.012355  -0.000002
     9  O    0.000148   0.581637  -0.000038  -0.003429  -0.076640  -0.089154
    10  H   -0.027940   0.000000   0.380578   0.000000  -0.000119   0.000000
    11  H   -0.027930   0.000000   0.380567   0.000000  -0.000120   0.000000
    12  H   -0.038853  -0.000034   0.375954   0.000000   0.000089   0.000000
    13  H    0.000000   0.000723   0.000000   0.400848  -0.000058  -0.044539
    14  H    0.000000   0.000715   0.000000   0.400851  -0.000058  -0.044552
    15  H    0.000000  -0.001980   0.000000   0.397718   0.000539  -0.034748
    16  H   -0.001499  -0.031937  -0.000042  -0.000148   0.394987   0.001316
    17  H   -0.001498  -0.031930  -0.000042  -0.000149   0.394962   0.001309
    18  H    0.000003  -0.023210   0.000000  -0.021348   0.001263   0.325913
    19  H   -0.011052  -0.008285  -0.000425  -0.000014  -0.030080   0.000922
              7          8          9         10         11         12
     1  C    0.267208   0.587322   0.000148  -0.027940  -0.027930  -0.038853
     2  C   -0.036745   0.000590   0.581637   0.000000   0.000000  -0.000034
     3  C   -0.103941  -0.068560  -0.000038   0.380578   0.380567   0.375954
     4  C   -0.000055   0.000000  -0.003429   0.000000   0.000000   0.000000
     5  C    0.205358   0.012355  -0.076640  -0.000119  -0.000120   0.000089
     6  N    0.002476  -0.000002  -0.089154   0.000000   0.000000   0.000000
     7  N    7.383074  -0.102937  -0.009390   0.001575   0.001570   0.006015
     8  O   -0.102937   8.195684  -0.000004   0.000737   0.000733   0.002433
     9  O   -0.009390  -0.000004   8.199411   0.000000   0.000000  -0.000022
    10  H    0.001575   0.000737   0.000000   0.482360  -0.020204  -0.022720
    11  H    0.001570   0.000733   0.000000  -0.020204   0.482383  -0.022719
    12  H    0.006015   0.002433  -0.000022  -0.022720  -0.022719   0.523754
    13  H    0.000001   0.000000   0.000274   0.000000   0.000000   0.000000
    14  H    0.000001   0.000000   0.000275   0.000000   0.000000   0.000000
    15  H    0.000000   0.000000   0.009567   0.000000   0.000000   0.000000
    16  H   -0.042648   0.002414   0.000994   0.000026  -0.000009  -0.000006
    17  H   -0.042648   0.002408   0.000993  -0.000009   0.000026  -0.000006
    18  H    0.000012   0.000001   0.002162   0.000000   0.000000   0.000000
    19  H    0.304174   0.001719   0.025972  -0.000005  -0.000005   0.001333
             13         14         15         16         17         18
     1  C    0.000000   0.000000   0.000000  -0.001499  -0.001498   0.000003
     2  C    0.000723   0.000715  -0.001980  -0.031937  -0.031930  -0.023210
     3  C    0.000000   0.000000   0.000000  -0.000042  -0.000042   0.000000
     4  C    0.400848   0.400851   0.397718  -0.000148  -0.000149  -0.021348
     5  C   -0.000058  -0.000058   0.000539   0.394987   0.394962   0.001263
     6  N   -0.044539  -0.044552  -0.034748   0.001316   0.001309   0.325913
     7  N    0.000001   0.000001   0.000000  -0.042648  -0.042648   0.000012
     8  O    0.000000   0.000000   0.000000   0.002414   0.002408   0.000001
     9  O    0.000274   0.000275   0.009567   0.000994   0.000993   0.002162
    10  H    0.000000   0.000000   0.000000   0.000026  -0.000009   0.000000
    11  H    0.000000   0.000000   0.000000  -0.000009   0.000026   0.000000
    12  H    0.000000   0.000000   0.000000  -0.000006  -0.000006   0.000000
    13  H    0.529096  -0.037071  -0.022759   0.000015  -0.000005  -0.001024
    14  H   -0.037071   0.529134  -0.022761  -0.000005   0.000015  -0.001023
    15  H   -0.022759  -0.022761   0.439533  -0.000016  -0.000016   0.002496
    16  H    0.000015  -0.000005  -0.000016   0.496971  -0.033366   0.000502
    17  H   -0.000005   0.000015  -0.000016  -0.033366   0.497045   0.000502
    18  H   -0.001024  -0.001023   0.002496   0.000502   0.000502   0.323279
    19  H    0.000000   0.000000  -0.000014   0.002263   0.002262  -0.000028
             19
     1  C   -0.011052
     2  C   -0.008285
     3  C   -0.000425
     4  C   -0.000014
     5  C   -0.030080
     6  N    0.000922
     7  N    0.304174
     8  O    0.001719
     9  O    0.025972
    10  H   -0.000005
    11  H   -0.000005
    12  H    0.001333
    13  H    0.000000
    14  H    0.000000
    15  H   -0.000014
    16  H    0.002263
    17  H    0.002262
    18  H   -0.000028
    19  H    0.281999
 Mulliken atomic charges:
              1
     1  C    0.767670
     2  C    0.767012
     3  C   -0.575009
     4  C   -0.289137
     5  C   -0.164832
     6  N   -0.802678
     7  N   -0.833101
     8  O   -0.634894
     9  O   -0.642757
    10  H    0.205721
    11  H    0.205707
    12  H    0.174782
    13  H    0.174499
    14  H    0.174477
    15  H    0.232441
    16  H    0.210187
    17  H    0.210146
    18  H    0.390501
    19  H    0.429267
 Sum of Mulliken atomic charges =   0.00000
 Mulliken charges with hydrogens summed into heavy atoms:
              1
     1  C    0.767670
     2  C    0.767012
     3  C    0.011201
     4  C    0.292280
     5  C    0.255501
     6  N   -0.412178
     7  N   -0.403834
     8  O   -0.634894
     9  O   -0.642757
 Sum of Mulliken charges with hydrogens summed into heavy atoms =   0.00000
 DipInt: DoE/N= T F RetVal/Mat= T F Init=T NMatP=  1 IDeriv=0 Min/MaxMlt=  0  4
 Entering OneElI...
 OneElI was handed    33490314 working-precision words.
 Multipole integrals L=0 to 4 MinM= 0 MaxM= 0.
 Requested accuracy = 0.1000D-12
 PrsmSu:  NPrtUS=   1 ThrOK=F IAlg=1 NPAlg=1 LenDen=           0.
 Prism:   IPart=     0 DynPar=F LinDyn=F Incr=          14.
 PRISM was handed    33363452 working-precision words and  1420 shell-pairs
 IPart=  0 NShTot=        1420 NBatch=          46 AvBLen=        30.9
 PrSmSu:  NxtVal=             15.
 Electronic moments (au):
        -70.00000000         -1.16484033         -0.04189944         -0.00047004
      -1544.19357208       -239.77412993        -56.73977610         12.02633213
          0.00123122          0.00154548        534.33614743        -34.24393842
          0.01794694       -259.24955269        -77.07309035         -0.45121265
          8.10911568          7.11122897         -0.00997580         -0.06821039
     -62982.95977060      -1969.59007175       -227.24055168      -2673.02460151
          0.00316726        483.16176705         -0.00620636         -0.01912500
         -0.03419054      -4852.12801577      -1612.97266362       -206.21723574
          0.03800171         -0.13983589       -100.28303765
 Electronic spatial extent (au):  <R**2>=           1840.7075
 DipInt: DoE/N= F T RetVal/Mat= T F Init=T NMatP=  1 IDeriv=0 Min/MaxMlt=  0  4
 Nuclear    moments (au):
         70.00000000          0.00000000          0.00000000          0.00000000
       1508.26890236        196.41988414         16.75013034          0.00000000
          0.00000000          0.00000000       -591.98450610         30.50940295
         -0.02314672        241.52665881        104.69542393          0.44764643
         -4.91043760         -8.96914737          0.01011189          0.06301808
      58049.45434839       1203.82981208         46.76835628       2885.03595113
         -0.00776953       -394.88332026          0.01313882          0.02936543
          0.03515039       3755.18757177        714.08565634         48.02260441
         -0.02629691          0.13441146         91.47822749
 Total      moments (au):
          0.00000000         -1.16484033         -0.04189944         -0.00047004
        -35.92466972        -43.35424579        -39.98964577         12.02633213
          0.00123122          0.00154548        -57.64835867         -3.73453547
         -0.00519979        -17.72289389         27.62233358         -0.00356621
          3.19867809         -1.85791839          0.00013608         -0.00519231
      -4933.50542220       -765.76025967       -180.47219540        212.01134962
         -0.00460227         88.27844679          0.00693246          0.01024043
          0.00095985      -1096.94044399       -898.88700728       -158.19463133
          0.01170480         -0.00542443         -8.80481015
 Traceless Quadrup. (au):
          3.83151737         -3.59805870         -0.23345867         12.02633213
          0.00123122          0.00154548
 Charge=              0.0000 electrons
 Dipole moment (field-independent basis, Debye):
    X=             -2.9607    Y=             -0.1065    Z=             -0.0012  Tot=              2.9626
 Quadrupole moment (field-independent basis, Debye-Ang):
   XX=            -48.3199   YY=            -58.3129   ZZ=            -53.7874
   XY=             16.1758   XZ=              0.0017   YZ=              0.0021
 Traceless Quadrupole moment (field-independent basis, Debye-Ang):
   XX=              5.1535   YY=             -4.8395   ZZ=             -0.3140
   XY=             16.1758   XZ=              0.0017   YZ=              0.0021
 Octapole moment (field-independent basis, Debye-Ang**2):
  XXX=            -41.0319  YYY=             -2.6581  ZZZ=             -0.0037  XYY=            -12.6145
  XXY=             19.6605  XXZ=             -0.0025  XZZ=              2.2767  YZZ=             -1.3224
  YYZ=              0.0001  XYZ=             -0.0037
 Hexadecapole moment (field-independent basis, Debye-Ang**3):
 XXXX=          -1858.1946 YYYY=           -288.4220 ZZZZ=            -67.9745 XXXY=             79.8536
 XXXZ=             -0.0017 YYYX=             33.2499 YYYZ=              0.0026 ZZZX=              0.0039
 ZZZY=              0.0004 XXYY=           -413.1603 XXZZ=           -338.5639 YYZZ=            -59.5837
 XXYZ=              0.0044 YYXZ=             -0.0020 ZZXY=             -3.3163
 N-N= 4.480851500488D+02 E-N=-1.960371577366D+03  KE= 4.525427725098D+02
 Entering OneElI...
 OneElI was handed    33441634 working-precision words.
 Calculate electrostatic properties
    NBasis =   155  MinDer = 0  MaxDer = 0
    NGrid  =    19  NMatD  =   1
 Requested accuracy = 0.1000D-12
 PrsmSu:  NPrtUS=   2 ThrOK=T IAlg=1 NPAlg=1 LenDen=           0.
 Prism:   IPart=     0 DynPar=F LinDyn=F Incr=         125.
 PRISM was handed    16639738 working-precision words and  1322 shell-pairs
 PRISM was handed    16639738 working-precision words and  1322 shell-pairs
 IPart=  1 NShTot=       12369 NBatch=         651 AvBLen=        19.0
 IPart=  0 NShTot=       12749 NBatch=         671 AvBLen=        19.0
 PrSmSu:  NxtVal=            251.
 --------------------------------------------------------
       Center         ----      EFG at Nuclei      ----
                      3XX-RR        3YY-RR        3ZZ-RR
 --------------------------------------------------------
     1   Atom        0.184743      0.372494     -0.557237
     2   Atom        0.242872      0.325505     -0.568377
     3   Atom       -0.007160     -0.030192      0.037352
     4   Atom       -0.240847      0.122282      0.118565
     5   Atom       -0.149752      0.001094      0.148658
     6   Atom       -0.522448     -0.507476      1.029924
     7   Atom       -0.547161     -0.441298      0.988460
     8   Atom        1.518219     -0.843904     -0.674315
     9   Atom        1.584329     -0.978275     -0.606054
    10   Atom       -0.001624      0.141203     -0.139579
    11   Atom       -0.001386      0.141285     -0.139899
    12   Atom        0.076066     -0.233252      0.157186
    13   Atom        0.024672      0.114721     -0.139393
    14   Atom        0.024872      0.114832     -0.139704
    15   Atom        0.132877     -0.286328      0.153452
    16   Atom        0.132316     -0.006650     -0.125665
    17   Atom        0.132310     -0.006379     -0.125932
    18   Atom        0.150379     -0.391092      0.240713
    19   Atom        0.127842     -0.354162      0.226321
 --------------------------------------------------------
                        XY            XZ            YZ
 --------------------------------------------------------
     1   Atom        0.056580      0.000148      0.000019
     2   Atom       -0.085024     -0.000170     -0.000008
     3   Atom       -0.046316      0.000004     -0.000047
     4   Atom        0.180770     -0.000064      0.000042
     5   Atom       -0.123941     -0.000011     -0.000071
     6   Atom       -0.000763      0.000181     -0.000159
     7   Atom       -0.088150     -0.000297     -0.000017
     8   Atom        0.584834      0.000546      0.000186
     9   Atom       -0.074429     -0.000574      0.000050
    10   Atom        0.024761     -0.208908      0.044112
    11   Atom        0.024528      0.208851     -0.043851
    12   Atom        0.151845      0.000090     -0.000230
    13   Atom       -0.054478      0.180843      0.103407
    14   Atom       -0.054321     -0.180777     -0.103299
    15   Atom       -0.029797     -0.000019     -0.000136
    16   Atom       -0.001563     -0.010006      0.204710
    17   Atom       -0.001612      0.009941     -0.204622
    18   Atom        0.050581      0.000033     -0.000251
    19   Atom        0.106152     -0.000021      0.000017
 --------------------------------------------------------


 ---------------------------------------------------------------------------------
              Nuclear Quadrupole in Principal Axis System
 ---------------------------------------------------------------------------------

       Atom             a.u.   MegaHertz   Gauss  10(-4) cm-1        Axes

              Baa    -0.5572   -74.776   -26.682   -24.943 -0.0002  0.0000  1.0000
     1 C(13)  Bbb     0.1690    22.680     8.093     7.565  0.9634 -0.2679  0.0002
              Bcc     0.3882    52.096    18.589    17.377  0.2679  0.9634  0.0001
 
              Baa    -0.5684   -76.271   -27.215   -25.441  0.0002  0.0000  1.0000
     2 C(13)  Bbb     0.1897    25.450     9.081     8.489  0.8477  0.5305 -0.0002
              Bcc     0.3787    50.821    18.134    16.952 -0.5305  0.8477  0.0001
 
              Baa    -0.0664    -8.911    -3.180    -2.972  0.6159  0.7878  0.0003
     3 C(13)  Bbb     0.0291     3.898     1.391     1.300  0.7878 -0.6159 -0.0039
              Bcc     0.0374     5.012     1.789     1.672  0.0028 -0.0026  1.0000
 
              Baa    -0.3155   -42.336   -15.107   -14.122  0.9243 -0.3817  0.0002
     4 C(13)  Bbb     0.1186    15.910     5.677     5.307 -0.0002 -0.0001  1.0000
              Bcc     0.1969    26.426     9.429     8.815  0.3817  0.9243  0.0002
 
              Baa    -0.2194   -29.443   -10.506    -9.821  0.8717  0.4900  0.0001
     5 C(13)  Bbb     0.0708     9.495     3.388     3.167 -0.4900  0.8717  0.0007
              Bcc     0.1487    19.949     7.118     6.654  0.0003 -0.0007  1.0000
 
              Baa    -0.5225   -20.151    -7.190    -6.722  0.9987  0.0508 -0.0001
     6 N(14)  Bbb    -0.5074   -19.571    -6.983    -6.528 -0.0508  0.9987  0.0001
              Bcc     1.0299    39.722    14.174    13.250  0.0001 -0.0001  1.0000
 
              Baa    -0.5971   -23.027    -8.217    -7.681  0.8703  0.4925  0.0002
     7 N(14)  Bbb    -0.3914   -15.096    -5.387    -5.035 -0.4925  0.8703 -0.0001
              Bcc     0.9885    38.123    13.603    12.716 -0.0002  0.0000  1.0000
 
              Baa    -0.9808    70.968    25.323    23.672 -0.2279  0.9737 -0.0002
     8 O(17)  Bbb    -0.6743    48.793    17.411    16.276 -0.0003  0.0001  1.0000
              Bcc     1.6551  -119.761   -42.734   -39.948  0.9737  0.2279  0.0002
 
              Baa    -0.9804    70.944    25.314    23.664  0.0290  0.9996 -0.0001
     9 O(17)  Bbb    -0.6061    43.854    15.648    14.628  0.0003  0.0001  1.0000
              Bcc     1.5865  -114.797   -40.963   -38.292  0.9996 -0.0290 -0.0003
 
              Baa    -0.2964  -158.132   -56.425   -52.747  0.5808 -0.1141  0.8060
    10 H(1)   Bbb     0.1423    75.936    27.096    25.330  0.5629  0.7716 -0.2964
              Bcc     0.1541    82.196    29.330    27.418 -0.5881  0.6258  0.5124
 
              Baa    -0.2964  -158.129   -56.424   -52.746 -0.5804  0.1133  0.8064
    11 H(1)   Bbb     0.1423    75.933    27.095    25.328  0.5630  0.7714  0.2968
              Bcc     0.1541    82.196    29.330    27.418 -0.5884  0.6262 -0.5115
 
              Baa    -0.2953  -157.576   -56.227   -52.562 -0.3784  0.9256  0.0005
    12 H(1)   Bbb     0.1381    73.709    26.301    24.587  0.9256  0.3784  0.0002
              Bcc     0.1572    83.867    29.926    27.975  0.0000 -0.0006  1.0000
 
              Baa    -0.2895  -154.461   -55.116   -51.523 -0.5150 -0.2769  0.8112
    13 H(1)   Bbb     0.1343    71.664    25.572    23.905  0.7763 -0.5519  0.3044
              Bcc     0.1552    82.797    29.544    27.618  0.3634  0.7866  0.4992
 
              Baa    -0.2895  -154.459   -55.115   -51.522  0.5145  0.2765  0.8117
    14 H(1)   Bbb     0.1343    71.662    25.571    23.904  0.7765 -0.5517 -0.3043
              Bcc     0.1552    82.797    29.544    27.618  0.3637  0.7868 -0.4986
 
              Baa    -0.2884  -153.896   -54.914   -51.334  0.0705  0.9975  0.0003
    15 H(1)   Bbb     0.1350    72.021    25.699    24.024  0.9975 -0.0705  0.0005
              Bcc     0.1535    81.875    29.215    27.310 -0.0005 -0.0003  1.0000
 
              Baa    -0.2795  -149.108   -53.205   -49.737  0.0172 -0.6000  0.7998
    16 H(1)   Bbb     0.1294    69.064    24.644    23.037  0.9242  0.3147  0.2162
              Bcc     0.1500    80.044    28.562    26.700 -0.3814  0.7355  0.5600
 
              Baa    -0.2794  -149.100   -53.203   -49.734 -0.0170  0.5995  0.8002
    17 H(1)   Bbb     0.1294    69.062    24.643    23.037  0.9243  0.3146 -0.2161
              Bcc     0.1500    80.038    28.560    26.698 -0.3812  0.7360 -0.5595
 
              Baa    -0.3958  -211.168   -75.350   -70.438 -0.0922  0.9957  0.0004
    18 H(1)   Bbb     0.1551    82.734    29.522    27.597  0.9957  0.0922 -0.0001
              Bcc     0.2407   128.433    45.828    42.841  0.0001 -0.0004  1.0000
 
              Baa    -0.3765  -200.885   -71.681   -67.008 -0.2060  0.9786  0.0000
    19 H(1)   Bbb     0.1502    80.131    28.593    26.729  0.9786  0.2060  0.0002
              Bcc     0.2263   120.754    43.088    40.279 -0.0002  0.0000  1.0000
 

 ---------------------------------------------------------------------------------

 No NMR shielding tensors so no spin-rotation constants.
 Leave Link  601 at Sat Feb 17 21:04:29 2018, MaxMem=   33554432 cpu:       0.4
 Merz-Kollman atomic radii used.
 Read replacement radii for each type of atom:
 Atom Element Radius
    1     6    1.50
    2     6    1.50
    3     6    1.50
    4     6    1.50
    5     6    1.50
    6     7    1.50
    7     7    1.50
    8     8    1.40
    9     8    1.40
   10     1    1.20
   11     1    1.20
   12     1    1.20
   13     1    1.20
   14     1    1.20
   15     1    1.20
   16     1    1.20
   17     1    1.20
   18     1    1.20
   19     1    1.20
 Generate VDW surfaces: Layer= 4 Dens= 1 Start= 1.400 Inc= 0.200

 **********************************************************************

            Electrostatic Properties Using The SCF Density

 **********************************************************************

       Atomic Center    1 is at   2.339352 -0.175688  0.000037
       Atomic Center    2 is at  -1.358804  0.155255 -0.000070
       Atomic Center    3 is at   3.406740  0.908416  0.000250
       Atomic Center    4 is at  -3.825278 -0.019031  0.000141
       Atomic Center    5 is at  -0.057549 -0.652850 -0.000418
       Atomic Center    6 is at  -2.491696 -0.596630  0.000395
       Atomic Center    7 is at   1.051850  0.265770 -0.000215
       Atomic Center    8 is at   2.616321 -1.371405  0.000094
       Atomic Center    9 is at  -1.354815  1.383170 -0.000155
       Atomic Center   10 is at   4.042563  0.778046  0.881457
       Atomic Center   11 is at   4.042073  0.778924 -0.881448
       Atomic Center   12 is at   3.000706  1.924649  0.000854
       Atomic Center   13 is at  -4.386514 -0.321496  0.891720
       Atomic Center   14 is at  -4.386025 -0.321014 -0.891912
       Atomic Center   15 is at  -3.711596  1.065502  0.000475
       Atomic Center   16 is at  -0.020559 -1.311982  0.878537
       Atomic Center   17 is at  -0.020789 -1.311414 -0.879826
       Atomic Center   18 is at  -2.400392 -1.603193 -0.000018
       Atomic Center   19 is at   0.800636  1.247269 -0.000254
      ESP Fit Center   20 is at   2.339352 -0.175688  2.100037
      ESP Fit Center   21 is at   1.814352 -1.085015  1.818691
      ESP Fit Center   22 is at   1.814352 -1.085015 -1.818616
      ESP Fit Center   23 is at   2.339352 -0.175688 -2.099963
      ESP Fit Center   24 is at  -1.358804  0.155255  2.099930
      ESP Fit Center   25 is at  -1.358804  0.155255 -2.100070
      ESP Fit Center   26 is at   2.881740  1.817743  1.818903
      ESP Fit Center   27 is at   2.356740  0.908416  1.818903
      ESP Fit Center   28 is at   4.162236  2.562722  1.050250
      ESP Fit Center   29 is at   5.506740  0.908416  0.000250
      ESP Fit Center   30 is at   5.266198  1.884335  0.000250
      ESP Fit Center   31 is at   4.599676  2.636682  0.000250
      ESP Fit Center   32 is at   4.599676 -0.819850  0.000250
      ESP Fit Center   33 is at   5.266198 -0.067502  0.000250
      ESP Fit Center   34 is at   4.162236  2.562722 -1.049750
      ESP Fit Center   35 is at   2.881740  1.817743 -1.818404
      ESP Fit Center   36 is at   2.356740  0.908416 -1.818404
      ESP Fit Center   37 is at  -3.300278  0.890296  1.818795
      ESP Fit Center   38 is at  -5.016242  1.355416  1.050141
      ESP Fit Center   39 is at  -5.397150  1.373527  0.000141
      ESP Fit Center   40 is at  -5.864255  0.483532  0.000141
      ESP Fit Center   41 is at  -5.864255 -0.521594  0.000141
      ESP Fit Center   42 is at  -5.397150 -1.411588  0.000141
      ESP Fit Center   43 is at  -4.569948 -1.982565  0.000141
      ESP Fit Center   44 is at  -5.016242  1.355416 -1.049859
      ESP Fit Center   45 is at  -3.300278  0.890296 -1.818512
      ESP Fit Center   46 is at  -0.802219 -2.616384 -0.000418
      ESP Fit Center   47 is at   0.195578 -2.737539 -0.000418
      ESP Fit Center   48 is at  -2.491696 -0.596630  2.100395
      ESP Fit Center   49 is at  -3.016696 -1.505957  1.819049
      ESP Fit Center   50 is at  -1.966696 -1.505957  1.819049
      ESP Fit Center   51 is at  -3.682661 -1.971077  1.050395
      ESP Fit Center   52 is at  -3.682661 -1.971077 -1.049605
      ESP Fit Center   53 is at  -3.016696 -1.505957 -1.818258
      ESP Fit Center   54 is at  -1.966696 -1.505957 -1.818258
      ESP Fit Center   55 is at  -2.491696 -0.596630 -2.099605
      ESP Fit Center   56 is at   1.051850  0.265770  2.099785
      ESP Fit Center   57 is at   1.576850  1.175096  1.818438
      ESP Fit Center   58 is at   0.526850  1.175096  1.818438
      ESP Fit Center   59 is at   1.576850  1.175096 -1.818869
      ESP Fit Center   60 is at   0.526850  1.175096 -1.818869
      ESP Fit Center   61 is at   1.051850  0.265770 -2.100215
      ESP Fit Center   62 is at   2.616321 -1.371405  1.960094
      ESP Fit Center   63 is at   3.596321 -1.371405  1.697504
      ESP Fit Center   64 is at   1.636321 -1.371405  1.697504
      ESP Fit Center   65 is at   2.126321 -2.220110  1.697504
      ESP Fit Center   66 is at   3.106321 -2.220110  1.697504
      ESP Fit Center   67 is at   4.313731 -1.371405  0.980094
      ESP Fit Center   68 is at   2.091793 -2.985738  0.980094
      ESP Fit Center   69 is at   3.140850 -2.985738  0.980094
      ESP Fit Center   70 is at   3.989555 -2.369117  0.980094
      ESP Fit Center   71 is at   4.576321 -1.371405  0.000094
      ESP Fit Center   72 is at   1.636321 -3.068815  0.000094
      ESP Fit Center   73 is at   2.616321 -3.331405  0.000094
      ESP Fit Center   74 is at   3.596321 -3.068815  0.000094
      ESP Fit Center   75 is at   4.313731 -2.351405  0.000094
      ESP Fit Center   76 is at   4.313731 -1.371405 -0.979906
      ESP Fit Center   77 is at   2.091793 -2.985738 -0.979906
      ESP Fit Center   78 is at   3.140850 -2.985738 -0.979906
      ESP Fit Center   79 is at   3.989555 -2.369117 -0.979906
      ESP Fit Center   80 is at   3.596321 -1.371405 -1.697316
      ESP Fit Center   81 is at   1.636321 -1.371405 -1.697316
      ESP Fit Center   82 is at   2.126321 -2.220110 -1.697316
      ESP Fit Center   83 is at   3.106321 -2.220110 -1.697316
      ESP Fit Center   84 is at   2.616321 -1.371405 -1.959906
      ESP Fit Center   85 is at  -1.354815  1.383170  1.959845
      ESP Fit Center   86 is at  -0.374815  1.383170  1.697255
      ESP Fit Center   87 is at  -0.864815  2.231875  1.697255
      ESP Fit Center   88 is at  -1.844815  2.231875  1.697255
      ESP Fit Center   89 is at  -2.334815  1.383170  1.697255
      ESP Fit Center   90 is at   0.018418  2.380883  0.979845
      ESP Fit Center   91 is at  -0.830287  2.997503  0.979845
      ESP Fit Center   92 is at  -1.879343  2.997503  0.979845
      ESP Fit Center   93 is at  -2.728048  2.380883  0.979845
      ESP Fit Center   94 is at  -0.374815  3.080580 -0.000155
      ESP Fit Center   95 is at  -1.354815  3.343170 -0.000155
      ESP Fit Center   96 is at  -2.334815  3.080580 -0.000155
      ESP Fit Center   97 is at   0.018418  2.380883 -0.980155
      ESP Fit Center   98 is at  -0.830287  2.997503 -0.980155
      ESP Fit Center   99 is at  -1.879343  2.997503 -0.980155
      ESP Fit Center  100 is at  -2.728048  2.380883 -0.980155
      ESP Fit Center  101 is at  -0.374815  1.383170 -1.697565
      ESP Fit Center  102 is at  -0.864815  2.231875 -1.697565
      ESP Fit Center  103 is at  -1.844815  2.231875 -1.697565
      ESP Fit Center  104 is at  -2.334815  1.383170 -1.697565
      ESP Fit Center  105 is at  -1.354815  1.383170 -1.960155
      ESP Fit Center  106 is at   4.042563  0.778046  2.561457
      ESP Fit Center  107 is at   5.030042  0.778046  2.240605
      ESP Fit Center  108 is at   4.347711  1.717194  2.240605
      ESP Fit Center  109 is at   3.243675  1.358472  2.240605
      ESP Fit Center  110 is at   3.243675  0.197620  2.240605
      ESP Fit Center  111 is at   4.347711 -0.161103  2.240605
      ESP Fit Center  112 is at   5.640338  0.778046  1.400605
      ESP Fit Center  113 is at   5.266529  1.805076  1.400605
      ESP Fit Center  114 is at   4.320013  2.351547  1.400605
      ESP Fit Center  115 is at   4.320013 -0.795455  1.400605
      ESP Fit Center  116 is at   5.266529 -0.248984  1.400605
      ESP Fit Center  117 is at   5.640338  0.778046  0.362308
      ESP Fit Center  118 is at   5.266529 -0.248984  0.362308
      ESP Fit Center  119 is at   5.639848  0.778924 -0.362300
      ESP Fit Center  120 is at   5.266040 -0.248106 -0.362300
      ESP Fit Center  121 is at   5.639848  0.778924 -1.400597
      ESP Fit Center  122 is at   5.266040  1.805953 -1.400597
      ESP Fit Center  123 is at   4.319524  2.352425 -1.400597
      ESP Fit Center  124 is at   4.319524 -0.794578 -1.400597
      ESP Fit Center  125 is at   5.266040 -0.248106 -1.400597
      ESP Fit Center  126 is at   5.029552  0.778924 -2.240597
      ESP Fit Center  127 is at   4.347221  1.718072 -2.240597
      ESP Fit Center  128 is at   3.243186  1.359349 -2.240597
      ESP Fit Center  129 is at   3.243186  0.198498 -2.240597
      ESP Fit Center  130 is at   4.347221 -0.160225 -2.240597
      ESP Fit Center  131 is at   4.042073  0.778924 -2.561448
      ESP Fit Center  132 is at   3.305854  2.863797  1.360002
      ESP Fit Center  133 is at   2.201818  2.505074  1.360002
      ESP Fit Center  134 is at   4.224672  2.951679  0.520002
      ESP Fit Center  135 is at   3.278156  3.498150  0.520002
      ESP Fit Center  136 is at   2.201818  3.308362  0.520002
      ESP Fit Center  137 is at   4.224672  2.951679 -0.518295
      ESP Fit Center  138 is at   3.278156  3.498150 -0.518295
      ESP Fit Center  139 is at   2.201818  3.308362 -0.518295
      ESP Fit Center  140 is at   3.305854  2.863797 -1.358295
      ESP Fit Center  141 is at   2.201818  2.505074 -1.358295
      ESP Fit Center  142 is at  -4.386514 -0.321496  2.571720
      ESP Fit Center  143 is at  -3.399035 -0.321496  2.250868
      ESP Fit Center  144 is at  -4.081366  0.617653  2.250868
      ESP Fit Center  145 is at  -5.185401  0.258930  2.250868
      ESP Fit Center  146 is at  -5.185401 -0.901922  2.250868
      ESP Fit Center  147 is at  -4.081366 -1.260644  2.250868
      ESP Fit Center  148 is at  -5.185401  1.062218  1.410868
      ESP Fit Center  149 is at  -5.887931  0.224975  1.410868
      ESP Fit Center  150 is at  -5.887931 -0.867967  1.410868
      ESP Fit Center  151 is at  -5.185401 -1.705210  1.410868
      ESP Fit Center  152 is at  -4.109063 -1.894997  1.410868
      ESP Fit Center  153 is at  -5.887931  0.224975  0.372571
      ESP Fit Center  154 is at  -5.887931 -0.867967  0.372571
      ESP Fit Center  155 is at  -5.185401 -1.705210  0.372571
      ESP Fit Center  156 is at  -5.887443  0.225458 -0.372764
      ESP Fit Center  157 is at  -5.887443 -0.867485 -0.372764
      ESP Fit Center  158 is at  -5.184913 -1.704727 -0.372764
      ESP Fit Center  159 is at  -5.184913  1.062700 -1.411061
      ESP Fit Center  160 is at  -5.887443  0.225458 -1.411061
      ESP Fit Center  161 is at  -5.887443 -0.867485 -1.411061
      ESP Fit Center  162 is at  -5.184913 -1.704727 -1.411061
      ESP Fit Center  163 is at  -4.108575 -1.894515 -1.411061
      ESP Fit Center  164 is at  -3.398546 -0.321014 -2.251061
      ESP Fit Center  165 is at  -4.080877  0.618135 -2.251061
      ESP Fit Center  166 is at  -5.184913  0.259412 -2.251061
      ESP Fit Center  167 is at  -5.184913 -0.901439 -2.251061
      ESP Fit Center  168 is at  -4.080877 -1.260162 -2.251061
      ESP Fit Center  169 is at  -4.386025 -0.321014 -2.571912
      ESP Fit Center  170 is at  -3.406448  2.004651  1.359624
      ESP Fit Center  171 is at  -4.510484  1.645928  1.359624
      ESP Fit Center  172 is at  -3.434146  2.639003  0.519624
      ESP Fit Center  173 is at  -4.510484  2.449216  0.519624
      ESP Fit Center  174 is at  -5.213014  1.611973  0.519624
      ESP Fit Center  175 is at  -3.434146  2.639003 -0.518673
      ESP Fit Center  176 is at  -4.510484  2.449216 -0.518673
      ESP Fit Center  177 is at  -5.213014  1.611973 -0.518673
      ESP Fit Center  178 is at  -3.406448  2.004651 -1.358673
      ESP Fit Center  179 is at  -4.510484  1.645928 -1.358673
      ESP Fit Center  180 is at  -0.020559 -1.311982  2.558537
      ESP Fit Center  181 is at   0.966920 -1.311982  2.237685
      ESP Fit Center  182 is at   0.284589 -0.372834  2.237685
      ESP Fit Center  183 is at  -0.819447 -0.731557  2.237685
      ESP Fit Center  184 is at  -0.819447 -1.892408  2.237685
      ESP Fit Center  185 is at   0.284589 -2.251131  2.237685
      ESP Fit Center  186 is at  -0.819447 -2.695696  1.397685
      ESP Fit Center  187 is at   0.256892 -2.885484  1.397685
      ESP Fit Center  188 is at   1.203407 -2.339012  1.397685
      ESP Fit Center  189 is at  -0.819447 -2.695696  0.359388
      ESP Fit Center  190 is at   0.256892 -2.885484  0.359388
      ESP Fit Center  191 is at  -0.819676 -2.695128 -0.360678
      ESP Fit Center  192 is at   0.256662 -2.884915 -0.360678
      ESP Fit Center  193 is at  -0.819676 -2.695128 -1.398975
      ESP Fit Center  194 is at   0.256662 -2.884915 -1.398975
      ESP Fit Center  195 is at   1.203178 -2.338444 -1.398975
      ESP Fit Center  196 is at   0.966690 -1.311414 -2.238975
      ESP Fit Center  197 is at   0.284359 -0.372266 -2.238975
      ESP Fit Center  198 is at  -0.819676 -0.730988 -2.238975
      ESP Fit Center  199 is at  -0.819676 -1.891840 -2.238975
      ESP Fit Center  200 is at   0.284359 -2.250563 -2.238975
      ESP Fit Center  201 is at  -0.020789 -1.311414 -2.559826
      ESP Fit Center  202 is at  -3.199279 -2.183619  1.359130
      ESP Fit Center  203 is at  -2.095244 -2.542342  1.359130
      ESP Fit Center  204 is at  -3.901809 -2.149664  0.519130
      ESP Fit Center  205 is at  -3.199279 -2.986907  0.519130
      ESP Fit Center  206 is at  -2.122941 -3.176694  0.519130
      ESP Fit Center  207 is at  -1.176425 -2.630223  0.519130
      ESP Fit Center  208 is at  -3.901809 -2.149664 -0.519167
      ESP Fit Center  209 is at  -3.199279 -2.986907 -0.519167
      ESP Fit Center  210 is at  -2.122941 -3.176694 -0.519167
      ESP Fit Center  211 is at  -1.176425 -2.630223 -0.519167
      ESP Fit Center  212 is at  -3.199279 -2.183619 -1.359167
      ESP Fit Center  213 is at  -2.095244 -2.542342 -1.359167
      ESP Fit Center  214 is at   1.105784  2.186417  1.358894
      ESP Fit Center  215 is at   0.001749  1.827694  1.358894
      ESP Fit Center  216 is at   1.078087  2.820770  0.518894
      ESP Fit Center  217 is at   1.078087  2.820770 -0.519403
      ESP Fit Center  218 is at   1.105784  2.186417 -1.359403
      ESP Fit Center  219 is at   0.001749  1.827694 -1.359403
      ESP Fit Center  220 is at   2.339352 -0.175688  2.400037
      ESP Fit Center  221 is at   1.818692 -1.077498  2.162363
      ESP Fit Center  222 is at   1.818692 -1.077498 -2.162288
      ESP Fit Center  223 is at   2.339352 -0.175688 -2.399963
      ESP Fit Center  224 is at  -1.358804  0.155255  2.399930
      ESP Fit Center  225 is at  -0.838143  1.057066  2.162256
      ESP Fit Center  226 is at  -1.879464  1.057066  2.162256
      ESP Fit Center  227 is at  -0.838143  1.057066 -2.162395
      ESP Fit Center  228 is at  -1.879464  1.057066 -2.162395
      ESP Fit Center  229 is at  -1.358804  0.155255 -2.400070
      ESP Fit Center  230 is at   2.886079  1.810227  2.162575
      ESP Fit Center  231 is at   2.365419  0.908416  2.162575
      ESP Fit Center  232 is at   4.186223  2.615246  1.496625
      ESP Fit Center  233 is at   4.865598  2.737767  0.534300
      ESP Fit Center  234 is at   4.865598  2.737767 -0.533801
      ESP Fit Center  235 is at   4.865598 -0.920934 -0.533801
      ESP Fit Center  236 is at   4.186223  2.615246 -1.496126
      ESP Fit Center  237 is at   2.886079  1.810227 -2.162076
      ESP Fit Center  238 is at   2.365419  0.908416 -2.162076
      ESP Fit Center  239 is at  -3.304617  0.882780  2.162467
      ESP Fit Center  240 is at  -5.054055  1.399054  1.496517
      ESP Fit Center  241 is at  -5.933389  0.996182  0.534192
      ESP Fit Center  242 is at  -4.345938 -2.300194  0.534192
      ESP Fit Center  243 is at  -5.933389  0.996182 -0.533909
      ESP Fit Center  244 is at  -4.345938 -2.300194 -0.533909
      ESP Fit Center  245 is at  -5.054055  1.399054 -1.496234
      ESP Fit Center  246 is at  -3.304617  0.882780 -2.162184
      ESP Fit Center  247 is at  -2.491696 -0.596630  2.400395
      ESP Fit Center  248 is at  -3.012357 -1.498441  2.162721
      ESP Fit Center  249 is at  -1.971036 -1.498441  2.162721
      ESP Fit Center  250 is at  -3.012357 -1.498441 -2.161930
      ESP Fit Center  251 is at  -1.971036 -1.498441 -2.161930
      ESP Fit Center  252 is at  -2.491696 -0.596630 -2.399605
      ESP Fit Center  253 is at   1.051850  0.265770  2.399785
      ESP Fit Center  254 is at   1.572510  1.167580  2.162110
      ESP Fit Center  255 is at   0.531189  1.167580  2.162110
      ESP Fit Center  256 is at   1.572510  1.167580 -2.162541
      ESP Fit Center  257 is at   0.531189  1.167580 -2.162541
      ESP Fit Center  258 is at   1.051850  0.265770 -2.400215
      ESP Fit Center  259 is at   2.616321 -1.371405  2.240094
      ESP Fit Center  260 is at   3.588221 -1.371405  2.018264
      ESP Fit Center  261 is at   1.644422 -1.371405  2.018264
      ESP Fit Center  262 is at   2.130372 -2.213095  2.018264
      ESP Fit Center  263 is at   3.102271 -2.213095  2.018264
      ESP Fit Center  264 is at   4.367624 -1.371405  1.396711
      ESP Fit Center  265 is at   2.075139 -3.036993  1.396711
      ESP Fit Center  266 is at   3.157504 -3.036993  1.396711
      ESP Fit Center  267 is at   4.033155 -2.400795  1.396711
      ESP Fit Center  268 is at   4.800160 -1.371405  0.498541
      ESP Fit Center  269 is at   1.841922 -3.413330  0.498541
      ESP Fit Center  270 is at   2.879554 -3.539321  0.498541
      ESP Fit Center  271 is at   3.856883 -3.168669  0.498541
      ESP Fit Center  272 is at   4.550014 -2.386285  0.498541
      ESP Fit Center  273 is at   4.800160 -1.371405 -0.498353
      ESP Fit Center  274 is at   1.841922 -3.413330 -0.498353
      ESP Fit Center  275 is at   2.879554 -3.539321 -0.498353
      ESP Fit Center  276 is at   3.856883 -3.168669 -0.498353
      ESP Fit Center  277 is at   4.550014 -2.386285 -0.498353
      ESP Fit Center  278 is at   4.367624 -1.371405 -1.396523
      ESP Fit Center  279 is at   2.075139 -3.036993 -1.396523
      ESP Fit Center  280 is at   3.157504 -3.036993 -1.396523
      ESP Fit Center  281 is at   4.033155 -2.400795 -1.396523
      ESP Fit Center  282 is at   3.588221 -1.371405 -2.018076
      ESP Fit Center  283 is at   1.644422 -1.371405 -2.018076
      ESP Fit Center  284 is at   2.130372 -2.213095 -2.018076
      ESP Fit Center  285 is at   3.102271 -2.213095 -2.018076
      ESP Fit Center  286 is at   2.616321 -1.371405 -2.239906
      ESP Fit Center  287 is at  -1.354815  1.383170  2.239845
      ESP Fit Center  288 is at  -0.382915  1.383170  2.018016
      ESP Fit Center  289 is at  -0.868865  2.224860  2.018016
      ESP Fit Center  290 is at  -1.840765  2.224860  2.018016
      ESP Fit Center  291 is at  -2.326715  1.383170  2.018016
      ESP Fit Center  292 is at   0.062019  2.412560  1.396462
      ESP Fit Center  293 is at  -0.813633  3.048758  1.396462
      ESP Fit Center  294 is at  -1.895997  3.048758  1.396462
      ESP Fit Center  295 is at  -2.771648  2.412560  1.396462
      ESP Fit Center  296 is at  -0.114253  3.180434  0.498292
      ESP Fit Center  297 is at  -1.091582  3.551086  0.498292
      ESP Fit Center  298 is at  -2.129215  3.425095  0.498292
      ESP Fit Center  299 is at  -2.989442  2.831323  0.498292
      ESP Fit Center  300 is at  -0.114253  3.180434 -0.498602
      ESP Fit Center  301 is at  -1.091582  3.551086 -0.498602
      ESP Fit Center  302 is at  -2.129215  3.425095 -0.498602
      ESP Fit Center  303 is at  -2.989442  2.831323 -0.498602
      ESP Fit Center  304 is at   0.062019  2.412560 -1.396772
      ESP Fit Center  305 is at  -0.813633  3.048758 -1.396772
      ESP Fit Center  306 is at  -1.895997  3.048758 -1.396772
      ESP Fit Center  307 is at  -2.771648  2.412560 -1.396772
      ESP Fit Center  308 is at  -0.382915  1.383170 -2.018325
      ESP Fit Center  309 is at  -0.868865  2.224860 -2.018325
      ESP Fit Center  310 is at  -1.840765  2.224860 -2.018325
      ESP Fit Center  311 is at  -2.326715  1.383170 -2.018325
      ESP Fit Center  312 is at  -1.354815  1.383170 -2.240155
      ESP Fit Center  313 is at   4.042563  0.778046  2.801457
      ESP Fit Center  314 is at   5.002563  0.778046  2.544226
      ESP Fit Center  315 is at   4.522563  1.609430  2.544226
      ESP Fit Center  316 is at   3.562563  1.609430  2.544226
      ESP Fit Center  317 is at   3.082563  0.778046  2.544226
      ESP Fit Center  318 is at   3.562563 -0.053339  2.544226
      ESP Fit Center  319 is at   4.522563 -0.053339  2.544226
      ESP Fit Center  320 is at   5.705332  0.778046  1.841457
      ESP Fit Center  321 is at   5.387771  1.755397  1.841457
      ESP Fit Center  322 is at   4.556387  2.359433  1.841457
      ESP Fit Center  323 is at   4.556387 -0.803341  1.841457
      ESP Fit Center  324 is at   5.387771 -0.199305  1.841457
      ESP Fit Center  325 is at   5.962563  0.778046  0.881457
      ESP Fit Center  326 is at   5.705332  1.738046  0.881457
      ESP Fit Center  327 is at   5.002563 -0.884723  0.881457
      ESP Fit Center  328 is at   5.705332 -0.181954  0.881457
      ESP Fit Center  329 is at   5.962073  0.778924 -0.881448
      ESP Fit Center  330 is at   5.704842  1.738924 -0.881448
      ESP Fit Center  331 is at   5.002073 -0.883845 -0.881448
      ESP Fit Center  332 is at   5.704842 -0.181076 -0.881448
      ESP Fit Center  333 is at   5.704842  0.778924 -1.841448
      ESP Fit Center  334 is at   5.387281  1.756274 -1.841448
      ESP Fit Center  335 is at   4.555897  2.360311 -1.841448
      ESP Fit Center  336 is at   4.555897 -0.802464 -1.841448
      ESP Fit Center  337 is at   5.387281 -0.198427 -1.841448
      ESP Fit Center  338 is at   5.002073  0.778924 -2.544217
      ESP Fit Center  339 is at   4.522073  1.610308 -2.544217
      ESP Fit Center  340 is at   3.562073  1.610308 -2.544217
      ESP Fit Center  341 is at   3.082073  0.778924 -2.544217
      ESP Fit Center  342 is at   3.562073 -0.052461 -2.544217
      ESP Fit Center  343 is at   4.522073 -0.052461 -2.544217
      ESP Fit Center  344 is at   4.042073  0.778924 -2.801448
      ESP Fit Center  345 is at   3.480706  2.756033  1.663623
      ESP Fit Center  346 is at   2.520706  2.756033  1.663623
      ESP Fit Center  347 is at   4.345914  2.902000  0.960854
      ESP Fit Center  348 is at   3.514530  3.506036  0.960854
      ESP Fit Center  349 is at   2.486882  3.506036  0.960854
      ESP Fit Center  350 is at   1.655498  2.902000  0.960854
      ESP Fit Center  351 is at   3.960706  3.587417  0.000854
      ESP Fit Center  352 is at   3.000706  3.844649  0.000854
      ESP Fit Center  353 is at   2.040706  3.587417  0.000854
      ESP Fit Center  354 is at   4.345914  2.902000 -0.959146
      ESP Fit Center  355 is at   3.514530  3.506036 -0.959146
      ESP Fit Center  356 is at   2.486882  3.506036 -0.959146
      ESP Fit Center  357 is at   1.655498  2.902000 -0.959146
      ESP Fit Center  358 is at   3.480706  2.756033 -1.661915
      ESP Fit Center  359 is at   2.520706  2.756033 -1.661915
      ESP Fit Center  360 is at  -4.386514 -0.321496  2.811720
      ESP Fit Center  361 is at  -3.426514 -0.321496  2.554489
      ESP Fit Center  362 is at  -3.906514  0.509889  2.554489
      ESP Fit Center  363 is at  -4.866514  0.509889  2.554489
      ESP Fit Center  364 is at  -5.346514 -0.321496  2.554489
      ESP Fit Center  365 is at  -4.866514 -1.152880  2.554489
      ESP Fit Center  366 is at  -3.906514 -1.152880  2.554489
      ESP Fit Center  367 is at  -4.900338  1.259891  1.851720
      ESP Fit Center  368 is at  -5.731722  0.655855  1.851720
      ESP Fit Center  369 is at  -6.049283 -0.321496  1.851720
      ESP Fit Center  370 is at  -5.731722 -1.298847  1.851720
      ESP Fit Center  371 is at  -4.900338 -1.902883  1.851720
      ESP Fit Center  372 is at  -3.872690 -1.902883  1.851720
      ESP Fit Center  373 is at  -6.049283  0.638504  0.891720
      ESP Fit Center  374 is at  -6.306514 -0.321496  0.891720
      ESP Fit Center  375 is at  -6.049283 -1.281496  0.891720
      ESP Fit Center  376 is at  -5.346514 -1.984265  0.891720
      ESP Fit Center  377 is at  -4.386514 -2.241496  0.891720
      ESP Fit Center  378 is at  -6.048794  0.638986 -0.891912
      ESP Fit Center  379 is at  -6.306025 -0.321014 -0.891912
      ESP Fit Center  380 is at  -6.048794 -1.281014 -0.891912
      ESP Fit Center  381 is at  -5.346025 -1.983782 -0.891912
      ESP Fit Center  382 is at  -4.386025 -2.241014 -0.891912
      ESP Fit Center  383 is at  -4.899849  1.260373 -1.851912
      ESP Fit Center  384 is at  -5.731234  0.656337 -1.851912
      ESP Fit Center  385 is at  -6.048794 -0.321014 -1.851912
      ESP Fit Center  386 is at  -5.731234 -1.298365 -1.851912
      ESP Fit Center  387 is at  -4.899849 -1.902401 -1.851912
      ESP Fit Center  388 is at  -3.872202 -1.902401 -1.851912
      ESP Fit Center  389 is at  -3.426025 -0.321014 -2.554681
      ESP Fit Center  390 is at  -3.906025  0.510371 -2.554681
      ESP Fit Center  391 is at  -4.866025  0.510371 -2.554681
      ESP Fit Center  392 is at  -5.346025 -0.321014 -2.554681
      ESP Fit Center  393 is at  -4.866025 -1.152398 -2.554681
      ESP Fit Center  394 is at  -3.906025 -1.152398 -2.554681
      ESP Fit Center  395 is at  -4.386025 -0.321014 -2.811912
      ESP Fit Center  396 is at  -3.231596  1.896887  1.663244
      ESP Fit Center  397 is at  -4.191596  1.896887  1.663244
      ESP Fit Center  398 is at  -3.197772  2.646889  0.960475
      ESP Fit Center  399 is at  -4.225420  2.646889  0.960475
      ESP Fit Center  400 is at  -5.056804  2.042853  0.960475
      ESP Fit Center  401 is at  -3.711596  2.985502  0.000475
      ESP Fit Center  402 is at  -4.671596  2.728271  0.000475
      ESP Fit Center  403 is at  -5.374365  2.025502  0.000475
      ESP Fit Center  404 is at  -3.197772  2.646889 -0.959525
      ESP Fit Center  405 is at  -4.225420  2.646889 -0.959525
      ESP Fit Center  406 is at  -5.056804  2.042853 -0.959525
      ESP Fit Center  407 is at  -3.231596  1.896887 -1.662294
      ESP Fit Center  408 is at  -4.191596  1.896887 -1.662294
      ESP Fit Center  409 is at  -0.020559 -1.311982  2.798537
      ESP Fit Center  410 is at   0.939441 -1.311982  2.541305
      ESP Fit Center  411 is at   0.459441 -0.480598  2.541305
      ESP Fit Center  412 is at  -0.500559 -0.480598  2.541305
      ESP Fit Center  413 is at  -0.980559 -1.311982  2.541305
      ESP Fit Center  414 is at  -0.500559 -2.143367  2.541305
      ESP Fit Center  415 is at   0.459441 -2.143367  2.541305
      ESP Fit Center  416 is at  -1.365767 -2.289333  1.838537
      ESP Fit Center  417 is at  -0.534383 -2.893369  1.838537
      ESP Fit Center  418 is at   0.493265 -2.893369  1.838537
      ESP Fit Center  419 is at   1.324649 -2.289333  1.838537
      ESP Fit Center  420 is at  -0.980559 -2.974751  0.878537
      ESP Fit Center  421 is at  -0.020559 -3.231982  0.878537
      ESP Fit Center  422 is at   0.939441 -2.974751  0.878537
      ESP Fit Center  423 is at  -0.980789 -2.974183 -0.879826
      ESP Fit Center  424 is at  -0.020789 -3.231414 -0.879826
      ESP Fit Center  425 is at   0.939211 -2.974183 -0.879826
      ESP Fit Center  426 is at  -1.365997 -2.288765 -1.839826
      ESP Fit Center  427 is at  -0.534613 -2.892801 -1.839826
      ESP Fit Center  428 is at   0.493035 -2.892801 -1.839826
      ESP Fit Center  429 is at   1.324419 -2.288765 -1.839826
      ESP Fit Center  430 is at   0.939211 -1.311414 -2.542595
      ESP Fit Center  431 is at   0.459211 -0.480030 -2.542595
      ESP Fit Center  432 is at  -0.500789 -0.480030 -2.542595
      ESP Fit Center  433 is at  -0.980789 -1.311414 -2.542595
      ESP Fit Center  434 is at  -0.500789 -2.142798 -2.542595
      ESP Fit Center  435 is at   0.459211 -2.142798 -2.542595
      ESP Fit Center  436 is at  -0.020789 -1.311414 -2.799826
      ESP Fit Center  437 is at  -2.880392 -2.434578  1.662751
      ESP Fit Center  438 is at  -1.920392 -2.434578  1.662751
      ESP Fit Center  439 is at  -3.745600 -2.580544  0.959982
      ESP Fit Center  440 is at  -2.914216 -3.184580  0.959982
      ESP Fit Center  441 is at  -1.886568 -3.184580  0.959982
      ESP Fit Center  442 is at  -4.063161 -2.563193 -0.000018
      ESP Fit Center  443 is at  -3.360392 -3.265962 -0.000018
      ESP Fit Center  444 is at  -2.400392 -3.523193 -0.000018
      ESP Fit Center  445 is at  -1.440392 -3.265962 -0.000018
      ESP Fit Center  446 is at  -3.745600 -2.580544 -0.960018
      ESP Fit Center  447 is at  -2.914216 -3.184580 -0.960018
      ESP Fit Center  448 is at  -1.886568 -3.184580 -0.960018
      ESP Fit Center  449 is at  -2.880392 -2.434578 -1.662787
      ESP Fit Center  450 is at  -1.920392 -2.434578 -1.662787
      ESP Fit Center  451 is at   1.280636  2.078653  1.662515
      ESP Fit Center  452 is at   0.320636  2.078653  1.662515
      ESP Fit Center  453 is at   1.314460  2.828656  0.959746
      ESP Fit Center  454 is at   0.286812  2.828656  0.959746
      ESP Fit Center  455 is at   0.800636  3.167269 -0.000254
      ESP Fit Center  456 is at   1.314460  2.828656 -0.960254
      ESP Fit Center  457 is at   0.286812  2.828656 -0.960254
      ESP Fit Center  458 is at   1.280636  2.078653 -1.663023
      ESP Fit Center  459 is at   0.320636  2.078653 -1.663023
      ESP Fit Center  460 is at   2.339352 -0.175688  2.700037
      ESP Fit Center  461 is at   1.822730 -1.070505  2.494512
      ESP Fit Center  462 is at   2.855975 -1.070505  2.494512
      ESP Fit Center  463 is at   1.822730 -1.070505 -2.494437
      ESP Fit Center  464 is at   2.855975 -1.070505 -2.494437
      ESP Fit Center  465 is at   2.339352 -0.175688 -2.699963
      ESP Fit Center  466 is at  -1.358804  0.155255  2.699930
      ESP Fit Center  467 is at  -0.842181  1.050072  2.494405
      ESP Fit Center  468 is at  -1.875426  1.050072  2.494405
      ESP Fit Center  469 is at  -0.842181  1.050072 -2.494544
      ESP Fit Center  470 is at  -1.875426  1.050072 -2.494544
      ESP Fit Center  471 is at  -1.358804  0.155255 -2.700070
      ESP Fit Center  472 is at   2.890117  1.803233  2.494724
      ESP Fit Center  473 is at   2.373495  0.908416  2.494724
      ESP Fit Center  474 is at   4.962020  2.858675  1.033495
      ESP Fit Center  475 is at   6.106740  0.908416  0.000250
      ESP Fit Center  476 is at   5.901215  1.941662  0.000250
      ESP Fit Center  477 is at   5.315928  2.817605  0.000250
      ESP Fit Center  478 is at   5.315928 -1.000772  0.000250
      ESP Fit Center  479 is at   5.901215 -0.124829  0.000250
      ESP Fit Center  480 is at   4.962020  2.858675 -1.032996
      ESP Fit Center  481 is at   2.890117  1.803233 -2.494225
      ESP Fit Center  482 is at   2.373495  0.908416 -2.494225
      ESP Fit Center  483 is at  -3.308655  0.875786  2.494616
      ESP Fit Center  484 is at  -6.072722  1.063281  1.033387
      ESP Fit Center  485 is at  -5.734466  1.890157  0.000141
      ESP Fit Center  486 is at  -6.319752  1.014214  0.000141
      ESP Fit Center  487 is at  -6.525278 -0.019031  0.000141
      ESP Fit Center  488 is at  -6.319752 -1.052276  0.000141
      ESP Fit Center  489 is at  -5.734466 -1.928219  0.000141
      ESP Fit Center  490 is at  -4.858523 -2.513506  0.000141
      ESP Fit Center  491 is at  -6.072722  1.063281 -1.033104
      ESP Fit Center  492 is at  -3.308655  0.875786 -2.494333
      ESP Fit Center  493 is at  -0.057549 -3.352850 -0.000418
      ESP Fit Center  494 is at  -2.491696 -0.596630  2.700395
      ESP Fit Center  495 is at  -3.008319 -1.491447  2.494870
      ESP Fit Center  496 is at  -1.975074 -1.491447  2.494870
      ESP Fit Center  497 is at  -1.698591 -2.333289  1.909584
      ESP Fit Center  498 is at  -4.046976 -2.546889  1.033641
      ESP Fit Center  499 is at  -4.046976 -2.546889 -1.032850
      ESP Fit Center  500 is at  -1.698591 -2.333289 -1.908793
      ESP Fit Center  501 is at  -3.008319 -1.491447 -2.494079
      ESP Fit Center  502 is at  -1.975074 -1.491447 -2.494079
      ESP Fit Center  503 is at  -2.491696 -0.596630 -2.699605
      ESP Fit Center  504 is at   1.051850  0.265770  2.699785
      ESP Fit Center  505 is at   1.568472  1.160586  2.494259
      ESP Fit Center  506 is at   0.535227  1.160586  2.494259
      ESP Fit Center  507 is at   1.568472  1.160586 -2.494690
      ESP Fit Center  508 is at   0.535227  1.160586 -2.494690
      ESP Fit Center  509 is at   1.051850  0.265770 -2.700215
      ESP Fit Center  510 is at   2.616321 -1.371405  2.520094
      ESP Fit Center  511 is at   3.709708 -1.371405  2.270536
      ESP Fit Center  512 is at   2.069628 -2.318306  2.270536
      ESP Fit Center  513 is at   3.163015 -2.318306  2.270536
      ESP Fit Center  514 is at   4.586537 -1.371405  1.571288
      ESP Fit Center  515 is at   1.326105 -2.860394  1.571288
      ESP Fit Center  516 is at   2.335930 -3.321566  1.571288
      ESP Fit Center  517 is at   3.434778 -3.163576  1.571288
      ESP Fit Center  518 is at   4.273772 -2.436584  1.571288
      ESP Fit Center  519 is at   5.073140 -1.371405  0.560847
      ESP Fit Center  520 is at   1.084520 -3.292223  0.560847
      ESP Fit Center  521 is at   2.069628 -3.766626  0.560847
      ESP Fit Center  522 is at   3.163015 -3.766626  0.560847
      ESP Fit Center  523 is at   4.148123 -3.292223  0.560847
      ESP Fit Center  524 is at   4.829838 -2.437379  0.560847
      ESP Fit Center  525 is at   5.073140 -1.371405 -0.560659
      ESP Fit Center  526 is at   1.084520 -3.292223 -0.560659
      ESP Fit Center  527 is at   2.069628 -3.766626 -0.560659
      ESP Fit Center  528 is at   3.163015 -3.766626 -0.560659
      ESP Fit Center  529 is at   4.148123 -3.292223 -0.560659
      ESP Fit Center  530 is at   4.829838 -2.437379 -0.560659
      ESP Fit Center  531 is at   4.586537 -1.371405 -1.571100
      ESP Fit Center  532 is at   1.326105 -2.860394 -1.571100
      ESP Fit Center  533 is at   2.335930 -3.321566 -1.571100
      ESP Fit Center  534 is at   3.434778 -3.163576 -1.571100
      ESP Fit Center  535 is at   4.273772 -2.436584 -1.571100
      ESP Fit Center  536 is at   3.709708 -1.371405 -2.270347
      ESP Fit Center  537 is at   2.069628 -2.318306 -2.270347
      ESP Fit Center  538 is at   3.163015 -2.318306 -2.270347
      ESP Fit Center  539 is at   2.616321 -1.371405 -2.519906
      ESP Fit Center  540 is at  -1.354815  1.383170  2.519845
      ESP Fit Center  541 is at  -0.261428  1.383170  2.270287
      ESP Fit Center  542 is at  -0.808121  2.330071  2.270287
      ESP Fit Center  543 is at  -1.901508  2.330071  2.270287
      ESP Fit Center  544 is at  -2.448202  1.383170  2.270287
      ESP Fit Center  545 is at  -0.536358  3.175341  1.571040
      ESP Fit Center  546 is at  -1.635206  3.333332  1.571040
      ESP Fit Center  547 is at  -2.645032  2.872160  1.571040
      ESP Fit Center  548 is at   0.176986  3.303988  0.560598
      ESP Fit Center  549 is at  -0.808121  3.778391  0.560598
      ESP Fit Center  550 is at  -1.901508  3.778391  0.560598
      ESP Fit Center  551 is at  -2.886616  3.303988  0.560598
      ESP Fit Center  552 is at   0.176986  3.303988 -0.560908
      ESP Fit Center  553 is at  -0.808121  3.778391 -0.560908
      ESP Fit Center  554 is at  -1.901508  3.778391 -0.560908
      ESP Fit Center  555 is at  -2.886616  3.303988 -0.560908
      ESP Fit Center  556 is at  -0.536358  3.175341 -1.571349
      ESP Fit Center  557 is at  -1.635206  3.333332 -1.571349
      ESP Fit Center  558 is at  -2.645032  2.872160 -1.571349
      ESP Fit Center  559 is at  -0.261428  1.383170 -2.270596
      ESP Fit Center  560 is at  -0.808121  2.330071 -2.270596
      ESP Fit Center  561 is at  -1.901508  2.330071 -2.270596
      ESP Fit Center  562 is at  -2.448202  1.383170 -2.270596
      ESP Fit Center  563 is at  -1.354815  1.383170 -2.520155
      ESP Fit Center  564 is at   4.042563  0.778046  3.041457
      ESP Fit Center  565 is at   5.122563  0.778046  2.752072
      ESP Fit Center  566 is at   4.582563  1.713353  2.752072
      ESP Fit Center  567 is at   3.502563  1.713353  2.752072
      ESP Fit Center  568 is at   2.962563  0.778046  2.752072
      ESP Fit Center  569 is at   3.502563 -0.157262  2.752072
      ESP Fit Center  570 is at   4.582563 -0.157262  2.752072
      ESP Fit Center  571 is at   5.913178  0.778046  1.961457
      ESP Fit Center  572 is at   5.616224  1.789377  1.961457
      ESP Fit Center  573 is at   4.819644  2.479617  1.961457
      ESP Fit Center  574 is at   4.819644 -0.923525  1.961457
      ESP Fit Center  575 is at   5.616224 -0.233285  1.961457
      ESP Fit Center  576 is at   6.202563  0.778046  0.881457
      ESP Fit Center  577 is at   5.955148  1.781848  0.881457
      ESP Fit Center  578 is at   5.269583 -0.999599  0.881457
      ESP Fit Center  579 is at   5.955148 -0.225756  0.881457
      ESP Fit Center  580 is at   6.202073  0.778924 -0.881448
      ESP Fit Center  581 is at   5.954658  1.782726 -0.881448
      ESP Fit Center  582 is at   5.269093 -0.998722 -0.881448
      ESP Fit Center  583 is at   5.954658 -0.224879 -0.881448
      ESP Fit Center  584 is at   5.912688  0.778924 -1.961448
      ESP Fit Center  585 is at   5.615734  1.790254 -1.961448
      ESP Fit Center  586 is at   4.819155  2.480495 -1.961448
      ESP Fit Center  587 is at   4.819155 -0.922648 -1.961448
      ESP Fit Center  588 is at   5.615734 -0.232407 -1.961448
      ESP Fit Center  589 is at   5.122073  0.778924 -2.752063
      ESP Fit Center  590 is at   4.582073  1.714231 -2.752063
      ESP Fit Center  591 is at   3.502073  1.714231 -2.752063
      ESP Fit Center  592 is at   2.962073  0.778924 -2.752063
      ESP Fit Center  593 is at   3.502073 -0.156384 -2.752063
      ESP Fit Center  594 is at   4.582073 -0.156384 -2.752063
      ESP Fit Center  595 is at   4.042073  0.778924 -3.041448
      ESP Fit Center  596 is at   3.540706  2.859956  1.871469
      ESP Fit Center  597 is at   2.460706  2.859956  1.871469
      ESP Fit Center  598 is at   3.777787  3.626220  1.080854
      ESP Fit Center  599 is at   2.734490  3.776223  1.080854
      ESP Fit Center  600 is at   1.775714  3.338365  1.080854
      ESP Fit Center  601 is at   4.227726  3.702294  0.000854
      ESP Fit Center  602 is at   3.261065  4.068900  0.000854
      ESP Fit Center  603 is at   2.234759  3.944284  0.000854
      ESP Fit Center  604 is at   1.383923  3.356994  0.000854
      ESP Fit Center  605 is at   3.777787  3.626220 -1.079146
      ESP Fit Center  606 is at   2.734490  3.776223 -1.079146
      ESP Fit Center  607 is at   1.775714  3.338365 -1.079146
      ESP Fit Center  608 is at   3.540706  2.859956 -1.869761
      ESP Fit Center  609 is at   2.460706  2.859956 -1.869761
      ESP Fit Center  610 is at  -4.386514 -0.321496  3.051720
      ESP Fit Center  611 is at  -3.306514 -0.321496  2.762335
      ESP Fit Center  612 is at  -3.846514  0.613812  2.762335
      ESP Fit Center  613 is at  -4.926514  0.613812  2.762335
      ESP Fit Center  614 is at  -5.466514 -0.321496  2.762335
      ESP Fit Center  615 is at  -4.926514 -1.256803  2.762335
      ESP Fit Center  616 is at  -3.846514 -1.256803  2.762335
      ESP Fit Center  617 is at  -5.611506  1.092221  1.971720
      ESP Fit Center  618 is at  -6.181356  0.205517  1.971720
      ESP Fit Center  619 is at  -6.181356 -0.848509  1.971720
      ESP Fit Center  620 is at  -5.611506 -1.735212  1.971720
      ESP Fit Center  621 is at  -4.652730 -2.173071  1.971720
      ESP Fit Center  622 is at  -6.483748  0.195426  0.891720
      ESP Fit Center  623 is at  -6.483748 -0.838418  0.891720
      ESP Fit Center  624 is at  -6.003297 -1.753841  0.891720
      ESP Fit Center  625 is at  -5.152460 -2.341131  0.891720
      ESP Fit Center  626 is at  -6.483260  0.195908 -0.891912
      ESP Fit Center  627 is at  -6.483260 -0.837936 -0.891912
      ESP Fit Center  628 is at  -6.002809 -1.753359 -0.891912
      ESP Fit Center  629 is at  -5.151972 -2.340649 -0.891912
      ESP Fit Center  630 is at  -5.611018  1.092703 -1.971912
      ESP Fit Center  631 is at  -6.180867  0.205999 -1.971912
      ESP Fit Center  632 is at  -6.180867 -0.848027 -1.971912
      ESP Fit Center  633 is at  -5.611018 -1.734730 -1.971912
      ESP Fit Center  634 is at  -4.652242 -2.172588 -1.971912
      ESP Fit Center  635 is at  -3.306025 -0.321014 -2.762527
      ESP Fit Center  636 is at  -3.846025  0.614294 -2.762527
      ESP Fit Center  637 is at  -4.926025  0.614294 -2.762527
      ESP Fit Center  638 is at  -5.466025 -0.321014 -2.762527
      ESP Fit Center  639 is at  -4.926025 -1.256321 -2.762527
      ESP Fit Center  640 is at  -3.846025 -1.256321 -2.762527
      ESP Fit Center  641 is at  -4.386025 -0.321014 -3.051912
      ESP Fit Center  642 is at  -3.171596  2.000810  1.871090
      ESP Fit Center  643 is at  -4.251596  2.000810  1.871090
      ESP Fit Center  644 is at  -3.977812  2.917077  1.080475
      ESP Fit Center  645 is at  -4.936588  2.479219  1.080475
      ESP Fit Center  646 is at  -3.451237  3.209753  0.000475
      ESP Fit Center  647 is at  -4.477543  3.085137  0.000475
      ESP Fit Center  648 is at  -5.328379  2.497847  0.000475
      ESP Fit Center  649 is at  -3.977812  2.917077 -1.079525
      ESP Fit Center  650 is at  -4.936588  2.479219 -1.079525
      ESP Fit Center  651 is at  -3.171596  2.000810 -1.870140
      ESP Fit Center  652 is at  -4.251596  2.000810 -1.870140
      ESP Fit Center  653 is at  -0.020559 -1.311982  3.038537
      ESP Fit Center  654 is at   1.059441 -1.311982  2.749152
      ESP Fit Center  655 is at   0.519441 -0.376675  2.749152
      ESP Fit Center  656 is at  -0.560559 -0.376675  2.749152
      ESP Fit Center  657 is at  -1.100559 -1.311982  2.749152
      ESP Fit Center  658 is at  -0.560559 -2.247290  2.749152
      ESP Fit Center  659 is at   0.519441 -2.247290  2.749152
      ESP Fit Center  660 is at  -1.245551 -2.725699  1.958537
      ESP Fit Center  661 is at  -0.286775 -3.163557  1.958537
      ESP Fit Center  662 is at   0.756522 -3.013554  1.958537
      ESP Fit Center  663 is at  -0.786506 -3.331617  0.878537
      ESP Fit Center  664 is at   0.239800 -3.456234  0.878537
      ESP Fit Center  665 is at  -0.786735 -3.331049 -0.879826
      ESP Fit Center  666 is at   0.239570 -3.455665 -0.879826
      ESP Fit Center  667 is at  -1.245781 -2.725130 -1.959826
      ESP Fit Center  668 is at  -0.287005 -3.162989 -1.959826
      ESP Fit Center  669 is at   0.756293 -3.012985 -1.959826
      ESP Fit Center  670 is at   1.059211 -1.311414 -2.750441
      ESP Fit Center  671 is at   0.519211 -0.376107 -2.750441
      ESP Fit Center  672 is at  -0.560789 -0.376107 -2.750441
[...]
  235 Fit      -0.026150
  236 Fit       0.007760
  237 Fit       0.007115
  238 Fit       0.006218
  239 Fit       0.001004
  240 Fit       0.009933
  241 Fit       0.014286
  242 Fit       0.031395
  243 Fit       0.014287
  244 Fit       0.031401
  245 Fit       0.009936
  246 Fit       0.001019
  247 Fit       0.006505
  248 Fit       0.015514
  249 Fit       0.016759
  250 Fit       0.015571
  251 Fit       0.016829
  252 Fit       0.006564
  253 Fit      -0.003997
  254 Fit       0.000124
  255 Fit      -0.005091
  256 Fit       0.000123
  257 Fit      -0.005083
  258 Fit      -0.003989
  259 Fit      -0.026760
  260 Fit      -0.031403
  261 Fit      -0.017806
  262 Fit      -0.034103
  263 Fit      -0.040366
  264 Fit      -0.035097
  265 Fit      -0.041251
  266 Fit      -0.047444
  267 Fit      -0.046888
  268 Fit      -0.038434
  269 Fit      -0.042553
  270 Fit      -0.049129
  271 Fit      -0.051632
  272 Fit      -0.049719
  273 Fit      -0.038436
  274 Fit      -0.042554
  275 Fit      -0.049128
  276 Fit      -0.051632
  277 Fit      -0.049719
  278 Fit      -0.035098
  279 Fit      -0.041250
  280 Fit      -0.047442
  281 Fit      -0.046885
  282 Fit      -0.031399
  283 Fit      -0.017795
  284 Fit      -0.034098
  285 Fit      -0.040362
  286 Fit      -0.026753
  287 Fit      -0.016490
  288 Fit      -0.013389
  289 Fit      -0.025370
  290 Fit      -0.027481
  291 Fit      -0.016233
  292 Fit      -0.014908
  293 Fit      -0.030271
  294 Fit      -0.033745
  295 Fit      -0.026324
  296 Fit      -0.021517
  297 Fit      -0.033852
  298 Fit      -0.035728
  299 Fit      -0.027099
  300 Fit      -0.021516
  301 Fit      -0.033852
  302 Fit      -0.035728
  303 Fit      -0.027104
  304 Fit      -0.014903
  305 Fit      -0.030269
  306 Fit      -0.033744
  307 Fit      -0.026328
  308 Fit      -0.013381
  309 Fit      -0.025366
  310 Fit      -0.027477
  311 Fit      -0.016224
  312 Fit      -0.016480
  313 Fit       0.005371
  314 Fit       0.005828
  315 Fit       0.007484
  316 Fit       0.006811
  317 Fit       0.005296
  318 Fit      -0.000405
  319 Fit       0.000556
  320 Fit       0.004915
  321 Fit       0.007263
  322 Fit       0.007543
  323 Fit      -0.013040
  324 Fit      -0.001388
  325 Fit       0.002742
  326 Fit       0.005730
  327 Fit      -0.019725
  328 Fit      -0.004205
  329 Fit       0.002745
  330 Fit       0.005734
  331 Fit      -0.019719
  332 Fit      -0.004203
  333 Fit       0.004920
  334 Fit       0.007269
  335 Fit       0.007549
  336 Fit      -0.013029
  337 Fit      -0.001383
  338 Fit       0.005835
  339 Fit       0.007493
  340 Fit       0.006821
  341 Fit       0.005308
  342 Fit      -0.000389
  343 Fit       0.000566
  344 Fit       0.005382
  345 Fit       0.008109
  346 Fit       0.009645
  347 Fit       0.007945
  348 Fit       0.009582
  349 Fit       0.011436
  350 Fit       0.015627
  351 Fit       0.009330
  352 Fit       0.011244
  353 Fit       0.013219
  354 Fit       0.007948
  355 Fit       0.009582
  356 Fit       0.011438
  357 Fit       0.015646
  358 Fit       0.008114
  359 Fit       0.009652
  360 Fit       0.013072
  361 Fit       0.009579
  362 Fit       0.007470
  363 Fit       0.011275
  364 Fit       0.015184
  365 Fit       0.017052
  366 Fit       0.015706
  367 Fit       0.009012
  368 Fit       0.013263
  369 Fit       0.016069
  370 Fit       0.018027
  371 Fit       0.020331
  372 Fit       0.023010
  373 Fit       0.014989
  374 Fit       0.016419
  375 Fit       0.017825
  376 Fit       0.020656
  377 Fit       0.028716
  378 Fit       0.014989
  379 Fit       0.016419
  380 Fit       0.017825
  381 Fit       0.020659
  382 Fit       0.028729
  383 Fit       0.009011
  384 Fit       0.013264
  385 Fit       0.016070
  386 Fit       0.018030
  387 Fit       0.020339
  388 Fit       0.023032
  389 Fit       0.009607
  390 Fit       0.007481
  391 Fit       0.011280
  392 Fit       0.015190
  393 Fit       0.017062
  394 Fit       0.015727
  395 Fit       0.013085
  396 Fit      -0.010146
  397 Fit       0.002550
  398 Fit      -0.018091
  399 Fit       0.000665
  400 Fit       0.008463
  401 Fit      -0.007675
  402 Fit       0.004633
  403 Fit       0.010475
  404 Fit      -0.018107
  405 Fit       0.000660
  406 Fit       0.008463
  407 Fit      -0.010160
  408 Fit       0.002547
  409 Fit       0.009376
  410 Fit      -0.000407
  411 Fit       0.003829
  412 Fit       0.011160
  413 Fit       0.016240
  414 Fit       0.014684
  415 Fit       0.004643
  416 Fit       0.027269
  417 Fit       0.017006
  418 Fit       0.001076
  419 Fit      -0.018618
  420 Fit       0.030616
  421 Fit       0.008710
  422 Fit      -0.018366
  423 Fit       0.030625
  424 Fit       0.008719
  425 Fit      -0.018349
  426 Fit       0.027284
  427 Fit       0.017017
  428 Fit       0.001091
  429 Fit      -0.018577
  430 Fit      -0.000386
  431 Fit       0.003843
  432 Fit       0.011173
  433 Fit       0.016261
  434 Fit       0.014699
  435 Fit       0.004661
  436 Fit       0.009392
  437 Fit       0.029778
  438 Fit       0.031164
  439 Fit       0.035327
  440 Fit       0.037063
  441 Fit       0.036961
  442 Fit       0.037190
  443 Fit       0.038840
  444 Fit       0.039063
  445 Fit       0.037789
  446 Fit       0.035341
  447 Fit       0.037077
  448 Fit       0.036976
  449 Fit       0.029814
  450 Fit       0.031204
  451 Fit       0.007423
  452 Fit      -0.006725
  453 Fit       0.014434
  454 Fit      -0.007590
  455 Fit       0.006938
  456 Fit       0.014427
  457 Fit      -0.007588
  458 Fit       0.007420
  459 Fit      -0.006719
  460 Fit      -0.003404
  461 Fit      -0.011209
  462 Fit      -0.017490
  463 Fit      -0.011199
  464 Fit      -0.017482
  465 Fit      -0.003398
  466 Fit       0.004534
  467 Fit      -0.006387
  468 Fit      -0.007385
  469 Fit      -0.006376
  470 Fit      -0.007369
  471 Fit       0.004563
  472 Fit       0.005408
  473 Fit       0.003506
  474 Fit       0.006007
  475 Fit       0.001206
  476 Fit       0.003976
  477 Fit       0.005330
  478 Fit      -0.021260
  479 Fit      -0.005598
  480 Fit       0.006010
  481 Fit       0.005417
  482 Fit       0.003514
  483 Fit       0.001224
  484 Fit       0.012034
  485 Fit       0.009982
  486 Fit       0.012385
  487 Fit       0.014500
  488 Fit       0.016045
  489 Fit       0.018213
  490 Fit       0.024204
  491 Fit       0.012036
  492 Fit       0.001239
  493 Fit       0.007915
  494 Fit       0.007206
  495 Fit       0.013896
  496 Fit       0.014384
  497 Fit       0.025908
  498 Fit       0.030147
  499 Fit       0.030167
  500 Fit       0.025962
  501 Fit       0.013942
  502 Fit       0.014440
  503 Fit       0.007253
  504 Fit      -0.002404
  505 Fit      -0.000098
  506 Fit      -0.003858
  507 Fit      -0.000096
  508 Fit      -0.003850
  509 Fit      -0.002395
  510 Fit      -0.020467
  511 Fit      -0.024281
  512 Fit      -0.025927
  513 Fit      -0.032086
  514 Fit      -0.027039
  515 Fit      -0.022116
  516 Fit      -0.034569
  517 Fit      -0.038843
  518 Fit      -0.037341
  519 Fit      -0.029845
  520 Fit      -0.023239
  521 Fit      -0.035486
  522 Fit      -0.040740
  523 Fit      -0.042309
  524 Fit      -0.039681
  525 Fit      -0.029847
  526 Fit      -0.023241
  527 Fit      -0.035486
  528 Fit      -0.040739
  529 Fit      -0.042308
  530 Fit      -0.039681
  531 Fit      -0.027041
  532 Fit      -0.022115
  533 Fit      -0.034567
  534 Fit      -0.038841
  535 Fit      -0.037339
  536 Fit      -0.024278
  537 Fit      -0.025921
  538 Fit      -0.032082
  539 Fit      -0.020460
  540 Fit      -0.011729
  541 Fit      -0.009460
  542 Fit      -0.018943
  543 Fit      -0.020691
  544 Fit      -0.011127
  545 Fit      -0.021376
  546 Fit      -0.026248
  547 Fit      -0.022945
  548 Fit      -0.011483
  549 Fit      -0.024934
  550 Fit      -0.028230
  551 Fit      -0.024055
  552 Fit      -0.011483
  553 Fit      -0.024933
  554 Fit      -0.028230
  555 Fit      -0.024056
  556 Fit      -0.021374
  557 Fit      -0.026246
  558 Fit      -0.022946
  559 Fit      -0.009451
  560 Fit      -0.018938
  561 Fit      -0.020687
  562 Fit      -0.011116
  563 Fit      -0.011718
  564 Fit       0.003355
  565 Fit       0.003644
  566 Fit       0.005608
  567 Fit       0.005287
  568 Fit       0.003394
  569 Fit      -0.002633
  570 Fit      -0.001627
  571 Fit       0.002923
  572 Fit       0.005360
  573 Fit       0.006160
  574 Fit      -0.012825
  575 Fit      -0.002609
  576 Fit       0.001342
  577 Fit       0.004301
  578 Fit      -0.018399
  579 Fit      -0.004914
  580 Fit       0.001345
  581 Fit       0.004304
  582 Fit      -0.018396
  583 Fit      -0.004911
  584 Fit       0.002927
  585 Fit       0.005365
  586 Fit       0.006166
  587 Fit      -0.012817
  588 Fit      -0.002605
  589 Fit       0.003651
  590 Fit       0.005615
  591 Fit       0.005295
  592 Fit       0.003404
  593 Fit      -0.002618
  594 Fit      -0.001618
  595 Fit       0.003364
  596 Fit       0.006873
  597 Fit       0.007552
  598 Fit       0.007532
  599 Fit       0.008522
  600 Fit       0.009747
  601 Fit       0.007408
  602 Fit       0.008579
  603 Fit       0.009390
  604 Fit       0.012056
  605 Fit       0.007533
  606 Fit       0.008524
  607 Fit       0.009756
  608 Fit       0.006879
  609 Fit       0.007559
  610 Fit       0.011104
  611 Fit       0.008231
  612 Fit       0.005774
  613 Fit       0.009362
  614 Fit       0.012948
  615 Fit       0.014860
  616 Fit       0.014009
  617 Fit       0.010069
  618 Fit       0.012847
  619 Fit       0.014793
  620 Fit       0.016621
  621 Fit       0.019315
  622 Fit       0.013880
  623 Fit       0.015175
  624 Fit       0.016920
  625 Fit       0.020826
  626 Fit       0.013880
  627 Fit       0.015176
  628 Fit       0.016921
  629 Fit       0.020832
  630 Fit       0.010070
  631 Fit       0.012848
  632 Fit       0.014795
  633 Fit       0.016625
  634 Fit       0.019326
  635 Fit       0.008259
  636 Fit       0.005785
  637 Fit       0.009367
  638 Fit       0.012954
  639 Fit       0.014870
  640 Fit       0.014030
  641 Fit       0.011116
  642 Fit      -0.010663
  643 Fit       0.001569
  644 Fit      -0.004261
  645 Fit       0.004633
  646 Fit      -0.013691
  647 Fit       0.000133
  648 Fit       0.006738
  649 Fit      -0.004267
  650 Fit       0.004632
  651 Fit      -0.010675
  652 Fit       0.001568
  653 Fit       0.006994
  654 Fit      -0.002373
  655 Fit       0.002016
  656 Fit       0.008340
  657 Fit       0.013462
  658 Fit       0.012020
  659 Fit       0.002209
  660 Fit       0.022037
  661 Fit       0.010538
  662 Fit      -0.004775
  663 Fit       0.021232
  664 Fit       0.001288
  665 Fit       0.021241
  666 Fit       0.001297
  667 Fit       0.022049
  668 Fit       0.010549
  669 Fit      -0.004757
  670 Fit      -0.002352
  671 Fit       0.002029
  672 Fit       0.008353
  673 Fit       0.013484
  674 Fit       0.012035
  675 Fit       0.002226
  676 Fit       0.007009
  677 Fit       0.025453
  678 Fit       0.026301
  679 Fit       0.030649
  680 Fit       0.031030
  681 Fit       0.030207
  682 Fit       0.032175
  683 Fit       0.032728
  684 Fit       0.031977
  685 Fit       0.029985
  686 Fit       0.030661
  687 Fit       0.031043
  688 Fit       0.030219
  689 Fit       0.025484
  690 Fit       0.026334
  691 Fit      -0.008254
  692 Fit      -0.002730
  693 Fit       0.007569
  694 Fit      -0.002730
  695 Fit      -0.008248
  696 Fit      -0.003569
  697 Fit      -0.008768
  698 Fit      -0.013412
  699 Fit      -0.008758
  700 Fit      -0.013405
  701 Fit      -0.003563
  702 Fit       0.003368
  703 Fit      -0.004557
  704 Fit      -0.004933
  705 Fit      -0.004545
  706 Fit      -0.004918
  707 Fit       0.003393
  708 Fit       0.003988
  709 Fit       0.001892
  710 Fit       0.005434
  711 Fit       0.004959
  712 Fit       0.005178
  713 Fit       0.005933
  714 Fit       0.003296
  715 Fit       0.004460
  716 Fit       0.005791
  717 Fit      -0.017395
  718 Fit       0.003296
  719 Fit       0.004461
  720 Fit       0.005791
  721 Fit      -0.017399
  722 Fit       0.005182
  723 Fit       0.005933
  724 Fit       0.005437
  725 Fit       0.004962
  726 Fit       0.003996
  727 Fit       0.001899
  728 Fit       0.001547
  729 Fit      -0.007936
  730 Fit       0.000500
  731 Fit       0.008858
  732 Fit       0.009610
  733 Fit       0.011905
  734 Fit       0.018102
  735 Fit       0.024367
  736 Fit       0.009610
  737 Fit       0.011906
  738 Fit       0.018102
  739 Fit       0.024370
  740 Fit       0.008860
  741 Fit      -0.007935
  742 Fit       0.000501
  743 Fit       0.001562
  744 Fit       0.007077
  745 Fit       0.012346
  746 Fit       0.012273
  747 Fit       0.019682
  748 Fit       0.019781
  749 Fit       0.019721
  750 Fit       0.019826
  751 Fit       0.012384
  752 Fit       0.012318
  753 Fit       0.007115
  754 Fit      -0.001661
  755 Fit      -0.000302
  756 Fit      -0.002942
  757 Fit      -0.002151
  758 Fit      -0.002148
  759 Fit      -0.000299
  760 Fit      -0.002934
  761 Fit      -0.001652
  762 Fit      -0.016006
  763 Fit      -0.018934
  764 Fit      -0.019782
  765 Fit      -0.024930
  766 Fit      -0.020779
  767 Fit      -0.020686
  768 Fit      -0.028423
  769 Fit      -0.030978
  770 Fit      -0.028966
  771 Fit      -0.022918
  772 Fit      -0.020949
  773 Fit      -0.029722
  774 Fit      -0.033617
  775 Fit      -0.034319
  776 Fit      -0.031383
  777 Fit      -0.024191
  778 Fit      -0.016714
  779 Fit      -0.027482
  780 Fit      -0.032884
  781 Fit      -0.035263
  782 Fit      -0.035200
  783 Fit      -0.031971
  784 Fit      -0.022922
  785 Fit      -0.020948
  786 Fit      -0.029721
  787 Fit      -0.033616
  788 Fit      -0.034318
  789 Fit      -0.031382
  790 Fit      -0.020780
  791 Fit      -0.020682
  792 Fit      -0.028420
  793 Fit      -0.030976
  794 Fit      -0.028964
  795 Fit      -0.018931
  796 Fit      -0.019775
  797 Fit      -0.024926
  798 Fit      -0.016000
  799 Fit      -0.008491
  800 Fit      -0.007181
  801 Fit      -0.014032
  802 Fit      -0.015158
  803 Fit      -0.007918
  804 Fit      -0.015132
  805 Fit      -0.019663
  806 Fit      -0.018872
  807 Fit      -0.012604
  808 Fit      -0.018066
  809 Fit      -0.021954
  810 Fit      -0.020466
  811 Fit      -0.014424
  812 Fit      -0.021256
  813 Fit      -0.022617
  814 Fit      -0.018920
  815 Fit      -0.018065
  816 Fit      -0.021953
  817 Fit      -0.020466
  818 Fit      -0.015130
  819 Fit      -0.019661
  820 Fit      -0.018871
  821 Fit      -0.012606
  822 Fit      -0.007172
  823 Fit      -0.014027
  824 Fit      -0.015153
  825 Fit      -0.007906
  826 Fit      -0.008480
  827 Fit       0.001975
  828 Fit       0.002172
  829 Fit       0.004084
  830 Fit       0.003932
  831 Fit       0.001930
  832 Fit      -0.002783
  833 Fit      -0.002071
  834 Fit       0.001838
  835 Fit       0.004101
  836 Fit       0.004992
  837 Fit      -0.010463
  838 Fit      -0.002797
  839 Fit       0.000915
  840 Fit       0.003476
  841 Fit       0.004825
  842 Fit      -0.013528
  843 Fit      -0.004040
  844 Fit       0.000918
  845 Fit       0.003480
  846 Fit       0.004828
  847 Fit      -0.013526
  848 Fit      -0.004038
  849 Fit       0.001842
  850 Fit       0.004106
  851 Fit       0.004996
  852 Fit      -0.010456
  853 Fit      -0.002793
  854 Fit       0.002178
  855 Fit       0.004090
  856 Fit       0.003939
  857 Fit       0.001939
  858 Fit      -0.002771
  859 Fit      -0.002063
  860 Fit       0.001984
  861 Fit       0.005759
  862 Fit       0.006141
  863 Fit       0.006473
  864 Fit       0.006571
  865 Fit       0.006080
  866 Fit       0.006724
  867 Fit       0.006974
  868 Fit       0.006972
  869 Fit       0.006081
  870 Fit       0.006724
  871 Fit       0.006975
  872 Fit       0.006975
  873 Fit       0.006143
  874 Fit       0.006476
  875 Fit       0.006579
  876 Fit       0.005767
  877 Fit       0.009639
  878 Fit       0.007677
  879 Fit       0.005381
  880 Fit       0.008119
  881 Fit       0.011092
  882 Fit       0.012756
  883 Fit       0.012118
  884 Fit       0.008528
  885 Fit       0.011054
  886 Fit       0.012861
  887 Fit       0.014488
  888 Fit       0.016457
  889 Fit       0.011143
  890 Fit       0.012651
  891 Fit       0.014046
  892 Fit       0.015978
  893 Fit       0.019671
  894 Fit       0.011144
  895 Fit       0.012652
  896 Fit       0.014048
  897 Fit       0.015982
  898 Fit       0.019680
  899 Fit       0.008530
  900 Fit       0.011056
  901 Fit       0.012864
  902 Fit       0.014494
  903 Fit       0.016468
  904 Fit       0.007699
  905 Fit       0.005391
  906 Fit       0.008125
  907 Fit       0.011098
  908 Fit       0.012766
  909 Fit       0.012137
  910 Fit       0.009650
  911 Fit      -0.008261
  912 Fit      -0.004493
  913 Fit       0.003317
  914 Fit      -0.003575
  915 Fit       0.003497
  916 Fit      -0.003577
  917 Fit       0.003497
  918 Fit      -0.004498
  919 Fit       0.003317
  920 Fit      -0.008268
  921 Fit       0.005314
  922 Fit      -0.001926
  923 Fit       0.001560
  924 Fit       0.006241
  925 Fit       0.010609
  926 Fit       0.009324
  927 Fit       0.001570
  928 Fit       0.016834
  929 Fit       0.008202
  930 Fit      -0.003648
  931 Fit       0.012268
  932 Fit      -0.003131
  933 Fit      -0.005875
  934 Fit      -0.005869
  935 Fit       0.012277
  936 Fit      -0.003120
  937 Fit       0.016847
  938 Fit       0.008214
  939 Fit      -0.003631
  940 Fit      -0.001908
  941 Fit       0.001573
  942 Fit       0.006255
  943 Fit       0.010628
  944 Fit       0.009338
  945 Fit       0.001586
  946 Fit       0.005329
  947 Fit       0.025462
  948 Fit       0.025460
  949 Fit       0.024616
  950 Fit       0.027646
  951 Fit       0.027430
  952 Fit       0.026065
  953 Fit       0.027650
  954 Fit       0.027435
  955 Fit       0.026070
  956 Fit       0.025476
  957 Fit       0.025475
  958 Fit       0.024631
  959 Fit      -0.004075
  960 Fit      -0.004074
 -----------------------------------------------------------------
 Leave Link  602 at Sat Feb 17 21:04:29 2018, MaxMem=   33554432 cpu:       0.2

 Test job not archived.
 1\1\GINC-NODE051\SP\RHF\6-31G(d)\C5H10N2O2\WULSDORT\17-Feb-2018\0\\#HF
 /6-31G* Geom=AllCheck Guess=Read Pop=(MK,ReadRadii) Integral=(Grid=Ult
 raFine) iop(6/33=2)\\Optimization for frag49-conf0\\0,1\C,0,-5.0831639
 091,3.3283549959,-1.6479284333\C,0,-2.1238405563,1.5237383854,-0.31689
 6605\C,0,-5.6040159455,3.4102033697,-3.0750278187\C,0,-0.2619274383,0.
 4668847765,0.9201194313\C,0,-3.3603867326,2.4163576387,-0.1737782334\N
 ,0,-1.4587178095,1.2879580784,0.8453412777\N,0,-3.9605581701,2.5788830
 717,-1.4730116402\O,0,-5.6357609903,3.8991023128,-0.7123350879\O,0,-1.
 7798437109,1.0687886933,-1.4043150546\H,0,-6.631772271,3.0347341024,-3
 .0981123334\H,0,-5.6344546979,4.460753037,-3.3803576641\H,0,-5.0025057
 899,2.8470096157,-3.7951601495\H,0,-0.4165752832,-0.3972630755,1.57640
 90389\H,0,0.5915911195,1.0461207182,1.2907720595\H,0,-0.0436926257,0.1
 148176872,-0.0886212805\H,0,-4.0722705658,1.9671369462,0.5331923897\H,
 0,-3.0778098854,3.3897137673,0.2518321926\H,0,-1.8137162154,1.70429020
 73,1.695134718\H,0,-3.48847266,2.0995295849,-2.2305104136\\Version=AM6
 4L-G09RevC.01\State=1-A\HF=-453.8195922\RMSD=6.375e-09\Dipole=0.891067
 8,-0.5136931,0.5483852\Quadrupole=-3.3284162,-3.9276319,7.2560481,3.93
 45534,8.9720406,-4.787226\PG=C01 [X(C5H10N2O2)]\\@


 I do not feel obliged to believe that the same God who
 has endowed us with sense, reason, and intellect has
 intended us to forgo their use.
                   --Galileo Galilei
 Job cpu time:  0 days  0 hours  0 minutes 44.4 seconds.
 File lengths (MBytes):  RWF=     16 Int=      0 D2E=      0 Chk=      3 Scr=      1
 Normal termination of Gaussian 09 at Sat Feb 17 21:04:30 2018.
