 Entering Gaussian System, Link 0=g09
 Initial command:
 /home/fb_chem/chemsoft/lx24-amd64/Gaussian_09_C.01_NBO_3.1_64_istanbul-64/g09/l1.exe /local/2400005.1.parallel/Gau-21338.inp -scrdir=/local/2400005.1.parallel/
 Entering Link 1 = /home/fb_chem/chemsoft/lx24-amd64/Gaussian_09_C.01_NBO_3.1_64_istanbul-64/g09/l1.exe PID=     21339.
  
 Copyright (c) 1988,1990,1992,1993,1995,1998,2003,2009,2011,
            Gaussian, Inc.  All Rights Reserved.
  
 This is part of the Gaussian(R) 09 program.  It is based on
 the Gaussian(R) 03 system (copyright 2003, Gaussian, Inc.),
 the Gaussian(R) 98 system (copyright 1998, Gaussian, Inc.),
 the Gaussian(R) 94 system (copyright 1995, Gaussian, Inc.),
 the Gaussian 92(TM) system (copyright 1992, Gaussian, Inc.),
 the Gaussian 90(TM) system (copyright 1990, Gaussian, Inc.),
 the Gaussian 88(TM) system (copyright 1988, Gaussian, Inc.),
 the Gaussian 86(TM) system (copyright 1986, Carnegie Mellon
 University), and the Gaussian 82(TM) system (copyright 1983,
 Carnegie Mellon University). Gaussian is a federally registered
 trademark of Gaussian, Inc.
  
 This software contains proprietary and confidential information,
 including trade secrets, belonging to Gaussian, Inc.
  
 This software is provided under written license and may be
 used, copied, transmitted, or stored only in accord with that
 written license.
  
 The following legend is applicable only to US Government
 contracts under FAR:
  
                    RESTRICTED RIGHTS LEGEND
  
 Use, reproduction and disclosure by the US Government is
 subject to restrictions as set forth in subparagraphs (a)
 and (c) of the Commercial Computer Software - Restricted
 Rights clause in FAR 52.227-19.
  
 Gaussian, Inc.
 340 Quinnipiac St., Bldg. 40, Wallingford CT 06492
  
  
 ---------------------------------------------------------------
 Warning -- This program may not be used in any manner that
 competes with the business of Gaussian, Inc. or will provide
 assistance to any competitor of Gaussian, Inc.  The licensee
 of this program is prohibited from giving any competitor of
 Gaussian, Inc. access to this program.  By using this program,
 the user acknowledges that Gaussian, Inc. is engaged in the
 business of creating and licensing software in the field of
 computational chemistry and represents and warrants to the
 licensee that it is not a competitor of Gaussian, Inc. and that
 it will not use this program in any manner prohibited above.
 ---------------------------------------------------------------
  

 Cite this work as:
 Gaussian 09, Revision C.01,
 M. J. Frisch, G. W. Trucks, H. B. Schlegel, G. E. Scuseria, 
 M. A. Robb, J. R. Cheeseman, G. Scalmani, V. Barone, B. Mennucci, 
 G. A. Petersson, H. Nakatsuji, M. Caricato, X. Li, H. P. Hratchian, 
 A. F. Izmaylov, J. Bloino, G. Zheng, J. L. Sonnenberg, M. Hada, 
 M. Ehara, K. Toyota, R. Fukuda, J. Hasegawa, M. Ishida, T. Nakajima, 
 Y. Honda, O. Kitao, H. Nakai, T. Vreven, J. A. Montgomery, Jr., 
 J. E. Peralta, F. Ogliaro, M. Bearpark, J. J. Heyd, E. Brothers, 
 K. N. Kudin, V. N. Staroverov, T. Keith, R. Kobayashi, J. Normand, 
 K. Raghavachari, A. Rendell, J. C. Burant, S. S. Iyengar, J. Tomasi, 
 M. Cossi, N. Rega, J. M. Millam, M. Klene, J. E. Knox, J. B. Cross, 
 V. Bakken, C. Adamo, J. Jaramillo, R. Gomperts, R. E. Stratmann, 
 O. Yazyev, A. J. Austin, R. Cammi, C. Pomelli, J. W. Ochterski, 
 R. L. Martin, K. Morokuma, V. G. Zakrzewski, G. A. Voth, 
 P. Salvador, J. J. Dannenberg, S. Dapprich, A. D. Daniels, 
 O. Farkas, J. B. Foresman, J. V. Ortiz, J. Cioslowski, 
 and D. J. Fox, Gaussian, Inc., Wallingford CT, 2010.
 
 ******************************************
 Gaussian 09:  AM64L-G09RevC.01 23-Sep-2011
                17-Feb-2018 
 ******************************************
 %nprocs=2
 Will use up to    2 processors via shared memory.
 %chk=frag17-conf0.chk
 ----------------------------------------------------------------------
 #HF/6-31G* Geom=AllCheck Guess=Read Pop=(MK,ReadRadii) Integral=(Grid=
 UltraFine) iop(6/33=2)
 ----------------------------------------------------------------------
 1/29=7,38=1/1;
 2/12=2,40=1/2;
 3/5=1,6=6,7=1,11=9,14=-4,16=1,25=1,30=1,75=-5,116=-2/1,2,3;
 4/5=1/1;
 5/5=2,38=6/2;
 6/7=2,8=2,9=2,10=2,15=8,20=101,28=1,33=2/1,2;
 99/5=1,9=1/99;
 Structure from the checkpoint file:  frag17-conf0.chk
 -----------------------------
 Optimization for frag17-conf0
 -----------------------------
 Charge =  0 Multiplicity = 1
 Redundant internal coordinates found in file.
 C,0,-0.9438573353,-3.410462065,4.3610383837
 C,0,0.0508354658,-2.4459641113,4.2285656821
 C,0,-2.2017874737,-3.0168725054,4.8253161225
 C,0,-1.5370883179,-0.842501974,5.0215711109
 C,0,-0.2446842731,-1.1181105133,4.5645680218
 C,0,2.1679814315,-0.2878717163,2.3911669998
 C,0,2.3487061795,0.1215525824,0.9372678528
 C,0,0.7919512016,-0.0205345635,4.4312160362
 N,0,-2.5062090266,-1.7567593135,5.1544765065
 N,0,1.12784309,0.3116466547,3.0482521505
 O,0,2.9164895573,-1.093244619,2.9351537387
 H,0,-0.7517564947,-4.4507489362,4.1144136659
 H,0,1.0453777276,-2.7025370494,3.8735293378
 H,0,-3.0010182037,-3.7477305915,4.9396003335
 H,0,-1.8061223165,0.1772687306,5.301045869
 H,0,3.3740618824,0.4770032382,0.7996337726
 H,0,2.2221025978,-0.7613592623,0.3025342848
 H,0,1.6544050034,0.9001443835,0.6061836423
 H,0,0.4395413712,0.8903087185,4.9274825276
 H,0,1.7292467207,-0.3236748961,4.9048430482
 H,0,0.4660842915,0.8593706836,2.5167040133
 Recover connectivity data from disk.
                          Input orientation:                          
 ---------------------------------------------------------------------
 Center     Atomic      Atomic             Coordinates (Angstroms)
 Number     Number       Type             X           Y           Z
 ---------------------------------------------------------------------
      1          6           0       -0.943857   -3.410462    4.361038
      2          6           0        0.050835   -2.445964    4.228566
      3          6           0       -2.201787   -3.016873    4.825316
      4          6           0       -1.537088   -0.842502    5.021571
      5          6           0       -0.244684   -1.118111    4.564568
      6          6           0        2.167981   -0.287872    2.391167
      7          6           0        2.348706    0.121553    0.937268
      8          6           0        0.791951   -0.020535    4.431216
      9          7           0       -2.506209   -1.756759    5.154477
     10          7           0        1.127843    0.311647    3.048252
     11          8           0        2.916490   -1.093245    2.935154
     12          1           0       -0.751756   -4.450749    4.114414
     13          1           0        1.045378   -2.702537    3.873529
     14          1           0       -3.001018   -3.747731    4.939600
     15          1           0       -1.806122    0.177269    5.301046
     16          1           0        3.374062    0.477003    0.799634
     17          1           0        2.222103   -0.761359    0.302534
     18          1           0        1.654405    0.900144    0.606184
     19          1           0        0.439541    0.890309    4.927483
     20          1           0        1.729247   -0.323675    4.904843
     21          1           0        0.466084    0.859371    2.516704
 ---------------------------------------------------------------------
                    Distance matrix (angstroms):
                    1          2          3          4          5
     1  C    0.000000
     2  C    1.391840   0.000000
     3  C    1.397446   2.399241   0.000000
     4  C    2.717102   2.391955   2.282154   0.000000
     5  C    2.405232   1.401223   2.739259   1.398256   0.000000
     6  C    4.828510   3.537754   5.698018   4.577574   3.351705
     7  C    5.919316   4.764976   6.758226   5.719295   4.628147
     8  C    3.809142   2.544215   4.253919   2.539404   1.515608
     9  N    2.409402   2.805493   1.337499   1.338927   2.422882
    10  N    4.457515   3.187084   5.032240   3.511112   2.495446
    11  O    4.722809   3.422680   5.785311   4.924466   3.556491
    12  H    1.086243   2.162486   2.159624   3.802516   3.400918
    13  H    2.166998   1.086736   3.398351   3.383321   2.156896
    14  H    2.163422   3.393225   1.089029   3.254253   3.827914
    15  H    3.807746   3.388194   3.253522   1.091063   2.158355
    16  H    6.814721   5.598674   7.713844   6.609481   5.460260
    17  H    5.788998   4.792287   6.716673   6.033855   4.937331
    18  H    6.279429   5.185511   6.929237   5.719973   4.832049
    19  H    4.553162   3.430786   4.717321   2.630314   2.152584
    20  H    4.119401   2.789001   4.765781   3.309343   2.154836
    21  H    4.860142   3.745416   5.241421   3.630899   2.934173
                    6          7          8          9         10
     6  C    0.000000
     7  C    1.521221   0.000000
     8  C    2.475223   3.827708   0.000000
     9  N    5.625084   6.699486   3.796767   0.000000
    10  N    1.368602   2.445996   1.461423   4.681967   0.000000
    11  O    1.226708   2.406171   2.811151   5.896720   2.277228
    12  H    5.368798   6.372838   4.702148   3.378966   5.229723
    13  H    3.047662   4.277357   2.751068   3.892183   3.126210
    14  H    6.721882   7.720723   5.342009   2.062759   6.091243
    15  H    4.947449   6.025634   2.746947   2.062054   3.701525
    16  H    2.138374   1.093912   4.483662   7.650617   3.182629
    17  H    2.142313   1.094737   4.431723   6.847561   3.144473
    18  H    2.204838   1.094475   4.027698   6.712437   2.566573
    19  H    3.287630   4.489734   1.095495   3.966855   2.083294
    20  H    2.551928   4.040249   1.093041   4.478296   2.052377
    21  H    2.056302   2.565786   2.132083   4.757784   1.010183
                   11         12         13         14         15
    11  O    0.000000
    12  H    5.110726   0.000000
    13  H    2.640347   2.518722   0.000000
    14  H    6.788299   2.496867   4.313033   0.000000
    15  H    5.432744   4.892681   4.296759   4.118742   0.000000
    16  H    2.689888   7.231382   4.998108   8.696513   6.869269
    17  H    2.742810   6.081600   4.231413   7.596169   6.487892
    18  H    3.315201   6.835887   4.901609   7.877449   5.877034
    19  H    3.746883   5.532375   3.792940   5.774860   2.385578
    20  H    2.425172   4.879846   2.681468   5.839587   3.592597
    21  H    3.161059   5.677427   3.855352   6.254327   3.657970
                   16         17         18         19         20
    16  H    0.000000
    17  H    1.762856   0.000000
    18  H    1.781486   1.781875   0.000000
    19  H    5.081473   5.224527   4.488832   0.000000
    20  H    4.494357   4.649271   4.470102   1.771330   0.000000
    21  H    3.398657   3.257747   2.250301   2.411123   2.949302
                   21
    21  H    0.000000
 Stoichiometry    C8H10N2O
 Framework group  C1[X(C8H10N2O)]
 Deg. of freedom    57
 Full point group                 C1      NOp   1
 Largest Abelian subgroup         C1      NOp   1
 Largest concise Abelian subgroup C1      NOp   1
                         Standard orientation:                         
 ---------------------------------------------------------------------
 Center     Atomic      Atomic             Coordinates (Angstroms)
 Number     Number       Type             X           Y           Z
 ---------------------------------------------------------------------
      1          6           0       -2.159865    1.494181    0.040806
      2          6           0       -0.949420    0.944338   -0.371156
      3          6           0       -3.184095    0.633687    0.444981
      4          6           0       -1.896637   -1.210097    0.056209
      5          6           0       -0.801998   -0.449096   -0.365412
      6          6           0        2.475846    0.143815    0.006231
      7          6           0        3.532382    0.258835    1.094631
      8          6           0        0.494869   -1.107562   -0.791588
      9          7           0       -3.067539   -0.698675    0.456412
     10          7           0        1.599582   -0.898672    0.142078
     11          8           0        2.426577    0.929765   -0.934336
     12          1           0       -2.313573    2.569479    0.046394
     13          1           0       -0.123529    1.571406   -0.696249
     14          1           0       -4.142692    1.033024    0.773014
     15          1           0       -1.826127   -2.298810    0.068426
     16          1           0        4.519266    0.273225    0.622937
     17          1           0        3.404789    1.215033    1.612177
     18          1           0        3.501102   -0.550801    1.830420
     19          1           0        0.345863   -2.186203   -0.911758
     20          1           0        0.829391   -0.702674   -1.750181
     21          1           0        1.602112   -1.428978    1.001868
 ---------------------------------------------------------------------
 Rotational constants (GHZ):      2.6359062      0.5887937      0.5397655
 Standard basis: 6-31G(d) (6D, 7F)
 There are   185 symmetry adapted basis functions of A   symmetry.
 Integral buffers will be    131072 words long.
 Raffenetti 1 integral format.
 Two-electron integral symmetry is turned on.
   185 basis functions,   348 primitive gaussians,   185 cartesian basis functions
    40 alpha electrons       40 beta electrons
       nuclear repulsion energy       573.5366792929 Hartrees.
 NAtoms=   21 NActive=   21 NUniq=   21 SFac= 1.00D+00 NAtFMM=   60 NAOKFM=F Big=F
 One-electron integrals computed using PRISM.
 NBasis=   185 RedAO= T  NBF=   185
 NBsUse=   185 1.00D-06 NBFU=   185
 Initial guess read from the checkpoint file:  frag17-conf0.chk
 B after Tr=     0.000000    0.000000    0.000000
         Rot=    1.000000    0.000000    0.000000    0.000000 Ang=   0.00 deg.
 Initial guess orbital symmetries:
       Occupied  (A) (A) (A) (A) (A) (A) (A) (A) (A) (A) (A) (A)
                 (A) (A) (A) (A) (A) (A) (A) (A) (A) (A) (A) (A)
                 (A) (A) (A) (A) (A) (A) (A) (A) (A) (A) (A) (A)
                 (A) (A) (A) (A)
       Virtual   (A) (A) (A) (A) (A) (A) (A) (A) (A) (A) (A) (A)
                 (A) (A) (A) (A) (A) (A) (A) (A) (A) (A) (A) (A)
                 (A) (A) (A) (A) (A) (A) (A) (A) (A) (A) (A) (A)
                 (A) (A) (A) (A) (A) (A) (A) (A) (A) (A) (A) (A)
                 (A) (A) (A) (A) (A) (A) (A) (A) (A) (A) (A) (A)
                 (A) (A) (A) (A) (A) (A) (A) (A) (A) (A) (A) (A)
                 (A) (A) (A) (A) (A) (A) (A) (A) (A) (A) (A) (A)
                 (A) (A) (A) (A) (A) (A) (A) (A) (A) (A) (A) (A)
                 (A) (A) (A) (A) (A) (A) (A) (A) (A) (A) (A) (A)
                 (A) (A) (A) (A) (A) (A) (A) (A) (A) (A) (A) (A)
                 (A) (A) (A) (A) (A) (A) (A) (A) (A) (A) (A) (A)
                 (A) (A) (A) (A) (A) (A) (A) (A) (A) (A) (A) (A)
                 (A)
 Requested convergence on RMS density matrix=1.00D-08 within 128 cycles.
 Requested convergence on MAX density matrix=1.00D-06.
 Requested convergence on             energy=1.00D-06.
 No special actions if energy rises.
 SCF Done:  E(RHF) =  -492.543932579     A.U. after   14 cycles
             Convg  =    0.4093D-08             -V/T =  2.0025

 **********************************************************************

            Population analysis using the SCF density.

 **********************************************************************

 Orbital symmetries:
 BldTbl:  Degeneracy threshold= 1.00D-02
       Occupied  (A) (A) (A) (A) (A) (A) (A) (A) (A) (A) (A) (A)
                 (A) (A) (A) (A) (A) (A) (A) (A) (A) (A) (A) (A)
                 (A) (A) (A) (A) (A) (A) (A) (A) (A) (A) (A) (A)
                 (A) (A) (A) (A)
       Virtual   (A) (A) (A) (A) (A) (A) (A) (A) (A) (A) (A) (A)
                 (A) (A) (A) (A) (A) (A) (A) (A) (A) (A) (A) (A)
                 (A) (A) (A) (A) (A) (A) (A) (A) (A) (A) (A) (A)
                 (A) (A) (A) (A) (A) (A) (A) (A) (A) (A) (A) (A)
                 (A) (A) (A) (A) (A) (A) (A) (A) (A) (A) (A) (A)
                 (A) (A) (A) (A) (A) (A) (A) (A) (A) (A) (A) (A)
                 (A) (A) (A) (A) (A) (A) (A) (A) (A) (A) (A) (A)
                 (A) (A) (A) (A) (A) (A) (A) (A) (A) (A) (A) (A)
                 (A) (A) (A) (A) (A) (A) (A) (A) (A) (A) (A) (A)
                 (A) (A) (A) (A) (A) (A) (A) (A) (A) (A) (A) (A)
                 (A) (A) (A) (A) (A) (A) (A) (A) (A) (A) (A) (A)
                 (A) (A) (A) (A) (A) (A) (A) (A) (A) (A) (A) (A)
                 (A)
 The electronic state is 1-A.
 Alpha  occ. eigenvalues --  -20.52754 -15.59741 -15.56717 -11.36144 -11.27927
 Alpha  occ. eigenvalues --  -11.27381 -11.27354 -11.25371 -11.24651 -11.24473
 Alpha  occ. eigenvalues --  -11.24120  -1.37926  -1.25429  -1.23341  -1.09283
 Alpha  occ. eigenvalues --   -1.04611  -1.00983  -0.93568  -0.85592  -0.83108
 Alpha  occ. eigenvalues --   -0.79179  -0.71046  -0.69514  -0.66330  -0.65620
 Alpha  occ. eigenvalues --   -0.64362  -0.61425  -0.58703  -0.58310  -0.56828
 Alpha  occ. eigenvalues --   -0.56591  -0.54747  -0.52839  -0.52697  -0.50211
 Alpha  occ. eigenvalues --   -0.42597  -0.41728  -0.39302  -0.37179  -0.33837
 Alpha virt. eigenvalues --    0.11860   0.13667   0.18955   0.21056   0.25389
 Alpha virt. eigenvalues --    0.25722   0.27575   0.29959   0.30849   0.31367
 Alpha virt. eigenvalues --    0.32381   0.33352   0.33937   0.34365   0.39144
 Alpha virt. eigenvalues --    0.41015   0.42478   0.43980   0.47029   0.50360
 Alpha virt. eigenvalues --    0.51873   0.56326   0.60629   0.61123   0.64661
 Alpha virt. eigenvalues --    0.72617   0.72758   0.74614   0.75232   0.76999
 Alpha virt. eigenvalues --    0.78006   0.79276   0.80354   0.81658   0.82089
 Alpha virt. eigenvalues --    0.83827   0.85334   0.88087   0.89178   0.90452
 Alpha virt. eigenvalues --    0.91713   0.93674   0.94884   0.96504   0.99605
 Alpha virt. eigenvalues --    1.00599   1.06225   1.06875   1.07966   1.09271
 Alpha virt. eigenvalues --    1.10174   1.11584   1.12378   1.13527   1.14559
 Alpha virt. eigenvalues --    1.16298   1.17270   1.18377   1.18773   1.20032
 Alpha virt. eigenvalues --    1.20373   1.21346   1.24479   1.30174   1.32567
 Alpha virt. eigenvalues --    1.35038   1.37451   1.40189   1.43608   1.45232
 Alpha virt. eigenvalues --    1.48380   1.50135   1.52894   1.57327   1.59992
 Alpha virt. eigenvalues --    1.63033   1.68288   1.69580   1.72385   1.73957
 Alpha virt. eigenvalues --    1.75892   1.78490   1.79061   1.80761   1.82969
 Alpha virt. eigenvalues --    1.93907   1.97403   2.01484   2.04266   2.09829
 Alpha virt. eigenvalues --    2.11101   2.11892   2.13716   2.15680   2.16906
 Alpha virt. eigenvalues --    2.19503   2.22233   2.26298   2.27618   2.29488
 Alpha virt. eigenvalues --    2.35593   2.37692   2.41024   2.45769   2.47692
 Alpha virt. eigenvalues --    2.48938   2.53139   2.53899   2.55326   2.56150
 Alpha virt. eigenvalues --    2.61440   2.63980   2.66053   2.67871   2.70279
 Alpha virt. eigenvalues --    2.72614   2.74459   2.78920   2.87409   2.90833
 Alpha virt. eigenvalues --    2.91800   3.00564   3.01481   3.03264   3.05708
 Alpha virt. eigenvalues --    3.07985   3.13144   3.19165   3.19720   3.24569
 Alpha virt. eigenvalues --    3.35755   3.45005   3.49830   3.75613   4.36943
 Alpha virt. eigenvalues --    4.46797   4.48643   4.54774   4.55331   4.60534
 Alpha virt. eigenvalues --    4.65167   4.76342   4.81446   4.91776   5.07162
          Condensed to atoms (all electrons):
              1          2          3          4          5          6
     1  C    5.024727   0.531480   0.519363  -0.026196  -0.045833   0.000055
     2  C    0.531480   4.911351  -0.050330  -0.047839   0.543943   0.001915
     3  C    0.519363  -0.050330   4.711721  -0.086599  -0.021201  -0.000002
     4  C   -0.026196  -0.047839  -0.086599   4.741295   0.523127  -0.000029
     5  C   -0.045833   0.543943  -0.021201   0.523127   5.033254  -0.002287
     6  C    0.000055   0.001915  -0.000002  -0.000029  -0.002287   4.161338
     7  C    0.000002   0.000016   0.000000  -0.000006  -0.000430   0.360501
     8  C    0.002790  -0.043453   0.000024  -0.029713   0.313220  -0.026089
     9  N   -0.047392  -0.032258   0.477365   0.472019  -0.046313  -0.000001
    10  N   -0.000062  -0.000156   0.000020  -0.001015  -0.074541   0.280336
    11  O    0.000121  -0.001916   0.000000  -0.000028  -0.003063   0.567867
    12  H    0.376153  -0.027916  -0.025844   0.000078   0.002563   0.000001
    13  H   -0.025363   0.371851   0.001939   0.002118  -0.027501   0.000842
    14  H   -0.051668   0.002544   0.404805   0.003969  -0.000290   0.000000
    15  H   -0.000419   0.002740   0.004096   0.407138  -0.061307   0.000000
    16  H    0.000000   0.000001   0.000000   0.000000  -0.000004  -0.027447
    17  H    0.000000   0.000007   0.000000   0.000000   0.000044  -0.027710
    18  H    0.000000  -0.000006   0.000000   0.000001   0.000013  -0.039037
    19  H   -0.000032   0.002996  -0.000017  -0.000033  -0.059381   0.002561
    20  H   -0.000016  -0.002198   0.000021   0.001142  -0.041587  -0.000585
    21  H   -0.000007   0.000285  -0.000004   0.000597   0.001801  -0.015136
              7          8          9         10         11         12
     1  C    0.000002   0.002790  -0.047392  -0.000062   0.000121   0.376153
     2  C    0.000016  -0.043453  -0.032258  -0.000156  -0.001916  -0.027916
     3  C    0.000000   0.000024   0.477365   0.000020   0.000000  -0.025844
     4  C   -0.000006  -0.029713   0.472019  -0.001015  -0.000028   0.000078
     5  C   -0.000430   0.313220  -0.046313  -0.074541  -0.003063   0.002563
     6  C    0.360501  -0.026089  -0.000001   0.280336   0.567867   0.000001
     7  C    5.243253   0.004595   0.000000  -0.101485  -0.067410   0.000000
     8  C    0.004595   4.939399   0.003450   0.192432   0.004385  -0.000072
     9  N    0.000000   0.003450   6.776772  -0.000037   0.000000   0.002905
    10  N   -0.101485   0.192432  -0.000037   7.350817  -0.095962   0.000003
    11  O   -0.067410   0.004385   0.000000  -0.095962   8.207102  -0.000002
    12  H    0.000000  -0.000072   0.002905   0.000003  -0.000002   0.459502
    13  H    0.000139  -0.000419  -0.000179  -0.001787   0.009324  -0.001380
    14  H    0.000000   0.000009  -0.042801   0.000000   0.000000   0.000288
    15  H    0.000000   0.000555  -0.041104   0.000029   0.000000   0.000014
    16  H    0.381052  -0.000117   0.000000   0.001785   0.000881   0.000000
    17  H    0.379849  -0.000106   0.000000   0.001301   0.000415   0.000000
    18  H    0.374942   0.000027   0.000000   0.005327   0.002489   0.000000
    19  H   -0.000027   0.416474   0.000102  -0.041123   0.000384   0.000002
    20  H    0.000315   0.409949  -0.000066  -0.042694   0.006904  -0.000002
    21  H    0.000339  -0.021648  -0.000004   0.317359   0.002171   0.000000
             13         14         15         16         17         18
     1  C   -0.025363  -0.051668  -0.000419   0.000000   0.000000   0.000000
     2  C    0.371851   0.002544   0.002740   0.000001   0.000007  -0.000006
     3  C    0.001939   0.404805   0.004096   0.000000   0.000000   0.000000
     4  C    0.002118   0.003969   0.407138   0.000000   0.000000   0.000001
     5  C   -0.027501  -0.000290  -0.061307  -0.000004   0.000044   0.000013
     6  C    0.000842   0.000000   0.000000  -0.027447  -0.027710  -0.039037
     7  C    0.000139   0.000000   0.000000   0.381052   0.379849   0.374942
     8  C   -0.000419   0.000009   0.000555  -0.000117  -0.000106   0.000027
     9  N   -0.000179  -0.042801  -0.041104   0.000000   0.000000   0.000000
    10  N   -0.001787   0.000000   0.000029   0.001785   0.001301   0.005327
    11  O    0.009324   0.000000   0.000000   0.000881   0.000415   0.002489
    12  H   -0.001380   0.000288   0.000014   0.000000   0.000000   0.000000
    13  H    0.409254  -0.000073  -0.000089   0.000000  -0.000011  -0.000007
    14  H   -0.000073   0.479702  -0.000048   0.000000   0.000000   0.000000
    15  H   -0.000089  -0.000048   0.490769   0.000000   0.000000   0.000000
    16  H    0.000000   0.000000   0.000000   0.473345  -0.019490  -0.022601
    17  H   -0.000011   0.000000   0.000000  -0.019490   0.481055  -0.023002
    18  H   -0.000007   0.000000   0.000000  -0.022601  -0.023002   0.531097
    19  H   -0.000057   0.000000   0.002620   0.000006  -0.000001  -0.000025
    20  H    0.000505   0.000000  -0.000013   0.000007  -0.000009  -0.000020
    21  H   -0.000038   0.000000   0.000032   0.000069  -0.000077   0.001223
             19         20         21
     1  C   -0.000032  -0.000016  -0.000007
     2  C    0.002996  -0.002198   0.000285
     3  C   -0.000017   0.000021  -0.000004
     4  C   -0.000033   0.001142   0.000597
     5  C   -0.059381  -0.041587   0.001801
     6  C    0.002561  -0.000585  -0.015136
     7  C   -0.000027   0.000315   0.000339
     8  C    0.416474   0.409949  -0.021648
     9  N    0.000102  -0.000066  -0.000004
    10  N   -0.041123  -0.042694   0.317359
    11  O    0.000384   0.006904   0.002171
    12  H    0.000002  -0.000002   0.000000
    13  H   -0.000057   0.000505  -0.000038
    14  H    0.000000   0.000000   0.000000
    15  H    0.002620  -0.000013   0.000032
    16  H    0.000006   0.000007   0.000069
    17  H   -0.000001  -0.000009  -0.000077
    18  H   -0.000025  -0.000020   0.001223
    19  H    0.506166  -0.019489  -0.002006
    20  H   -0.019489   0.448783   0.002871
    21  H   -0.002006   0.002871   0.326785
 Mulliken atomic charges:
              1
     1  C   -0.257703
     2  C   -0.163056
     3  C    0.064644
     4  C    0.039976
     5  C   -0.034228
     6  C    0.762907
     7  C   -0.575645
     8  C   -0.165693
     9  N   -0.522459
    10  N   -0.790548
    11  O   -0.633662
    12  H    0.213708
    13  H    0.260928
    14  H    0.203563
    15  H    0.194988
    16  H    0.212514
    17  H    0.207735
    18  H    0.169580
    19  H    0.190880
    20  H    0.236183
    21  H    0.385388
 Sum of Mulliken atomic charges =   0.00000
 Mulliken charges with hydrogens summed into heavy atoms:
              1
     1  C   -0.043994
     2  C    0.097871
     3  C    0.268207
     4  C    0.234964
     5  C   -0.034228
     6  C    0.762907
     7  C    0.014184
     8  C    0.261370
     9  N   -0.522459
    10  N   -0.405160
    11  O   -0.633662
 Sum of Mulliken charges with hydrogens summed into heavy atoms =   0.00000
 DipInt: DoE/N= T F RetVal/Mat= T F Init=T NMatP=  1 IDeriv=0 Min/MaxMlt=  0  4
 Entering OneElI...
 OneElI was handed    33464079 working-precision words.
 Multipole integrals L=0 to 4 MinM= 0 MaxM= 0.
 Requested accuracy = 0.1000D-12
 PrsmSu:  NPrtUS=   1 ThrOK=F IAlg=1 NPAlg=1 LenDen=           0.
 Prism:   IPart=     0 DynPar=F LinDyn=F Incr=          18.
 PRISM was handed    33295603 working-precision words and  1863 shell-pairs
 IPart=  0 NShTot=        1863 NBatch=          53 AvBLen=        35.2
 PrSmSu:  NxtVal=             19.
 Electronic moments (au):
        -80.00000000          0.60223006         -0.42091597          0.85114611
      -1613.22522948       -329.51868941       -173.34132508         -7.99256475
          6.45584317          1.95637074       -495.71582788        -30.21194456
        -30.36016020        375.93126884       -615.28999705      -1082.17953153
       -384.91852377        -17.01804367         73.58928292         45.98357967
     -56440.72464180      -3330.39869356      -1201.98471349      -1413.63066519
      -1835.77314430        559.70938129        -82.72641156       -489.57894060
        -65.59481811      -5245.89662352      -4338.28807839       -645.71908146
         95.42496146        249.95234917       -248.51929242
 Electronic spatial extent (au):  <R**2>=           2116.0852
 DipInt: DoE/N= F T RetVal/Mat= T F Init=T NMatP=  1 IDeriv=0 Min/MaxMlt=  0  4
 Nuclear    moments (au):
         80.00000000          0.00000000          0.00000000          0.00000000
       1561.21500177        284.31599684        123.92372854          0.00000000
          0.00000000          0.00000000        564.64341889         27.55859295
         30.77630969       -381.26176598        638.99177370       1109.81680656
        397.54009349         10.78578065        -68.97080573        -46.28020563
      50734.95279253       2273.91551899        607.46051095       1113.97721627
       1956.52428928       -588.95072103         75.05019743        499.67481943
         59.58051354       4066.34713235       3232.13852859        352.91347959
         -6.55042930       -217.54441287        226.57778869
 Total      moments (au):
          0.00000000          0.60223006         -0.42091597          0.85114611
        -52.01022771        -45.20269258        -49.41759654         -7.99256475
          6.45584317          1.95637074         68.92759101         -2.65335161
          0.41614950         -5.33049714         23.70177665         27.63727503
         12.62156973         -6.23226301          4.61847719         -0.29662596
      -5705.77184926      -1056.48317457       -594.52420255       -299.65344891
        120.75114498        -29.24133974         -7.67621412         10.09587882
         -6.01430456      -1179.54949118      -1106.14954980       -292.80560187
         88.87453216         32.40793630        -21.94150372
 Traceless Quadrup. (au):
         -3.13338877          3.67414637         -0.54075760         -7.99256475
          6.45584317          1.95637074
 Charge=              0.0000 electrons
 Dipole moment (field-independent basis, Debye):
    X=              1.5307    Y=             -1.0699    Z=              2.1634  Tot=              2.8580
 Quadrupole moment (field-independent basis, Debye-Ang):
   XX=            -69.9555   YY=            -60.7992   ZZ=            -66.4684
   XY=            -10.7503   XZ=              8.6833   YZ=              2.6314
 Traceless Quadrupole moment (field-independent basis, Debye-Ang):
   XX=             -4.2145   YY=              4.9419   ZZ=             -0.7273
   XY=            -10.7503   XZ=              8.6833   YZ=              2.6314
 Octapole moment (field-independent basis, Debye-Ang**2):
  XXX=             49.0600  YYY=             -1.8886  ZZZ=              0.2962  XYY=             -3.7940
  XXY=             16.8700  XXZ=             19.6711  XZZ=              8.9835  YZZ=             -4.4359
  YYZ=              3.2873  XYZ=             -0.2111
 Hexadecapole moment (field-independent basis, Debye-Ang**3):
 XXXX=          -2149.0671 YYYY=           -397.9222 ZZZZ=           -223.9263 XXXY=           -112.8639
 XXXZ=             45.4807 YYYX=            -11.0137 YYYZ=             -2.8912 ZZZX=              3.8026
 ZZZY=             -2.2653 XXYY=           -444.2749 XXZZ=           -416.6289 YYZZ=           -110.2846
 XXYZ=             33.4744 YYXZ=             12.2064 ZZXY=             -8.2642
 N-N= 5.735366792929D+02 E-N=-2.298199065143D+03  KE= 4.913082852481D+02
 Entering OneElI...
 OneElI was handed    33394919 working-precision words.
 Calculate electrostatic properties
    NBasis =   185  MinDer = 0  MaxDer = 0
    NGrid  =    21  NMatD  =   1
 Requested accuracy = 0.1000D-12
 PrsmSu:  NPrtUS=   2 ThrOK=T IAlg=1 NPAlg=1 LenDen=           0.
 Prism:   IPart=     0 DynPar=F LinDyn=F Incr=         182.
 PRISM was handed    16590642 working-precision words and  1740 shell-pairs
 PRISM was handed    16590642 working-precision words and  1740 shell-pairs
 IPart=  0 NShTot=       18522 NBatch=         882 AvBLen=        21.0
 IPart=  1 NShTot=       18018 NBatch=         858 AvBLen=        21.0
 PrSmSu:  NxtVal=            365.
 --------------------------------------------------------
       Center         ----      EFG at Nuclei      ----
                      3XX-RR        3YY-RR        3ZZ-RR
 --------------------------------------------------------
     1   Atom        0.120853      0.119852     -0.240705
     2   Atom        0.148922      0.216524     -0.365446
     3   Atom        0.173279      0.136495     -0.309774
     4   Atom        0.106846      0.194754     -0.301601
     5   Atom        0.084397      0.157955     -0.242353
     6   Atom       -0.054315     -0.073354      0.127670
     7   Atom       -0.005442      0.028123     -0.022681
     8   Atom       -0.114682      0.120251     -0.005569
     9   Atom        0.428002      0.170579     -0.598581
    10   Atom        0.032267      0.142560     -0.174827
    11   Atom        0.836434     -0.300820     -0.535614
    12   Atom        0.135855     -0.299626      0.163772
    13   Atom       -0.103074     -0.010890      0.113964
    14   Atom       -0.195790      0.078937      0.116852
    15   Atom        0.137220     -0.293744      0.156524
    16   Atom       -0.216316      0.153750      0.062566
    17   Atom        0.140221     -0.187835      0.047614
    18   Atom        0.144012     -0.095231     -0.048781
    19   Atom        0.129857     -0.273830      0.143972
    20   Atom        0.099150      0.095548     -0.194697
    21   Atom        0.187406      0.041694     -0.229100
 --------------------------------------------------------
                        XY            XZ            YZ
 --------------------------------------------------------
     1   Atom        0.002117     -0.148804     -0.019227
     2   Atom       -0.022139     -0.213292     -0.019282
     3   Atom        0.017576     -0.200872     -0.028201
     4   Atom        0.039646     -0.165277     -0.031486
     5   Atom        0.025651     -0.121320     -0.028947
     6   Atom        0.240560      0.311721     -0.295288
     7   Atom       -0.000890     -0.054066      0.007517
     8   Atom       -0.007555     -0.208059     -0.092488
     9   Atom        0.639109     -0.457960     -0.267066
    10   Atom       -0.582691     -0.428572      0.452963
    11   Atom        0.886180      0.646546      0.552904
    12   Atom        0.063980      0.008133     -0.001674
    13   Atom       -0.193047      0.101818      0.077130
    14   Atom        0.144389      0.121490     -0.048614
    15   Atom        0.032738      0.006419      0.004489
    16   Atom       -0.004473      0.169478      0.000849
    17   Atom        0.047732      0.019385     -0.185185
    18   Atom       -0.018644      0.004057      0.221929
    19   Atom       -0.058166     -0.012881     -0.045979
    20   Atom       -0.042645      0.105769      0.136883
    21   Atom       -0.032520     -0.024600      0.272942
 --------------------------------------------------------


 ---------------------------------------------------------------------------------
              Nuclear Quadrupole in Principal Axis System
 ---------------------------------------------------------------------------------

       Atom             a.u.   MegaHertz   Gauss  10(-4) cm-1        Axes

              Baa    -0.2948   -39.559   -14.116   -13.196  0.3366  0.0419  0.9407
     1 C(13)  Bbb     0.1193    16.005     5.711     5.339 -0.1575  0.9874  0.0124
              Bcc     0.1755    23.554     8.405     7.857  0.9284  0.1524 -0.3389
 
              Baa    -0.4434   -59.497   -21.230   -19.846  0.3398  0.0389  0.9397
     2 C(13)  Bbb     0.2068    27.753     9.903     9.258  0.5535  0.7995 -0.2332
              Bcc     0.2366    31.744    11.327    10.589  0.7603 -0.5994 -0.2502
 
              Baa    -0.3832   -51.422   -18.349   -17.153  0.3382  0.0396  0.9403
     3 C(13)  Bbb     0.1314    17.627     6.290     5.880 -0.2222  0.9742  0.0389
              Bcc     0.2518    33.795    12.059    11.273  0.9145  0.2220 -0.3382
 
              Baa    -0.3606   -48.388   -17.266   -16.141  0.3310  0.0298  0.9432
     4 C(13)  Bbb     0.1302    17.466     6.232     5.826  0.7661 -0.5921 -0.2501
              Bcc     0.2304    30.922    11.034    10.314  0.5510  0.8053 -0.2188
 
              Baa    -0.2833   -38.021   -13.567   -12.682  0.3102  0.0443  0.9496
     5 C(13)  Bbb     0.1041    13.971     4.985     4.660  0.8184 -0.5206 -0.2431
              Bcc     0.1792    24.049     8.581     8.022  0.4836  0.8526 -0.1977
 
              Baa    -0.5689   -76.339   -27.240   -25.464 -0.6001  0.6039  0.5246
     6 C(13)  Bbb     0.1757    23.578     8.413     7.865  0.6816  0.7293 -0.0598
              Bcc     0.3932    52.761    18.827    17.599  0.4187 -0.3216  0.8493
 
              Baa    -0.0691    -9.270    -3.308    -3.092  0.6461 -0.0530  0.7614
     7 C(13)  Bbb     0.0263     3.524     1.257     1.175  0.3058  0.9320 -0.1946
              Bcc     0.0428     5.746     2.050     1.917  0.6993 -0.3586 -0.6184
 
              Baa    -0.2851   -38.259   -13.652   -12.762  0.7669  0.1563  0.6225
     8 C(13)  Bbb     0.0736     9.876     3.524     3.294 -0.4976  0.7574  0.4227
              Bcc     0.2115    28.383    10.128     9.468 -0.4054 -0.6339  0.6586
 
              Baa    -0.7740   -29.851   -10.652    -9.957  0.3387  0.0366  0.9402
     9 N(14)  Bbb    -0.3379   -13.033    -4.651    -4.347 -0.5679  0.8047  0.1732
              Bcc     1.1119    42.884    15.302    14.305  0.7502  0.5926 -0.2934
 
              Baa    -0.5127   -19.774    -7.056    -6.596  0.6881  0.1169  0.7161
    10 N(14)  Bbb    -0.4901   -18.902    -6.745    -6.305  0.4116  0.7499 -0.5179
              Bcc     1.0028    38.676    13.801    12.901 -0.5976  0.6511  0.4679
 
              Baa    -0.9874    71.451    25.495    23.833  0.0719 -0.6802  0.7295
    11 O(17)  Bbb    -0.6536    47.291    16.875    15.775  0.5871 -0.5624 -0.5823
              Bcc     1.6410  -118.742   -42.370   -39.608  0.8063  0.4702  0.3589
 
              Baa    -0.3088  -164.787   -58.800   -54.967 -0.1425  0.9898  0.0060
    12 H(1)   Bbb     0.1422    75.887    27.078    25.313  0.9303  0.1360 -0.3407
              Bcc     0.1666    88.900    31.722    29.654  0.3380  0.0430  0.9402
 
              Baa    -0.2953  -157.562   -56.222   -52.557  0.7504  0.5901 -0.2979
    13 H(1)   Bbb     0.1410    75.248    26.850    25.100 -0.5638  0.8066  0.1776
              Bcc     0.1543    82.314    29.372    27.457  0.3451  0.0347  0.9379
 
              Baa    -0.2989  -159.470   -56.903   -53.193  0.8775 -0.3740 -0.3002
    14 H(1)   Bbb     0.1403    74.877    26.718    24.976  0.3394  0.9266 -0.1621
              Bcc     0.1585    84.592    30.185    28.217  0.3388  0.0404  0.9400
 
              Baa    -0.2963  -158.066   -56.402   -52.725 -0.0752  0.9971 -0.0088
    15 H(1)   Bbb     0.1373    73.273    26.146    24.441  0.9413  0.0680 -0.3307
              Bcc     0.1589    84.792    30.256    28.284  0.3292  0.0332  0.9437
 
              Baa    -0.2964  -158.138   -56.428   -52.749  0.9042  0.0098 -0.4269
    16 H(1)   Bbb     0.1425    76.020    27.126    25.357  0.4239  0.1004  0.9001
              Bcc     0.1539    82.118    29.302    27.392 -0.0517  0.9949 -0.0867
 
              Baa    -0.2956  -157.695   -56.270   -52.602 -0.1166  0.8713  0.4767
    17 H(1)   Bbb     0.1416    75.569    26.965    25.207  0.7857 -0.2127  0.5809
              Bcc     0.1539    82.127    29.305    27.394 -0.6075 -0.4423  0.6598
 
              Baa    -0.2958  -157.810   -56.310   -52.640  0.0377  0.7430 -0.6682
    18 H(1)   Bbb     0.1379    73.570    26.251    24.540  0.8133  0.3657  0.4525
              Bcc     0.1579    84.240    30.059    28.099 -0.5806  0.5605  0.5905
 
              Baa    -0.2872  -153.257   -54.686   -51.121  0.1406  0.9840  0.1091
    19 H(1)   Bbb     0.1352    72.155    25.747    24.068  0.8960 -0.1734  0.4087
              Bcc     0.1520    81.102    28.939    27.053 -0.4211 -0.0403  0.9061
 
              Baa    -0.2831  -151.044   -53.896   -50.383 -0.2859 -0.3541  0.8904
    20 H(1)   Bbb     0.1332    71.045    25.351    23.698  0.9577 -0.0742  0.2780
              Bcc     0.1499    79.999    28.546    26.685 -0.0323  0.9323  0.3604
 
              Baa    -0.3984  -212.571   -75.851   -70.906  0.0065 -0.5267  0.8500
    21 H(1)   Bbb     0.1569    83.730    29.877    27.929  0.7995  0.5133  0.3120
              Bcc     0.2415   128.841    45.974    42.977 -0.6006  0.6776  0.4244
 

 ---------------------------------------------------------------------------------

 No NMR shielding tensors so no spin-rotation constants.
 Leave Link  601 at Sat Feb 17 20:57:50 2018, MaxMem=   33554432 cpu:       0.5
 Merz-Kollman atomic radii used.
 Read replacement radii for each type of atom:
 Atom Element Radius
    1     6    1.50
    2     6    1.50
    3     6    1.50
    4     6    1.50
    5     6    1.50
    6     6    1.50
    7     6    1.50
    8     6    1.50
    9     7    1.50
   10     7    1.50
   11     8    1.40
   12     1    1.20
   13     1    1.20
   14     1    1.20
   15     1    1.20
   16     1    1.20
   17     1    1.20
   18     1    1.20
   19     1    1.20
   20     1    1.20
   21     1    1.20
 Generate VDW surfaces: Layer= 4 Dens= 1 Start= 1.400 Inc= 0.200

 **********************************************************************

            Electrostatic Properties Using The SCF Density

 **********************************************************************

       Atomic Center    1 is at  -2.159865  1.494181  0.040806
       Atomic Center    2 is at  -0.949420  0.944338 -0.371156
       Atomic Center    3 is at  -3.184095  0.633687  0.444981
       Atomic Center    4 is at  -1.896637 -1.210097  0.056209
       Atomic Center    5 is at  -0.801998 -0.449096 -0.365412
       Atomic Center    6 is at   2.475846  0.143815  0.006231
       Atomic Center    7 is at   3.532382  0.258835  1.094631
       Atomic Center    8 is at   0.494869 -1.107562 -0.791588
       Atomic Center    9 is at  -3.067539 -0.698675  0.456412
       Atomic Center   10 is at   1.599582 -0.898672  0.142078
       Atomic Center   11 is at   2.426577  0.929765 -0.934336
       Atomic Center   12 is at  -2.313573  2.569479  0.046394
       Atomic Center   13 is at  -0.123529  1.571406 -0.696249
       Atomic Center   14 is at  -4.142692  1.033024  0.773014
       Atomic Center   15 is at  -1.826127 -2.298810  0.068426
       Atomic Center   16 is at   4.519266  0.273225  0.622937
       Atomic Center   17 is at   3.404789  1.215033  1.612177
       Atomic Center   18 is at   3.501102 -0.550801  1.830420
       Atomic Center   19 is at   0.345863 -2.186203 -0.911758
       Atomic Center   20 is at   0.829391 -0.702674 -1.750181
       Atomic Center   21 is at   1.602112 -1.428978  1.001868
      ESP Fit Center   22 is at  -2.159865  1.494181  2.140806
      ESP Fit Center   23 is at  -1.109865  1.494181  1.859460
      ESP Fit Center   24 is at  -1.634865  2.403508  1.859460
      ESP Fit Center   25 is at  -2.684865  2.403508  1.859460
      ESP Fit Center   26 is at  -0.629917  2.477420  1.090806
      ESP Fit Center   27 is at  -3.904851  2.006555 -1.009194
      ESP Fit Center   28 is at  -1.634865  2.403508 -1.777847
      ESP Fit Center   29 is at  -2.684865  2.403508 -1.777847
      ESP Fit Center   30 is at  -3.209865  1.494181 -1.777847
      ESP Fit Center   31 is at  -2.684865  0.584855 -1.777847
      ESP Fit Center   32 is at  -2.159865  1.494181 -2.059194
      ESP Fit Center   33 is at  -0.949420  0.944338  1.728844
      ESP Fit Center   34 is at   0.100580  0.944338  1.447497
      ESP Fit Center   35 is at  -0.424420  1.853665  1.447497
      ESP Fit Center   36 is at  -0.193924  2.598643  0.678844
      ESP Fit Center   37 is at  -1.208241  2.744480 -1.421156
      ESP Fit Center   38 is at  -1.474420  1.853665 -2.189809
      ESP Fit Center   39 is at  -1.999420  0.944338 -2.189809
      ESP Fit Center   40 is at  -0.949420  0.944338 -2.471156
      ESP Fit Center   41 is at  -3.184095  0.633687  2.544981
      ESP Fit Center   42 is at  -2.134095  0.633687  2.263634
      ESP Fit Center   43 is at  -2.659095  1.543013  2.263634
      ESP Fit Center   44 is at  -3.442917  2.433829  1.494981
      ESP Fit Center   45 is at  -4.375060  2.008133 -0.605019
      ESP Fit Center   46 is at  -4.929080  0.121313 -0.605019
      ESP Fit Center   47 is at  -4.234095  0.633687 -1.373672
      ESP Fit Center   48 is at  -3.184095  0.633687 -1.655019
      ESP Fit Center   49 is at  -1.896637 -1.210097  2.156209
      ESP Fit Center   50 is at  -0.846637 -1.210097  1.874862
      ESP Fit Center   51 is at  -1.371637 -0.300770  1.874862
      ESP Fit Center   52 is at  -2.421637 -2.119423  1.874862
      ESP Fit Center   53 is at  -1.371637 -2.119423  1.874862
      ESP Fit Center   54 is at  -0.366689 -2.193335  1.106209
      ESP Fit Center   55 is at  -2.421637 -0.300770 -1.762445
      ESP Fit Center   56 is at  -2.946637 -1.210097 -1.762445
      ESP Fit Center   57 is at  -2.421637 -2.119423 -1.762445
      ESP Fit Center   58 is at  -1.371637 -2.119423 -1.762445
      ESP Fit Center   59 is at  -1.896637 -1.210097 -2.043791
      ESP Fit Center   60 is at  -0.801998 -0.449096  1.734588
      ESP Fit Center   61 is at  -0.276998 -1.358423  1.453241
      ESP Fit Center   62 is at  -1.851998 -0.449096 -2.184065
      ESP Fit Center   63 is at  -1.326998 -1.358423 -2.184065
      ESP Fit Center   64 is at  -0.801998 -0.449096 -2.465412
      ESP Fit Center   65 is at   1.284881  1.518261  1.056231
      ESP Fit Center   66 is at   3.668782 -1.584451  0.006231
      ESP Fit Center   67 is at   4.294499  0.143815 -1.043769
      ESP Fit Center   68 is at   3.231342 -1.510491 -1.043769
      ESP Fit Center   69 is at   4.005794 -0.839424 -1.043769
      ESP Fit Center   70 is at   3.000846 -0.765512 -1.812422
      ESP Fit Center   71 is at   4.582382  0.258835  2.913284
      ESP Fit Center   72 is at   2.482382  0.258835  2.913284
      ESP Fit Center   73 is at   5.351035  0.258835  2.144631
      ESP Fit Center   74 is at   5.062331  1.242074  2.144631
      ESP Fit Center   75 is at   1.787397  0.771209  2.144631
      ESP Fit Center   76 is at   4.725318 -1.469431  1.094631
      ESP Fit Center   77 is at   4.287878  1.913141  0.044631
      ESP Fit Center   78 is at   4.287878 -1.395470  0.044631
      ESP Fit Center   79 is at  -0.030131 -2.016889  1.027065
      ESP Fit Center   80 is at   2.024818 -2.090800 -1.841588
      ESP Fit Center   81 is at  -0.030131 -2.016889 -2.610241
      ESP Fit Center   82 is at  -3.067539 -0.698675  2.556412
      ESP Fit Center   83 is at  -2.017539 -0.698675  2.275066
      ESP Fit Center   84 is at  -4.117539 -0.698675  2.275066
      ESP Fit Center   85 is at  -3.592539 -1.608002  2.275066
      ESP Fit Center   86 is at  -2.542539 -1.608002  2.275066
      ESP Fit Center   87 is at  -4.812524 -1.211049  1.506412
      ESP Fit Center   88 is at  -4.258504 -2.073122  1.506412
      ESP Fit Center   89 is at  -3.326360 -2.498817  1.506412
      ESP Fit Center   90 is at  -5.106517 -1.201238  0.456412
      ESP Fit Center   91 is at  -4.639412 -2.091233  0.456412
      ESP Fit Center   92 is at  -3.812209 -2.662209  0.456412
      ESP Fit Center   93 is at  -4.812524 -1.211049 -0.593588
      ESP Fit Center   94 is at  -4.258504 -2.073122 -0.593588
      ESP Fit Center   95 is at  -4.117539 -0.698675 -1.362241
      ESP Fit Center   96 is at  -3.592539 -1.608002 -1.362241
      ESP Fit Center   97 is at  -3.067539 -0.698675 -1.643588
      ESP Fit Center   98 is at   1.074582  0.010655  1.960731
      ESP Fit Center   99 is at   0.408617  0.475775  1.192078
      ESP Fit Center  100 is at   1.852709 -2.983360  0.142078
      ESP Fit Center  101 is at   2.792518 -2.626938  0.142078
      ESP Fit Center  102 is at   3.459039 -1.874590  0.142078
      ESP Fit Center  103 is at   2.355078 -2.552977 -0.907922
      ESP Fit Center  104 is at   3.129530 -1.881910 -0.907922
      ESP Fit Center  105 is at   2.951105  2.544097  0.045664
      ESP Fit Center  106 is at   1.902048  2.544097  0.045664
      ESP Fit Center  107 is at   4.386577  0.929765 -0.934336
      ESP Fit Center  108 is at   4.123987  1.909765 -0.934336
      ESP Fit Center  109 is at   3.406577  2.627174 -0.934336
      ESP Fit Center  110 is at   2.426577  2.889765 -0.934336
      ESP Fit Center  111 is at   1.446577  2.627174 -0.934336
      ESP Fit Center  112 is at   4.123987  0.929765 -1.914336
      ESP Fit Center  113 is at   3.799810  1.927477 -1.914336
      ESP Fit Center  114 is at   2.951105  2.544097 -1.914336
      ESP Fit Center  115 is at   1.902048  2.544097 -1.914336
      ESP Fit Center  116 is at   1.053343  1.927477 -1.914336
      ESP Fit Center  117 is at   2.951105 -0.684568 -1.914336
      ESP Fit Center  118 is at   3.799810 -0.067948 -1.914336
      ESP Fit Center  119 is at   3.406577  0.929765 -2.631746
      ESP Fit Center  120 is at   2.916577  1.778469 -2.631746
      ESP Fit Center  121 is at   1.936577  1.778469 -2.631746
      ESP Fit Center  122 is at   1.446577  0.929765 -2.631746
      ESP Fit Center  123 is at   2.916577  0.081060 -2.631746
      ESP Fit Center  124 is at   2.426577  0.929765 -2.894336
      ESP Fit Center  125 is at  -2.008425  3.508628  1.405543
      ESP Fit Center  126 is at  -3.112461  3.149905  1.405543
      ESP Fit Center  127 is at  -1.089606  3.596509  0.565543
      ESP Fit Center  128 is at  -2.036122  4.142981  0.565543
      ESP Fit Center  129 is at  -3.112461  3.953193  0.565543
      ESP Fit Center  130 is at  -3.814990  3.115951  0.565543
      ESP Fit Center  131 is at  -1.089606  3.596509 -0.472754
      ESP Fit Center  132 is at  -2.036122  4.142981 -0.472754
      ESP Fit Center  133 is at  -3.112461  3.953193 -0.472754
      ESP Fit Center  134 is at  -3.814990  3.115951 -0.472754
      ESP Fit Center  135 is at  -2.008425  3.508628 -1.312754
      ESP Fit Center  136 is at  -3.112461  3.149905 -1.312754
      ESP Fit Center  137 is at   0.863950  1.571406  0.662900
      ESP Fit Center  138 is at   0.181619  2.510555  0.662900
      ESP Fit Center  139 is at   1.100437  2.598436 -0.177100
      ESP Fit Center  140 is at   0.153921  3.144907 -0.177100
      ESP Fit Center  141 is at   1.100437  2.598436 -1.215397
      ESP Fit Center  142 is at   0.153921  3.144907 -1.215397
      ESP Fit Center  143 is at  -0.922417  2.955120 -1.215397
      ESP Fit Center  144 is at   0.863950  1.571406 -2.055397
      ESP Fit Center  145 is at   0.181619  2.510555 -2.055397
      ESP Fit Center  146 is at  -0.123529  1.571406 -2.376249
      ESP Fit Center  147 is at  -4.142692  1.033024  2.453014
      ESP Fit Center  148 is at  -3.837544  1.972173  2.132162
      ESP Fit Center  149 is at  -4.941580  1.613450  2.132162
      ESP Fit Center  150 is at  -4.941580  0.452599  2.132162
      ESP Fit Center  151 is at  -3.865241  2.606526  1.292162
      ESP Fit Center  152 is at  -4.941580  2.416738  1.292162
      ESP Fit Center  153 is at  -5.644109  1.579496  1.292162
      ESP Fit Center  154 is at  -5.644109  0.486553  1.292162
      ESP Fit Center  155 is at  -4.941580  2.416738  0.253865
      ESP Fit Center  156 is at  -5.644109  1.579496  0.253865
      ESP Fit Center  157 is at  -5.644109  0.486553  0.253865
      ESP Fit Center  158 is at  -4.941580  1.613450 -0.586135
      ESP Fit Center  159 is at  -2.625014 -2.879236  1.427574
      ESP Fit Center  160 is at  -1.520979 -3.237958  1.427574
      ESP Fit Center  161 is at  -3.327544 -2.845281  0.587574
      ESP Fit Center  162 is at  -2.625014 -3.682524  0.587574
      ESP Fit Center  163 is at  -1.548676 -3.872311  0.587574
      ESP Fit Center  164 is at  -0.602160 -3.325840  0.587574
      ESP Fit Center  165 is at  -3.327544 -2.845281 -0.450723
      ESP Fit Center  166 is at  -2.625014 -3.682524 -0.450723
      ESP Fit Center  167 is at  -1.548676 -3.872311 -0.450723
      ESP Fit Center  168 is at  -2.625014 -2.879236 -1.290723
      ESP Fit Center  169 is at  -1.520979 -3.237958 -1.290723
      ESP Fit Center  170 is at   5.506746  0.273225  1.982086
      ESP Fit Center  171 is at   6.117041  0.273225  1.142086
      ESP Fit Center  172 is at   5.743233  1.300254  1.142086
      ESP Fit Center  173 is at   5.743233 -0.753805  1.142086
      ESP Fit Center  174 is at   6.117041  0.273225  0.103789
      ESP Fit Center  175 is at   5.743233  1.300254  0.103789
      ESP Fit Center  176 is at   4.796717  1.846726  0.103789
      ESP Fit Center  177 is at   4.796717 -1.300277  0.103789
      ESP Fit Center  178 is at   5.743233 -0.753805  0.103789
      ESP Fit Center  179 is at   5.506746  0.273225 -0.736211
      ESP Fit Center  180 is at   4.824414  1.212373 -0.736211
      ESP Fit Center  181 is at   4.824414 -0.665924 -0.736211
      ESP Fit Center  182 is at   4.519266  0.273225 -1.057063
      ESP Fit Center  183 is at   3.404789  1.215033  3.292177
      ESP Fit Center  184 is at   4.392268  1.215033  2.971326
      ESP Fit Center  185 is at   3.709936  2.154182  2.971326
      ESP Fit Center  186 is at   2.605901  1.795459  2.971326
      ESP Fit Center  187 is at   2.605901  0.634608  2.971326
      ESP Fit Center  188 is at   4.628755  2.242063  2.131326
      ESP Fit Center  189 is at   3.682239  2.788534  2.131326
      ESP Fit Center  190 is at   2.605901  2.598747  2.131326
      ESP Fit Center  191 is at   1.903371  1.761505  2.131326
      ESP Fit Center  192 is at   4.628755  2.242063  1.093029
      ESP Fit Center  193 is at   3.682239  2.788534  1.093029
      ESP Fit Center  194 is at   2.605901  2.598747  1.093029
      ESP Fit Center  195 is at   3.501102 -0.550801  3.510420
      ESP Fit Center  196 is at   4.488582 -0.550801  3.189569
      ESP Fit Center  197 is at   3.806250  0.388347  3.189569
      ESP Fit Center  198 is at   2.702215  0.029625  3.189569
      ESP Fit Center  199 is at   2.702215 -1.131227  3.189569
      ESP Fit Center  200 is at   3.806250 -1.489950  3.189569
      ESP Fit Center  201 is at   5.098877 -0.550801  2.349569
      ESP Fit Center  202 is at   2.702215 -1.934515  2.349569
      ESP Fit Center  203 is at   3.778553 -2.124302  2.349569
      ESP Fit Center  204 is at   4.725069 -1.577831  2.349569
      ESP Fit Center  205 is at   3.778553 -2.124302  1.311272
      ESP Fit Center  206 is at   4.725069 -1.577831  1.311272
      ESP Fit Center  207 is at   0.651011 -3.125351  0.447391
      ESP Fit Center  208 is at  -0.453024 -3.569916 -0.392609
      ESP Fit Center  209 is at   0.623314 -3.759704 -0.392609
      ESP Fit Center  210 is at   1.569830 -3.213233 -0.392609
      ESP Fit Center  211 is at  -1.155554 -2.732674 -1.430907
      ESP Fit Center  212 is at  -0.453024 -3.569916 -1.430907
      ESP Fit Center  213 is at   0.623314 -3.759704 -1.430907
      ESP Fit Center  214 is at   1.569830 -3.213233 -1.430907
      ESP Fit Center  215 is at  -0.453024 -2.766628 -2.270907
      ESP Fit Center  216 is at   0.651011 -3.125351 -2.270907
      ESP Fit Center  217 is at   0.345863 -2.186203 -2.591758
      ESP Fit Center  218 is at   2.427166 -0.702674 -2.269329
      ESP Fit Center  219 is at   0.030504  0.681040 -2.269329
      ESP Fit Center  220 is at   2.053358 -1.729704 -2.269329
      ESP Fit Center  221 is at   1.816871 -0.702674 -3.109329
      ESP Fit Center  222 is at   1.134539  0.236474 -3.109329
      ESP Fit Center  223 is at   0.030504 -0.122248 -3.109329
      ESP Fit Center  224 is at   0.030504 -1.283100 -3.109329
      ESP Fit Center  225 is at   1.134539 -1.641823 -3.109329
      ESP Fit Center  226 is at   0.829391 -0.702674 -3.430181
      ESP Fit Center  227 is at   1.602112 -1.428978  2.681868
      ESP Fit Center  228 is at   1.907260 -0.489829  2.361016
      ESP Fit Center  229 is at   0.803225 -0.848552  2.361016
      ESP Fit Center  230 is at   0.803225 -2.009404  2.361016
      ESP Fit Center  231 is at   1.907260 -2.368126  2.361016
      ESP Fit Center  232 is at   0.100695 -1.975449  1.521016
      ESP Fit Center  233 is at   0.803225 -2.812692  1.521016
      ESP Fit Center  234 is at   1.879563 -3.002479  1.521016
      ESP Fit Center  235 is at   2.826079 -2.456008  1.521016
      ESP Fit Center  236 is at   1.879563 -3.002479  0.482719
      ESP Fit Center  237 is at  -2.159865  1.494181  2.440806
      ESP Fit Center  238 is at  -1.118544  1.494181  2.203132
      ESP Fit Center  239 is at  -1.639205  2.395992  2.203132
      ESP Fit Center  240 is at  -2.680526  2.395992  2.203132
      ESP Fit Center  241 is at  -0.581341  2.508637  1.537182
      ESP Fit Center  242 is at  -3.960254  2.022823 -1.455569
      ESP Fit Center  243 is at  -2.680526  2.395992 -2.121519
      ESP Fit Center  244 is at  -3.201186  1.494181 -2.121519
      ESP Fit Center  245 is at  -2.680526  0.592371 -2.121519
      ESP Fit Center  246 is at   0.091901  0.944338  1.791169
      ESP Fit Center  247 is at  -0.428759  1.846149  1.791169
      ESP Fit Center  248 is at   0.629105  1.958794  1.125219
      ESP Fit Center  249 is at  -0.169937  2.651168  1.125219
      ESP Fit Center  250 is at  -1.216459  2.801635 -1.867532
      ESP Fit Center  251 is at   0.091901  0.944338 -2.533481
      ESP Fit Center  252 is at  -1.470080  1.846149 -2.533481
      ESP Fit Center  253 is at  -1.990741  0.944338 -2.533481
      ESP Fit Center  254 is at  -0.949420  0.944338 -2.771156
      ESP Fit Center  255 is at  -3.184095  0.633687  2.844981
      ESP Fit Center  256 is at  -2.142774  0.633687  2.607306
      ESP Fit Center  257 is at  -2.663435  1.535497  2.607306
      ESP Fit Center  258 is at  -3.704756  1.535497  2.607306
      ESP Fit Center  259 is at  -3.451134  2.490983  1.941356
      ESP Fit Center  260 is at  -4.412873  2.051772 -1.051395
      ESP Fit Center  261 is at  -4.984484  1.162328 -1.051395
      ESP Fit Center  262 is at  -4.984484  0.105045 -1.051395
      ESP Fit Center  263 is at  -4.225416  0.633687 -1.717344
      ESP Fit Center  264 is at  -3.184095  0.633687 -1.955019
      ESP Fit Center  265 is at  -0.855316 -1.210097  2.218534
      ESP Fit Center  266 is at  -1.375977 -0.308286  2.218534
      ESP Fit Center  267 is at  -1.375977 -2.111907  2.218534
      ESP Fit Center  268 is at  -0.318113 -2.224553  1.552584
      ESP Fit Center  269 is at  -3.125415 -2.628182 -1.440167
      ESP Fit Center  270 is at  -2.937958 -1.210097 -2.106117
      ESP Fit Center  271 is at  -2.417298 -2.111907 -2.106117
      ESP Fit Center  272 is at  -1.375977 -2.111907 -2.106117
      ESP Fit Center  273 is at  -1.843319 -0.449096 -2.527737
      ESP Fit Center  274 is at  -1.322659 -1.350906 -2.527737
      ESP Fit Center  275 is at  -0.801998 -0.449096 -2.765412
      ESP Fit Center  276 is at   1.247068  1.561900  1.502607
      ESP Fit Center  277 is at   3.934704 -1.685536 -0.527819
      ESP Fit Center  278 is at   3.255329 -1.563015 -1.490144
      ESP Fit Center  279 is at   4.054370 -0.870641 -1.490144
      ESP Fit Center  280 is at   4.573703  0.258835  3.256956
      ESP Fit Center  281 is at   2.491061  0.258835  3.256956
      ESP Fit Center  282 is at   5.408778  0.258835  2.591006
      ESP Fit Center  283 is at   5.110906  1.273291  2.591006
      ESP Fit Center  284 is at   1.731994  0.787477  2.591006
      ESP Fit Center  285 is at   1.731994 -0.269806  2.591006
      ESP Fit Center  286 is at   4.053042 -2.022327  0.560581
      ESP Fit Center  287 is at   4.311865 -1.447994 -0.401745
      ESP Fit Center  288 is at   2.073393 -2.122018 -2.287963
      ESP Fit Center  289 is at  -0.025791 -2.009373 -2.953913
      ESP Fit Center  290 is at  -3.067539 -0.698675  2.856412
      ESP Fit Center  291 is at  -2.026218 -0.698675  2.618737
      ESP Fit Center  292 is at  -4.108860 -0.698675  2.618737
      ESP Fit Center  293 is at  -3.588199 -1.600486  2.618737
      ESP Fit Center  294 is at  -2.546878 -1.600486  2.618737
      ESP Fit Center  295 is at  -4.867927 -1.227317  1.952788
      ESP Fit Center  296 is at  -4.296317 -2.116760  1.952788
      ESP Fit Center  297 is at  -3.334578 -2.555972  1.952788
      ESP Fit Center  298 is at  -5.407366 -0.698675  0.990462
      ESP Fit Center  299 is at  -5.175650 -1.713888  0.990462
      ESP Fit Center  300 is at  -4.526397 -2.528026  0.990462
      ESP Fit Center  301 is at  -3.588199 -2.979838  0.990462
      ESP Fit Center  302 is at  -5.407366 -0.698675 -0.077638
      ESP Fit Center  303 is at  -5.175650 -1.713888 -0.077638
      ESP Fit Center  304 is at  -4.526397 -2.528026 -0.077638
      ESP Fit Center  305 is at  -4.867927 -1.227317 -1.039963
      ESP Fit Center  306 is at  -4.296317 -2.116760 -1.039963
      ESP Fit Center  307 is at  -4.108860 -0.698675 -1.705913
      ESP Fit Center  308 is at  -3.588199 -1.600486 -1.705913
      ESP Fit Center  309 is at   1.078921  0.003139  2.304403
      ESP Fit Center  310 is at   0.370804  0.519414  1.638453
      ESP Fit Center  311 is at   3.058440 -2.728022  0.676128
      ESP Fit Center  312 is at   2.120242 -3.179834 -0.391972
      ESP Fit Center  313 is at   3.058440 -2.728022 -0.391972
      ESP Fit Center  314 is at   3.707693 -1.913884 -0.391972
      ESP Fit Center  315 is at   2.379065 -2.605501 -1.354298
      ESP Fit Center  316 is at   3.178106 -1.913128 -1.354298
      ESP Fit Center  317 is at   1.885395  2.595352  0.462281
      ESP Fit Center  318 is at   4.360270  1.944645 -0.435889
      ESP Fit Center  319 is at   3.667138  2.727028 -0.435889
      ESP Fit Center  320 is at   2.689809  3.097680 -0.435889
      ESP Fit Center  321 is at   1.652177  2.971689 -0.435889
      ESP Fit Center  322 is at   4.610415  0.929765 -1.432783
      ESP Fit Center  323 is at   4.360270  1.944645 -1.432783
      ESP Fit Center  324 is at   3.667138  2.727028 -1.432783
      ESP Fit Center  325 is at   2.689809  3.097680 -1.432783
      ESP Fit Center  326 is at   1.652177  2.971689 -1.432783
      ESP Fit Center  327 is at   4.177879  0.929765 -2.330953
      ESP Fit Center  328 is at   3.843410  1.959154 -2.330953
      ESP Fit Center  329 is at   2.967759  2.595352 -2.330953
      ESP Fit Center  330 is at   1.885395  2.595352 -2.330953
      ESP Fit Center  331 is at   1.009743  1.959154 -2.330953
      ESP Fit Center  332 is at   2.967759 -0.735823 -2.330953
      ESP Fit Center  333 is at   3.843410 -0.099625 -2.330953
      ESP Fit Center  334 is at   3.398476  0.929765 -2.952506
      ESP Fit Center  335 is at   2.912527  1.771454 -2.952506
      ESP Fit Center  336 is at   1.940627  1.771454 -2.952506
      ESP Fit Center  337 is at   1.454677  0.929765 -2.952506
      ESP Fit Center  338 is at   2.912527  0.088075 -2.952506
      ESP Fit Center  339 is at   2.426577  0.929765 -3.174336
      ESP Fit Center  340 is at  -1.833573  3.400864  1.709163
      ESP Fit Center  341 is at  -2.793573  3.400864  1.709163
      ESP Fit Center  342 is at  -0.968365  3.546830  1.006394
      ESP Fit Center  343 is at  -1.799749  4.150867  1.006394
      ESP Fit Center  344 is at  -2.827397  4.150867  1.006394
      ESP Fit Center  345 is at  -3.658781  3.546830  1.006394
      ESP Fit Center  346 is at  -0.650804  3.529479  0.046394
      ESP Fit Center  347 is at  -1.353573  4.232248  0.046394
      ESP Fit Center  348 is at  -2.313573  4.489479  0.046394
      ESP Fit Center  349 is at  -3.273573  4.232248  0.046394
      ESP Fit Center  350 is at  -3.976342  3.529479  0.046394
      ESP Fit Center  351 is at  -0.968365  3.546830 -0.913606
      ESP Fit Center  352 is at  -1.799749  4.150867 -0.913606
      ESP Fit Center  353 is at  -2.827397  4.150867 -0.913606
      ESP Fit Center  354 is at  -3.658781  3.546830 -0.913606
      ESP Fit Center  355 is at  -1.833573  3.400864 -1.616374
      ESP Fit Center  356 is at  -2.793573  3.400864 -1.616374
      ESP Fit Center  357 is at   1.221679  2.548757  0.263751
      ESP Fit Center  358 is at   0.390295  3.152793  0.263751
      ESP Fit Center  359 is at   0.836471  3.234175 -0.696249
      ESP Fit Center  360 is at  -0.123529  3.491406 -0.696249
      ESP Fit Center  361 is at   0.390295  3.152793 -1.656249
      ESP Fit Center  362 is at  -0.637353  3.152793 -1.656249
      ESP Fit Center  363 is at   0.356471  2.402790 -2.359018
      ESP Fit Center  364 is at  -0.603529  2.402790 -2.359018
      ESP Fit Center  365 is at  -0.123529  1.571406 -2.616249
      ESP Fit Center  366 is at  -4.142692  1.033024  2.693014
      ESP Fit Center  367 is at  -4.622692  1.864409  2.435782
      ESP Fit Center  368 is at  -5.102692  1.033024  2.435782
      ESP Fit Center  369 is at  -4.622692  0.201640  2.435782
      ESP Fit Center  370 is at  -3.628868  2.614412  1.733014
      ESP Fit Center  371 is at  -4.656516  2.614412  1.733014
      ESP Fit Center  372 is at  -5.487900  2.010375  1.733014
      ESP Fit Center  373 is at  -5.805461  1.033024  1.733014
      ESP Fit Center  374 is at  -5.487900  0.055673  1.733014
      ESP Fit Center  375 is at  -4.142692  2.953024  0.773014
      ESP Fit Center  376 is at  -5.102692  2.695793  0.773014
      ESP Fit Center  377 is at  -5.805461  1.993024  0.773014
      ESP Fit Center  378 is at  -6.062692  1.033024  0.773014
      ESP Fit Center  379 is at  -5.805461  0.073024  0.773014
      ESP Fit Center  380 is at  -4.656516  2.614412 -0.186986
      ESP Fit Center  381 is at  -5.487900  2.010375 -0.186986
      ESP Fit Center  382 is at  -5.805461  1.033024 -0.186986
      ESP Fit Center  383 is at  -5.487900  0.055673 -0.186986
      ESP Fit Center  384 is at  -2.306127 -3.130194  1.731195
      ESP Fit Center  385 is at  -1.346127 -3.130194  1.731195
      ESP Fit Center  386 is at  -3.171335 -3.276161  1.028426
      ESP Fit Center  387 is at  -2.339951 -3.880197  1.028426
      ESP Fit Center  388 is at  -1.312303 -3.880197  1.028426
      ESP Fit Center  389 is at  -0.480919 -3.276161  1.028426
      ESP Fit Center  390 is at  -3.488896 -3.258810  0.068426
      ESP Fit Center  391 is at  -2.786127 -3.961579  0.068426
      ESP Fit Center  392 is at  -1.826127 -4.218810  0.068426
      ESP Fit Center  393 is at  -0.866127 -3.961579  0.068426
      ESP Fit Center  394 is at  -3.171335 -3.276161 -0.891574
      ESP Fit Center  395 is at  -2.339951 -3.880197 -0.891574
      ESP Fit Center  396 is at  -1.312303 -3.880197 -0.891574
      ESP Fit Center  397 is at  -2.306127 -3.130194 -1.594343
      ESP Fit Center  398 is at  -1.346127 -3.130194 -1.594343
      ESP Fit Center  399 is at   6.182035  0.273225  1.582937
      ESP Fit Center  400 is at   5.864475  1.250576  1.582937
      ESP Fit Center  401 is at   5.864475 -0.704126  1.582937
      ESP Fit Center  402 is at   6.439266  0.273225  0.622937
      ESP Fit Center  403 is at   6.182035  1.233225  0.622937
      ESP Fit Center  404 is at   5.479266  1.935993  0.622937
      ESP Fit Center  405 is at   5.479266 -1.389544  0.622937
      ESP Fit Center  406 is at   6.182035 -0.686775  0.622937
      ESP Fit Center  407 is at   6.182035  0.273225 -0.337063
      ESP Fit Center  408 is at   5.864475  1.250576 -0.337063
      ESP Fit Center  409 is at   5.033090  1.854612 -0.337063
      ESP Fit Center  410 is at   5.033090 -1.308163 -0.337063
      ESP Fit Center  411 is at   5.864475 -0.704126 -0.337063
      ESP Fit Center  412 is at   5.479266  0.273225 -1.039831
      ESP Fit Center  413 is at   4.999266  1.104609 -1.039831
      ESP Fit Center  414 is at   4.999266 -0.558160 -1.039831
      ESP Fit Center  415 is at   3.404789  1.215033  3.532177
      ESP Fit Center  416 is at   4.364789  1.215033  3.274946
      ESP Fit Center  417 is at   3.884789  2.046418  3.274946
      ESP Fit Center  418 is at   2.924789  2.046418  3.274946
      ESP Fit Center  419 is at   2.444789  1.215033  3.274946
      ESP Fit Center  420 is at   4.749997  2.192384  2.572177
      ESP Fit Center  421 is at   3.918612  2.796420  2.572177
      ESP Fit Center  422 is at   2.890965  2.796420  2.572177
      ESP Fit Center  423 is at   2.059580  2.192384  2.572177
      ESP Fit Center  424 is at   1.742020  1.215033  2.572177
      ESP Fit Center  425 is at   5.067557  2.175033  1.612177
      ESP Fit Center  426 is at   4.364789  2.877802  1.612177
      ESP Fit Center  427 is at   3.404789  3.135033  1.612177
      ESP Fit Center  428 is at   2.444789  2.877802  1.612177
      ESP Fit Center  429 is at   1.742020  2.175033  1.612177
      ESP Fit Center  430 is at   3.918612  2.796420  0.652177
      ESP Fit Center  431 is at   2.890965  2.796420  0.652177
      ESP Fit Center  432 is at   3.501102 -0.550801  3.750420
      ESP Fit Center  433 is at   4.461102 -0.550801  3.493189
      ESP Fit Center  434 is at   3.981102  0.280583  3.493189
      ESP Fit Center  435 is at   3.021102  0.280583  3.493189
      ESP Fit Center  436 is at   2.541102 -0.550801  3.493189
      ESP Fit Center  437 is at   3.021102 -1.382186  3.493189
      ESP Fit Center  438 is at   3.981102 -1.382186  3.493189
      ESP Fit Center  439 is at   5.163871 -0.550801  2.790420
      ESP Fit Center  440 is at   1.838334 -0.550801  2.790420
      ESP Fit Center  441 is at   2.987279 -2.132188  2.790420
      ESP Fit Center  442 is at   4.014926 -2.132188  2.790420
      ESP Fit Center  443 is at   4.846311 -1.528152  2.790420
      ESP Fit Center  444 is at   3.501102 -2.470801  1.830420
      ESP Fit Center  445 is at   4.461102 -2.213570  1.830420
      ESP Fit Center  446 is at   5.163871 -1.510801  1.830420
      ESP Fit Center  447 is at   4.014926 -2.132188  0.870420
      ESP Fit Center  448 is at  -0.134137 -3.017587  0.751011
      ESP Fit Center  449 is at  -0.167961 -3.767590  0.048242
      ESP Fit Center  450 is at   0.859687 -3.767590  0.048242
      ESP Fit Center  451 is at  -0.614137 -3.848971 -0.911758
      ESP Fit Center  452 is at   0.345863 -4.106203 -0.911758
      ESP Fit Center  453 is at   1.305863 -3.848971 -0.911758
      ESP Fit Center  454 is at   2.008632 -3.146203 -0.911758
      ESP Fit Center  455 is at  -0.999345 -3.163554 -1.871758
      ESP Fit Center  456 is at  -0.167961 -3.767590 -1.871758
      ESP Fit Center  457 is at   0.859687 -3.767590 -1.871758
      ESP Fit Center  458 is at   1.691071 -3.163554 -1.871758
      ESP Fit Center  459 is at  -0.134137 -3.017587 -2.574527
      ESP Fit Center  460 is at   0.825863 -3.017587 -2.574527
      ESP Fit Center  461 is at   2.492160 -0.702674 -2.710181
      ESP Fit Center  462 is at   0.315568  0.878713 -2.710181
      ESP Fit Center  463 is at  -0.515817  0.274677 -2.710181
      ESP Fit Center  464 is at   1.343215 -2.284061 -2.710181
      ESP Fit Center  465 is at   2.174600 -1.680025 -2.710181
      ESP Fit Center  466 is at   1.789391 -0.702674 -3.412949
      ESP Fit Center  467 is at   1.309391  0.128710 -3.412949
      ESP Fit Center  468 is at   0.349391  0.128710 -3.412949
      ESP Fit Center  469 is at  -0.130609 -0.702674 -3.412949
      ESP Fit Center  470 is at   0.349391 -1.534058 -3.412949
      ESP Fit Center  471 is at   1.309391 -1.534058 -3.412949
      ESP Fit Center  472 is at   0.829391 -0.702674 -3.670181
      ESP Fit Center  473 is at   1.602112 -1.428978  2.921868
      ESP Fit Center  474 is at   1.122112 -0.597593  2.664636
      ESP Fit Center  475 is at   0.642112 -1.428978  2.664636
      ESP Fit Center  476 is at   1.122112 -2.260362  2.664636
      ESP Fit Center  477 is at   2.082112 -2.260362  2.664636
      ESP Fit Center  478 is at  -0.060656 -1.428978  1.961868
      ESP Fit Center  479 is at   0.256904 -2.406329  1.961868
      ESP Fit Center  480 is at   1.088289 -3.010365  1.961868
      ESP Fit Center  481 is at   2.115936 -3.010365  1.961868
      ESP Fit Center  482 is at   2.947321 -2.406329  1.961868
      ESP Fit Center  483 is at   0.642112 -3.091747  1.001868
      ESP Fit Center  484 is at   1.602112 -3.348978  1.001868
      ESP Fit Center  485 is at   2.562112 -3.091747  1.001868
      ESP Fit Center  486 is at  -1.126620  1.494181  2.535281
      ESP Fit Center  487 is at  -1.643243  2.388998  2.535281
      ESP Fit Center  488 is at  -2.676488  2.388998  2.535281
      ESP Fit Center  489 is at  -0.553754  2.526367  1.949995
      ESP Fit Center  490 is at  -1.366760  3.230840  1.949995
      ESP Fit Center  491 is at  -3.410118  2.937050  1.949995
      ESP Fit Center  492 is at  -0.604586  3.444440  1.074052
      ESP Fit Center  493 is at  -4.407310  2.576493 -0.992439
      ESP Fit Center  494 is at  -1.366760  3.230840 -1.868382
      ESP Fit Center  495 is at  -3.410118  2.937050 -1.868382
      ESP Fit Center  496 is at  -3.991718  2.032062 -1.868382
      ESP Fit Center  497 is at  -2.676488  2.388998 -2.453668
      ESP Fit Center  498 is at  -3.193111  1.494181 -2.453668
      ESP Fit Center  499 is at  -2.676488  0.599365 -2.453668
      ESP Fit Center  500 is at   0.083825  0.944338  2.123319
      ESP Fit Center  501 is at  -0.432797  1.839155  2.123319
      ESP Fit Center  502 is at   0.656692  1.976523  1.538032
      ESP Fit Center  503 is at  -0.156314  2.680997  1.538032
      ESP Fit Center  504 is at  -1.221126  2.834094 -2.280344
      ESP Fit Center  505 is at  -0.432797  1.839155 -2.865631
      ESP Fit Center  506 is at  -1.466043  1.839155 -2.865631
      ESP Fit Center  507 is at  -1.982665  0.944338 -2.865631
      ESP Fit Center  508 is at  -0.949420  0.944338 -3.071156
      ESP Fit Center  509 is at  -3.184095  0.633687  3.144981
      ESP Fit Center  510 is at  -2.150850  0.633687  2.939456
      ESP Fit Center  511 is at  -2.667473  1.528503  2.939456
      ESP Fit Center  512 is at  -3.700718  1.528503  2.939456
      ESP Fit Center  513 is at  -4.217340  0.633687  2.939456
      ESP Fit Center  514 is at  -3.455801  2.523442  2.354169
      ESP Fit Center  515 is at  -4.434348  2.076555 -1.464207
      ESP Fit Center  516 is at  -5.015948  1.171567 -1.464207
      ESP Fit Center  517 is at  -5.015948  0.095806 -1.464207
      ESP Fit Center  518 is at  -4.217340  0.633687 -2.049494
      ESP Fit Center  519 is at  -0.863392 -1.210097  2.550683
      ESP Fit Center  520 is at  -1.380015 -0.315280  2.550683
      ESP Fit Center  521 is at  -1.380015 -2.104913  2.550683
      ESP Fit Center  522 is at  -0.290526 -2.242282  1.965397
      ESP Fit Center  523 is at  -3.146890 -2.652965 -1.852980
      ESP Fit Center  524 is at  -2.929883 -1.210097 -2.438266
      ESP Fit Center  525 is at  -2.413260 -2.104913 -2.438266
      ESP Fit Center  526 is at  -1.835244 -0.449096 -2.859887
      ESP Fit Center  527 is at  -1.318621 -1.343913 -2.859887
      ESP Fit Center  528 is at   1.225593  1.586683  1.915419
      ESP Fit Center  529 is at   4.031125 -1.806444 -1.027014
      ESP Fit Center  530 is at   3.268951 -1.592844 -1.902957
      ESP Fit Center  531 is at   4.081957 -0.888370 -1.902957
      ESP Fit Center  532 is at   4.565627  0.258835  3.589106
      ESP Fit Center  533 is at   2.499137  0.258835  3.589106
      ESP Fit Center  534 is at   5.441570  0.258835  3.003819
      ESP Fit Center  535 is at   5.138493  1.291021  3.003819
      ESP Fit Center  536 is at   1.700529  0.796716  3.003819
      ESP Fit Center  537 is at   1.700529 -0.279045  3.003819
      ESP Fit Center  538 is at   5.779826  1.341147  2.127876
      ESP Fit Center  539 is at   1.284938  1.341147  2.127876
      ESP Fit Center  540 is at   5.779826 -0.823477  2.127876
      ESP Fit Center  541 is at   5.441570 -1.650353  1.094631
      ESP Fit Center  542 is at   4.087455  2.690769  0.061386
      ESP Fit Center  543 is at   4.087455 -2.173098  0.061386
      ESP Fit Center  544 is at  -0.021754 -2.002379 -3.286063
      ESP Fit Center  545 is at  -3.067539 -0.698675  3.156412
      ESP Fit Center  546 is at  -2.034294 -0.698675  2.950887
      ESP Fit Center  547 is at  -4.100784 -0.698675  2.950887
      ESP Fit Center  548 is at  -3.584162 -1.593492  2.950887
      ESP Fit Center  549 is at  -2.550916 -1.593492  2.950887
      ESP Fit Center  550 is at  -4.899392 -1.236556  2.365601
      ESP Fit Center  551 is at  -4.317791 -2.141544  2.365601
      ESP Fit Center  552 is at  -3.339245 -2.588431  2.365601
      ESP Fit Center  553 is at  -5.562014 -0.698675  1.489657
      ESP Fit Center  554 is at  -5.314983 -1.780987  1.489657
      ESP Fit Center  555 is at  -4.622818 -2.648934  1.489657
      ESP Fit Center  556 is at  -3.622612 -3.130608  1.489657
      ESP Fit Center  557 is at  -5.767539 -0.698675  0.456412
      ESP Fit Center  558 is at  -5.562014 -1.731921  0.456412
      ESP Fit Center  559 is at  -4.976727 -2.607864  0.456412
      ESP Fit Center  560 is at  -4.100784 -3.193150  0.456412
      ESP Fit Center  561 is at  -5.562014 -0.698675 -0.576833
      ESP Fit Center  562 is at  -5.314983 -1.780987 -0.576833
      ESP Fit Center  563 is at  -4.622818 -2.648934 -0.576833
      ESP Fit Center  564 is at  -4.899392 -1.236556 -1.452776
      ESP Fit Center  565 is at  -4.317791 -2.141544 -1.452776
      ESP Fit Center  566 is at  -4.100784 -0.698675 -2.038063
      ESP Fit Center  567 is at  -3.584162 -1.593492 -2.038063
      ESP Fit Center  568 is at   1.082959 -0.003855  2.636553
      ESP Fit Center  569 is at   0.349329  0.544197  2.051266
      ESP Fit Center  570 is at   1.599582 -3.598672  0.142078
      ESP Fit Center  571 is at   2.632827 -3.393146  0.142078
      ESP Fit Center  572 is at   3.508770 -2.807860  0.142078
      ESP Fit Center  573 is at   3.154861 -2.848930 -0.891167
      ESP Fit Center  574 is at   3.205693 -1.930857 -1.767111
      ESP Fit Center  575 is at   2.146186  2.879926  0.636858
      ESP Fit Center  576 is at   3.958378  2.850582 -0.373583
      ESP Fit Center  577 is at   2.973270  3.324985 -0.373583
      ESP Fit Center  578 is at   1.879883  3.324985 -0.373583
      ESP Fit Center  579 is at   4.883395  0.929765 -1.495089
      ESP Fit Center  580 is at   4.640094  1.995738 -1.495089
      ESP Fit Center  581 is at   3.958378  2.850582 -1.495089
      ESP Fit Center  582 is at   2.973270  3.324985 -1.495089
      ESP Fit Center  583 is at   1.879883  3.324985 -1.495089
      ESP Fit Center  584 is at   4.396792  0.929765 -2.505531
      ESP Fit Center  585 is at   4.084027  1.994943 -2.505531
      ESP Fit Center  586 is at   3.245034  2.721935 -2.505531
      ESP Fit Center  587 is at   2.146186  2.879926 -2.505531
      ESP Fit Center  588 is at   1.136360  2.418754 -2.505531
      ESP Fit Center  589 is at   3.245034 -0.862406 -2.505531
      ESP Fit Center  590 is at   4.084027 -0.135414 -2.505531
      ESP Fit Center  591 is at   3.519964  0.929765 -3.204778
      ESP Fit Center  592 is at   2.973270  1.876665 -3.204778
      ESP Fit Center  593 is at   1.879883  1.876665 -3.204778
      ESP Fit Center  594 is at   1.333190  0.929765 -3.204778
      ESP Fit Center  595 is at   2.973270 -0.017136 -3.204778
      ESP Fit Center  596 is at   2.426577  0.929765 -3.454336
      ESP Fit Center  597 is at  -1.773573  3.504787  1.917009
      ESP Fit Center  598 is at  -2.853573  3.504787  1.917009
      ESP Fit Center  599 is at  -0.739912  3.580810  1.126394
      ESP Fit Center  600 is at  -1.536492  4.271051  1.126394
      ESP Fit Center  601 is at  -2.579789  4.421054  1.126394
      ESP Fit Center  602 is at  -3.538565  3.983196  1.126394
      ESP Fit Center  603 is at  -1.086553  4.347125  0.046394
      ESP Fit Center  604 is at  -2.053214  4.713731  0.046394
      ESP Fit Center  605 is at  -3.079520  4.589115  0.046394
      ESP Fit Center  606 is at  -3.930356  4.001824  0.046394
      ESP Fit Center  607 is at  -4.410807  3.086401  0.046394
      ESP Fit Center  608 is at  -1.536492  4.271051 -1.033606
      ESP Fit Center  609 is at  -2.579789  4.421054 -1.033606
      ESP Fit Center  610 is at  -3.538565  3.983196 -1.033606
      ESP Fit Center  611 is at  -4.108415  3.096493 -1.033606
      ESP Fit Center  612 is at  -1.773573  3.504787 -1.824220
      ESP Fit Center  613 is at  -2.853573  3.504787 -1.824220
      ESP Fit Center  614 is at   0.653552  3.272977  0.383751
[...]
  284 Fit       0.018579
  285 Fit       0.030227
  286 Fit       0.016976
  287 Fit       0.012276
  288 Fit       0.003172
  289 Fit       0.008479
  290 Fit      -0.021831
  291 Fit      -0.014804
  292 Fit      -0.025978
  293 Fit      -0.029785
  294 Fit      -0.019704
  295 Fit      -0.034202
  296 Fit      -0.037326
  297 Fit      -0.025923
  298 Fit      -0.026386
  299 Fit      -0.039430
  300 Fit      -0.038142
  301 Fit      -0.022997
  302 Fit      -0.026553
  303 Fit      -0.036711
  304 Fit      -0.033926
  305 Fit      -0.029175
  306 Fit      -0.027786
  307 Fit      -0.022012
  308 Fit      -0.019991
  309 Fit       0.020008
  310 Fit       0.001397
  311 Fit       0.019921
  312 Fit       0.012235
  313 Fit       0.004393
  314 Fit       0.007576
  315 Fit       0.002435
  316 Fit      -0.002437
  317 Fit      -0.015119
  318 Fit      -0.024691
  319 Fit      -0.034010
  320 Fit      -0.034361
  321 Fit      -0.026716
  322 Fit      -0.026281
  323 Fit      -0.038135
  324 Fit      -0.043304
  325 Fit      -0.041907
  326 Fit      -0.034296
  327 Fit      -0.037547
  328 Fit      -0.044360
  329 Fit      -0.045249
  330 Fit      -0.040510
  331 Fit      -0.030846
  332 Fit      -0.020125
  333 Fit      -0.028427
  334 Fit      -0.040957
  335 Fit      -0.044272
  336 Fit      -0.041156
  337 Fit      -0.032865
  338 Fit      -0.033723
  339 Fit      -0.039592
  340 Fit       0.005530
  341 Fit       0.008546
  342 Fit       0.006984
  343 Fit       0.010587
  344 Fit       0.012390
  345 Fit       0.013184
  346 Fit       0.009731
  347 Fit       0.010919
  348 Fit       0.012641
  349 Fit       0.012990
  350 Fit       0.012632
  351 Fit       0.009456
  352 Fit       0.009938
  353 Fit       0.010409
  354 Fit       0.008558
  355 Fit       0.004810
  356 Fit       0.004201
  357 Fit      -0.010144
  358 Fit       0.002045
  359 Fit      -0.007400
  360 Fit       0.005068
  361 Fit      -0.005339
  362 Fit       0.003262
  363 Fit      -0.011079
  364 Fit      -0.003298
  365 Fit      -0.008026
  366 Fit      -0.002032
  367 Fit       0.005667
  368 Fit       0.001733
  369 Fit      -0.009538
  370 Fit       0.009930
  371 Fit       0.010456
  372 Fit       0.008722
  373 Fit       0.003678
  374 Fit      -0.007752
  375 Fit       0.015294
  376 Fit       0.011286
  377 Fit       0.008428
  378 Fit       0.003226
  379 Fit      -0.007514
  380 Fit       0.009794
  381 Fit       0.006123
  382 Fit       0.000432
  383 Fit      -0.011947
  384 Fit      -0.001128
  385 Fit       0.010255
  386 Fit      -0.009720
  387 Fit       0.006242
  388 Fit       0.015333
  389 Fit       0.023602
  390 Fit      -0.010993
  391 Fit       0.004434
  392 Fit       0.013511
  393 Fit       0.021028
  394 Fit      -0.003278
  395 Fit       0.008498
  396 Fit       0.017254
  397 Fit       0.004501
  398 Fit       0.014639
  399 Fit       0.013056
  400 Fit       0.010662
  401 Fit       0.014408
  402 Fit       0.012213
  403 Fit       0.009034
  404 Fit       0.003901
  405 Fit       0.013944
  406 Fit       0.013486
  407 Fit       0.009005
  408 Fit       0.003462
  409 Fit      -0.008092
  410 Fit       0.011467
  411 Fit       0.010920
  412 Fit       0.001303
  413 Fit      -0.012348
  414 Fit       0.004235
  415 Fit       0.015874
  416 Fit       0.014698
  417 Fit       0.014629
  418 Fit       0.015231
  419 Fit       0.016383
  420 Fit       0.011942
  421 Fit       0.012281
  422 Fit       0.012751
  423 Fit       0.013588
  424 Fit       0.016506
  425 Fit       0.007923
  426 Fit       0.006673
  427 Fit       0.006239
  428 Fit       0.006517
  429 Fit       0.009478
  430 Fit      -0.005442
  431 Fit      -0.009737
  432 Fit       0.020319
  433 Fit       0.017987
  434 Fit       0.016884
  435 Fit       0.018480
  436 Fit       0.023867
  437 Fit       0.026353
  438 Fit       0.021993
  439 Fit       0.016088
  440 Fit       0.032253
  441 Fit       0.032983
  442 Fit       0.024206
  443 Fit       0.018970
  444 Fit       0.029043
  445 Fit       0.020518
  446 Fit       0.016553
  447 Fit       0.019441
  448 Fit       0.030117
  449 Fit       0.024681
  450 Fit       0.024015
  451 Fit       0.021009
  452 Fit       0.019559
  453 Fit       0.017308
  454 Fit       0.010745
  455 Fit       0.014744
  456 Fit       0.015994
  457 Fit       0.014612
  458 Fit       0.010214
  459 Fit       0.011775
  460 Fit       0.010496
  461 Fit      -0.016062
  462 Fit      -0.009545
  463 Fit      -0.002257
  464 Fit       0.006869
  465 Fit      -0.000056
  466 Fit      -0.005571
  467 Fit      -0.011089
  468 Fit      -0.002676
  469 Fit       0.002962
  470 Fit       0.005642
  471 Fit       0.003144
  472 Fit       0.000793
  473 Fit       0.036900
  474 Fit       0.027858
  475 Fit       0.029812
  476 Fit       0.036677
  477 Fit       0.040086
  478 Fit       0.020823
  479 Fit       0.032539
  480 Fit       0.036726
  481 Fit       0.036820
  482 Fit       0.038366
  483 Fit       0.035711
  484 Fit       0.031954
  485 Fit       0.027456
  486 Fit      -0.005963
  487 Fit      -0.002722
  488 Fit      -0.000546
  489 Fit      -0.001214
  490 Fit       0.002165
  491 Fit       0.007166
  492 Fit       0.004597
  493 Fit       0.003102
  494 Fit       0.001898
  495 Fit      -0.000676
  496 Fit      -0.005467
  497 Fit      -0.006132
  498 Fit      -0.010592
  499 Fit      -0.014001
  500 Fit       0.000660
  501 Fit      -0.003166
  502 Fit       0.003237
  503 Fit       0.000589
  504 Fit      -0.001946
  505 Fit      -0.007497
  506 Fit      -0.007416
  507 Fit      -0.010569
  508 Fit      -0.007233
  509 Fit      -0.008344
  510 Fit      -0.008816
  511 Fit      -0.004716
  512 Fit      -0.001451
  513 Fit      -0.006143
  514 Fit       0.003908
  515 Fit      -0.002426
  516 Fit      -0.005965
  517 Fit      -0.013871
  518 Fit      -0.011931
  519 Fit       0.002212
  520 Fit      -0.007818
  521 Fit       0.000549
  522 Fit       0.020587
  523 Fit      -0.007053
  524 Fit      -0.011608
  525 Fit      -0.004153
  526 Fit      -0.008268
  527 Fit      -0.000323
  528 Fit       0.010749
  529 Fit       0.004197
  530 Fit      -0.004680
  531 Fit      -0.008856
  532 Fit       0.014472
  533 Fit       0.017829
  534 Fit       0.012607
  535 Fit       0.011720
  536 Fit       0.016086
  537 Fit       0.024774
  538 Fit       0.009909
  539 Fit       0.012826
  540 Fit       0.013577
  541 Fit       0.013695
  542 Fit      -0.016416
  543 Fit       0.011957
  544 Fit       0.005952
  545 Fit      -0.016666
  546 Fit      -0.011390
  547 Fit      -0.019816
  548 Fit      -0.022075
  549 Fit      -0.015027
  550 Fit      -0.025558
  551 Fit      -0.027629
  552 Fit      -0.020076
  553 Fit      -0.020465
  554 Fit      -0.030137
  555 Fit      -0.029432
  556 Fit      -0.019038
  557 Fit      -0.020644
  558 Fit      -0.029460
  559 Fit      -0.029723
  560 Fit      -0.021041
  561 Fit      -0.020879
  562 Fit      -0.027087
  563 Fit      -0.024477
  564 Fit      -0.022043
  565 Fit      -0.020564
  566 Fit      -0.017613
  567 Fit      -0.015787
  568 Fit       0.019204
  569 Fit       0.004285
  570 Fit       0.021579
  571 Fit       0.014543
  572 Fit       0.011369
  573 Fit       0.003752
  574 Fit      -0.002325
  575 Fit      -0.010621
  576 Fit      -0.024976
  577 Fit      -0.026570
  578 Fit      -0.022214
  579 Fit      -0.019079
  580 Fit      -0.028850
  581 Fit      -0.033886
  582 Fit      -0.033902
  583 Fit      -0.029061
  584 Fit      -0.029542
  585 Fit      -0.035223
  586 Fit      -0.036848
  587 Fit      -0.034005
  588 Fit      -0.026822
  589 Fit      -0.016086
  590 Fit      -0.022462
  591 Fit      -0.032820
  592 Fit      -0.035902
  593 Fit      -0.032879
  594 Fit      -0.024801
  595 Fit      -0.026131
  596 Fit      -0.031378
  597 Fit       0.004375
  598 Fit       0.006911
  599 Fit       0.005071
  600 Fit       0.007911
  601 Fit       0.009657
  602 Fit       0.010469
  603 Fit       0.008003
  604 Fit       0.009615
  605 Fit       0.010323
  606 Fit       0.010272
  607 Fit       0.011140
  608 Fit       0.007091
  609 Fit       0.007972
  610 Fit       0.007305
  611 Fit       0.004940
  612 Fit       0.002884
  613 Fit       0.002621
  614 Fit      -0.000906
  615 Fit      -0.012396
  616 Fit       0.001008
  617 Fit      -0.010309
  618 Fit       0.000131
  619 Fit      -0.012736
  620 Fit      -0.004544
  621 Fit       0.003972
  622 Fit       0.000041
  623 Fit      -0.010614
  624 Fit       0.008678
  625 Fit       0.007368
  626 Fit       0.004278
  627 Fit      -0.002303
  628 Fit      -0.016027
  629 Fit       0.010016
  630 Fit       0.007348
  631 Fit       0.003856
  632 Fit      -0.002589
  633 Fit      -0.015981
  634 Fit       0.005571
  635 Fit       0.001753
  636 Fit      -0.005390
  637 Fit      -0.002395
  638 Fit       0.009248
  639 Fit      -0.004171
  640 Fit       0.007046
  641 Fit       0.014876
  642 Fit       0.023959
  643 Fit      -0.005505
  644 Fit       0.005416
  645 Fit       0.012791
  646 Fit       0.020062
  647 Fit      -0.000106
  648 Fit       0.008774
  649 Fit       0.016585
  650 Fit       0.002988
  651 Fit       0.011285
  652 Fit       0.009367
  653 Fit       0.012815
  654 Fit       0.009886
  655 Fit       0.007228
  656 Fit       0.003164
  657 Fit       0.012246
  658 Fit       0.011296
  659 Fit       0.006472
  660 Fit       0.001840
  661 Fit      -0.007369
  662 Fit       0.009283
  663 Fit       0.008468
  664 Fit      -0.001263
  665 Fit      -0.015135
  666 Fit       0.001624
  667 Fit       0.014255
  668 Fit       0.013190
  669 Fit       0.012471
  670 Fit       0.012923
  671 Fit       0.014664
  672 Fit       0.010156
  673 Fit       0.009858
  674 Fit       0.010041
  675 Fit       0.010644
  676 Fit       0.012331
  677 Fit       0.006786
  678 Fit       0.004839
  679 Fit       0.003963
  680 Fit       0.003793
  681 Fit       0.005306
  682 Fit      -0.006693
  683 Fit      -0.011420
  684 Fit       0.018059
  685 Fit       0.015979
  686 Fit       0.021329
  687 Fit       0.023422
  688 Fit       0.019389
  689 Fit       0.014428
  690 Fit       0.027003
  691 Fit       0.020386
  692 Fit       0.016501
  693 Fit       0.023631
  694 Fit       0.017568
  695 Fit       0.014840
  696 Fit       0.021506
  697 Fit       0.021875
  698 Fit       0.017513
  699 Fit       0.016596
  700 Fit       0.014627
  701 Fit       0.012699
  702 Fit       0.013265
  703 Fit       0.011823
  704 Fit       0.007948
  705 Fit       0.009504
  706 Fit       0.008584
  707 Fit      -0.016007
  708 Fit      -0.001958
  709 Fit      -0.007122
  710 Fit      -0.012621
  711 Fit      -0.004530
  712 Fit       0.000962
  713 Fit       0.003967
  714 Fit       0.001597
  715 Fit      -0.001100
  716 Fit       0.031039
  717 Fit       0.023141
  718 Fit       0.024146
  719 Fit       0.030489
  720 Fit       0.033969
  721 Fit       0.020863
  722 Fit       0.028894
  723 Fit       0.031075
  724 Fit       0.031226
  725 Fit       0.029968
  726 Fit       0.026446
  727 Fit       0.023248
  728 Fit      -0.003802
  729 Fit      -0.001773
  730 Fit      -0.000635
  731 Fit      -0.000368
  732 Fit       0.001536
  733 Fit       0.003676
  734 Fit       0.004747
  735 Fit       0.002620
  736 Fit       0.001728
  737 Fit      -0.000767
  738 Fit      -0.000132
  739 Fit      -0.001936
  740 Fit      -0.005574
  741 Fit      -0.005793
  742 Fit      -0.009061
  743 Fit       0.002243
  744 Fit       0.004244
  745 Fit       0.000738
  746 Fit       0.000597
  747 Fit      -0.003648
  748 Fit      -0.008052
  749 Fit      -0.007016
  750 Fit      -0.008825
  751 Fit      -0.006849
  752 Fit      -0.006995
  753 Fit      -0.006781
  754 Fit      -0.003779
  755 Fit      -0.001971
  756 Fit      -0.005949
  757 Fit       0.002261
  758 Fit       0.000766
  759 Fit      -0.003441
  760 Fit      -0.010879
  761 Fit      -0.003645
  762 Fit      -0.006480
  763 Fit      -0.012251
  764 Fit      -0.010726
  765 Fit       0.002703
  766 Fit       0.000612
  767 Fit      -0.002120
  768 Fit       0.008267
  769 Fit       0.017838
  770 Fit      -0.006043
  771 Fit       0.002500
  772 Fit      -0.009586
  773 Fit      -0.003722
  774 Fit      -0.006675
  775 Fit      -0.000667
  776 Fit       0.003892
  777 Fit       0.001083
  778 Fit      -0.000685
  779 Fit      -0.005476
  780 Fit      -0.010768
  781 Fit       0.014769
  782 Fit       0.013285
  783 Fit       0.015935
  784 Fit       0.011725
  785 Fit       0.010842
  786 Fit       0.014233
  787 Fit       0.020697
  788 Fit       0.010708
  789 Fit       0.009278
  790 Fit       0.012016
  791 Fit       0.012404
  792 Fit       0.005793
  793 Fit       0.012885
  794 Fit      -0.003380
  795 Fit       0.012591
  796 Fit       0.008571
  797 Fit       0.004953
  798 Fit      -0.000949
  799 Fit       0.000430
  800 Fit       0.005647
  801 Fit       0.005524
  802 Fit       0.003998
  803 Fit      -0.012832
  804 Fit      -0.008603
  805 Fit      -0.015386
  806 Fit      -0.016713
  807 Fit      -0.011432
  808 Fit      -0.019590
  809 Fit      -0.020926
  810 Fit      -0.015559
  811 Fit      -0.020475
  812 Fit      -0.024032
  813 Fit      -0.021080
  814 Fit      -0.012624
  815 Fit      -0.020655
  816 Fit      -0.024716
  817 Fit      -0.022551
  818 Fit      -0.014234
  819 Fit      -0.020344
  820 Fit      -0.023509
  821 Fit      -0.020750
  822 Fit      -0.011662
  823 Fit      -0.019288
  824 Fit      -0.020574
  825 Fit      -0.016072
  826 Fit      -0.017275
  827 Fit      -0.015851
  828 Fit      -0.014433
  829 Fit       0.017697
  830 Fit       0.006064
  831 Fit       0.021236
  832 Fit       0.017370
  833 Fit       0.015577
  834 Fit       0.009889
  835 Fit       0.007769
  836 Fit       0.007429
  837 Fit       0.002948
  838 Fit      -0.002721
  839 Fit      -0.016299
  840 Fit      -0.014927
  841 Fit      -0.022503
  842 Fit      -0.024913
  843 Fit      -0.023992
  844 Fit      -0.019224
  845 Fit      -0.018750
  846 Fit      -0.024916
  847 Fit      -0.028560
  848 Fit      -0.029042
  849 Fit      -0.026326
  850 Fit      -0.019495
  851 Fit      -0.012416
  852 Fit      -0.024945
  853 Fit      -0.028871
  854 Fit      -0.030422
  855 Fit      -0.029103
  856 Fit      -0.025027
  857 Fit      -0.015290
  858 Fit      -0.020091
  859 Fit      -0.026828
  860 Fit      -0.029294
  861 Fit      -0.026827
  862 Fit      -0.020383
  863 Fit      -0.021438
  864 Fit      -0.025384
  865 Fit       0.005090
  866 Fit       0.005919
  867 Fit       0.007419
  868 Fit       0.008268
  869 Fit       0.005867
  870 Fit       0.007475
  871 Fit       0.008438
  872 Fit       0.008859
  873 Fit       0.009791
  874 Fit       0.005430
  875 Fit       0.006854
  876 Fit       0.007628
  877 Fit       0.007576
  878 Fit       0.007119
  879 Fit       0.004348
  880 Fit       0.005177
  881 Fit       0.004565
  882 Fit       0.000727
  883 Fit      -0.000094
  884 Fit      -0.011861
  885 Fit      -0.000540
  886 Fit      -0.004067
  887 Fit       0.003588
  888 Fit      -0.011893
  889 Fit      -0.002679
  890 Fit      -0.013021
  891 Fit       0.002144
  892 Fit      -0.001268
  893 Fit       0.006127
  894 Fit       0.005130
  895 Fit       0.002378
  896 Fit      -0.003228
  897 Fit       0.008797
  898 Fit       0.006661
  899 Fit       0.004228
  900 Fit       0.000206
  901 Fit      -0.007108
  902 Fit       0.009314
  903 Fit       0.006101
  904 Fit       0.003353
  905 Fit      -0.000848
  906 Fit      -0.008466
  907 Fit       0.003029
  908 Fit      -0.000418
  909 Fit       0.007269
  910 Fit      -0.005478
  911 Fit       0.004840
  912 Fit       0.012353
  913 Fit       0.021237
  914 Fit      -0.002884
  915 Fit       0.005611
  916 Fit       0.011992
  917 Fit       0.018878
  918 Fit      -0.001282
  919 Fit       0.006315
  920 Fit       0.012429
  921 Fit      -0.000745
  922 Fit       0.006826
  923 Fit       0.010429
  924 Fit       0.009075
  925 Fit       0.007194
  926 Fit       0.004842
  927 Fit       0.011820
  928 Fit       0.010425
  929 Fit       0.007048
  930 Fit       0.004388
  931 Fit       0.000144
  932 Fit       0.009619
  933 Fit       0.008592
  934 Fit       0.003109
  935 Fit      -0.001671
  936 Fit      -0.011518
  937 Fit       0.006166
  938 Fit       0.005297
  939 Fit      -0.004590
  940 Fit      -0.001999
  941 Fit       0.012981
  942 Fit       0.011160
  943 Fit       0.011470
  944 Fit       0.013284
  945 Fit       0.009584
  946 Fit       0.009120
  947 Fit       0.009203
  948 Fit       0.009733
  949 Fit       0.011157
  950 Fit       0.006070
  951 Fit       0.005458
  952 Fit       0.005387
  953 Fit       0.006069
  954 Fit       0.007686
  955 Fit       0.000592
  956 Fit      -0.001474
  957 Fit      -0.002777
  958 Fit      -0.002403
  959 Fit       0.016238
  960 Fit       0.014625
  961 Fit       0.018602
  962 Fit       0.020131
  963 Fit       0.017220
  964 Fit       0.013378
  965 Fit       0.028448
  966 Fit       0.023048
  967 Fit       0.018237
  968 Fit       0.015135
  969 Fit       0.020223
  970 Fit       0.015981
  971 Fit       0.013755
  972 Fit       0.018559
  973 Fit       0.014623
  974 Fit       0.020809
  975 Fit       0.022947
  976 Fit       0.016702
  977 Fit       0.016294
  978 Fit       0.015202
  979 Fit       0.013335
  980 Fit       0.012751
  981 Fit       0.010834
  982 Fit       0.009418
  983 Fit       0.010285
  984 Fit       0.009268
  985 Fit       0.006307
  986 Fit       0.007375
  987 Fit       0.006817
  988 Fit      -0.014091
  989 Fit      -0.014097
  990 Fit      -0.002549
  991 Fit      -0.006829
  992 Fit      -0.010965
  993 Fit      -0.005124
  994 Fit      -0.000427
  995 Fit       0.002192
  996 Fit       0.000223
  997 Fit      -0.002272
  998 Fit       0.026529
  999 Fit       0.020747
 1000 Fit       0.020920
 1001 Fit       0.025855
 1002 Fit       0.029159
 1003 Fit       0.017432
 1004 Fit       0.024190
 1005 Fit       0.026898
 1006 Fit       0.027936
 1007 Fit       0.025720
 1008 Fit       0.025861
 1009 Fit       0.024628
 1010 Fit       0.023829
 -----------------------------------------------------------------
 Leave Link  602 at Sat Feb 17 20:57:51 2018, MaxMem=   33554432 cpu:       0.4

 Test job not archived.
 1\1\GINC-NODE004\SP\RHF\6-31G(d)\C8H10N2O1\WULSDORT\17-Feb-2018\0\\#HF
 /6-31G* Geom=AllCheck Guess=Read Pop=(MK,ReadRadii) Integral=(Grid=Ult
 raFine) iop(6/33=2)\\Optimization for frag17-conf0\\0,1\C,0,-0.9438573
 353,-3.410462065,4.3610383837\C,0,0.0508354658,-2.4459641113,4.2285656
 821\C,0,-2.2017874737,-3.0168725054,4.8253161225\C,0,-1.5370883179,-0.
 842501974,5.0215711109\C,0,-0.2446842731,-1.1181105133,4.5645680218\C,
 0,2.1679814315,-0.2878717163,2.3911669998\C,0,2.3487061795,0.121552582
 4,0.9372678528\C,0,0.7919512016,-0.0205345635,4.4312160362\N,0,-2.5062
 090266,-1.7567593135,5.1544765065\N,0,1.12784309,0.3116466547,3.048252
 1505\O,0,2.9164895573,-1.093244619,2.9351537387\H,0,-0.7517564947,-4.4
 507489362,4.1144136659\H,0,1.0453777276,-2.7025370494,3.8735293378\H,0
 ,-3.0010182037,-3.7477305915,4.9396003335\H,0,-1.8061223165,0.17726873
 06,5.301045869\H,0,3.3740618824,0.4770032382,0.7996337726\H,0,2.222102
 5978,-0.7613592623,0.3025342848\H,0,1.6544050034,0.9001443835,0.606183
 6423\H,0,0.4395413712,0.8903087185,4.9274825276\H,0,1.7292467207,-0.32
 36748961,4.9048430482\H,0,0.4660842915,0.8593706836,2.5167040133\\Vers
 ion=AM64L-G09RevC.01\State=1-A\HF=-492.5439326\RMSD=4.093e-09\Dipole=-
 0.1745939,0.6930433,-0.868049\Quadrupole=-11.5493812,8.5886516,2.96072
 96,2.5015675,1.6320612,-2.0761361\PG=C01 [X(C8H10N2O1)]\\@


 MANHOOD BEGINS BY TRYING TO SHAVE FACE,
 AND ENDS BY TRYING TO SAVE FACE.
 Job cpu time:  0 days  0 hours  1 minutes 30.4 seconds.
 File lengths (MBytes):  RWF=     21 Int=      0 D2E=      0 Chk=      3 Scr=      1
 Normal termination of Gaussian 09 at Sat Feb 17 20:57:51 2018.
