 Entering Gaussian System, Link 0=g09
 Initial command:
 /home/fb_chem/chemsoft/lx24-amd64/Gaussian_09_C.01_NBO_3.1_64_istanbul-64/g09/l1.exe /local/2397327.1.parallel_long/Gau-25110.inp -scrdir=/local/2397327.1.parallel_long/
 Entering Link 1 = /home/fb_chem/chemsoft/lx24-amd64/Gaussian_09_C.01_NBO_3.1_64_istanbul-64/g09/l1.exe PID=     25111.
  
 Copyright (c) 1988,1990,1992,1993,1995,1998,2003,2009,2011,
            Gaussian, Inc.  All Rights Reserved.
  
 This is part of the Gaussian(R) 09 program.  It is based on
 the Gaussian(R) 03 system (copyright 2003, Gaussian, Inc.),
 the Gaussian(R) 98 system (copyright 1998, Gaussian, Inc.),
 the Gaussian(R) 94 system (copyright 1995, Gaussian, Inc.),
 the Gaussian 92(TM) system (copyright 1992, Gaussian, Inc.),
 the Gaussian 90(TM) system (copyright 1990, Gaussian, Inc.),
 the Gaussian 88(TM) system (copyright 1988, Gaussian, Inc.),
 the Gaussian 86(TM) system (copyright 1986, Carnegie Mellon
 University), and the Gaussian 82(TM) system (copyright 1983,
 Carnegie Mellon University). Gaussian is a federally registered
 trademark of Gaussian, Inc.
  
 This software contains proprietary and confidential information,
 including trade secrets, belonging to Gaussian, Inc.
  
 This software is provided under written license and may be
 used, copied, transmitted, or stored only in accord with that
 written license.
  
 The following legend is applicable only to US Government
 contracts under FAR:
  
                    RESTRICTED RIGHTS LEGEND
  
 Use, reproduction and disclosure by the US Government is
 subject to restrictions as set forth in subparagraphs (a)
 and (c) of the Commercial Computer Software - Restricted
 Rights clause in FAR 52.227-19.
  
 Gaussian, Inc.
 340 Quinnipiac St., Bldg. 40, Wallingford CT 06492
  
  
 ---------------------------------------------------------------
 Warning -- This program may not be used in any manner that
 competes with the business of Gaussian, Inc. or will provide
 assistance to any competitor of Gaussian, Inc.  The licensee
 of this program is prohibited from giving any competitor of
 Gaussian, Inc. access to this program.  By using this program,
 the user acknowledges that Gaussian, Inc. is engaged in the
 business of creating and licensing software in the field of
 computational chemistry and represents and warrants to the
 licensee that it is not a competitor of Gaussian, Inc. and that
 it will not use this program in any manner prohibited above.
 ---------------------------------------------------------------
  

 Cite this work as:
 Gaussian 09, Revision C.01,
 M. J. Frisch, G. W. Trucks, H. B. Schlegel, G. E. Scuseria, 
 M. A. Robb, J. R. Cheeseman, G. Scalmani, V. Barone, B. Mennucci, 
 G. A. Petersson, H. Nakatsuji, M. Caricato, X. Li, H. P. Hratchian, 
 A. F. Izmaylov, J. Bloino, G. Zheng, J. L. Sonnenberg, M. Hada, 
 M. Ehara, K. Toyota, R. Fukuda, J. Hasegawa, M. Ishida, T. Nakajima, 
 Y. Honda, O. Kitao, H. Nakai, T. Vreven, J. A. Montgomery, Jr., 
 J. E. Peralta, F. Ogliaro, M. Bearpark, J. J. Heyd, E. Brothers, 
 K. N. Kudin, V. N. Staroverov, T. Keith, R. Kobayashi, J. Normand, 
 K. Raghavachari, A. Rendell, J. C. Burant, S. S. Iyengar, J. Tomasi, 
 M. Cossi, N. Rega, J. M. Millam, M. Klene, J. E. Knox, J. B. Cross, 
 V. Bakken, C. Adamo, J. Jaramillo, R. Gomperts, R. E. Stratmann, 
 O. Yazyev, A. J. Austin, R. Cammi, C. Pomelli, J. W. Ochterski, 
 R. L. Martin, K. Morokuma, V. G. Zakrzewski, G. A. Voth, 
 P. Salvador, J. J. Dannenberg, S. Dapprich, A. D. Daniels, 
 O. Farkas, J. B. Foresman, J. V. Ortiz, J. Cioslowski, 
 and D. J. Fox, Gaussian, Inc., Wallingford CT, 2010.
 
 ******************************************
 Gaussian 09:  AM64L-G09RevC.01 23-Sep-2011
                16-Feb-2018 
 ******************************************
 %nprocs=4
 Will use up to    4 processors via shared memory.
 %chk=frag12-conf0.chk
 ---------------------------------------------------------
 #B3LYP/6-31G* Integral=(Grid=UltraFine) freq Opt pop=none
 ---------------------------------------------------------
 1/14=-1,18=20,19=15,26=3,38=1/1,3;
 2/9=110,12=2,17=6,18=5,40=1/2;
 3/5=1,6=6,7=1,11=2,16=1,25=1,30=1,71=1,74=-5,75=-5/1,2,3;
 4//1;
 5/5=2,38=5/2;
 7//1,2,3,16;
 1/14=-1,18=20,19=15/3(2);
 2/9=110/2;
 99//99;
 2/9=110/2;
 3/5=1,6=6,7=1,11=2,16=1,25=1,30=1,71=1,74=-5,75=-5/1,2,3;
 4/5=5,16=3/1;
 5/5=2,38=5/2;
 7//1,2,3,16;
 1/14=-1,18=20,19=15/3(-5);
 2/9=110/2;
 99/9=1/99;
 -----------------------------
 Optimization for frag12-conf0
 -----------------------------
 Charge =  1 Multiplicity = 1
 Symbolic Z-Matrix:
 C                     3.92556   3.52815   1.4711 
 C                     0.0153   -0.18532   1.24374 
 C                     1.13208  -1.2076    1.0221 
 C                     0.6538    0.9968    1.97127 
 C                     2.35274  -0.65234   1.7458 
 C                     2.1406    0.85304   1.6794 
 C                     4.67727   5.37157   0.01693 
 C                     3.10381   5.88107   1.8514 
 C                     3.01887   3.03269   2.60959 
 N                     3.89628   4.8801    1.14439 
 N                     2.97306   1.53363   2.68986 
 O                     4.66025   2.72918   0.87266 
 H                    -0.39918   0.13089   0.27981 
 H                    -0.80689  -0.6076    1.83081 
 H                     0.85898  -2.20085   1.39173 
 H                     1.33911  -1.30027  -0.05058 
 H                     0.24709   1.95111   1.62254 
 H                     0.44904   0.91937   3.04641 
 H                     2.36283  -1.00892   2.78352 
 H                     3.2883   -0.96574   1.27221 
 H                     2.3988    1.23882   0.68628 
 H                     4.00039   5.85191  -0.69585 
 H                     5.2153    4.56931  -0.49378 
 H                     5.40084   6.10512   0.3845 
 H                     2.68311   5.50019   2.78255 
 H                     2.29043   6.20394   1.19525 
 H                     3.74339   6.7371    2.08677 
 H                     3.43505   3.37554   3.56166 
 H                     1.99367   3.39165   2.49346 
 H                     2.6987    1.25417   3.63575 
 H                     3.94339   1.21638   2.57923 
 

 GradGradGradGradGradGradGradGradGradGradGradGradGradGradGradGradGradGrad
 Berny optimization.
 Initialization pass.
                           ----------------------------
                           !    Initial Parameters    !
                           ! (Angstroms and Degrees)  !
 --------------------------                            --------------------------
 ! Name  Definition              Value          Derivative Info.                !
 --------------------------------------------------------------------------------
 ! R1    R(1,9)                  1.5374         estimate D2E/DX2                !
 ! R2    R(1,10)                 1.3912         estimate D2E/DX2                !
 ! R3    R(1,12)                 1.2395         estimate D2E/DX2                !
 ! R4    R(2,3)                  1.5302         estimate D2E/DX2                !
 ! R5    R(2,4)                  1.5279         estimate D2E/DX2                !
 ! R6    R(2,13)                 1.0959         estimate D2E/DX2                !
 ! R7    R(2,14)                 1.095          estimate D2E/DX2                !
 ! R8    R(3,5)                  1.5238         estimate D2E/DX2                !
 ! R9    R(3,15)                 1.0944         estimate D2E/DX2                !
 ! R10   R(3,16)                 1.0964         estimate D2E/DX2                !
 ! R11   R(4,6)                  1.522          estimate D2E/DX2                !
 ! R12   R(4,17)                 1.0944         estimate D2E/DX2                !
 ! R13   R(4,18)                 1.0972         estimate D2E/DX2                !
 ! R14   R(5,6)                  1.5217         estimate D2E/DX2                !
 ! R15   R(5,19)                 1.0973         estimate D2E/DX2                !
 ! R16   R(5,20)                 1.0944         estimate D2E/DX2                !
 ! R17   R(6,11)                 1.4755         estimate D2E/DX2                !
 ! R18   R(6,21)                 1.0963         estimate D2E/DX2                !
 ! R19   R(7,10)                 1.4569         estimate D2E/DX2                !
 ! R20   R(7,22)                 1.094          estimate D2E/DX2                !
 ! R21   R(7,23)                 1.0927         estimate D2E/DX2                !
 ! R22   R(7,24)                 1.094          estimate D2E/DX2                !
 ! R23   R(8,10)                 1.4594         estimate D2E/DX2                !
 ! R24   R(8,25)                 1.0905         estimate D2E/DX2                !
 ! R25   R(8,26)                 1.0938         estimate D2E/DX2                !
 ! R26   R(8,27)                 1.0942         estimate D2E/DX2                !
 ! R27   R(9,11)                 1.5019         estimate D2E/DX2                !
 ! R28   R(9,28)                 1.0942         estimate D2E/DX2                !
 ! R29   R(9,29)                 1.0924         estimate D2E/DX2                !
 ! R30   R(11,30)                1.0238         estimate D2E/DX2                !
 ! R31   R(11,31)                1.0269         estimate D2E/DX2                !
 ! A1    A(9,1,10)             118.3377         estimate D2E/DX2                !
 ! A2    A(9,1,12)             119.9584         estimate D2E/DX2                !
 ! A3    A(10,1,12)            121.7037         estimate D2E/DX2                !
 ! A4    A(3,2,4)              106.3122         estimate D2E/DX2                !
 ! A5    A(3,2,13)             109.9627         estimate D2E/DX2                !
 ! A6    A(3,2,14)             111.5943         estimate D2E/DX2                !
 ! A7    A(4,2,13)             110.7107         estimate D2E/DX2                !
 ! A8    A(4,2,14)             110.9086         estimate D2E/DX2                !
 ! A9    A(13,2,14)            107.3902         estimate D2E/DX2                !
 ! A10   A(2,3,5)              105.8078         estimate D2E/DX2                !
 ! A11   A(2,3,15)             112.042          estimate D2E/DX2                !
 ! A12   A(2,3,16)             109.6335         estimate D2E/DX2                !
 ! A13   A(5,3,15)             111.7275         estimate D2E/DX2                !
 ! A14   A(5,3,16)             110.1319         estimate D2E/DX2                !
 ! A15   A(15,3,16)            107.5078         estimate D2E/DX2                !
 ! A16   A(2,4,6)              104.1136         estimate D2E/DX2                !
 ! A17   A(2,4,17)             111.5691         estimate D2E/DX2                !
 ! A18   A(2,4,18)             109.5117         estimate D2E/DX2                !
 ! A19   A(6,4,17)             112.5999         estimate D2E/DX2                !
 ! A20   A(6,4,18)             111.3191         estimate D2E/DX2                !
 ! A21   A(17,4,18)            107.7236         estimate D2E/DX2                !
 ! A22   A(3,5,6)              103.1839         estimate D2E/DX2                !
 ! A23   A(3,5,19)             109.7598         estimate D2E/DX2                !
 ! A24   A(3,5,20)             112.0189         estimate D2E/DX2                !
 ! A25   A(6,5,19)             111.3469         estimate D2E/DX2                !
 ! A26   A(6,5,20)             112.5558         estimate D2E/DX2                !
 ! A27   A(19,5,20)            107.9572         estimate D2E/DX2                !
 ! A28   A(4,6,5)              102.7834         estimate D2E/DX2                !
 ! A29   A(4,6,11)             112.1009         estimate D2E/DX2                !
 ! A30   A(4,6,21)             111.7511         estimate D2E/DX2                !
 ! A31   A(5,6,11)             110.3509         estimate D2E/DX2                !
 ! A32   A(5,6,21)             110.7824         estimate D2E/DX2                !
 ! A33   A(11,6,21)            108.9767         estimate D2E/DX2                !
 ! A34   A(10,7,22)            108.7011         estimate D2E/DX2                !
 ! A35   A(10,7,23)            112.2081         estimate D2E/DX2                !
 ! A36   A(10,7,24)            108.7074         estimate D2E/DX2                !
 ! A37   A(22,7,23)            108.8135         estimate D2E/DX2                !
 ! A38   A(22,7,24)            109.4949         estimate D2E/DX2                !
 ! A39   A(23,7,24)            108.8859         estimate D2E/DX2                !
 ! A40   A(10,8,25)            112.5573         estimate D2E/DX2                !
 ! A41   A(10,8,26)            108.4001         estimate D2E/DX2                !
 ! A42   A(10,8,27)            108.8684         estimate D2E/DX2                !
 ! A43   A(25,8,26)            109.1753         estimate D2E/DX2                !
 ! A44   A(25,8,27)            108.3664         estimate D2E/DX2                !
 ! A45   A(26,8,27)            109.4375         estimate D2E/DX2                !
 ! A46   A(1,9,11)             112.2853         estimate D2E/DX2                !
 ! A47   A(1,9,28)             108.6056         estimate D2E/DX2                !
 ! A48   A(1,9,29)             111.644          estimate D2E/DX2                !
 ! A49   A(11,9,28)            106.132          estimate D2E/DX2                !
 ! A50   A(11,9,29)            107.76           estimate D2E/DX2                !
 ! A51   A(28,9,29)            110.2727         estimate D2E/DX2                !
 ! A52   A(1,10,7)             119.8859         estimate D2E/DX2                !
 ! A53   A(1,10,8)             124.3471         estimate D2E/DX2                !
 ! A54   A(7,10,8)             115.7606         estimate D2E/DX2                !
 ! A55   A(6,11,9)             116.1666         estimate D2E/DX2                !
 ! A56   A(6,11,30)            110.8316         estimate D2E/DX2                !
 ! A57   A(6,11,31)            108.472          estimate D2E/DX2                !
 ! A58   A(9,11,30)            109.2692         estimate D2E/DX2                !
 ! A59   A(9,11,31)            105.8896         estimate D2E/DX2                !
 ! A60   A(30,11,31)           105.5714         estimate D2E/DX2                !
 ! D1    D(10,1,9,11)          169.9277         estimate D2E/DX2                !
 ! D2    D(10,1,9,28)          -73.0198         estimate D2E/DX2                !
 ! D3    D(10,1,9,29)           48.7774         estimate D2E/DX2                !
 ! D4    D(12,1,9,11)          -10.2532         estimate D2E/DX2                !
 ! D5    D(12,1,9,28)          106.7993         estimate D2E/DX2                !
 ! D6    D(12,1,9,29)         -131.4035         estimate D2E/DX2                !
 ! D7    D(9,1,10,7)          -176.1237         estimate D2E/DX2                !
 ! D8    D(9,1,10,8)             2.9132         estimate D2E/DX2                !
 ! D9    D(12,1,10,7)            4.0606         estimate D2E/DX2                !
 ! D10   D(12,1,10,8)         -176.9025         estimate D2E/DX2                !
 ! D11   D(4,2,3,5)              5.4074         estimate D2E/DX2                !
 ! D12   D(4,2,3,15)           127.3934         estimate D2E/DX2                !
 ! D13   D(4,2,3,16)          -113.3297         estimate D2E/DX2                !
 ! D14   D(13,2,3,5)           125.2975         estimate D2E/DX2                !
 ! D15   D(13,2,3,15)         -112.7165         estimate D2E/DX2                !
 ! D16   D(13,2,3,16)            6.5604         estimate D2E/DX2                !
 ! D17   D(14,2,3,5)          -115.6402         estimate D2E/DX2                !
 ! D18   D(14,2,3,15)            6.3457         estimate D2E/DX2                !
 ! D19   D(14,2,3,16)          125.6226         estimate D2E/DX2                !
 ! D20   D(3,2,4,6)             20.4089         estimate D2E/DX2                !
 ! D21   D(3,2,4,17)           142.1099         estimate D2E/DX2                !
 ! D22   D(3,2,4,18)           -98.7224         estimate D2E/DX2                !
 ! D23   D(13,2,4,6)           -98.9941         estimate D2E/DX2                !
 ! D24   D(13,2,4,17)           22.7068         estimate D2E/DX2                !
 ! D25   D(13,2,4,18)          141.8746         estimate D2E/DX2                !
 ! D26   D(14,2,4,6)           141.8957         estimate D2E/DX2                !
 ! D27   D(14,2,4,17)          -96.4033         estimate D2E/DX2                !
 ! D28   D(14,2,4,18)           22.7644         estimate D2E/DX2                !
 ! D29   D(2,3,5,6)            -29.1108         estimate D2E/DX2                !
 ! D30   D(2,3,5,19)            89.6667         estimate D2E/DX2                !
 ! D31   D(2,3,5,20)          -150.4228         estimate D2E/DX2                !
 ! D32   D(15,3,5,6)          -151.2982         estimate D2E/DX2                !
 ! D33   D(15,3,5,19)          -32.5207         estimate D2E/DX2                !
 ! D34   D(15,3,5,20)           87.3898         estimate D2E/DX2                !
 ! D35   D(16,3,5,6)            89.2954         estimate D2E/DX2                !
 ! D36   D(16,3,5,19)         -151.9271         estimate D2E/DX2                !
 ! D37   D(16,3,5,20)          -32.0166         estimate D2E/DX2                !
 ! D38   D(2,4,6,5)            -38.4853         estimate D2E/DX2                !
 ! D39   D(2,4,6,11)          -156.9764         estimate D2E/DX2                !
 ! D40   D(2,4,6,21)            80.3473         estimate D2E/DX2                !
 ! D41   D(17,4,6,5)          -159.4999         estimate D2E/DX2                !
 ! D42   D(17,4,6,11)           82.009          estimate D2E/DX2                !
 ! D43   D(17,4,6,21)          -40.6673         estimate D2E/DX2                !
 ! D44   D(18,4,6,5)            79.4076         estimate D2E/DX2                !
 ! D45   D(18,4,6,11)          -39.0835         estimate D2E/DX2                !
 ! D46   D(18,4,6,21)         -161.7598         estimate D2E/DX2                !
 ! D47   D(3,5,6,4)             41.8302         estimate D2E/DX2                !
 ! D48   D(3,5,6,11)           161.5424         estimate D2E/DX2                !
 ! D49   D(3,5,6,21)           -77.6779         estimate D2E/DX2                !
 ! D50   D(19,5,6,4)           -75.8385         estimate D2E/DX2                !
 ! D51   D(19,5,6,11)           43.8737         estimate D2E/DX2                !
 ! D52   D(19,5,6,21)          164.6534         estimate D2E/DX2                !
 ! D53   D(20,5,6,4)           162.7777         estimate D2E/DX2                !
 ! D54   D(20,5,6,11)          -77.51           estimate D2E/DX2                !
 ! D55   D(20,5,6,21)           43.2697         estimate D2E/DX2                !
 ! D56   D(4,6,11,9)           -74.6488         estimate D2E/DX2                !
 ! D57   D(4,6,11,30)           50.8269         estimate D2E/DX2                !
 ! D58   D(4,6,11,31)          166.2895         estimate D2E/DX2                !
 ! D59   D(5,6,11,9)           171.4391         estimate D2E/DX2                !
 ! D60   D(5,6,11,30)          -63.0852         estimate D2E/DX2                !
 ! D61   D(5,6,11,31)           52.3774         estimate D2E/DX2                !
 ! D62   D(21,6,11,9)           49.5862         estimate D2E/DX2                !
 ! D63   D(21,6,11,30)         175.0619         estimate D2E/DX2                !
 ! D64   D(21,6,11,31)         -69.4755         estimate D2E/DX2                !
 ! D65   D(22,7,10,1)          121.8135         estimate D2E/DX2                !
 ! D66   D(22,7,10,8)          -57.3036         estimate D2E/DX2                !
 ! D67   D(23,7,10,1)            1.4196         estimate D2E/DX2                !
 ! D68   D(23,7,10,8)         -177.6975         estimate D2E/DX2                !
 ! D69   D(24,7,10,1)         -119.0691         estimate D2E/DX2                !
 ! D70   D(24,7,10,8)           61.8138         estimate D2E/DX2                !
 ! D71   D(25,8,10,1)           11.0707         estimate D2E/DX2                !
 ! D72   D(25,8,10,7)         -169.8565         estimate D2E/DX2                !
 ! D73   D(26,8,10,1)         -109.7941         estimate D2E/DX2                !
 ! D74   D(26,8,10,7)           69.2788         estimate D2E/DX2                !
 ! D75   D(27,8,10,1)          131.2385         estimate D2E/DX2                !
 ! D76   D(27,8,10,7)          -49.6887         estimate D2E/DX2                !
 ! D77   D(1,9,11,6)           -76.5634         estimate D2E/DX2                !
 ! D78   D(1,9,11,30)          157.1723         estimate D2E/DX2                !
 ! D79   D(1,9,11,31)           43.8949         estimate D2E/DX2                !
 ! D80   D(28,9,11,6)          164.9157         estimate D2E/DX2                !
 ! D81   D(28,9,11,30)          38.6514         estimate D2E/DX2                !
 ! D82   D(28,9,11,31)         -74.626          estimate D2E/DX2                !
 ! D83   D(29,9,11,6)           46.7916         estimate D2E/DX2                !
 ! D84   D(29,9,11,30)         -79.4727         estimate D2E/DX2                !
 ! D85   D(29,9,11,31)         167.2499         estimate D2E/DX2                !
 --------------------------------------------------------------------------------
 Trust Radius=3.00D-01 FncErr=1.00D-07 GrdErr=1.00D-06
 Number of steps in this run=    186 maximum allowed number of steps=    186.
 GradGradGradGradGradGradGradGradGradGradGradGradGradGradGradGradGradGrad

                          Input orientation:                          
 ---------------------------------------------------------------------
 Center     Atomic      Atomic             Coordinates (Angstroms)
 Number     Number       Type             X           Y           Z
 ---------------------------------------------------------------------
      1          6           0        3.925556    3.528147    1.471095
      2          6           0        0.015300   -0.185319    1.243743
      3          6           0        1.132078   -1.207598    1.022101
      4          6           0        0.653804    0.996805    1.971273
      5          6           0        2.352742   -0.652340    1.745795
      6          6           0        2.140599    0.853043    1.679402
      7          6           0        4.677268    5.371575    0.016931
      8          6           0        3.103811    5.881072    1.851403
      9          6           0        3.018872    3.032687    2.609586
     10          7           0        3.896281    4.880101    1.144394
     11          7           0        2.973057    1.533628    2.689856
     12          8           0        4.660254    2.729180    0.872663
     13          1           0       -0.399184    0.130892    0.279811
     14          1           0       -0.806889   -0.607603    1.830812
     15          1           0        0.858981   -2.200847    1.391726
     16          1           0        1.339109   -1.300273   -0.050576
     17          1           0        0.247094    1.951108    1.622543
     18          1           0        0.449037    0.919370    3.046407
     19          1           0        2.362831   -1.008924    2.783518
     20          1           0        3.288297   -0.965742    1.272210
     21          1           0        2.398802    1.238821    0.686280
     22          1           0        4.000392    5.851911   -0.695846
     23          1           0        5.215304    4.569306   -0.493783
     24          1           0        5.400837    6.105119    0.384498
     25          1           0        2.683112    5.500193    2.782551
     26          1           0        2.290433    6.203943    1.195254
     27          1           0        3.743393    6.737099    2.086766
     28          1           0        3.435052    3.375541    3.561662
     29          1           0        1.993672    3.391654    2.493463
     30          1           0        2.698700    1.254172    3.635755
     31          1           0        3.943393    1.216377    2.579232
 ---------------------------------------------------------------------
                    Distance matrix (angstroms):
                    1          2          3          4          5
     1  C    0.000000
     2  C    5.397371   0.000000
     3  C    5.516556   1.530154   0.000000
     4  C    4.166801   1.527875   2.447256   0.000000
     5  C    4.475006   2.435939   1.523832   2.378426   0.000000
     6  C    3.222677   2.405179   2.386503   1.521977   1.521707
     7  C    2.465338   7.356499   7.540839   6.256703   6.684306
     8  C    2.521142   6.834416   7.404371   5.465617   6.577289
     9  C    1.537439   4.608962   4.905111   3.185248   3.843083
    10  N    1.391177   6.382034   6.686991   5.126146   5.775128
    11  N    2.524031   3.714074   3.699315   2.486660   2.460589
    12  O    1.239456   5.496144   5.288533   4.501079   4.185888
    13  H    5.627066   1.095879   2.165021   2.172471   3.214912
    14  H    6.295225   1.094975   2.184857   2.174276   3.161091
    15  H    6.498581   2.189989   1.094417   3.256217   2.180495
    16  H    5.684965   2.161216   1.096398   3.135934   2.161995
    17  H    4.005130   2.182095   3.334839   1.094404   3.350655
    18  H    4.623149   2.158255   3.014690   1.097196   2.790333
    19  H    4.974894   2.925771   2.157965   2.757438   1.097325
    20  H    4.543203   3.364874   2.184108   3.358695   1.094426
    21  H    2.861455   2.831964   2.775307   2.180549   2.168222
    22  H    3.178225   7.489399   7.811224   6.471880   7.140143
    23  H    2.570644   7.257100   7.234864   6.296551   6.362041
    24  H    3.161951   8.325378   8.491447   7.151717   7.537060
    25  H    2.674425   6.466080   7.106289   5.005674   6.248013
    26  H    3.147952   6.782422   7.503513   5.513170   6.878633
    27  H    3.272554   7.907543   8.430343   6.519960   7.526884
    28  H    2.152754   5.454097   5.723479   3.990371   4.548911
    29  H    2.189987   4.274399   4.905137   2.793426   4.128175
    30  H    3.370739   3.872272   3.917372   2.649214   2.706737
    31  H    2.563701   4.379292   4.025394   3.352495   2.591697
                    6          7          8          9         10
     6  C    0.000000
     7  C    5.442025   0.000000
     8  C    5.122347   2.469948   0.000000
     9  C    2.527341   3.865558   2.948789   0.000000
    10  N    4.425591   1.456935   1.459388   2.515865   0.000000
    11  N    1.475534   4.977820   4.429488   1.501905   3.799957
    12  O    3.243360   2.777556   3.648955   2.408975   2.298686
    13  H    2.988453   7.300974   6.914148   5.052858   6.461695
    14  H    3.293037   8.313646   7.576074   5.338037   7.259881
    15  H    3.324386   8.591330   8.400475   5.791217   7.708839
    16  H    2.876105   7.460658   7.635668   5.354681   6.794418
    17  H    2.189598   5.822716   4.863931   3.134775   4.703636
    18  H    2.175887   6.846736   5.752768   3.355737   5.584670
    19  H    2.176093   7.329488   6.992134   4.098202   6.302287
    20  H    2.188834   6.608067   6.873745   4.224760   5.878764
    21  H    1.096260   4.766455   4.837876   2.702138   3.963740
    22  H    5.838606   1.094045   2.700590   4.453907   2.083683
    23  H    5.290290   1.092679   3.417460   4.100783   2.126039
    24  H    6.315872   1.093959   2.734655   4.479355   2.083699
    25  H    4.807001   3.412016   1.090455   2.496244   2.130692
    26  H    5.374847   2.788954   1.093782   3.547932   2.081800
    27  H    6.112038   2.649716   1.094186   3.810635   2.088032
    28  H    3.403161   4.253512   3.051621   1.094167   2.884375
    29  H    2.669987   4.153912   2.800330   1.092418   2.766836
    30  H    2.073571   5.827831   4.975563   2.078135   4.559434
    31  H    2.047382   4.936560   4.795208   2.038294   3.934953
                   11         12         13         14         15
    11  N    0.000000
    12  O    2.752847   0.000000
    13  H    4.375842   5.718434   0.000000
    14  H    4.428410   6.476251   1.765560   0.000000
    15  H    4.483388   6.246941   2.873385   2.346560   0.000000
    16  H    4.267406   5.302723   2.275753   2.936788   1.766860
    17  H    2.957080   4.543534   2.352401   2.775114   4.203143
    18  H    2.622045   5.072961   2.999205   2.320920   3.555528
    19  H    2.616433   4.785702   3.898263   3.334041   2.370513
    20  H    2.890666   3.961610   3.973031   4.148596   2.727883
    21  H    2.104993   2.714789   3.036683   3.872426   3.834060
    22  H    5.582647   3.556274   7.282735   8.439151   8.892318
    23  H    4.937466   2.358245   7.198642   8.274717   8.268475
    24  H    5.666332   3.490521   8.327220   9.256799   9.520086
    25  H    3.978227   3.903239   6.677848   7.098668   8.035413
    26  H    4.950924   4.218305   6.704776   7.509627   8.528080
    27  H    5.294642   4.286968   8.004249   8.643797   9.417526
    28  H    2.089528   3.024834   5.999971   6.070860   6.514665
    29  H    2.109509   3.190067   4.610703   4.927099   5.811834
    30  H    1.023764   3.695676   4.703297   4.360410   4.511917
    31  H    1.026858   2.390573   5.032255   5.143171   4.754071
                   16         17         18         19         20
    16  H    0.000000
    17  H    3.816190   0.000000
    18  H    3.912845   1.769930   0.000000
    19  H    3.027372   3.819162   2.729476   0.000000
    20  H    2.379287   4.228435   3.842242   1.772683   0.000000
    21  H    2.848316   2.452302   3.077959   3.074420   2.448390
    22  H    7.658494   5.888840   7.137684   7.865026   7.131670
    23  H    7.047928   6.001409   6.969382   7.070641   6.121180
    24  H    8.457350   6.734214   7.648404   8.099037   7.432896
    25  H    7.488611   4.458229   5.103396   6.516992   6.667510
    26  H    7.666184   4.737554   5.894422   7.386019   7.239201
    27  H    8.657261   5.945193   6.754233   7.898879   7.759148
    28  H    6.269328   3.994029   3.900583   4.580251   4.910180
    29  H    5.377246   2.425739   2.967125   4.425551   4.706848
    30  H    4.686440   3.247940   2.349555   2.441459   3.295754
    31  H    4.475680   3.888150   3.537936   2.737129   2.626614
                   21         22         23         24         25
    21  H    0.000000
    22  H    5.075033   0.000000
    23  H    4.518558   1.778177   0.000000
    24  H    5.725745   1.786758   1.778911   0.000000
    25  H    4.757570   3.736064   4.244162   3.674591   0.000000
    26  H    4.992318   2.573741   3.752300   3.215852   1.780161
    27  H    5.830982   2.931303   3.677646   2.458503   1.771510
    28  H    3.729237   4.957659   4.587048   4.627016   2.384654
    29  H    2.839847   4.500164   4.548562   4.839360   2.237149
    30  H    2.964722   6.449524   5.863147   6.434586   4.330922
    31  H    2.443263   5.676051   4.722639   5.553449   4.469981
                   26         27         28         29         30
    26  H    0.000000
    27  H    1.786097   0.000000
    28  H    3.861333   3.683811   0.000000
    29  H    3.111652   3.797226   1.794126   0.000000
    30  H    5.533801   5.792515   2.246755   2.524030   0.000000
    31  H    5.433552   5.546250   2.426019   2.922431   1.633074
                   31
    31  H    0.000000
 Stoichiometry    C9H19N2O(1+)
 Framework group  C1[X(C9H19N2O)]
 Deg. of freedom    87
 Full point group                 C1      NOp   1
 Largest Abelian subgroup         C1      NOp   1
 Largest concise Abelian subgroup C1      NOp   1
                         Standard orientation:                         
 ---------------------------------------------------------------------
 Center     Atomic      Atomic             Coordinates (Angstroms)
 Number     Number       Type             X           Y           Z
 ---------------------------------------------------------------------
      1          6           0        1.695528   -0.423783    0.232195
      2          6           0       -3.394778    0.927090   -0.949137
      3          6           0       -3.749794   -0.529920   -0.645068
      4          6           0       -2.108941    1.225065   -0.179568
      5          6           0       -2.739876   -0.994427    0.397219
      6          6           0       -1.512314   -0.148467    0.092206
      7          6           0        3.777731   -0.704298   -1.057625
      8          6           0        3.347093    1.470449    0.031261
      9          6           0        0.748042    0.492723    1.023399
     10          7           0        2.893854    0.108547   -0.232576
     11          7           0       -0.596665   -0.136954    1.249208
     12          8           0        1.384471   -1.605744    0.026127
     13          1           0       -3.240902    1.057730   -2.026266
     14          1           0       -4.197190    1.608638   -0.648145
     15          1           0       -4.778752   -0.635949   -0.287644
     16          1           0       -3.653962   -1.130535   -1.557299
     17          1           0       -1.436400    1.869554   -0.754062
     18          1           0       -2.353353    1.745778    0.754755
     19          1           0       -3.125444   -0.790410    1.404113
     20          1           0       -2.538821   -2.067730    0.323959
     21          1           0       -0.977859   -0.539341   -0.781500
     22          1           0        3.933411   -0.194178   -2.012861
     23          1           0        3.364502   -1.697062   -1.251549
     24          1           0        4.736265   -0.814264   -0.542002
     25          1           0        2.744897    1.972253    0.789315
     26          1           0        3.295831    2.038304   -0.902159
     27          1           0        4.383443    1.437041    0.380699
     28          1           0        1.174930    0.662346    2.016474
     29          1           0        0.588506    1.444930    0.512295
     30          1           0       -1.041815    0.299133    2.061465
     31          1           0       -0.409525   -1.108023    1.525691
 ---------------------------------------------------------------------
 Rotational constants (GHZ):      1.9888819      0.4027144      0.3842478
 Standard basis: 6-31G(d) (6D, 7F)
 There are   218 symmetry adapted basis functions of A   symmetry.
 Integral buffers will be    131072 words long.
 Raffenetti 2 integral format.
 Two-electron integral symmetry is turned on.
   218 basis functions,   412 primitive gaussians,   218 cartesian basis functions
    47 alpha electrons       47 beta electrons
       nuclear repulsion energy       759.4233980239 Hartrees.
 NAtoms=   31 NActive=   31 NUniq=   31 SFac= 1.00D+00 NAtFMM=   60 NAOKFM=F Big=F
 One-electron integrals computed using PRISM.
 NBasis=   218 RedAO= T  NBF=   218
 NBsUse=   218 1.00D-06 NBFU=   218
 Harris functional with IExCor=  402 diagonalized for initial guess.
 ExpMin= 1.61D-01 ExpMax= 5.48D+03 ExpMxC= 8.25D+02 IAcc=3 IRadAn=         5 AccDes= 0.00D+00
 HarFok:  IExCor=  402 AccDes= 0.00D+00 IRadAn=         5 IDoV= 1
 ScaDFX=  1.000000  1.000000  1.000000  1.000000
 FoFCou: FMM=F IPFlag=           0 FMFlag=      100000 FMFlg1=           0
         NFxFlg=           0 DoJE=T BraDBF=F KetDBF=T FulRan=T
         Omega=  0.000000  0.000000  1.000000  0.000000  0.000000 ICntrl=     500 IOpCl=  0
         NMat0=    1 NMatS0=    1 NMatT0=    0 NMatD0=    1 NMtDS0=    0 NMtDT0=    0
         I1Cent=           4 NGrid=           0.
 Petite list used in FoFCou.
 Initial guess orbital symmetries:
       Occupied  (A) (A) (A) (A) (A) (A) (A) (A) (A) (A) (A) (A)
                 (A) (A) (A) (A) (A) (A) (A) (A) (A) (A) (A) (A)
                 (A) (A) (A) (A) (A) (A) (A) (A) (A) (A) (A) (A)
                 (A) (A) (A) (A) (A) (A) (A) (A) (A) (A) (A)
       Virtual   (A) (A) (A) (A) (A) (A) (A) (A) (A) (A) (A) (A)
                 (A) (A) (A) (A) (A) (A) (A) (A) (A) (A) (A) (A)
                 (A) (A) (A) (A) (A) (A) (A) (A) (A) (A) (A) (A)
                 (A) (A) (A) (A) (A) (A) (A) (A) (A) (A) (A) (A)
                 (A) (A) (A) (A) (A) (A) (A) (A) (A) (A) (A) (A)
                 (A) (A) (A) (A) (A) (A) (A) (A) (A) (A) (A) (A)
                 (A) (A) (A) (A) (A) (A) (A) (A) (A) (A) (A) (A)
                 (A) (A) (A) (A) (A) (A) (A) (A) (A) (A) (A) (A)
                 (A) (A) (A) (A) (A) (A) (A) (A) (A) (A) (A) (A)
                 (A) (A) (A) (A) (A) (A) (A) (A) (A) (A) (A) (A)
                 (A) (A) (A) (A) (A) (A) (A) (A) (A) (A) (A) (A)
                 (A) (A) (A) (A) (A) (A) (A) (A) (A) (A) (A) (A)
                 (A) (A) (A) (A) (A) (A) (A) (A) (A) (A) (A) (A)
                 (A) (A) (A) (A) (A) (A) (A) (A) (A) (A) (A) (A)
                 (A) (A) (A)
 The electronic state of the initial guess is 1-A.
 Requested convergence on RMS density matrix=1.00D-08 within 128 cycles.
 Requested convergence on MAX density matrix=1.00D-06.
 Requested convergence on             energy=1.00D-06.
 No special actions if energy rises.
 Integral accuracy reduced to 1.0D-05 until final iterations.
 Initial convergence to 1.0D-05 achieved.  Increase integral accuracy.
 SCF Done:  E(RB3LYP) =  -538.908195038     A.U. after   14 cycles
             Convg  =    0.6425D-08             -V/T =  2.0096
 Calling FoFJK, ICntrl=      2127 FMM=F ISym2X=0 I1Cent= 0 IOpClX= 0 NMat=1 NMatS=1 NMatT=0.
 ***** Axes restored to original set *****
 -------------------------------------------------------------------
 Center     Atomic                   Forces (Hartrees/Bohr)
 Number     Number              X              Y              Z
 -------------------------------------------------------------------
      1        6           0.017935591    0.019726620   -0.028703272
      2        6          -0.015106188   -0.001605833   -0.005077931
      3        6          -0.000212128   -0.012353248   -0.007526040
      4        6          -0.009003505    0.014014365   -0.000842403
      5        6           0.011666139   -0.008932889   -0.004711146
      6        6          -0.012700062   -0.013661921   -0.003235852
      7        6           0.003351896    0.001279973   -0.002351911
      8        6           0.000393750   -0.001471754   -0.005591351
      9        6          -0.002787058    0.011732070    0.006390529
     10        7          -0.005250618   -0.038845029    0.019249691
     11        7           0.024902896    0.016972274   -0.001035725
     12        8          -0.014003861   -0.002588156    0.014944900
     13        1          -0.001815855   -0.000064926    0.002298713
     14        1          -0.000541437    0.002339541   -0.001559978
     15        1           0.002041082    0.000084993   -0.001835962
     16        1           0.000970551   -0.002228667    0.001536810
     17        1          -0.001151444    0.001117377    0.002368864
     18        1           0.003099273    0.001299554    0.002036471
     19        1           0.000867431    0.002582126    0.002513697
     20        1           0.001899646   -0.000322392    0.001915575
     21        1           0.003524874    0.001880255    0.004764937
     22        1           0.000394579    0.002146988   -0.001214540
     23        1          -0.003286717   -0.001225092    0.005050320
     24        1           0.000996799    0.001881148   -0.001959906
     25        1           0.000751487   -0.000203023    0.000083817
     26        1          -0.002772467    0.004803403    0.001923734
     27        1          -0.001418831    0.001196691    0.000835055
     28        1          -0.003698662    0.002161037    0.001439821
     29        1           0.000750595   -0.000923115    0.003373696
     30        1          -0.004930822   -0.000792762    0.000327982
     31        1           0.005133068    0.000000392   -0.005408597
 -------------------------------------------------------------------
 Cartesian Forces:  Max     0.038845029 RMS     0.008473543

 GradGradGradGradGradGradGradGradGradGradGradGradGradGradGradGradGradGrad
 Berny optimization.
 Internal  Forces:  Max     0.033218969 RMS     0.005576095
 Search for a local minimum.
 Step number   1 out of a maximum of  186
 All quantities printed in internal units (Hartrees-Bohrs-Radians)
 Mixed Optimization -- RFO/linear search
 Second derivative matrix not updated -- first step.
 ITU=  0
     Eigenvalues ---    0.00271   0.00344   0.00430   0.00661   0.00693
     Eigenvalues ---    0.00899   0.00906   0.00939   0.01165   0.01808
     Eigenvalues ---    0.02170   0.02240   0.03290   0.04154   0.04225
     Eigenvalues ---    0.04262   0.04429   0.04495   0.04887   0.05010
     Eigenvalues ---    0.05100   0.05562   0.05604   0.05629   0.05733
     Eigenvalues ---    0.06198   0.06884   0.07014   0.07255   0.07300
     Eigenvalues ---    0.07319   0.07358   0.07729   0.07738   0.08818
     Eigenvalues ---    0.08968   0.09014   0.09466   0.11314   0.12667
     Eigenvalues ---    0.12691   0.13162   0.16000   0.16000   0.16000
     Eigenvalues ---    0.16000   0.16000   0.16000   0.18648   0.20411
     Eigenvalues ---    0.21951   0.22089   0.24996   0.24998   0.25000
     Eigenvalues ---    0.25000   0.27367   0.27669   0.28747   0.28938
     Eigenvalues ---    0.29707   0.29914   0.32178   0.33980   0.33994
     Eigenvalues ---    0.34084   0.34099   0.34142   0.34244   0.34306
     Eigenvalues ---    0.34307   0.34309   0.34333   0.34335   0.34349
     Eigenvalues ---    0.34359   0.34379   0.34505   0.34535   0.34760
     Eigenvalues ---    0.35086   0.37041   0.37351   0.43262   0.43743
     Eigenvalues ---    0.47115   0.87257
 RFO step:  Lambda=-2.01536100D-02 EMin= 2.70700536D-03
 Linear search not attempted -- first point.
 Iteration  1 RMS(Cart)=  0.11263715 RMS(Int)=  0.00335376
 Iteration  2 RMS(Cart)=  0.00698061 RMS(Int)=  0.00029916
 Iteration  3 RMS(Cart)=  0.00001584 RMS(Int)=  0.00029901
 Iteration  4 RMS(Cart)=  0.00000001 RMS(Int)=  0.00029901
 Variable       Old X    -DE/DX   Delta X   Delta X   Delta X     New X
                                 (Linear)    (Quad)   (Total)
    R1        2.90534  -0.00768   0.00000  -0.02497  -0.02497   2.88037
    R2        2.62894  -0.03320   0.00000  -0.06757  -0.06757   2.56137
    R3        2.34223  -0.01385   0.00000  -0.01551  -0.01551   2.32672
    R4        2.89157   0.01726   0.00000   0.05794   0.05783   2.94940
    R5        2.88727   0.01346   0.00000   0.04361   0.04358   2.93085
    R6        2.07091  -0.00135   0.00000  -0.00374  -0.00374   2.06717
    R7        2.06920  -0.00133   0.00000  -0.00368  -0.00368   2.06553
    R8        2.87962   0.01170   0.00000   0.03707   0.03703   2.91666
    R9        2.06815  -0.00121   0.00000  -0.00332  -0.00332   2.06483
   R10        2.07189  -0.00113   0.00000  -0.00313  -0.00313   2.06876
   R11        2.87612   0.01143   0.00000   0.03308   0.03318   2.90930
   R12        2.06812   0.00065   0.00000   0.00178   0.00178   2.06991
   R13        2.07340   0.00132   0.00000   0.00368   0.00368   2.07708
   R14        2.87561   0.01006   0.00000   0.02906   0.02915   2.90476
   R15        2.07364   0.00155   0.00000   0.00430   0.00430   2.07794
   R16        2.06816   0.00089   0.00000   0.00244   0.00244   2.07061
   R17        2.78835   0.02164   0.00000   0.05832   0.05832   2.84668
   R18        2.07163  -0.00282   0.00000  -0.00782  -0.00782   2.06381
   R19        2.75321   0.00253   0.00000   0.00642   0.00642   2.75962
   R20        2.06745   0.00149   0.00000   0.00409   0.00409   2.07154
   R21        2.06486  -0.00308   0.00000  -0.00843  -0.00843   2.05643
   R22        2.06728   0.00126   0.00000   0.00347   0.00347   2.07075
   R23        2.75784   0.00329   0.00000   0.00842   0.00842   2.76627
   R24        2.06066  -0.00015   0.00000  -0.00040  -0.00040   2.06026
   R25        2.06695   0.00233   0.00000   0.00639   0.00639   2.07334
   R26        2.06771   0.00029   0.00000   0.00079   0.00079   2.06850
   R27        2.83819  -0.00131   0.00000  -0.00383  -0.00383   2.83436
   R28        2.06768   0.00052   0.00000   0.00144   0.00144   2.06912
   R29        2.06437  -0.00137   0.00000  -0.00374  -0.00374   2.06064
   R30        1.93463   0.00184   0.00000   0.00402   0.00402   1.93866
   R31        1.94048   0.00543   0.00000   0.01200   0.01200   1.95248
    A1        2.06538  -0.00218   0.00000  -0.00808  -0.00809   2.05729
    A2        2.09367  -0.01682   0.00000  -0.06226  -0.06227   2.03139
    A3        2.12413   0.01900   0.00000   0.07030   0.07028   2.19441
    A4        1.85550  -0.00100   0.00000   0.00064   0.00058   1.85607
    A5        1.91921   0.00140   0.00000   0.01161   0.01171   1.93092
    A6        1.94769   0.00130   0.00000   0.01206   0.01200   1.95969
    A7        1.93227   0.00006   0.00000  -0.00200  -0.00204   1.93022
    A8        1.93572  -0.00036   0.00000  -0.00640  -0.00641   1.92931
    A9        1.87431  -0.00134   0.00000  -0.01534  -0.01545   1.85886
   A10        1.84669  -0.00037   0.00000   0.00278   0.00266   1.84936
   A11        1.95550   0.00113   0.00000   0.01150   0.01146   1.96696
   A12        1.91347   0.00138   0.00000   0.01313   0.01325   1.92671
   A13        1.95001  -0.00055   0.00000  -0.00709  -0.00711   1.94290
   A14        1.92216  -0.00039   0.00000  -0.00535  -0.00539   1.91678
   A15        1.87637  -0.00115   0.00000  -0.01431  -0.01447   1.86190
   A16        1.81712  -0.00007   0.00000  -0.00437  -0.00425   1.81288
   A17        1.94725   0.00025   0.00000   0.01258   0.01243   1.95967
   A18        1.91134   0.00198   0.00000   0.01489   0.01462   1.92597
   A19        1.96524   0.00145   0.00000   0.01660   0.01642   1.98166
   A20        1.94288  -0.00290   0.00000  -0.03069  -0.03056   1.91232
   A21        1.88013  -0.00066   0.00000  -0.00857  -0.00858   1.87155
   A22        1.80090   0.00056   0.00000  -0.00159  -0.00149   1.79941
   A23        1.91567   0.00152   0.00000   0.01147   0.01125   1.92692
   A24        1.95510   0.00059   0.00000   0.01754   0.01742   1.97252
   A25        1.94337  -0.00277   0.00000  -0.02929  -0.02922   1.91415
   A26        1.96447   0.00047   0.00000   0.00807   0.00783   1.97230
   A27        1.88421  -0.00033   0.00000  -0.00586  -0.00602   1.87819
   A28        1.79391   0.00204   0.00000   0.02308   0.02264   1.81655
   A29        1.95653   0.00105   0.00000   0.02069   0.01988   1.97641
   A30        1.95042   0.00011   0.00000  -0.00087  -0.00081   1.94961
   A31        1.92599   0.00130   0.00000   0.02092   0.02009   1.94607
   A32        1.93352  -0.00053   0.00000  -0.00585  -0.00583   1.92768
   A33        1.90200  -0.00360   0.00000  -0.05265  -0.05235   1.84965
   A34        1.89719   0.00309   0.00000   0.01815   0.01802   1.91521
   A35        1.95840  -0.00901   0.00000  -0.05209  -0.05191   1.90649
   A36        1.89730   0.00459   0.00000   0.02648   0.02642   1.92372
   A37        1.89915   0.00234   0.00000   0.01092   0.01102   1.91017
   A38        1.91105  -0.00254   0.00000  -0.00972  -0.01008   1.90096
   A39        1.90042   0.00155   0.00000   0.00654   0.00678   1.90720
   A40        1.96450  -0.00261   0.00000  -0.01566  -0.01567   1.94882
   A41        1.89194   0.00790   0.00000   0.04717   0.04701   1.93895
   A42        1.90011   0.00167   0.00000   0.00710   0.00689   1.90700
   A43        1.90547  -0.00202   0.00000  -0.00732  -0.00730   1.89817
   A44        1.89135  -0.00115   0.00000  -0.01260  -0.01265   1.87870
   A45        1.91004  -0.00393   0.00000  -0.01935  -0.01970   1.89034
   A46        1.95975  -0.03322   0.00000  -0.14210  -0.14133   1.81842
   A47        1.89553   0.00894   0.00000   0.03905   0.03900   1.93452
   A48        1.94855   0.01170   0.00000   0.05163   0.05035   1.99890
   A49        1.85235   0.00987   0.00000   0.03862   0.03924   1.89159
   A50        1.88077   0.00864   0.00000   0.02367   0.02427   1.90504
   A51        1.92462  -0.00622   0.00000  -0.01190  -0.01390   1.91072
   A52        2.09240  -0.00442   0.00000  -0.01635  -0.01636   2.07605
   A53        2.17027   0.00404   0.00000   0.01499   0.01498   2.18525
   A54        2.02040   0.00039   0.00000   0.00145   0.00145   2.02185
   A55        2.02749   0.00355   0.00000   0.00973   0.00974   2.03723
   A56        1.93438  -0.00350   0.00000  -0.02533  -0.02532   1.90905
   A57        1.89319  -0.00118   0.00000  -0.00708  -0.00706   1.88614
   A58        1.90711  -0.00001   0.00000   0.00162   0.00160   1.90871
   A59        1.84812  -0.00162   0.00000  -0.00633  -0.00631   1.84181
   A60        1.84257   0.00284   0.00000   0.03085   0.03083   1.87340
    D1        2.96580  -0.00040   0.00000   0.00789   0.00743   2.97323
    D2       -1.27444  -0.00212   0.00000  -0.00338  -0.00440  -1.27883
    D3        0.85133   0.00364   0.00000   0.04124   0.04211   0.89344
    D4       -0.17895  -0.00071   0.00000  -0.00349  -0.00354  -0.18250
    D5        1.86400  -0.00243   0.00000  -0.01475  -0.01537   1.84863
    D6       -2.29342   0.00333   0.00000   0.02986   0.03113  -2.26229
    D7       -3.07394  -0.00121   0.00000  -0.03301  -0.03328  -3.10722
    D8        0.05085  -0.00098   0.00000  -0.02609  -0.02636   0.02448
    D9        0.07087  -0.00082   0.00000  -0.02117  -0.02090   0.04997
   D10       -3.08753  -0.00060   0.00000  -0.01425  -0.01398  -3.10151
   D11        0.09438  -0.00004   0.00000   0.00104   0.00105   0.09543
   D12        2.22343  -0.00029   0.00000   0.00089   0.00083   2.22427
   D13       -1.97798  -0.00009   0.00000  -0.00100  -0.00104  -1.97901
   D14        2.18685   0.00021   0.00000   0.00536   0.00541   2.19226
   D15       -1.96727  -0.00004   0.00000   0.00521   0.00519  -1.96208
   D16        0.11450   0.00016   0.00000   0.00332   0.00332   0.11782
   D17       -2.01830   0.00028   0.00000   0.00146   0.00152  -2.01678
   D18        0.11075   0.00003   0.00000   0.00131   0.00131   0.11206
   D19        2.19253   0.00023   0.00000  -0.00058  -0.00056   2.19197
   D20        0.35620  -0.00119   0.00000  -0.01771  -0.01756   0.33864
   D21        2.48029   0.00065   0.00000   0.00634   0.00645   2.48674
   D22       -1.72303   0.00127   0.00000   0.01325   0.01340  -1.70963
   D23       -1.72777  -0.00231   0.00000  -0.03095  -0.03087  -1.75864
   D24        0.39631  -0.00047   0.00000  -0.00689  -0.00686   0.38945
   D25        2.47618   0.00015   0.00000   0.00002   0.00010   2.47627
   D26        2.47655  -0.00045   0.00000  -0.00634  -0.00632   2.47023
   D27       -1.68256   0.00139   0.00000   0.01772   0.01769  -1.66486
   D28        0.39731   0.00201   0.00000   0.02463   0.02465   0.42196
   D29       -0.50808   0.00097   0.00000   0.01592   0.01579  -0.49229
   D30        1.56498  -0.00124   0.00000  -0.01357  -0.01372   1.55126
   D31       -2.62537  -0.00025   0.00000  -0.00188  -0.00198  -2.62736
   D32       -2.64065   0.00014   0.00000   0.00419   0.00420  -2.63645
   D33       -0.56759  -0.00206   0.00000  -0.02531  -0.02531  -0.59291
   D34        1.52524  -0.00107   0.00000  -0.01362  -0.01357   1.51167
   D35        1.55850   0.00219   0.00000   0.03028   0.03020   1.58870
   D36       -2.65163  -0.00001   0.00000   0.00078   0.00069  -2.65094
   D37       -0.55880   0.00098   0.00000   0.01248   0.01243  -0.54637
   D38       -0.67170   0.00092   0.00000   0.01992   0.02002  -0.65168
   D39       -2.73976  -0.00231   0.00000  -0.02818  -0.02835  -2.76811
   D40        1.40232   0.00154   0.00000   0.02600   0.02602   1.42835
   D41       -2.78380  -0.00013   0.00000  -0.00157  -0.00148  -2.78528
   D42        1.43133  -0.00336   0.00000  -0.04968  -0.04985   1.38147
   D43       -0.70978   0.00049   0.00000   0.00450   0.00452  -0.70526
   D44        1.38592   0.00179   0.00000   0.01991   0.02013   1.40606
   D45       -0.68214  -0.00144   0.00000  -0.02819  -0.02824  -0.71038
   D46       -2.82324   0.00241   0.00000   0.02599   0.02613  -2.79711
   D47        0.73007  -0.00063   0.00000  -0.01835  -0.01848   0.71159
   D48        2.81945   0.00235   0.00000   0.02853   0.02869   2.84813
   D49       -1.35573  -0.00166   0.00000  -0.02757  -0.02757  -1.38331
   D50       -1.32363  -0.00142   0.00000  -0.01714  -0.01733  -1.34096
   D51        0.76574   0.00156   0.00000   0.02974   0.02984   0.79558
   D52        2.87374  -0.00245   0.00000  -0.02636  -0.02642   2.84732
   D53        2.84101   0.00068   0.00000   0.00596   0.00579   2.84680
   D54       -1.35280   0.00365   0.00000   0.05283   0.05296  -1.29984
   D55        0.75520  -0.00036   0.00000  -0.00327  -0.00330   0.75190
   D56       -1.30287   0.00191   0.00000   0.03439   0.03459  -1.26828
   D57        0.88710   0.00174   0.00000   0.02242   0.02263   0.90973
   D58        2.90230   0.00255   0.00000   0.04149   0.04170   2.94400
   D59        2.99218  -0.00201   0.00000  -0.01880  -0.01903   2.97315
   D60       -1.10104  -0.00217   0.00000  -0.03077  -0.03099  -1.13203
   D61        0.91416  -0.00136   0.00000  -0.01171  -0.01192   0.90224
   D62        0.86544   0.00016   0.00000   0.00942   0.00942   0.87486
   D63        3.05541   0.00000   0.00000  -0.00255  -0.00254   3.05287
   D64       -1.21258   0.00081   0.00000   0.01651   0.01653  -1.19605
   D65        2.12605  -0.00054   0.00000  -0.00302  -0.00324   2.12281
   D66       -1.00014  -0.00078   0.00000  -0.00951  -0.00967  -1.00981
   D67        0.02478   0.00015   0.00000   0.00403   0.00395   0.02872
   D68       -3.10141  -0.00010   0.00000  -0.00246  -0.00248  -3.10389
   D69       -2.07815   0.00083   0.00000   0.01101   0.01122  -2.06693
   D70        1.07885   0.00058   0.00000   0.00451   0.00479   1.08364
   D71        0.19322   0.00083   0.00000   0.00313   0.00307   0.19629
   D72       -2.96455   0.00100   0.00000   0.00963   0.00963  -2.95492
   D73       -1.91627  -0.00037   0.00000  -0.00993  -0.00981  -1.92607
   D74        1.20914  -0.00020   0.00000  -0.00342  -0.00324   1.20590
   D75        2.29054  -0.00114   0.00000  -0.01785  -0.01800   2.27254
   D76       -0.86723  -0.00097   0.00000  -0.01135  -0.01144  -0.87867
   D77       -1.33628  -0.00106   0.00000  -0.02223  -0.02268  -1.35897
   D78        2.74317   0.00091   0.00000   0.00331   0.00286   2.74603
   D79        0.76611  -0.00156   0.00000  -0.02989  -0.03036   0.73575
   D80        2.87832   0.00026   0.00000  -0.01527  -0.01496   2.86336
   D81        0.67459   0.00223   0.00000   0.01026   0.01059   0.68518
   D82       -1.30247  -0.00023   0.00000  -0.02294  -0.02263  -1.32510
   D83        0.81667  -0.00192   0.00000  -0.03325  -0.03311   0.78356
   D84       -1.38706   0.00005   0.00000  -0.00771  -0.00756  -1.39462
   D85        2.91906  -0.00242   0.00000  -0.04091  -0.04078   2.87828
         Item               Value     Threshold  Converged?
 Maximum Force            0.033219     0.000450     NO 
 RMS     Force            0.005576     0.000300     NO 
 Maximum Displacement     0.491535     0.001800     NO 
 RMS     Displacement     0.116148     0.001200     NO 
 Predicted change in Energy=-1.118097D-02
 GradGradGradGradGradGradGradGradGradGradGradGradGradGradGradGradGradGrad

                          Input orientation:                          
 ---------------------------------------------------------------------
 Center     Atomic      Atomic             Coordinates (Angstroms)
 Number     Number       Type             X           Y           Z
 ---------------------------------------------------------------------
      1          6           0        3.847189    3.502989    1.543290
      2          6           0        0.012122   -0.189537    1.231649
      3          6           0        1.192095   -1.160871    0.915219
      4          6           0        0.622438    0.994363    2.026197
      5          6           0        2.422084   -0.588348    1.651098
      6          6           0        2.125971    0.919068    1.703881
      7          6           0        4.667796    5.192693    0.007920
      8          6           0        3.106793    5.880176    1.805071
      9          6           0        2.959447    3.115336    2.720111
     10          7           0        3.859291    4.802994    1.159883
     11          7           0        2.988162    1.615739    2.723932
     12          8           0        4.506291    2.596736    1.033133
     13          1           0       -0.452707    0.166230    0.307539
     14          1           0       -0.778719   -0.673024    1.810892
     15          1           0        0.986832   -2.188514    1.224607
     16          1           0        1.384153   -1.189521   -0.162161
     17          1           0        0.165271    1.953272    1.759217
     18          1           0        0.469525    0.849889    3.105020
     19          1           0        2.478949   -0.990437    2.672964
     20          1           0        3.368124   -0.821613    1.149905
     21          1           0        2.357347    1.387169    0.744676
     22          1           0        4.028686    5.654501   -0.753624
     23          1           0        5.147351    4.309197   -0.408828
     24          1           0        5.436437    5.912580    0.310778
     25          1           0        2.681209    5.559924    2.756357
     26          1           0        2.295843    6.237663    1.158283
     27          1           0        3.779710    6.719221    2.008397
     28          1           0        3.386009    3.471224    3.663645
     29          1           0        1.925896    3.453123    2.638048
     30          1           0        2.750498    1.273411    3.661368
     31          1           0        3.971895    1.357463    2.542057
 ---------------------------------------------------------------------
                    Distance matrix (angstroms):
                    1          2          3          4          5
     1  C    0.000000
     2  C    5.332880   0.000000
     3  C    5.403295   1.560754   0.000000
     4  C    4.114053   1.550939   2.490747   0.000000
     5  C    4.333773   2.478488   1.543430   2.425779   0.000000
     6  C    3.108863   2.433180   2.412522   1.539536   1.537131
     7  C    2.426078   7.220887   7.298731   6.169631   6.415894
     8  C    2.503544   6.837193   7.350799   5.485625   6.506484
     9  C    1.524228   4.671662   4.966600   3.231355   3.892148
    10  N    1.355418   6.303271   6.537697   5.072809   5.601198
    11  N    2.386118   3.787182   3.769200   2.543540   2.515833
    12  O    1.231247   5.291529   5.011727   4.317185   3.856236
    13  H    5.581232   1.093899   2.199055   2.189869   3.261742
    14  H    6.237767   1.093029   2.219084   2.188556   3.205908
    15  H    6.377807   2.223965   1.092659   3.302429   2.191433
    16  H    5.567294   2.196621   1.094739   3.184097   2.174079
    17  H    4.000596   2.212106   3.385940   1.095348   3.400695
    18  H    4.570182   2.190695   3.059492   1.099142   2.827526
    19  H    4.831058   2.967164   2.185111   2.793631   1.099599
    20  H    4.368803   3.415984   2.214785   3.406531   1.095718
    21  H    2.708156   2.867617   2.807028   2.192374   2.174502
    22  H    3.152421   7.363890   7.568394   6.406779   6.880191
    23  H    2.480152   7.021420   6.878866   6.114925   5.971291
    24  H    3.138618   8.216266   8.271246   7.092681   7.290052
    25  H    2.657447   6.519590   7.125752   5.061227   6.252199
    26  H    3.167545   6.821265   7.484360   5.571871   6.844942
    27  H    3.250388   7.907527   8.365802   6.537789   7.441194
    28  H    2.170162   5.540658   5.815790   4.056280   4.632453
    29  H    2.211866   4.348501   4.979513   2.849362   4.189721
    30  H    3.264967   3.942392   3.986940   2.698202   2.759563
    31  H    2.369889   4.448615   4.088508   3.408346   2.642329
                    6          7          8          9         10
     6  C    0.000000
     7  C    5.253668   0.000000
     8  C    5.058146   2.477724   0.000000
     9  C    2.559491   3.819666   2.916050   0.000000
    10  N    4.287798   1.460330   1.463845   2.468242   0.000000
    11  N    1.506396   4.795049   4.363920   1.499876   3.655641
    12  O    2.988376   2.795736   3.651775   2.346820   2.302661
    13  H    3.027560   7.181550   6.896508   5.114736   6.389006
    14  H    3.314127   8.204991   7.618508   5.399281   7.205673
    15  H    3.344310   8.337389   8.362711   5.853082   7.558862
    16  H    2.911796   7.179408   7.537779   5.414871   6.616974
    17  H    2.217427   5.816667   4.906651   3.175079   4.703817
    18  H    2.170666   6.788039   5.826563   3.388233   5.558877
    19  H    2.170236   7.079873   6.953614   4.134062   6.144802
    20  H    2.209028   6.258207   6.738806   4.258184   5.646020
    21  H    1.092121   4.512538   4.676881   2.692847   3.754476
    22  H    5.664272   1.096211   2.729054   4.433674   2.101254
    23  H    5.008517   1.088217   3.396056   4.000310   2.088968
    24  H    6.151023   1.095796   2.767888   4.445778   2.107025
    25  H    4.790985   3.411055   1.090242   2.460638   2.123570
    26  H    5.349204   2.835747   1.097165   3.553674   2.121944
    27  H    6.038986   2.668500   1.094603   3.763955   2.097197
    28  H    3.455701   4.239193   3.055373   1.094929   2.875140
    29  H    2.708160   4.178719   2.824704   1.090441   2.783009
    30  H    2.085029   5.690737   4.979464   2.079017   4.465960
    31  H    2.074166   4.649207   4.663313   2.036387   3.714131
                   11         12         13         14         15
    11  N    0.000000
    12  O    2.475050   0.000000
    13  H    4.447428   5.570054   0.000000
    14  H    4.501275   6.263192   1.752342   0.000000
    15  H    4.552543   5.943221   2.908282   2.399502   0.000000
    16  H    4.332651   5.050962   2.330822   2.972831   1.754701
    17  H    3.002218   4.448111   2.383860   2.791276   4.256192
    18  H    2.659941   4.862065   3.023872   2.356299   3.610464
    19  H    2.655946   4.434745   3.940523   3.384719   2.399905
    20  H    2.926196   3.604743   4.035363   4.201820   2.746735
    21  H    2.089887   2.482784   3.094864   3.900785   3.859295
    22  H    5.430257   3.573589   7.164500   8.350177   8.641711
    23  H    4.661652   2.328676   7.002714   8.054067   7.886589
    24  H    5.502746   3.518777   8.228157   9.178709   9.287723
    25  H    3.956244   3.883415   6.701498   7.191290   8.078086
    26  H    4.928766   4.261231   6.718675   7.591866   8.527507
    27  H    5.213834   4.298133   7.984232   8.686977   9.368151
    28  H    2.117585   2.989875   6.076362   6.160556   6.613441
    29  H    2.124091   3.157149   4.678963   5.002422   5.891327
    30  H    1.025894   3.426604   4.768075   4.434890   4.586203
    31  H    1.033207   2.024408   5.097961   5.217836   4.818738
                   16         17         18         19         20
    16  H    0.000000
    17  H    3.880015   0.000000
    18  H    3.958561   1.766695   0.000000
    19  H    3.045676   3.854019   2.758851   0.000000
    20  H    2.406867   4.281298   3.875341   1.771677   0.000000
    21  H    2.899792   2.480920   3.069816   3.063673   2.462641
    22  H    7.360980   5.910959   7.116254   7.635338   6.782317
    23  H    6.667714   5.922154   6.796764   6.686099   5.649824
    24  H    8.190514   6.749762   7.622917   7.872630   7.094464
    25  H    7.466935   4.509120   5.215127   6.554013   6.616385
    26  H    7.598540   4.822495   6.012764   7.387368   7.140254
    27  H    8.543899   5.986695   6.827076   7.846812   7.600697
    28  H    6.353485   4.037843   3.960978   4.659466   4.974702
    29  H    5.448743   2.474206   3.019257   4.477981   4.750575
    30  H    4.748927   3.280821   2.385736   2.485094   3.328369
    31  H    4.527287   3.931693   3.583456   2.785436   2.655372
                   21         22         23         24         25
    21  H    0.000000
    22  H    4.821659   0.000000
    23  H    4.201540   1.783294   0.000000
    24  H    5.490757   1.783626   1.781078   0.000000
    25  H    4.643665   3.760932   4.202924   3.700880   0.000000
    26  H    4.868484   2.645413   3.782316   3.269140   1.778111
    27  H    5.661350   2.970586   3.677177   2.505460   1.763553
    28  H    3.731194   4.969105   4.515480   4.626683   2.383816
    29  H    2.835344   4.557547   4.515981   4.877399   2.241228
    30  H    2.945267   6.349793   5.614926   6.321599   4.381556
    31  H    2.416242   5.415651   4.336145   5.279450   4.401417
                   26         27         28         29         30
    26  H    0.000000
    27  H    1.776640   0.000000
    28  H    3.888249   3.666651   0.000000
    29  H    3.174937   3.807950   1.784407   0.000000
    30  H    5.578166   5.783462   2.287851   2.545249   0.000000
    31  H    5.342315   5.391677   2.463577   2.930379   1.658835
                   31
    31  H    0.000000
 Stoichiometry    C9H19N2O(1+)
 Framework group  C1[X(C9H19N2O)]
 Deg. of freedom    87
 Full point group                 C1      NOp   1
 Largest Abelian subgroup         C1      NOp   1
 Largest concise Abelian subgroup C1      NOp   1
                         Standard orientation:                         
 ---------------------------------------------------------------------
 Center     Atomic      Atomic             Coordinates (Angstroms)
 Number     Number       Type             X           Y           Z
 ---------------------------------------------------------------------
      1          6           0        1.646605   -0.354409    0.269916
      2          6           0       -3.390172    0.864454   -0.988998
      3          6           0       -3.671167   -0.632101   -0.646477
      4          6           0       -2.108105    1.257299   -0.209647
      5          6           0       -2.632232   -1.024467    0.425361
      6          6           0       -1.447666   -0.093883    0.119437
      7          6           0        3.611822   -0.899135   -1.044257
      8          6           0        3.375349    1.404141   -0.162149
      9          6           0        0.817433    0.672831    1.031836
     10          7           0        2.819617    0.054381   -0.272388
     11          7           0       -0.489452   -0.020255    1.279451
     12          8           0        1.189350   -1.496380    0.217119
     13          1           0       -3.240609    0.992100   -2.065080
     14          1           0       -4.222485    1.516418   -0.711673
     15          1           0       -4.690888   -0.799060   -0.291232
     16          1           0       -3.541780   -1.257692   -1.535492
     17          1           0       -1.463138    1.931164   -0.783852
     18          1           0       -2.371568    1.775205    0.723346
     19          1           0       -3.020376   -0.810993    1.431786
     20          1           0       -2.362534   -2.085960    0.392294
     21          1           0       -0.869508   -0.476949   -0.724200
     22          1           0        3.763036   -0.517540   -2.060721
     23          1           0        3.084544   -1.850026   -1.088985
     24          1           0        4.589212   -1.049359   -0.572124
     25          1           0        2.836435    2.002397    0.572896
     26          1           0        3.347021    1.922965   -1.128477
     27          1           0        4.418530    1.339713    0.163086
     28          1           0        1.275210    0.902532    1.999590
     29          1           0        0.633345    1.599632    0.487582
     30          1           0       -0.958546    0.414784    2.081417
     31          1           0       -0.243073   -0.985556    1.553326
 ---------------------------------------------------------------------
 Rotational constants (GHZ):      1.9498565      0.4185861      0.3996445
 Standard basis: 6-31G(d) (6D, 7F)
 There are   218 symmetry adapted basis functions of A   symmetry.
 Integral buffers will be    131072 words long.
 Raffenetti 2 integral format.
 Two-electron integral symmetry is turned on.
   218 basis functions,   412 primitive gaussians,   218 cartesian basis functions
    47 alpha electrons       47 beta electrons
       nuclear repulsion energy       764.4265671884 Hartrees.
 NAtoms=   31 NActive=   31 NUniq=   31 SFac= 1.00D+00 NAtFMM=   60 NAOKFM=F Big=F
 One-electron integrals computed using PRISM.
 NBasis=   218 RedAO= T  NBF=   218
 NBsUse=   218 1.00D-06 NBFU=   218
 Initial guess read from the read-write file.
 B after Tr=     0.000000    0.000000    0.000000
         Rot=    1.000000    0.000000    0.000000    0.000000 Ang=   0.00 deg.
 Initial guess orbital symmetries:
       Occupied  (A) (A) (A) (A) (A) (A) (A) (A) (A) (A) (A) (A)
                 (A) (A) (A) (A) (A) (A) (A) (A) (A) (A) (A) (A)
                 (A) (A) (A) (A) (A) (A) (A) (A) (A) (A) (A) (A)
                 (A) (A) (A) (A) (A) (A) (A) (A) (A) (A) (A)
       Virtual   (A) (A) (A) (A) (A) (A) (A) (A) (A) (A) (A) (A)
                 (A) (A) (A) (A) (A) (A) (A) (A) (A) (A) (A) (A)
                 (A) (A) (A) (A) (A) (A) (A) (A) (A) (A) (A) (A)
                 (A) (A) (A) (A) (A) (A) (A) (A) (A) (A) (A) (A)
                 (A) (A) (A) (A) (A) (A) (A) (A) (A) (A) (A) (A)
                 (A) (A) (A) (A) (A) (A) (A) (A) (A) (A) (A) (A)
                 (A) (A) (A) (A) (A) (A) (A) (A) (A) (A) (A) (A)
                 (A) (A) (A) (A) (A) (A) (A) (A) (A) (A) (A) (A)
                 (A) (A) (A) (A) (A) (A) (A) (A) (A) (A) (A) (A)
                 (A) (A) (A) (A) (A) (A) (A) (A) (A) (A) (A) (A)
                 (A) (A) (A) (A) (A) (A) (A) (A) (A) (A) (A) (A)
                 (A) (A) (A) (A) (A) (A) (A) (A) (A) (A) (A) (A)
                 (A) (A) (A) (A) (A) (A) (A) (A) (A) (A) (A) (A)
                 (A) (A) (A) (A) (A) (A) (A) (A) (A) (A) (A) (A)
                 (A) (A) (A)
 Harris functional with IExCor=  402 diagonalized for initial guess.
 ExpMin= 1.61D-01 ExpMax= 5.48D+03 ExpMxC= 8.25D+02 IAcc=3 IRadAn=         5 AccDes= 0.00D+00
 HarFok:  IExCor=  402 AccDes= 0.00D+00 IRadAn=         5 IDoV= 1
 ScaDFX=  1.000000  1.000000  1.000000  1.000000
 FoFCou: FMM=F IPFlag=           0 FMFlag=      100000 FMFlg1=           0
         NFxFlg=           0 DoJE=T BraDBF=F KetDBF=T FulRan=T
         Omega=  0.000000  0.000000  1.000000  0.000000  0.000000 ICntrl=     500 IOpCl=  0
         NMat0=    1 NMatS0=    1 NMatT0=    0 NMatD0=    1 NMtDS0=    0 NMtDT0=    0
         I1Cent=           4 NGrid=           0.
 Petite list used in FoFCou.
 Requested convergence on RMS density matrix=1.00D-08 within 128 cycles.
 Requested convergence on MAX density matrix=1.00D-06.
 Requested convergence on             energy=1.00D-06.
 No special actions if energy rises.
 Integral accuracy reduced to 1.0D-05 until final iterations.
 Initial convergence to 1.0D-05 achieved.  Increase integral accuracy.
 SCF Done:  E(RB3LYP) =  -538.917503373     A.U. after   12 cycles
             Convg  =    0.9977D-08             -V/T =  2.0097
 Calling FoFJK, ICntrl=      2127 FMM=F ISym2X=0 I1Cent= 0 IOpClX= 0 NMat=1 NMatS=1 NMatT=0.
 ***** Axes restored to original set *****
 -------------------------------------------------------------------
 Center     Atomic                   Forces (Hartrees/Bohr)
 Number     Number              X              Y              Z
 -------------------------------------------------------------------
      1        6           0.001899629    0.019207961   -0.005060522
      2        6           0.000162372   -0.000963073   -0.000734341
      3        6          -0.000640076    0.000678928   -0.000385579
      4        6           0.000395469    0.002084751    0.000175483
      5        6           0.001884939    0.000161475   -0.000161191
      6        6          -0.008499177   -0.006530549   -0.003817779
      7        6           0.002218278    0.001522392   -0.003268834
      8        6          -0.000110654   -0.001335704    0.000010496
      9        6          -0.002406116   -0.003110159    0.002996181
     10        7          -0.000525142   -0.009094927    0.002287436
     11        7           0.001633953   -0.001016723    0.014677580
     12        8           0.006765791    0.000145048   -0.005492763
     13        1           0.000373094    0.000061988    0.000174561
     14        1           0.000409535    0.000008152    0.000230571
     15        1          -0.000045348    0.000245806    0.000327622
     16        1          -0.000093457    0.000255372    0.000267397
     17        1           0.000595102   -0.000284077    0.000264497
     18        1           0.000195474   -0.000453376    0.000137428
     19        1          -0.000409445    0.000215513    0.000290147
     20        1          -0.000425300    0.000870631    0.000532945
     21        1           0.000958185    0.000004454    0.001116060
     22        1           0.000306456    0.000128987    0.000486705
     23        1           0.000081075   -0.000464734    0.000102824
     24        1          -0.000534704   -0.000019826    0.000156105
     25        1          -0.000165117    0.000093276    0.000319680
     26        1           0.000669254   -0.000647933   -0.000352512
     27        1           0.000293073   -0.000243240   -0.000086729
     28        1          -0.001653672   -0.000896546    0.000703543
     29        1          -0.000258342   -0.001176547    0.000311123
     30        1          -0.002382938   -0.001316277   -0.000547486
     31        1          -0.000692189    0.001868957   -0.005660649
 -------------------------------------------------------------------
 Cartesian Forces:  Max     0.019207961 RMS     0.003315659

 GradGradGradGradGradGradGradGradGradGradGradGradGradGradGradGradGradGrad
 Berny optimization.
 Using GEDIIS/GDIIS optimizer.
 Internal  Forces:  Max     0.017127652 RMS     0.002447918
 Search for a local minimum.
 Step number   2 out of a maximum of  186
 All quantities printed in internal units (Hartrees-Bohrs-Radians)
 Mixed Optimization -- RFO/linear search
 Update second derivatives using D2CorX and points    1    2
 DE= -9.31D-03 DEPred=-1.12D-02 R= 8.33D-01
 SS=  1.41D+00  RLast= 3.25D-01 DXNew= 5.0454D-01 9.7477D-01
 Trust test= 8.33D-01 RLast= 3.25D-01 DXMaxT set to 5.05D-01
 ITU=  1  0
 Use linear search instead of GDIIS.
     Eigenvalues ---    0.00272   0.00339   0.00428   0.00650   0.00693
     Eigenvalues ---    0.00906   0.00939   0.00959   0.01164   0.01807
     Eigenvalues ---    0.02161   0.02181   0.03312   0.04198   0.04210
     Eigenvalues ---    0.04367   0.04418   0.04838   0.04957   0.04994
     Eigenvalues ---    0.05061   0.05548   0.05696   0.05776   0.05830
     Eigenvalues ---    0.06178   0.06874   0.06992   0.07226   0.07317
     Eigenvalues ---    0.07360   0.07532   0.07552   0.07623   0.07711
     Eigenvalues ---    0.08813   0.09002   0.09550   0.11342   0.11698
     Eigenvalues ---    0.12634   0.13607   0.15862   0.16000   0.16000
     Eigenvalues ---    0.16000   0.16000   0.16032   0.18862   0.20485
     Eigenvalues ---    0.21883   0.23806   0.24977   0.24999   0.25000
     Eigenvalues ---    0.26130   0.27208   0.27751   0.28547   0.29045
     Eigenvalues ---    0.29707   0.32019   0.33773   0.33985   0.34006
     Eigenvalues ---    0.34085   0.34132   0.34180   0.34254   0.34271
     Eigenvalues ---    0.34308   0.34312   0.34333   0.34334   0.34345
     Eigenvalues ---    0.34357   0.34375   0.34497   0.34537   0.34759
     Eigenvalues ---    0.36673   0.37193   0.39958   0.43256   0.43722
     Eigenvalues ---    0.44646   0.88091
 RFO step:  Lambda=-5.22744480D-03 EMin= 2.71653877D-03
 Quartic linear search produced a step of -0.11623.
 Iteration  1 RMS(Cart)=  0.14774571 RMS(Int)=  0.00614988
 Iteration  2 RMS(Cart)=  0.01049910 RMS(Int)=  0.00011534
 Iteration  3 RMS(Cart)=  0.00005635 RMS(Int)=  0.00011154
 Iteration  4 RMS(Cart)=  0.00000000 RMS(Int)=  0.00011154
 Variable       Old X    -DE/DX   Delta X   Delta X   Delta X     New X
                                 (Linear)    (Quad)   (Total)
    R1        2.88037   0.01713   0.00290   0.04228   0.04518   2.92555
    R2        2.56137  -0.00953   0.00785  -0.04053  -0.03268   2.52869
    R3        2.32672   0.00579   0.00180   0.00054   0.00235   2.32907
    R4        2.94940  -0.00087  -0.00672   0.01900   0.01226   2.96166
    R5        2.93085   0.00013  -0.00507   0.01601   0.01094   2.94179
    R6        2.06717  -0.00029   0.00043  -0.00202  -0.00158   2.06559
    R7        2.06553  -0.00018   0.00043  -0.00172  -0.00129   2.06424
    R8        2.91666  -0.00006  -0.00430   0.01307   0.00877   2.92543
    R9        2.06483  -0.00013   0.00039  -0.00148  -0.00109   2.06374
   R10        2.06876  -0.00029   0.00036  -0.00181  -0.00144   2.06731
   R11        2.90930  -0.00135  -0.00386   0.00668   0.00284   2.91214
   R12        2.06991  -0.00056  -0.00021  -0.00079  -0.00099   2.06891
   R13        2.07708   0.00017  -0.00043   0.00170   0.00127   2.07835
   R14        2.90476  -0.00163  -0.00339   0.00450   0.00113   2.90588
   R15        2.07794   0.00017  -0.00050   0.00192   0.00142   2.07936
   R16        2.07061  -0.00080  -0.00028  -0.00115  -0.00143   2.06918
   R17        2.84668   0.00570  -0.00678   0.03413   0.02735   2.87402
   R18        2.06381  -0.00078   0.00091  -0.00466  -0.00375   2.06006
   R19        2.75962   0.00345  -0.00075   0.01015   0.00941   2.76903
   R20        2.07154  -0.00046  -0.00048   0.00026  -0.00021   2.07133
   R21        2.05643   0.00037   0.00098  -0.00199  -0.00101   2.05542
   R22        2.07075  -0.00035  -0.00040   0.00034  -0.00006   2.07069
   R23        2.76627  -0.00197  -0.00098  -0.00167  -0.00265   2.76362
   R24        2.06026   0.00032   0.00005   0.00064   0.00069   2.06095
   R25        2.07334  -0.00050  -0.00074   0.00097   0.00022   2.07357
   R26        2.06850  -0.00002  -0.00009   0.00022   0.00013   2.06863
   R27        2.83436   0.00400   0.00045   0.00932   0.00976   2.84412
   R28        2.06912  -0.00033  -0.00017  -0.00032  -0.00049   2.06862
   R29        2.06064  -0.00014   0.00043  -0.00165  -0.00122   2.05942
   R30        1.93866   0.00049  -0.00047   0.00235   0.00188   1.94054
   R31        1.95248  -0.00013  -0.00139   0.00386   0.00246   1.95494
    A1        2.05729   0.00042   0.00094  -0.00164  -0.00116   2.05613
    A2        2.03139   0.00711   0.00724   0.00212   0.00888   2.04028
    A3        2.19441  -0.00755  -0.00817  -0.00123  -0.00983   2.18457
    A4        1.85607  -0.00001  -0.00007   0.00090   0.00083   1.85690
    A5        1.93092  -0.00004  -0.00136   0.00505   0.00368   1.93460
    A6        1.95969  -0.00002  -0.00139   0.00339   0.00200   1.96169
    A7        1.93022  -0.00006   0.00024  -0.00128  -0.00104   1.92918
    A8        1.92931  -0.00008   0.00074  -0.00417  -0.00342   1.92589
    A9        1.85886   0.00020   0.00180  -0.00388  -0.00209   1.85677
   A10        1.84936   0.00011  -0.00031   0.00198   0.00166   1.85102
   A11        1.96696  -0.00008  -0.00133   0.00262   0.00130   1.96826
   A12        1.92671  -0.00014  -0.00154   0.00528   0.00373   1.93044
   A13        1.94290  -0.00012   0.00083  -0.00437  -0.00354   1.93936
   A14        1.91678   0.00002   0.00063  -0.00150  -0.00087   1.91591
   A15        1.86190   0.00019   0.00168  -0.00394  -0.00225   1.85964
   A16        1.81288  -0.00067   0.00049  -0.00692  -0.00642   1.80646
   A17        1.95967   0.00046  -0.00144   0.01068   0.00924   1.96891
   A18        1.92597   0.00009  -0.00170   0.00418   0.00242   1.92839
   A19        1.98166   0.00007  -0.00191   0.00682   0.00493   1.98658
   A20        1.91232   0.00003   0.00355  -0.01398  -0.01045   1.90188
   A21        1.87155   0.00001   0.00100  -0.00126  -0.00027   1.87128
   A22        1.79941  -0.00062   0.00017  -0.00621  -0.00602   1.79339
   A23        1.92692   0.00013  -0.00131   0.00413   0.00277   1.92969
   A24        1.97252   0.00059  -0.00202   0.01393   0.01189   1.98441
[...]
 9401,-0.11397338,0.00028813,0.00027212,0.00034131,0.00764614,0.0037585
 7,-0.00760361,-0.00060857,0.00036865,0.00005892,-0.00009438,-0.0006951
 3,-0.00010801,-0.00000470,-0.00000596,-0.00000370,0.00000399,0.0000084
 8,0.00000091,0.00000232,0.00000736,-0.00000092,0.00000131,0.00000209,0
 .00000318,-0.00002517,0.00000683,0.00001715,-0.00001073,0.00001586,-0.
 00001257,-0.00000135,0.00000297,-0.00000088,-0.00000216,0.00000502,0.0
 0000464,0.00002668,-0.00001163,-0.00002248,-0.00025270,-0.00010404,0.0
 0039939,0.00067379,0.00046452,0.00009830,0.00019035,0.00019403,0.00010
 191,-0.11411315,-0.06490694,0.11877156,-0.00324175,-0.00413889,-0.0005
 2080,0.00000912,-0.00000232,-0.00000614,-0.00000200,-0.00000812,-0.000
 00478,-0.00000231,0.00001678,0.00001610,-0.00001514,-0.00000511,0.0000
 0053,0.00001135,-0.00006090,-0.00001331,0.00120930,0.00099487,-0.00220
 362,-0.08425469,0.04383188,-0.07327836,-0.00000698,0.00012372,0.000119
 39,-0.01088195,0.02152940,-0.01147103,0.00042626,-0.00016630,-0.000355
 48,-0.00031823,0.00262765,0.00101685,-0.00000173,-0.00000259,-0.000001
 18,0.00000308,0.00000383,0.00000056,0.00000135,0.00000289,-0.00000142,
 0.00000043,-0.00000075,0.00000165,0.00000371,-0.00000207,0.00001044,-0
 .00000161,0.00000607,-0.00000455,-0.00000197,0.00000257,-0.00000108,0.
 00000177,-0.00000675,-0.00000589,-0.00001211,-0.00000104,-0.00000841,-
 0.00002366,-0.00032569,0.00080950,0.00023529,-0.00007079,0.00018719,-0
 .00023885,-0.00009956,-0.00000703,0.01152181,-0.01307186,0.02015483,0.
 09072944,0.00461991,0.00310835,0.00142570,-0.00000617,-0.00000364,0.00
 002606,0.00001607,-0.00000082,0.00000426,-0.00000048,-0.00005957,-0.00
 004281,-0.00005257,-0.00000504,-0.00002335,0.00018076,0.00010540,0.000
 16468,-0.00172685,0.00021269,0.00062353,0.04498432,-0.11495415,0.10322
 590,0.00001263,0.00008683,0.00003487,0.01340186,-0.02326644,0.01423481
 ,-0.00036572,-0.00011954,0.00013138,-0.00029514,-0.00243115,-0.0013144
 0,-0.00000634,-0.00000377,-0.00000939,-0.00000895,-0.00000882,-0.00000
 463,-0.00001049,-0.00000526,-0.00000134,-0.00000610,-0.00000598,-0.000
 00338,0.00000194,0.00000230,0.00001346,-0.00000205,0.00001058,-0.00001
 002,-0.00000076,0.00001115,-0.00000929,0.00000062,0.00000603,0.0000097
 8,0.00001069,-0.00001299,-0.00000582,0.00052629,0.00050397,-0.00052666
 ,-0.00020877,-0.00009900,-0.00013708,0.00015887,0.00012732,-0.00023892
 ,0.00484498,-0.00668615,0.01113196,-0.05875888,0.13088258,0.00212537,-
 0.00026499,0.00028989,-0.00000406,-0.00000138,-0.00000440,-0.00000567,
 0.00000445,0.00000134,-0.00000186,0.00000806,-0.00000062,0.00002550,0.
 00000246,0.00000062,-0.00006419,-0.00001094,-0.00001997,-0.00008125,-0
 .00094476,0.00151524,-0.07602041,0.10807712,-0.21849162,0.00013521,0.0
 0006977,-0.00008289,0.00760714,-0.00996391,0.01542888,-0.00016183,0.00
 008812,0.00015338,-0.00030894,-0.00130012,-0.00088432,0.00000102,0.000
 00182,0.00000428,0.00000138,0.00000236,-0.00000039,0.00000286,0.000001
 31,-0.00000003,0.00000183,0.00000169,0.00000140,-0.00000588,0.00000112
 ,-0.00000621,0.00000180,-0.00000639,0.00000504,0.00000126,-0.00000320,
 0.00000283,-0.00000016,0.00000160,0.00000169,0.00000616,0.00000213,0.0
 0000186,-0.00071790,0.00031375,-0.00003042,-0.00010986,-0.00010122,0.0
 0019557,-0.00002461,0.00008868,-0.00046643,-0.00565842,0.00574174,-0.0
 1062697,0.07930552,-0.11232812,0.22848269,-0.00095378,-0.00161715,0.00
 379087,0.00001252,0.00000248,-0.00000293,-0.00000188,-0.00000566,-0.00
 000363,-0.00001230,0.00003454,0.00000146,-0.00000808,0.00000135,0.0000
 0392,-0.00000272,-0.00002725,-0.00003917,0.00238221,0.00152352,0.00023
 286,-0.11515117,-0.08439074,-0.08222715,-0.00015510,-0.00002318,0.0000
 7017,0.00997047,0.02371262,0.01809043,0.00047461,-0.00012557,-0.000161
 54,-0.00136205,0.00234885,-0.00106577,0.00000321,0.00000285,0.00000328
 ,0.00000097,-0.00000088,0.00000118,0.00000186,-0.00000172,0.00000027,0
 .00000115,0.00000018,-0.00000014,0.00001462,-0.00000330,-0.00000611,0.
 00000511,-0.00000670,0.00000665,0.00000028,-0.00000281,0.00000299,0.00
 000112,-0.00000592,-0.00000617,-0.00001594,0.00000686,0.00000814,-0.00
 040998,-0.00018044,-0.00008492,0.00016040,0.00005432,-0.00017092,-0.00
 008713,-0.00057560,-0.00065017,-0.01032655,-0.01353572,-0.01603147,-0.
 00491144,-0.00753151,-0.00598466,0.12058489,0.00054524,0.00291532,-0.0
 0510232,-0.00000529,-0.00000027,0.00002217,0.00001458,0.00000010,0.000
 00345,-0.00000436,-0.00003876,-0.00004273,-0.00004120,-0.00000004,-0.0
 0001739,0.00013070,0.00009827,0.00011124,-0.00135986,0.00028532,0.0012
 6310,-0.07943229,-0.14849223,-0.09890341,-0.00004556,0.00005233,-0.000
 05016,-0.00334933,-0.02569887,-0.01481087,-0.00035762,-0.00011006,0.00
 017413,0.00122781,-0.00225324,0.00110916,-0.00000098,0.00000014,-0.000
 00487,-0.00000906,-0.00001057,-0.00000302,-0.00000915,-0.00000752,0.00
 000010,-0.00000444,-0.00000329,-0.00000329,0.00000593,0.00000074,0.000
 00092,0.00000143,-0.00000026,0.00000050,0.00000138,0.00000435,-0.00000
 303,-0.00000130,0.00000570,0.00000715,0.00000748,-0.00000380,0.0000067
 4,0.00023308,0.00012798,-0.00009751,0.00005907,-0.00003586,0.00026573,
 0.00073625,0.00051156,-0.00033999,-0.00686988,-0.00792024,-0.00839077,
 0.00774112,0.01260383,0.01049030,0.08050798,0.16796261,0.00020104,0.00
 321491,-0.00161409,-0.00000647,0.00000203,0.00000487,0.00000422,0.0000
 0399,0.00000326,0.00000570,-0.00002080,-0.00000677,-0.00000140,0.00000
 234,0.00000012,0.00001875,0.00003882,0.00001840,-0.00138715,-0.0005741
 3,0.00022308,-0.08006074,-0.10002469,-0.15395997,0.00002671,-0.0001433
 2,0.00009753,0.00197056,-0.01176621,-0.00302091,-0.00033659,0.00009957
 ,0.00008816,0.00059493,-0.00137841,-0.00008261,0.00000069,0.00000029,-
 0.00000183,-0.00000241,-0.00000319,0.00000020,-0.00000251,-0.00000198,
 0.00000117,-0.00000113,0.00000035,-0.00000161,-0.00000311,0.00000014,-
 0.00000275,-0.00000135,0.00000088,-0.00000032,0.00000078,-0.00000024,-
 0.00000040,-0.00000154,0.00000503,0.00000331,0.00000823,-0.00000096,0.
 00000315,-0.00012928,-0.00000525,-0.00027334,0.00014401,0.00015904,0.0
 0021391,0.00069278,0.00015366,0.00002219,0.00780504,0.01170154,0.01243
 973,-0.01391746,-0.01612069,-0.01535344,0.08422664,0.11453153,0.161388
 26,0.00235547,0.01011920,0.02429306,-0.00009084,-0.00001546,0.00000459
 ,0.00004568,-0.00000464,0.00000099,0.00031649,0.00009720,0.00001638,0.
 00000399,-0.00002874,0.00031348,-0.00003685,-0.00071263,-0.00054722,-0
 .00063362,-0.00016986,-0.00080933,0.00053741,-0.00017527,-0.00016681,-
 0.04743135,0.00361195,0.00906472,-0.00051082,0.00002439,-0.00054121,-0
 .00078876,0.00245802,0.00360930,-0.00497516,-0.00068715,-0.00076108,0.
 00001849,0.00003209,0.00002074,-0.00000175,-0.00000629,0.00000375,-0.0
 0001404,-0.00000092,0.00000375,-0.00002001,0.00001255,0.00000168,-0.00
 004759,0.00010579,-0.00018739,-0.00000023,-0.00016578,0.00011479,0.000
 00491,-0.00010808,-0.00002253,-0.00001278,0.00001176,-0.00002307,0.000
 01539,0.00009774,0.00037268,0.00021359,0.00003701,-0.00009260,0.000036
 39,0.00006479,-0.00002969,-0.00019540,-0.00006756,0.00016937,0.0002198
 8,-0.00006383,-0.00006554,0.00001278,-0.00007570,-0.00003569,-0.000021
 51,-0.00019582,0.00004589,0.04778558,0.00528406,0.00751748,0.01060477,
 -0.00001236,-0.00010887,0.00008273,0.00028146,-0.00030130,0.00013128,0
 .00006448,0.00013347,-0.00026531,-0.00158419,-0.00022136,-0.00047728,0
 .00401668,-0.00247035,0.00063270,-0.00013771,-0.00026032,-0.00050656,-
 0.00026480,0.00001502,0.00037450,0.00251544,-0.07631008,-0.07698629,-0
 .00101662,-0.00095439,-0.00023244,0.00192060,-0.02016986,-0.03193250,-
 0.00292624,0.00046183,-0.00019163,-0.00001028,0.00003684,0.00000787,-0
 .00003698,-0.00001151,-0.00001070,-0.00016148,-0.00006594,-0.00002959,
 -0.00005943,-0.00002029,-0.00001467,-0.00019962,0.00001240,0.00003265,
 -0.00002878,-0.00008784,0.00012476,0.00004815,0.00007471,0.00006894,0.
 00003873,0.00007878,0.00001826,0.00000222,0.00006164,-0.00010785,0.000
 01121,0.00002877,-0.00000928,0.00004788,0.00002917,-0.00005626,-0.0002
 2195,-0.00006675,0.00008625,0.00028884,-0.00165936,0.00137548,0.000302
 80,0.00005285,-0.00017971,-0.00014715,-0.00037065,0.00007625,-0.005135
 84,0.09401344,-0.00023395,-0.00504463,-0.01087988,-0.00005097,-0.00000
 494,-0.00001120,0.00001887,0.00000647,-0.00000359,0.00022870,0.0000037
 7,0.00000696,0.00012317,0.00018806,0.00020375,-0.00053718,-0.00001988,
 -0.00001067,0.00024798,0.00037862,0.00023217,0.00089850,0.00009235,-0.
 00014491,0.00605026,-0.09125439,-0.30186304,0.00088003,0.00006081,0.00
 055414,-0.00117540,0.00570108,0.00599964,0.00143081,0.00102513,0.00038
 885,0.00001047,0.00001140,0.00001017,0.00000528,0.00000436,0.00000264,
 0.00000629,0.00000388,-0.00000930,-0.00001027,-0.00000072,0.00000368,-
 0.00001198,0.00006461,-0.00008469,-0.00000447,-0.00004066,0.00003974,-
 0.00000608,-0.00007855,-0.00002259,-0.00000383,0.00000515,-0.00000950,
 0.00007887,0.00006718,0.00024531,-0.00009152,-0.00001281,0.00001133,-0
 .00007003,-0.00006189,0.00005697,0.00010818,0.00000052,-0.00009555,-0.
 00075100,0.00038967,0.00006254,-0.00031206,-0.00007477,0.00014554,-0.0
 0021884,0.00000002,0.00004848,-0.00856443,0.09215211,0.31559589,-0.018
 45007,0.00513465,-0.01088843,0.00006530,-0.00003144,-0.00025871,-0.000
 00043,-0.00007327,0.00000367,0.00033988,-0.00034917,0.00023343,-0.0000
 2936,0.00000300,0.00035449,0.00020027,-0.00163579,-0.00056368,0.000262
 41,-0.00027106,0.00077170,-0.00023206,-0.00016050,0.00039362,-0.260491
 33,0.05034526,-0.11537632,0.00025059,0.00029320,0.00113305,0.00007794,
 0.00062838,-0.00035834,-0.00064467,-0.00093344,0.00320385,-0.00001429,
 -0.00001152,-0.00000540,0.00000984,0.00006058,0.00004176,-0.00001758,-
 0.00001815,-0.00001648,-0.00002202,-0.00000100,0.00000580,-0.00045608,
 -0.00049546,0.00017271,-0.00007231,0.00010799,0.00004376,-0.00001954,-
 0.00015320,-0.00004738,-0.00001665,0.00003302,-0.00001460,0.00036110,0
 .00027121,0.00048218,-0.00021179,-0.00003423,0.00007483,0.00007251,0.0
 0007638,-0.00004668,0.00012960,0.00002606,-0.00013901,0.00053461,-0.00
 025694,-0.00049825,0.00012140,-0.00005497,-0.00014343,0.00022079,0.000
 02248,-0.00015815,0.00328409,-0.00091357,0.00130238,0.27579432,-0.0073
 6194,0.00507553,-0.00963736,-0.00020309,-0.00005672,-0.00025374,-0.000
 00065,0.00010231,0.00000892,-0.00004988,-0.00037096,0.00027842,-0.0000
 2444,-0.00010186,-0.00007371,0.00212347,0.00165745,0.00216413,0.000327
 54,-0.00022772,0.00038233,-0.00055301,-0.00000484,0.00019499,0.0370444
 7,-0.05615894,0.01895814,-0.00012213,-0.00072906,0.00115028,0.03100927
 ,-0.01714279,0.01596506,-0.00091210,0.00057714,0.00214913,-0.00003196,
 -0.00002708,-0.00000613,0.00000303,0.00008991,0.00002726,-0.00000678,0
 .00002787,0.00001220,-0.00004776,0.00002699,0.00000369,-0.00081421,-0.
 00009005,0.00020289,0.00003876,0.00016828,-0.00011610,-0.00009817,0.00
 018965,-0.00020690,-0.00002276,0.00008725,0.00003675,0.00005043,-0.000
 15332,-0.00078008,-0.00016229,-0.00004823,0.00015233,0.00006542,0.0000
 2785,-0.00001937,0.00000878,0.00003993,-0.00000955,-0.00079646,-0.0017
 7934,-0.00072772,-0.00009140,-0.00032959,0.00010625,0.00033603,0.00008
 938,-0.00022304,-0.00988041,0.00351533,-0.00420337,-0.05111253,0.07302
 457,0.01518239,-0.00470910,0.01167951,0.00030253,-0.00003677,0.0000826
 3,-0.00013841,-0.00006186,-0.00002570,-0.00063991,0.00008458,-0.000207
 60,0.00002519,-0.00005395,-0.00007824,-0.00046956,-0.00154820,0.001514
 30,-0.00037847,-0.00010884,-0.00073076,-0.00053982,0.00016719,0.000623
 08,-0.11059855,0.02496673,-0.10645712,-0.00014200,0.00005185,-0.000313
 70,0.00177649,0.00124326,-0.00037881,0.00129582,-0.00036325,-0.0038350
 5,-0.00004139,-0.00002488,-0.00002954,-0.00001174,-0.00000808,-0.00001
 638,0.00002697,-0.00000978,-0.00001440,0.00003777,-0.00003586,-0.00000
 934,0.00052327,-0.00015840,0.00025852,0.00005508,0.00008462,-0.0000872
 6,-0.00004181,-0.00002676,-0.00006691,0.00004410,-0.00002022,0.0000124
 9,0.00044988,0.00000455,-0.00004456,0.00017191,0.00007191,-0.00009206,
 -0.00000815,-0.00003157,0.00000329,-0.00013481,-0.00002975,0.00009887,
 0.00016410,0.00011273,-0.00003188,0.00011877,0.00021911,-0.00010936,0.
 00003567,0.00008471,-0.00007702,-0.02761022,0.00622939,-0.01191462,0.1
 1988666,-0.02601515,0.11054263,-0.00142708,0.00027326,0.00116146,0.000
 16764,-0.00045518,0.00030538,0.00027612,0.00024274,0.00007044,0.000949
 39,0.00188562,-0.00197197,0.00045381,0.00038414,0.00101079,-0.00368241
 ,0.00794530,-0.02792382,0.00007252,-0.00003537,-0.00000536,0.00004152,
 0.00002224,0.00006781,-0.00249226,0.00322878,-0.00613141,-0.00009029,-
 0.00020024,0.00007331,-0.06240776,0.01485249,-0.04236850,-0.00242566,-
 0.00294984,-0.00054230,0.00013945,0.00032866,0.00028092,0.00001030,0.0
 0006299,0.00007835,-0.00002507,0.00001983,0.00001597,-0.00003573,0.000
 12578,0.00003684,-0.00005411,-0.00007350,0.00032418,-0.00043558,-0.000
 57007,0.00180868,0.00048471,-0.00036646,0.00000730,0.00005110,0.000169
 88,0.00025095,-0.00360872,-0.00330754,-0.00181161,-0.00002722,-0.00001
 798,0.00000597,0.00004878,0.00001309,-0.00001056,-0.00000364,-0.000059
 36,0.00000097,-0.00000110,-0.00001934,-0.00002395,0.00001500,-0.000023
 05,-0.00000902,0.00001324,-0.00002981,-0.00000310,0.00113131,-0.000599
 38,0.00040827,-0.00007483,0.00194157,-0.00048695,0.06055969,0.00195820
 ,-0.00427617,0.00019097,0.00007295,0.00021329,0.00005797,-0.00005894,-
 0.00022424,0.00050437,0.00071609,0.00010082,-0.00078330,-0.00118507,0.
 00226404,-0.00239203,-0.00174162,0.00810645,-0.01950059,-0.00002642,-0
 .00017753,-0.00017231,-0.00010152,0.00011564,0.00004111,0.00412458,-0.
 01169908,0.03020583,-0.00097182,0.00007363,0.00031733,0.01377850,-0.09
 372194,0.10555834,0.00047558,0.00116602,-0.00014689,0.00010047,-0.0000
 3251,0.00004978,0.00002539,-0.00008178,0.00001113,-0.00004325,-0.00008
 205,-0.00001568,0.00028814,0.00005768,0.00006858,0.00014223,-0.0000611
 4,0.00028815,-0.00005153,0.00018874,0.00068404,0.00069856,-0.00114810,
 0.00135237,0.00019674,-0.00014999,0.00039815,-0.00308158,-0.00248238,-
 0.00172678,-0.00001359,-0.00000394,-0.00000216,-0.00000160,-0.00001636
 ,0.00002361,-0.00005655,-0.00004856,0.00006695,0.00004290,0.00006207,0
 .00007640,0.00000403,-0.00000471,-0.00001150,-0.00002692,-0.00002465,0
 .00002254,0.00022161,0.00086545,-0.00020598,-0.00043343,-0.00369732,0.
 00035564,-0.01216929,0.10352260,0.00168933,-0.00060382,-0.00076519,0.0
 0035624,0.00015553,-0.00016468,-0.00003717,0.00005068,0.00032458,0.000
 85015,0.00054887,0.00310762,0.00108477,0.00020293,0.00062688,-0.004912
 40,0.00221897,-0.01649026,0.00016457,-0.00003941,-0.00011000,-0.000102
 07,0.00014182,0.00001904,0.00109055,-0.00319609,0.00589344,-0.00062317
 ,-0.00062631,0.00017929,-0.04033017,0.11102422,-0.36485881,0.00047470,
 0.00082146,0.00055585,0.00010150,0.00004276,-0.00001589,0.00010434,0.0
 0007044,0.00005467,0.00005638,0.00004651,0.00001219,0.00021685,0.00009
 880,0.00000998,0.00012791,-0.00004514,-0.00018005,-0.00092291,-0.00004
 420,-0.00008367,0.00011015,-0.00101481,0.00031202,-0.00002228,0.000084
 78,-0.00003827,-0.00172846,-0.00229906,0.00048805,-0.00003280,-0.00002
 289,0.00002737,-0.00000205,0.00003335,0.00000739,-0.00005726,-0.000029
 54,0.00002807,-0.00003551,0.00005061,0.00006404,0.00000570,-0.00002351
 ,0.00000285,-0.00001701,-0.00005547,0.00000297,0.00044910,-0.00139616,
 0.00178567,0.00036470,-0.00122559,0.00050299,0.04586956,-0.11049322,0.
 38328754,0.01519701,-0.01607682,-0.00650712,-0.00008957,0.00001848,0.0
 0021336,-0.00086896,0.00049914,-0.00017827,-0.00008910,-0.00019957,-0.
 00135915,0.00275139,-0.00004299,0.00042548,-0.02036926,-0.00386614,0.0
 0391686,-0.00075466,-0.00067752,0.00065467,0.00196675,-0.00010437,-0.0
 0076388,-0.00765492,0.02096931,0.00308188,-0.00369442,0.00900841,0.002
 00061,-0.23109422,0.02753023,0.09643242,-0.01259466,0.01381643,-0.0001
 3295,0.00003846,0.00005127,0.00008414,0.00011053,0.00002392,-0.0000496
 8,0.00034911,0.00017653,0.00002240,0.00017594,0.00009025,0.00008495,0.
 00006127,-0.00010537,0.00001628,0.00006987,-0.00012208,0.00022022,0.00
 010554,-0.00038995,-0.00006091,0.00006553,-0.00035554,0.00014288,0.000
 87656,0.00113600,0.00046875,-0.00004895,0.00017374,-0.00011219,-0.0003
 9213,-0.00034170,0.00027071,0.00014122,0.00012955,0.00001776,-0.000321
 51,-0.00003093,0.00019071,-0.00038767,0.00037555,0.00012280,-0.0004278
 0,0.00048144,0.00026641,-0.00120073,-0.00136619,0.00024394,-0.00097165
 ,-0.00065680,0.00114519,0.01237688,-0.00288284,-0.00429323,0.24667414,
 0.01182940,-0.02610382,-0.00447414,-0.00065244,0.00035480,0.00040793,-
 0.00028122,-0.00019176,-0.00011479,-0.00121620,-0.00145821,-0.00195663
 ,0.00007311,0.00102986,0.00102437,-0.01726310,0.00073345,0.00825180,-0
 .00071359,-0.00014843,0.00048463,0.00170429,-0.00051498,-0.00090053,0.
 02921255,-0.01133426,-0.01599593,-0.00132247,0.00677483,0.00031916,0.0
 3584300,-0.05600422,-0.01891165,-0.00006250,0.01121223,-0.00234906,0.0
 0001643,-0.00012001,-0.00001886,-0.00002370,-0.00022221,-0.00016497,0.
 00020339,0.00008619,-0.00001526,0.00018978,0.00003187,0.00004918,-0.00
 007103,-0.00010813,-0.00005655,0.00026362,0.00003617,-0.00014004,-0.00
 010277,-0.00046661,0.00047622,0.00021800,-0.00037338,-0.00087157,0.000
 84173,0.00064308,0.00032116,0.00004865,0.00020930,-0.00013042,-0.00044
 681,-0.00032728,0.00029527,0.00013641,0.00020891,-0.00002407,-0.000382
 56,-0.00015287,0.00024361,-0.00037458,0.00028275,0.00011351,-0.0003233
 6,0.00031269,0.00025001,0.00059988,-0.00381829,0.00084741,-0.00006255,
 -0.00378164,-0.00043383,-0.01061994,0.00119603,0.00552350,-0.04726142,
 0.08201394,-0.00927033,0.01272490,0.00647544,-0.00126920,0.00008296,0.
 00139343,0.00005479,0.00018669,-0.00022527,-0.00163029,-0.00356822,-0.
 00393660,-0.00054036,0.00082591,0.00098205,-0.01516763,0.00617495,0.01
 505239,0.00070396,0.00042915,-0.00028457,-0.00106274,0.00019258,0.0011
 6238,0.00095694,-0.01158014,0.00104634,0.00286893,-0.00629145,-0.00030
 049,0.08841846,-0.01234603,-0.11944455,0.00141698,-0.01102840,-0.00950
 268,-0.00005483,-0.00001723,-0.00010207,-0.00025803,-0.00051823,-0.000
 33211,0.00003314,-0.00005185,0.00000223,-0.00009038,-0.00011807,-0.000
 07275,0.00000762,0.00019994,0.00004639,0.00034906,0.00003764,0.0001016
 8,0.00012133,0.00029287,-0.00038594,0.00036016,-0.00046631,-0.00036635
 ,-0.00091411,0.00017388,-0.00041694,-0.00007190,-0.00008476,0.00012563
 ,0.00030889,0.00026527,-0.00020184,-0.00002706,-0.00017593,-0.00005518
 ,0.00022984,0.00004632,-0.00015104,0.00036555,-0.00037135,-0.00015605,
 0.00019606,-0.00024614,-0.00016374,0.00097250,0.00039831,-0.00034392,0
 .00004627,0.00170504,-0.00079801,0.02951143,-0.00482283,-0.01458568,-0
 .09656505,0.02795052,0.12543783\\-0.00000002,-0.00000025,-0.00000017,-
 0.00000023,0.00000060,0.00000066,-0.00000071,-0.00000010,0.00000018,-0
 .00000010,0.00000029,0.00000070,-0.00000005,0.00000054,-0.00000021,-0.
 00000115,-0.00000121,-0.00000055,-0.00000021,-0.00000051,-0.00000034,0
 .00000038,-0.00000014,0.00000015,0.00000070,-0.00000075,0.00000007,0.0
 0000047,-0.00000010,-0.00000050,0.00000056,0.00000130,0.00000040,-0.00
 000021,-0.00000004,-0.00000076,-0.00000055,0.00000068,0.00000090,-0.00
 000027,0.00000053,0.00000076,-0.00000023,0.00000013,0.,-0.00000086,0.0
 0000031,0.00000027,-0.00000002,0.00000029,0.00000081,0.00000033,0.0000
 0007,0.00000032,-0.00000028,-0.00000015,-0.00000035,-0.00000061,-0.000
 00020,-0.00000039,-0.00000034,0.00000031,0.00000025,-0.00000015,-0.000
 00015,-0.00000040,0.00000009,-0.00000032,-0.00000096,0.00000043,-0.000
 00039,-0.00000072,0.00000054,0.00000001,0.00000041,0.00000040,-0.00000
 003,0.00000028,0.00000090,-0.00000027,0.,0.00000053,-0.00000014,0.,0.0
 0000014,0.00000038,0.00000023,0.00000035,-0.00000039,-0.00000041,0.000
 00015,-0.00000030,-0.00000062\\\@


 SIGN SEEN IN A RESTAURANT-
 WE RESERVE THE RIGHT TO SERVE REFUSE TO ANYONE.
 Job cpu time:  0 days  1 hours 33 minutes 30.1 seconds.
 File lengths (MBytes):  RWF=    190 Int=      0 D2E=      0 Chk=      5 Scr=      1
 Normal termination of Gaussian 09 at Fri Feb 16 19:20:41 2018.
