 Entering Gaussian System, Link 0=g09
 Initial command:
 /home/fb_chem/chemsoft/lx24-amd64/Gaussian_09_C.01_NBO_3.1_64_istanbul-64/g09/l1.exe /local/2397429.1.parallel/Gau-28492.inp -scrdir=/local/2397429.1.parallel/
 Entering Link 1 = /home/fb_chem/chemsoft/lx24-amd64/Gaussian_09_C.01_NBO_3.1_64_istanbul-64/g09/l1.exe PID=     28493.
  
 Copyright (c) 1988,1990,1992,1993,1995,1998,2003,2009,2011,
            Gaussian, Inc.  All Rights Reserved.
  
 This is part of the Gaussian(R) 09 program.  It is based on
 the Gaussian(R) 03 system (copyright 2003, Gaussian, Inc.),
 the Gaussian(R) 98 system (copyright 1998, Gaussian, Inc.),
 the Gaussian(R) 94 system (copyright 1995, Gaussian, Inc.),
 the Gaussian 92(TM) system (copyright 1992, Gaussian, Inc.),
 the Gaussian 90(TM) system (copyright 1990, Gaussian, Inc.),
 the Gaussian 88(TM) system (copyright 1988, Gaussian, Inc.),
 the Gaussian 86(TM) system (copyright 1986, Carnegie Mellon
 University), and the Gaussian 82(TM) system (copyright 1983,
 Carnegie Mellon University). Gaussian is a federally registered
 trademark of Gaussian, Inc.
  
 This software contains proprietary and confidential information,
 including trade secrets, belonging to Gaussian, Inc.
  
 This software is provided under written license and may be
 used, copied, transmitted, or stored only in accord with that
 written license.
  
 The following legend is applicable only to US Government
 contracts under FAR:
  
                    RESTRICTED RIGHTS LEGEND
  
 Use, reproduction and disclosure by the US Government is
 subject to restrictions as set forth in subparagraphs (a)
 and (c) of the Commercial Computer Software - Restricted
 Rights clause in FAR 52.227-19.
  
 Gaussian, Inc.
 340 Quinnipiac St., Bldg. 40, Wallingford CT 06492
  
  
 ---------------------------------------------------------------
 Warning -- This program may not be used in any manner that
 competes with the business of Gaussian, Inc. or will provide
 assistance to any competitor of Gaussian, Inc.  The licensee
 of this program is prohibited from giving any competitor of
 Gaussian, Inc. access to this program.  By using this program,
 the user acknowledges that Gaussian, Inc. is engaged in the
 business of creating and licensing software in the field of
 computational chemistry and represents and warrants to the
 licensee that it is not a competitor of Gaussian, Inc. and that
 it will not use this program in any manner prohibited above.
 ---------------------------------------------------------------
  

 Cite this work as:
 Gaussian 09, Revision C.01,
 M. J. Frisch, G. W. Trucks, H. B. Schlegel, G. E. Scuseria, 
 M. A. Robb, J. R. Cheeseman, G. Scalmani, V. Barone, B. Mennucci, 
 G. A. Petersson, H. Nakatsuji, M. Caricato, X. Li, H. P. Hratchian, 
 A. F. Izmaylov, J. Bloino, G. Zheng, J. L. Sonnenberg, M. Hada, 
 M. Ehara, K. Toyota, R. Fukuda, J. Hasegawa, M. Ishida, T. Nakajima, 
 Y. Honda, O. Kitao, H. Nakai, T. Vreven, J. A. Montgomery, Jr., 
 J. E. Peralta, F. Ogliaro, M. Bearpark, J. J. Heyd, E. Brothers, 
 K. N. Kudin, V. N. Staroverov, T. Keith, R. Kobayashi, J. Normand, 
 K. Raghavachari, A. Rendell, J. C. Burant, S. S. Iyengar, J. Tomasi, 
 M. Cossi, N. Rega, J. M. Millam, M. Klene, J. E. Knox, J. B. Cross, 
 V. Bakken, C. Adamo, J. Jaramillo, R. Gomperts, R. E. Stratmann, 
 O. Yazyev, A. J. Austin, R. Cammi, C. Pomelli, J. W. Ochterski, 
 R. L. Martin, K. Morokuma, V. G. Zakrzewski, G. A. Voth, 
 P. Salvador, J. J. Dannenberg, S. Dapprich, A. D. Daniels, 
 O. Farkas, J. B. Foresman, J. V. Ortiz, J. Cioslowski, 
 and D. J. Fox, Gaussian, Inc., Wallingford CT, 2010.
 
 ******************************************
 Gaussian 09:  AM64L-G09RevC.01 23-Sep-2011
                16-Feb-2018 
 ******************************************
 %nprocs=4
 Will use up to    4 processors via shared memory.
 %chk=frag50-conf2.chk
 ---------------------------------------------------------
 #B3LYP/6-31G* Integral=(Grid=UltraFine) freq Opt pop=none
 ---------------------------------------------------------
 1/14=-1,18=20,19=15,26=3,38=1/1,3;
 2/9=110,12=2,17=6,18=5,40=1/2;
 3/5=1,6=6,7=1,11=2,16=1,25=1,30=1,71=1,74=-5,75=-5/1,2,3;
 4//1;
 5/5=2,38=5/2;
 7//1,2,3,16;
 1/14=-1,18=20,19=15/3(2);
 2/9=110/2;
 99//99;
 2/9=110/2;
 3/5=1,6=6,7=1,11=2,16=1,25=1,30=1,71=1,74=-5,75=-5/1,2,3;
 4/5=5,16=3/1;
 5/5=2,38=5/2;
 7//1,2,3,16;
 1/14=-1,18=20,19=15/3(-5);
 2/9=110/2;
 99/9=1/99;
 -----------------------------
 Optimization for frag50-conf2
 -----------------------------
 Charge =  1 Multiplicity = 1
 Symbolic Z-Matrix:
 C                    -0.72654   2.63873  -2.09683 
 C                     1.35089   6.35695   1.85732 
 C                    -0.73491   0.7496   -0.52407 
 C                    -2.28875   2.61348  -0.10542 
 C                    -2.79653   1.55235  -4.29336 
 C                    -0.27753   5.49027  -0.79195 
 C                    -0.32639   5.12881  -2.27645 
 C                     0.68174   6.64715  -0.53441 
 C                    -1.29993   3.98242  -2.59651 
 N                     1.2968    6.81947   3.10674 
 N                     0.71313   7.02395   0.88142 
 N                    -1.3874    3.90008  -4.09666 
 N                    -1.22258   2.06111  -0.93546 
 N                     2.04186   5.24232   1.62116 
 O                     0.15223   2.07594  -2.76868 
 O                    -2.59393   3.34262  -6.21396 
 O                    -3.91607   3.94706  -4.16356 
 S                    -2.78858   3.26798  -4.7763 
 H                    -0.34434   0.82284   0.49527 
 H                     0.05736   0.37542  -1.1768 
 H                    -1.57105   0.04421  -0.54521 
 H                    -3.21518   2.0811   -0.33937 
 H                    -2.44031   3.67906  -0.26415 
 H                    -2.03757   2.4608    0.94865 
 H                    -3.61482   1.06393  -4.82785 
 H                    -1.84862   1.0963   -4.58287 
 H                    -2.9725    1.47751  -3.2206 
 H                    -1.27818   5.77335  -0.44446 
 H                     0.02801   4.62103  -0.20106 
 H                    -0.62217   6.01949  -2.84673 
 H                     0.68444   4.86714  -2.61689 
 H                     1.70147   6.42119  -0.86489 
 H                     0.36046   7.53373  -1.09278 
 H                    -2.29071   4.20505  -2.20088 
 H                     0.77776   7.65607   3.33281 
 H                     1.7694    6.33492   3.85673 
 H                     0.29173   7.90231   1.1629 
 H                    -0.55289   3.43355  -4.48086 
 H                     2.51182   4.76016   2.37418 
 H                     2.12992   4.86563   0.68953 
 

 GradGradGradGradGradGradGradGradGradGradGradGradGradGradGradGradGradGrad
 Berny optimization.
 Initialization pass.
                           ----------------------------
                           !    Initial Parameters    !
                           ! (Angstroms and Degrees)  !
 --------------------------                            --------------------------
 ! Name  Definition              Value          Derivative Info.                !
 --------------------------------------------------------------------------------
 ! R1    R(1,9)                  1.544          estimate D2E/DX2                !
 ! R2    R(1,13)                 1.3887         estimate D2E/DX2                !
 ! R3    R(1,15)                 1.2411         estimate D2E/DX2                !
 ! R4    R(2,10)                 1.3334         estimate D2E/DX2                !
 ! R5    R(2,11)                 1.3431         estimate D2E/DX2                !
 ! R6    R(2,14)                 1.3325         estimate D2E/DX2                !
 ! R7    R(3,13)                 1.4585         estimate D2E/DX2                !
 ! R8    R(3,19)                 1.0941         estimate D2E/DX2                !
 ! R9    R(3,20)                 1.0926         estimate D2E/DX2                !
 ! R10   R(3,21)                 1.0941         estimate D2E/DX2                !
 ! R11   R(4,13)                 1.4597         estimate D2E/DX2                !
 ! R12   R(4,22)                 1.0938         estimate D2E/DX2                !
 ! R13   R(4,23)                 1.0879         estimate D2E/DX2                !
 ! R14   R(4,24)                 1.0943         estimate D2E/DX2                !
 ! R15   R(5,18)                 1.7823         estimate D2E/DX2                !
 ! R16   R(5,25)                 1.0926         estimate D2E/DX2                !
 ! R17   R(5,26)                 1.091          estimate D2E/DX2                !
 ! R18   R(5,27)                 1.0897         estimate D2E/DX2                !
 ! R19   R(6,7)                  1.5287         estimate D2E/DX2                !
 ! R20   R(6,8)                  1.5248         estimate D2E/DX2                !
 ! R21   R(6,28)                 1.0964         estimate D2E/DX2                !
 ! R22   R(6,29)                 1.0946         estimate D2E/DX2                !
 ! R23   R(7,9)                  1.5377         estimate D2E/DX2                !
 ! R24   R(7,30)                 1.0982         estimate D2E/DX2                !
 ! R25   R(7,31)                 1.0982         estimate D2E/DX2                !
 ! R26   R(8,11)                 1.4654         estimate D2E/DX2                !
 ! R27   R(8,32)                 1.0955         estimate D2E/DX2                !
 ! R28   R(8,33)                 1.0959         estimate D2E/DX2                !
 ! R29   R(9,12)                 1.505          estimate D2E/DX2                !
 ! R30   R(9,34)                 1.0898         estimate D2E/DX2                !
 ! R31   R(10,35)                1.0102         estimate D2E/DX2                !
 ! R32   R(10,36)                1.0103         estimate D2E/DX2                !
 ! R33   R(11,37)                1.0141         estimate D2E/DX2                !
 ! R34   R(12,18)                1.6807         estimate D2E/DX2                !
 ! R35   R(12,38)                1.0304         estimate D2E/DX2                !
 ! R36   R(14,39)                1.0101         estimate D2E/DX2                !
 ! R37   R(14,40)                1.0088         estimate D2E/DX2                !
 ! R38   R(16,18)                1.4527         estimate D2E/DX2                !
 ! R39   R(17,18)                1.4518         estimate D2E/DX2                !
 ! A1    A(9,1,13)             119.9985         estimate D2E/DX2                !
 ! A2    A(9,1,15)             118.8408         estimate D2E/DX2                !
 ! A3    A(13,1,15)            121.1328         estimate D2E/DX2                !
 ! A4    A(10,2,11)            119.2956         estimate D2E/DX2                !
 ! A5    A(10,2,14)            118.5064         estimate D2E/DX2                !
 ! A6    A(11,2,14)            122.198          estimate D2E/DX2                !
 ! A7    A(13,3,19)            108.783          estimate D2E/DX2                !
 ! A8    A(13,3,20)            112.4523         estimate D2E/DX2                !
 ! A9    A(13,3,21)            108.5877         estimate D2E/DX2                !
 ! A10   A(19,3,20)            108.7036         estimate D2E/DX2                !
 ! A11   A(19,3,21)            109.5099         estimate D2E/DX2                !
 ! A12   A(20,3,21)            108.7722         estimate D2E/DX2                !
 ! A13   A(13,4,22)            108.2295         estimate D2E/DX2                !
 ! A14   A(13,4,23)            112.9178         estimate D2E/DX2                !
 ! A15   A(13,4,24)            109.1038         estimate D2E/DX2                !
 ! A16   A(22,4,23)            109.118          estimate D2E/DX2                !
 ! A17   A(22,4,24)            109.4225         estimate D2E/DX2                !
 ! A18   A(23,4,24)            108.009          estimate D2E/DX2                !
 ! A19   A(18,5,25)            107.5224         estimate D2E/DX2                !
 ! A20   A(18,5,26)            109.062          estimate D2E/DX2                !
 ! A21   A(18,5,27)            109.4868         estimate D2E/DX2                !
 ! A22   A(25,5,26)            109.5131         estimate D2E/DX2                !
 ! A23   A(25,5,27)            109.2651         estimate D2E/DX2                !
 ! A24   A(26,5,27)            111.8903         estimate D2E/DX2                !
 ! A25   A(7,6,8)              111.3179         estimate D2E/DX2                !
 ! A26   A(7,6,28)             109.8559         estimate D2E/DX2                !
 ! A27   A(7,6,29)             110.2052         estimate D2E/DX2                !
 ! A28   A(8,6,28)             108.9502         estimate D2E/DX2                !
 ! A29   A(8,6,29)             109.617          estimate D2E/DX2                !
 ! A30   A(28,6,29)            106.7801         estimate D2E/DX2                !
 ! A31   A(6,7,9)              113.4941         estimate D2E/DX2                !
 ! A32   A(6,7,30)             108.7309         estimate D2E/DX2                !
 ! A33   A(6,7,31)             109.1448         estimate D2E/DX2                !
 ! A34   A(9,7,30)             109.0291         estimate D2E/DX2                !
 ! A35   A(9,7,31)             109.9121         estimate D2E/DX2                !
 ! A36   A(30,7,31)            106.2702         estimate D2E/DX2                !
 ! A37   A(6,8,11)             111.8236         estimate D2E/DX2                !
 ! A38   A(6,8,32)             112.2203         estimate D2E/DX2                !
 ! A39   A(6,8,33)             110.0783         estimate D2E/DX2                !
 ! A40   A(11,8,32)            108.9383         estimate D2E/DX2                !
 ! A41   A(11,8,33)            106.8894         estimate D2E/DX2                !
 ! A42   A(32,8,33)            106.6212         estimate D2E/DX2                !
 ! A43   A(1,9,7)              110.2628         estimate D2E/DX2                !
 ! A44   A(1,9,12)             107.2511         estimate D2E/DX2                !
 ! A45   A(1,9,34)             113.4472         estimate D2E/DX2                !
 ! A46   A(7,9,12)             106.5631         estimate D2E/DX2                !
 ! A47   A(7,9,34)             110.3484         estimate D2E/DX2                !
 ! A48   A(12,9,34)            108.6753         estimate D2E/DX2                !
 ! A49   A(2,10,35)            121.1869         estimate D2E/DX2                !
 ! A50   A(2,10,36)            120.6826         estimate D2E/DX2                !
 ! A51   A(35,10,36)           118.1281         estimate D2E/DX2                !
 ! A52   A(2,11,8)             125.7655         estimate D2E/DX2                !
 ! A53   A(2,11,37)            115.2001         estimate D2E/DX2                !
 ! A54   A(8,11,37)            118.8152         estimate D2E/DX2                !
 ! A55   A(9,12,18)            118.172          estimate D2E/DX2                !
 ! A56   A(9,12,38)            110.4501         estimate D2E/DX2                !
 ! A57   A(18,12,38)           110.7409         estimate D2E/DX2                !
 ! A58   A(1,13,3)             119.3729         estimate D2E/DX2                !
 ! A59   A(1,13,4)             125.3836         estimate D2E/DX2                !
 ! A60   A(3,13,4)             115.0939         estimate D2E/DX2                !
 ! A61   A(2,14,39)            120.5576         estimate D2E/DX2                !
 ! A62   A(2,14,40)            121.4201         estimate D2E/DX2                !
 ! A63   A(39,14,40)           118.0087         estimate D2E/DX2                !
 ! A64   A(5,18,12)            104.8425         estimate D2E/DX2                !
 ! A65   A(5,18,16)            108.555          estimate D2E/DX2                !
 ! A66   A(5,18,17)            109.4157         estimate D2E/DX2                !
 ! A67   A(12,18,16)           105.6143         estimate D2E/DX2                !
 ! A68   A(12,18,17)           107.5091         estimate D2E/DX2                !
 ! A69   A(16,18,17)           119.8478         estimate D2E/DX2                !
 ! D1    D(13,1,9,7)           103.4537         estimate D2E/DX2                !
 ! D2    D(13,1,9,12)         -140.899          estimate D2E/DX2                !
 ! D3    D(13,1,9,34)          -20.8892         estimate D2E/DX2                !
 ! D4    D(15,1,9,7)           -78.4444         estimate D2E/DX2                !
 ! D5    D(15,1,9,12)           37.2029         estimate D2E/DX2                !
 ! D6    D(15,1,9,34)          157.2127         estimate D2E/DX2                !
 ! D7    D(9,1,13,3)           175.9252         estimate D2E/DX2                !
 ! D8    D(9,1,13,4)             0.6009         estimate D2E/DX2                !
 ! D9    D(15,1,13,3)           -2.1323         estimate D2E/DX2                !
 ! D10   D(15,1,13,4)         -177.4567         estimate D2E/DX2                !
 ! D11   D(11,2,10,35)           0.6177         estimate D2E/DX2                !
 ! D12   D(11,2,10,36)        -179.9449         estimate D2E/DX2                !
 ! D13   D(14,2,10,35)        -179.4395         estimate D2E/DX2                !
 ! D14   D(14,2,10,36)          -0.0021         estimate D2E/DX2                !
 ! D15   D(10,2,11,8)          179.8123         estimate D2E/DX2                !
 ! D16   D(10,2,11,37)           5.2862         estimate D2E/DX2                !
 ! D17   D(14,2,11,8)           -0.1283         estimate D2E/DX2                !
 ! D18   D(14,2,11,37)        -174.6544         estimate D2E/DX2                !
 ! D19   D(10,2,14,39)           0.0925         estimate D2E/DX2                !
 ! D20   D(10,2,14,40)        -178.5424         estimate D2E/DX2                !
 ! D21   D(11,2,14,39)        -179.9664         estimate D2E/DX2                !
 ! D22   D(11,2,14,40)           1.3986         estimate D2E/DX2                !
 ! D23   D(19,3,13,1)          124.3815         estimate D2E/DX2                !
 ! D24   D(19,3,13,4)          -59.8269         estimate D2E/DX2                !
 ! D25   D(20,3,13,1)            3.9151         estimate D2E/DX2                !
 ! D26   D(20,3,13,4)          179.7067         estimate D2E/DX2                !
 ! D27   D(21,3,13,1)         -116.5049         estimate D2E/DX2                !
 ! D28   D(21,3,13,4)           59.2867         estimate D2E/DX2                !
 ! D29   D(22,4,13,1)          100.7899         estimate D2E/DX2                !
 ! D30   D(22,4,13,3)          -74.7113         estimate D2E/DX2                !
 ! D31   D(23,4,13,1)          -20.1153         estimate D2E/DX2                !
 ! D32   D(23,4,13,3)          164.3836         estimate D2E/DX2                !
 ! D33   D(24,4,13,1)         -140.2251         estimate D2E/DX2                !
 ! D34   D(24,4,13,3)           44.2738         estimate D2E/DX2                !
 ! D35   D(25,5,18,12)        -172.1631         estimate D2E/DX2                !
 ! D36   D(25,5,18,16)         -59.6638         estimate D2E/DX2                !
 ! D37   D(25,5,18,17)          72.7866         estimate D2E/DX2                !
 ! D38   D(26,5,18,12)         -53.4976         estimate D2E/DX2                !
 ! D39   D(26,5,18,16)          59.0016         estimate D2E/DX2                !
 ! D40   D(26,5,18,17)        -168.5479         estimate D2E/DX2                !
 ! D41   D(27,5,18,12)          69.2338         estimate D2E/DX2                !
 ! D42   D(27,5,18,16)        -178.2669         estimate D2E/DX2                !
 ! D43   D(27,5,18,17)         -45.8165         estimate D2E/DX2                !
 ! D44   D(8,6,7,9)           -178.9496         estimate D2E/DX2                !
 ! D45   D(8,6,7,30)           -57.4295         estimate D2E/DX2                !
 ! D46   D(8,6,7,31)            58.0933         estimate D2E/DX2                !
 ! D47   D(28,6,7,9)           -58.1819         estimate D2E/DX2                !
 ! D48   D(28,6,7,30)           63.3382         estimate D2E/DX2                !
 ! D49   D(28,6,7,31)          178.861          estimate D2E/DX2                !
 ! D50   D(29,6,7,9)            59.204          estimate D2E/DX2                !
 ! D51   D(29,6,7,30)         -179.2759         estimate D2E/DX2                !
 ! D52   D(29,6,7,31)          -63.7531         estimate D2E/DX2                !
 ! D53   D(7,6,8,11)           178.6434         estimate D2E/DX2                !
 ! D54   D(7,6,8,32)           -58.5887         estimate D2E/DX2                !
 ! D55   D(7,6,8,33)            59.9857         estimate D2E/DX2                !
 ! D56   D(28,6,8,11)           57.3454         estimate D2E/DX2                !
 ! D57   D(28,6,8,32)         -179.8866         estimate D2E/DX2                !
 ! D58   D(28,6,8,33)          -61.3122         estimate D2E/DX2                !
 ! D59   D(29,6,8,11)          -59.1695         estimate D2E/DX2                !
 ! D60   D(29,6,8,32)           63.5985         estimate D2E/DX2                !
 ! D61   D(29,6,8,33)         -177.8271         estimate D2E/DX2                !
 ! D62   D(6,7,9,1)            -72.5196         estimate D2E/DX2                !
 ! D63   D(6,7,9,12)           171.4017         estimate D2E/DX2                !
 ! D64   D(6,7,9,34)            53.5877         estimate D2E/DX2                !
 ! D65   D(30,7,9,1)           166.1271         estimate D2E/DX2                !
 ! D66   D(30,7,9,12)           50.0484         estimate D2E/DX2                !
 ! D67   D(30,7,9,34)          -67.7656         estimate D2E/DX2                !
 ! D68   D(31,7,9,1)            50.0144         estimate D2E/DX2                !
 ! D69   D(31,7,9,12)          -66.0643         estimate D2E/DX2                !
 ! D70   D(31,7,9,34)          176.1216         estimate D2E/DX2                !
 ! D71   D(6,8,11,2)            76.7539         estimate D2E/DX2                !
 ! D72   D(6,8,11,37)         -108.8996         estimate D2E/DX2                !
 ! D73   D(32,8,11,2)          -47.8626         estimate D2E/DX2                !
 ! D74   D(32,8,11,37)         126.4839         estimate D2E/DX2                !
 ! D75   D(33,8,11,2)         -162.7113         estimate D2E/DX2                !
 ! D76   D(33,8,11,37)          11.6352         estimate D2E/DX2                !
 ! D77   D(1,9,12,18)           88.173          estimate D2E/DX2                !
 ! D78   D(1,9,12,38)          -40.7638         estimate D2E/DX2                !
 ! D79   D(7,9,12,18)         -153.7476         estimate D2E/DX2                !
 ! D80   D(7,9,12,38)           77.3155         estimate D2E/DX2                !
 ! D81   D(34,9,12,18)         -34.8354         estimate D2E/DX2                !
 ! D82   D(34,9,12,38)        -163.7723         estimate D2E/DX2                !
 ! D83   D(9,12,18,5)          -66.6226         estimate D2E/DX2                !
 ! D84   D(9,12,18,16)         178.8029         estimate D2E/DX2                !
 ! D85   D(9,12,18,17)          49.7498         estimate D2E/DX2                !
 ! D86   D(38,12,18,5)          62.1787         estimate D2E/DX2                !
 ! D87   D(38,12,18,16)        -52.3957         estimate D2E/DX2                !
 ! D88   D(38,12,18,17)        178.5511         estimate D2E/DX2                !
 --------------------------------------------------------------------------------
 Trust Radius=3.00D-01 FncErr=1.00D-07 GrdErr=1.00D-06
 Number of steps in this run=    206 maximum allowed number of steps=    240.
 GradGradGradGradGradGradGradGradGradGradGradGradGradGradGradGradGradGrad

                          Input orientation:                          
 ---------------------------------------------------------------------
 Center     Atomic      Atomic             Coordinates (Angstroms)
 Number     Number       Type             X           Y           Z
 ---------------------------------------------------------------------
      1          6           0       -0.726544    2.638726   -2.096827
      2          6           0        1.350891    6.356954    1.857318
      3          6           0       -0.734906    0.749603   -0.524068
      4          6           0       -2.288750    2.613476   -0.105420
      5          6           0       -2.796527    1.552352   -4.293359
      6          6           0       -0.277535    5.490272   -0.791952
      7          6           0       -0.326386    5.128809   -2.276451
      8          6           0        0.681738    6.647147   -0.534407
      9          6           0       -1.299934    3.982420   -2.596511
     10          7           0        1.296798    6.819467    3.106738
     11          7           0        0.713129    7.023945    0.881422
     12          7           0       -1.387400    3.900075   -4.096659
     13          7           0       -1.222579    2.061113   -0.935462
     14          7           0        2.041861    5.242323    1.621161
     15          8           0        0.152233    2.075942   -2.768679
     16          8           0       -2.593930    3.342622   -6.213963
     17          8           0       -3.916065    3.947064   -4.163564
     18         16           0       -2.788581    3.267979   -4.776300
     19          1           0       -0.344337    0.822837    0.495267
     20          1           0        0.057362    0.375419   -1.176798
     21          1           0       -1.571051    0.044214   -0.545209
     22          1           0       -3.215179    2.081097   -0.339370
     23          1           0       -2.440312    3.679059   -0.264152
     24          1           0       -2.037566    2.460802    0.948654
     25          1           0       -3.614821    1.063931   -4.827847
     26          1           0       -1.848616    1.096296   -4.582865
     27          1           0       -2.972497    1.477510   -3.220600
     28          1           0       -1.278178    5.773349   -0.444463
     29          1           0        0.028011    4.621029   -0.201060
     30          1           0       -0.622166    6.019486   -2.846733
     31          1           0        0.684438    4.867137   -2.616888
     32          1           0        1.701465    6.421193   -0.864886
     33          1           0        0.360457    7.533730   -1.092780
     34          1           0       -2.290715    4.205050   -2.200876
     35          1           0        0.777762    7.656066    3.332812
     36          1           0        1.769399    6.334917    3.856729
     37          1           0        0.291732    7.902311    1.162898
     38          1           0       -0.552894    3.433548   -4.480862
     39          1           0        2.511822    4.760160    2.374185
     40          1           0        2.129925    4.865628    0.689535
 ---------------------------------------------------------------------
                    Distance matrix (angstroms):
                    1          2          3          4          5
     1  C    0.000000
     2  C    5.811731   0.000000
     3  C    2.458135   6.439249   0.000000
     4  C    2.531172   5.577898   2.462462   0.000000
     5  C    3.207770   8.838331   4.370611   4.350018   0.000000
     6  C    3.167905   3.228240   4.770209   3.576628   5.840581
     7  C    2.528419   4.627055   4.734467   3.858905   4.791718
     8  C    4.526793   2.500465   6.065312   5.027756   7.223917
     9  C    1.544012   5.701041   3.881415   3.009535   3.320288
    10  N    6.974926   1.333377   7.358927   6.392532   9.962893
    11  N    5.492975   1.343127   6.590871   5.425622   8.308692
    12  N    2.455008   6.998880   4.807768   4.289261   2.745202
    13  N    1.388689   5.733813   1.458468   1.459724   3.743210
    14  N    5.316598   1.332521   5.700612   5.352206   8.485719
    15  O    1.241112   6.415893   2.753991   3.652436   3.360652
    16  O    4.575304   9.475936   6.523390   6.159471   2.633407
    17  O    4.019478   8.354604   5.795642   4.571121   2.646669
    18  S    3.439118   8.407251   5.351754   4.742924   1.782321
    19  H    3.187865   5.946044   1.094052   2.710711   5.429214
    20  H    2.565838   6.830654   1.092593   3.414820   4.386663
    21  H    3.138822   7.359386   1.094147   2.703630   4.221955
    22  H    3.097243   6.630036   2.821124   1.093815   4.011093
    23  H    2.716246   5.103428   3.399658   1.087949   4.569932
    24  H    3.320450   5.242834   2.606536   1.094292   5.374011
    25  H    4.275582   9.867412   5.187988   5.144013   1.092629
    26  H    3.133452   8.909956   4.223077   4.747954   1.091025
    27  H    2.766875   8.263529   3.578819   3.385599   1.089669
    28  H    3.586150   3.542709   5.053662   3.334817   5.910685
    29  H    2.844786   3.000061   3.959080   3.067050   5.843090
    30  H    3.464504   5.112233   5.760134   4.679017   5.174539
    31  H    2.688335   4.762586   4.832030   4.497366   5.090723
    32  H    4.660468   2.745437   6.182151   5.567523   7.462705
    33  H    5.113779   3.326986   6.895479   5.674687   7.482454
    34  H    2.216039   5.861818   4.143952   2.631358   3.416304
    35  H    7.544376   2.047743   8.053752   6.830274  10.401410
    36  H    7.438843   2.042861   7.527194   6.783533  10.494977
    37  H    6.274394   1.998040   7.420315   6.019908   8.923568
    38  H    2.519032   7.234861   4.784653   4.778097   2.933930
    39  H    5.914173   2.040751   5.918250   5.813964   9.106302
    40  H    4.569717   2.048088   5.159627   5.022831   7.750932
                    6          7          8          9         10
     6  C    0.000000
     7  C    1.528653   0.000000
     8  C    1.524760   2.521186   0.000000
     9  C    2.564245   1.537674   3.908972   0.000000
    10  N    4.409655   5.871266   3.696746   6.878873   0.000000
    11  N    2.476640   3.826786   1.465447   5.039773   2.309656
    12  N    3.831660   2.438995   4.951502   1.504950   8.222937
    13  N    3.559892   3.465858   4.981864   2.540962   6.732649
    14  N    3.356216   4.562110   2.910316   5.526635   2.291165
    15  O    3.968602   3.129115   5.115492   2.402725   7.637511
    16  O    6.275053   4.882235   7.342154   3.894833  10.681838
    17  O    5.195014   4.224159   6.449885   3.049762   9.395846
    18  S    5.207588   3.971692   6.438598   2.734589   9.562723
    19  H    4.842143   5.120951   6.002970   4.522745   6.743343
    20  H    5.140232   4.893998   6.335384   4.107103   7.836493
    21  H    5.603000   5.513573   6.976668   4.448686   8.213727
    22  H    4.522948   4.624495   6.006065   3.518221   7.394981
    23  H    2.869960   3.258805   4.316223   2.613884   5.932205
    24  H    3.912174   4.521913   5.207645   3.927800   5.896886
    25  H    6.856999   5.817789   8.250233   4.342251  10.963933
    26  H    6.012183   4.888547   7.321520   3.546317  10.088523
    27  H    5.409567   4.607094   6.877079   3.075960   9.316576
    28  H    1.096434   2.162757   2.147762   2.799859   4.509533
    29  H    1.094575   2.165799   2.154909   2.812373   4.169469
    30  H    2.149642   1.098186   2.727815   2.161393   6.306045
    31  H    2.155013   1.098241   2.739556   2.172756   6.078360
    32  H    2.188236   2.788360   1.095498   4.237279   4.012004
    33  H    2.161770   2.767033   1.095915   4.198798   4.361520
    34  H    2.773041   2.172011   4.192426   1.089834   6.919262
    35  H    4.776818   6.250600   3.997814   7.278005   1.010152
    36  H    5.149135   6.592640   4.534597   7.523254   1.010261
    37  H    3.156491   4.461334   2.146715   5.659691   2.441561
    38  H    4.232493   2.790098   5.236988   2.100026   8.512196
    39  H    4.282288   5.460745   3.920438   6.312066   2.500732
    40  H    2.894969   3.860025   2.601747   4.831364   3.217834
                   11         12         13         14         15
    11  N    0.000000
    12  N    6.241160   0.000000
    13  N    5.628297   3.660890   0.000000
    14  N    2.342417   6.801097   5.226182   0.000000
    15  O    6.174186   2.731568   2.291509   5.733006   0.000000
    16  O    8.650622   2.499888   5.602271   9.299923   4.584306
    17  O    7.506565   2.529987   4.607855   8.404619   4.690187
    18  S    7.640620   1.680704   4.319829   8.255828   3.754981
    19  H    6.302468   5.625226   2.086054   5.147178   3.531317
    20  H    6.990651   4.799597   2.130272   5.954289   2.331280
    21  H    7.481270   5.245397   2.083653   6.690786   3.470078
    22  H    6.430683   4.557047   2.079947   6.439992   4.152232
    23  H    4.737594   3.980651   2.133373   5.107649   3.945115
    24  H    5.328520   5.286720   2.091374   4.983056   4.331500
    25  H    9.319264   3.679641   4.676308   9.541840   4.410786
    26  H    8.459196   2.882758   3.824441   8.415182   2.873043
    27  H    7.821341   3.024704   2.936778   7.922137   3.213455
    28  H    2.699493   4.106047   3.744979   3.946067   4.595528
    29  H    2.723079   4.207001   2.942191   2.786052   3.617398
    30  H    4.085473   2.576781   4.436459   5.259571   4.019617
    31  H    4.109844   2.723498   3.786512   4.465917   2.845532
    32  H    2.095164   5.132395   5.250268   2.772369   4.990567
    33  H    2.069234   5.028095   5.699147   3.929775   5.713094
    34  H    5.144882   2.122023   2.708995   5.869848   3.289908
    35  H    2.532403   8.601885   7.315943   3.217740   8.292000
    36  H    3.231551   8.896641   7.083955   2.503151   8.040530
    37  H    1.014066   6.819114   6.388728   3.216906   7.030173
    38  H    6.576310   1.030369   3.860301   6.873071   2.296055
    39  H    3.253976   7.603650   5.673126   1.010144   6.262726
    40  H    2.588912   6.017601   4.663175   1.008752   4.863420
                   16         17         18         19         20
    16  O    0.000000
    17  O    2.513469   0.000000
    18  S    1.452699   1.451835   0.000000
    19  H    7.511574   6.650019   6.304162   0.000000
    20  H    6.419243   6.120911   5.424271   1.776892   0.000000
    21  H    6.637812   5.815826   5.456846   1.787084   1.777732
    22  H    6.040549   4.312486   4.612702   3.243697   3.784197
    23  H    5.961295   4.177929   4.544201   3.623235   4.240912
    24  H    7.238109   5.645574   5.830150   2.399065   3.640754
    25  H    2.855866   2.973967   2.354391   6.252178   5.223901
    26  H    2.874361   3.546412   2.374269   5.303307   3.969095
    27  H    3.547136   2.806813   2.379035   4.598205   3.817301
    28  H    6.397403   4.911770   5.227142   5.124717   5.608711
    29  H    6.683105   5.631288   5.540465   3.879405   4.356390
    30  H    4.731986   4.108375   3.998421   6.184765   5.925026
    31  H    5.100077   4.939977   4.391153   5.205790   4.758426
    32  H    7.519350   6.968446   6.738133   6.113667   6.273097
    33  H    7.247088   6.370442   6.456112   6.932151   7.165217
    34  H    4.115894   2.561341   2.785459   4.743094   4.607416
    35  H   11.005226   9.590848   9.885940   7.483568   8.594381
    36  H   11.375908  10.116889  10.232814   6.793404   7.986431
    37  H    9.139796   7.856255   8.138761   7.139277   7.885633
    38  H    2.679129   3.416914   2.261193   5.623270   4.543282
    39  H   10.091302   9.204402   9.024982   5.214451   6.153032
    40  H    8.502507   7.807069   7.524595   4.743825   5.285895
                   21         22         23         24         25
    21  H    0.000000
    22  H    2.625722   0.000000
    23  H    3.747893   1.777515   0.000000
    24  H    2.879089   1.786044   1.765574   0.000000
    25  H    4.853639   4.619607   5.389404   6.148735   0.000000
    26  H    4.181697   4.565586   5.066759   5.700463   1.783408
    27  H    3.343069   2.953760   3.724329   4.384477   1.779570
    28  H    5.737500   4.170821   2.401900   3.672930   6.844894
    29  H    4.860316   4.121731   2.642709   3.202348   6.879704
    30  H    6.473119   5.340552   3.931028   5.391896   6.118687
    31  H    5.713113   5.306234   4.087904   5.090465   6.151125
    32  H    7.174776   6.579209   5.003449   5.740556   8.524566
    33  H    7.753928   6.563841   4.836261   5.970977   8.462379
    34  H    4.535604   2.971702   2.012448   3.609158   4.303587
    35  H    8.859811   7.778739   6.253858   6.371896  11.373099
    36  H    8.373088   7.781275   6.461959   6.161059  11.497608
    37  H    8.254530   6.960012   5.228422   5.922968   9.895132
    38  H    5.292787   5.105766   4.626367   5.712279   3.887272
    39  H    6.887151   6.880356   5.714301   5.293025  10.152198
    40  H    6.202245   6.114114   4.817108   4.818538   8.825900
                   26         27         28         29         30
    26  H    0.000000
    27  H    1.806709   0.000000
    28  H    6.271092   5.388125   0.000000
    29  H    5.928380   5.291728   1.758754   0.000000
    30  H    5.362475   5.127707   2.502365   3.062351   0.000000
    31  H    4.949815   5.022670   3.064720   2.515490   1.757257
    32  H    7.401417   7.199675   3.078105   2.545919   3.080316
    33  H    7.648611   7.232842   2.490859   3.064231   2.516909
    34  H    3.941278   2.990676   2.563158   3.090112   2.548208
    35  H   10.610673   9.756342   4.694605   4.718244   6.544078
    36  H   10.571657   9.806558   5.301258   4.736612   7.124288
    37  H    9.160607   8.434947   3.095271   3.563249   4.522983
    38  H    2.674331   3.356907   4.721570   4.479316   3.059780
    39  H    8.990988   8.494420   4.830675   3.580581   6.218180
    40  H    7.604923   7.266582   3.704736   2.295872   4.627157
                   31         32         33         34         35
    31  H    0.000000
    32  H    2.553222   0.000000
    33  H    3.088460   1.757264   0.000000
    34  H    3.076192   4.757485   4.397351   0.000000
    35  H    6.571587   4.472003   4.446906   7.207410   0.000000
    36  H    6.726012   4.722892   5.283930   7.597067   1.732995
    37  H    4.863464   2.879751   2.286627   5.626166   2.237272
    38  H    2.657173   5.204175   5.396739   2.968766   8.980746
    39  H    5.316162   3.729248   4.933650   6.656101   3.508875
    40  H    3.608582   2.240443   3.664209   5.322865   4.074531
                   36         37         38         39         40
    36  H    0.000000
    37  H    3.449195   0.000000
    38  H    9.128330   7.248121   0.000000
    39  H    2.286698   4.033500   7.625225   0.000000
    40  H    3.509973   3.581126   5.998448   1.730611   0.000000
 Stoichiometry    C9H22N5O3S(1+)
 Framework group  C1[X(C9H22N5O3S)]
 Deg. of freedom   114
 Full point group                 C1      NOp   1
 Largest Abelian subgroup         C1      NOp   1
 Largest concise Abelian subgroup C1      NOp   1
                         Standard orientation:                         
 ---------------------------------------------------------------------
 Center     Atomic      Atomic             Coordinates (Angstroms)
 Number     Number       Type             X           Y           Z
 ---------------------------------------------------------------------
      1          6           0        0.769698    1.024197   -0.563195
      2          6           0       -4.853780   -0.320326    0.024140
      3          6           0        0.376489    3.427332   -0.227403
      4          6           0       -0.015363    1.911796    1.673471
      5          6           0        3.903981    0.867846    0.101348
      6          6           0       -1.673865   -0.863680    0.144298
      7          6           0       -0.352733   -1.241118   -0.525725
      8          6           0       -2.822462   -1.723787   -0.371293
      9          6           0        0.846195   -0.420119   -0.022757
     10          7           0       -5.988950   -0.146438    0.701670
     11          7           0       -4.089112   -1.392753    0.287149
     12          7           0        2.077420   -1.052924   -0.613109
     13          7           0        0.358470    2.056369    0.269854
     14          7           0       -4.518023    0.582525   -0.896587
     15          8           0        1.114641    1.244020   -1.734968
     16          8           0        4.515857   -1.602503   -0.575268
     17          8           0        3.301107   -1.233016    1.593923
     18         16           0        3.533340   -0.872312    0.206917
     19          1           0       -0.623707    3.856113   -0.114686
     20          1           0        0.666317    3.485932   -1.279223
     21          1           0        1.090721    4.004681    0.367322
     22          1           0        0.830745    2.233025    2.287756
     23          1           0       -0.280459    0.890402    1.938257
     24          1           0       -0.879313    2.550347    1.881599
     25          1           0        4.911470    1.014262    0.498044
     26          1           0        3.876119    1.175249   -0.945104
     27          1           0        3.193574    1.428300    0.708467
     28          1           0       -1.591293   -0.993488    1.229885
     29          1           0       -1.898500    0.193088   -0.031415
     30          1           0       -0.157791   -2.306752   -0.345629
     31          1           0       -0.454746   -1.126475   -1.613192
     32          1           0       -2.951714   -1.635640   -1.455562
     33          1           0       -2.622898   -2.781318   -0.164330
     34          1           0        0.913084   -0.473622    1.063706
     35          1           0       -6.278334   -0.801261    1.414320
     36          1           0       -6.580416    0.652239    0.520254
     37          1           0       -4.485158   -2.054386    0.945723
     38          1           0        2.180423   -0.785391   -1.602794
     39          1           0       -5.111605    1.380401   -1.073912
     40          1           0       -3.680395    0.482986   -1.449807
 ---------------------------------------------------------------------
 Rotational constants (GHZ):      0.6500822      0.1663331      0.1476878
 Standard basis: 6-31G(d) (6D, 7F)
 There are   318 symmetry adapted basis functions of A   symmetry.
 Integral buffers will be    131072 words long.
 Raffenetti 2 integral format.
 Two-electron integral symmetry is turned on.
   318 basis functions,   616 primitive gaussians,   318 cartesian basis functions
    75 alpha electrons       75 beta electrons
       nuclear repulsion energy      1622.4217343099 Hartrees.
 NAtoms=   40 NActive=   40 NUniq=   40 SFac= 1.00D+00 NAtFMM=   60 NAOKFM=F Big=F
 One-electron integrals computed using PRISM.
 NBasis=   318 RedAO= T  NBF=   318
 NBsUse=   318 1.00D-06 NBFU=   318
 Harris functional with IExCor=  402 diagonalized for initial guess.
 ExpMin= 1.17D-01 ExpMax= 2.19D+04 ExpMxC= 3.30D+03 IAcc=3 IRadAn=         5 AccDes= 0.00D+00
 HarFok:  IExCor=  402 AccDes= 0.00D+00 IRadAn=         5 IDoV= 1
 ScaDFX=  1.000000  1.000000  1.000000  1.000000
 FoFCou: FMM=F IPFlag=           0 FMFlag=      100000 FMFlg1=           0
         NFxFlg=           0 DoJE=T BraDBF=F KetDBF=T FulRan=T
         Omega=  0.000000  0.000000  1.000000  0.000000  0.000000 ICntrl=     500 IOpCl=  0
         NMat0=    1 NMatS0=    1 NMatT0=    0 NMatD0=    1 NMtDS0=    0 NMtDT0=    0
         I1Cent=           4 NGrid=           0.
 Petite list used in FoFCou.
 Initial guess orbital symmetries:
       Occupied  (A) (A) (A) (A) (A) (A) (A) (A) (A) (A) (A) (A)
                 (A) (A) (A) (A) (A) (A) (A) (A) (A) (A) (A) (A)
                 (A) (A) (A) (A) (A) (A) (A) (A) (A) (A) (A) (A)
                 (A) (A) (A) (A) (A) (A) (A) (A) (A) (A) (A) (A)
                 (A) (A) (A) (A) (A) (A) (A) (A) (A) (A) (A) (A)
                 (A) (A) (A) (A) (A) (A) (A) (A) (A) (A) (A) (A)
                 (A) (A) (A)
       Virtual   (A) (A) (A) (A) (A) (A) (A) (A) (A) (A) (A) (A)
                 (A) (A) (A) (A) (A) (A) (A) (A) (A) (A) (A) (A)
                 (A) (A) (A) (A) (A) (A) (A) (A) (A) (A) (A) (A)
                 (A) (A) (A) (A) (A) (A) (A) (A) (A) (A) (A) (A)
                 (A) (A) (A) (A) (A) (A) (A) (A) (A) (A) (A) (A)
                 (A) (A) (A) (A) (A) (A) (A) (A) (A) (A) (A) (A)
                 (A) (A) (A) (A) (A) (A) (A) (A) (A) (A) (A) (A)
                 (A) (A) (A) (A) (A) (A) (A) (A) (A) (A) (A) (A)
                 (A) (A) (A) (A) (A) (A) (A) (A) (A) (A) (A) (A)
                 (A) (A) (A) (A) (A) (A) (A) (A) (A) (A) (A) (A)
                 (A) (A) (A) (A) (A) (A) (A) (A) (A) (A) (A) (A)
                 (A) (A) (A) (A) (A) (A) (A) (A) (A) (A) (A) (A)
                 (A) (A) (A) (A) (A) (A) (A) (A) (A) (A) (A) (A)
                 (A) (A) (A) (A) (A) (A) (A) (A) (A) (A) (A) (A)
                 (A) (A) (A) (A) (A) (A) (A) (A) (A) (A) (A) (A)
                 (A) (A) (A) (A) (A) (A) (A) (A) (A) (A) (A) (A)
                 (A) (A) (A) (A) (A) (A) (A) (A) (A) (A) (A) (A)
                 (A) (A) (A) (A) (A) (A) (A) (A) (A) (A) (A) (A)
                 (A) (A) (A) (A) (A) (A) (A) (A) (A) (A) (A) (A)
                 (A) (A) (A) (A) (A) (A) (A) (A) (A) (A) (A) (A)
                 (A) (A) (A)
 The electronic state of the initial guess is 1-A.
 Requested convergence on RMS density matrix=1.00D-08 within 128 cycles.
 Requested convergence on MAX density matrix=1.00D-06.
 Requested convergence on             energy=1.00D-06.
 No special actions if energy rises.
 Integral accuracy reduced to 1.0D-05 until final iterations.
 Initial convergence to 1.0D-05 achieved.  Increase integral accuracy.
 SCF Done:  E(RB3LYP) =  -1253.55117705     A.U. after   15 cycles
             Convg  =    0.4769D-08             -V/T =  2.0076
 Calling FoFJK, ICntrl=      2127 FMM=F ISym2X=0 I1Cent= 0 IOpClX= 0 NMat=1 NMatS=1 NMatT=0.
 ***** Axes restored to original set *****
 -------------------------------------------------------------------
 Center     Atomic                   Forces (Hartrees/Bohr)
 Number     Number              X              Y              Z
 -------------------------------------------------------------------
      1        6           0.003531406   -0.021788895    0.009404629
      2        6          -0.006004119    0.007651556   -0.009366366
      3        6          -0.000595324   -0.002008576    0.000991565
      4        6           0.000077163   -0.006110355   -0.004063398
      5        6          -0.005300252   -0.009806021   -0.001994452
      6        6          -0.001600155   -0.002603339   -0.001631011
      7        6           0.002035648    0.006659915    0.000965003
      8        6          -0.002731144    0.001763707   -0.002076805
      9        6           0.009304426   -0.003937485   -0.022186359
     10        7          -0.000315843    0.002449903    0.007499804
     11        7           0.007521601    0.001309247    0.013098217
     12        7           0.006566204    0.005177226    0.019413450
     13        7           0.013710764    0.017028664   -0.016716328
     14        7           0.001451720   -0.003911357   -0.003792037
     15        8          -0.009239950    0.011618559    0.008238058
     16        8           0.004968876   -0.003428801   -0.007238639
     17        8          -0.008745895    0.004042384    0.013910676
     18       16           0.001964640    0.004606083   -0.012920083
     19        1          -0.000537327   -0.002875111    0.002549052
     20        1          -0.003040391    0.006222237   -0.002059838
     21        1           0.000118197   -0.003380135    0.002620455
     22        1          -0.005179178    0.001507001    0.005000094
     23        1           0.000370213   -0.000379840   -0.001194344
     24        1          -0.001254620   -0.000655704    0.000912215
     25        1          -0.000792481    0.000372038   -0.000270571
     26        1           0.000397946   -0.000349417    0.001629221
     27        1           0.001345316   -0.001246917    0.001170300
     28        1           0.000229721    0.001097398    0.001125008
     29        1          -0.000499978   -0.002217087    0.001381184
     30        1          -0.002442936   -0.003513127   -0.001268623
     31        1          -0.001578048   -0.002983321   -0.001785043
     32        1           0.000945515   -0.000327918   -0.001418995
     33        1           0.001918864   -0.000851962    0.001818809
     34        1          -0.001188031    0.000423214   -0.004640355
     35        1           0.000663814   -0.000540022    0.002697396
     36        1          -0.000984146    0.002692731    0.002000487
     37        1          -0.001049537   -0.001828611   -0.003747636
     38        1          -0.006112485    0.002807338    0.003617907
     39        1           0.001012056   -0.001453393   -0.001796254
     40        1           0.001057752   -0.001231805    0.000123606
 -------------------------------------------------------------------
 Cartesian Forces:  Max     0.022186359 RMS     0.006011379

 GradGradGradGradGradGradGradGradGradGradGradGradGradGradGradGradGradGrad
 Berny optimization.
 Internal  Forces:  Max     0.017049176 RMS     0.004163984
 Search for a local minimum.
 Step number   1 out of a maximum of  206
 All quantities printed in internal units (Hartrees-Bohrs-Radians)
 Mixed Optimization -- RFO/linear search
 Second derivative matrix not updated -- first step.
 ITU=  0
     Eigenvalues ---    0.00230   0.00268   0.00303   0.00387   0.00438
     Eigenvalues ---    0.00604   0.00826   0.00895   0.00902   0.00918
     Eigenvalues ---    0.01177   0.01462   0.01551   0.01841   0.02230
     Eigenvalues ---    0.02444   0.02533   0.02573   0.02573   0.02584
     Eigenvalues ---    0.02586   0.03413   0.03693   0.04216   0.04659
     Eigenvalues ---    0.04783   0.04899   0.05367   0.05370   0.05943
     Eigenvalues ---    0.06124   0.06247   0.07252   0.07320   0.07714
     Eigenvalues ---    0.07725   0.08141   0.08353   0.08467   0.08750
     Eigenvalues ---    0.09478   0.12053   0.12302   0.12305   0.12813
     Eigenvalues ---    0.12995   0.15959   0.16000   0.16000   0.16000
     Eigenvalues ---    0.16000   0.16000   0.16000   0.16000   0.16000
     Eigenvalues ---    0.16000   0.16000   0.16000   0.16000   0.16000
     Eigenvalues ---    0.16308   0.17386   0.18378   0.21883   0.21914
     Eigenvalues ---    0.21915   0.22011   0.23090   0.24914   0.24955
     Eigenvalues ---    0.24989   0.25000   0.25000   0.25000   0.25000
     Eigenvalues ---    0.27560   0.28166   0.28726   0.29548   0.29913
     Eigenvalues ---    0.31863   0.33877   0.33883   0.34080   0.34138
     Eigenvalues ---    0.34185   0.34289   0.34321   0.34338   0.34348
     Eigenvalues ---    0.34375   0.34511   0.34515   0.34694   0.34832
     Eigenvalues ---    0.34851   0.35051   0.36291   0.36999   0.37157
     Eigenvalues ---    0.38317   0.42724   0.45298   0.45929   0.45947
     Eigenvalues ---    0.45948   0.46182   0.47548   0.56510   0.58715
     Eigenvalues ---    0.58914   0.86609   0.94744   0.95125
 RFO step:  Lambda=-1.45711359D-02 EMin= 2.30000000D-03
 Linear search not attempted -- first point.
 Iteration  1 RMS(Cart)=  0.18676604 RMS(Int)=  0.00619325
 Iteration  2 RMS(Cart)=  0.01378274 RMS(Int)=  0.00025622
 Iteration  3 RMS(Cart)=  0.00008419 RMS(Int)=  0.00025487
 Iteration  4 RMS(Cart)=  0.00000002 RMS(Int)=  0.00025487
 Variable       Old X    -DE/DX   Delta X   Delta X   Delta X     New X
                                 (Linear)    (Quad)   (Total)
    R1        2.91776   0.00179   0.00000   0.00606   0.00606   2.92382
    R2        2.62424  -0.01520   0.00000  -0.03102  -0.03102   2.59322
    R3        2.34536  -0.01627   0.00000  -0.01848  -0.01848   2.32689
    R4        2.51972   0.01305   0.00000   0.02169   0.02169   2.54141
    R5        2.53814  -0.00620   0.00000  -0.01070  -0.01070   2.52744
    R6        2.51810   0.00831   0.00000   0.01377   0.01377   2.53187
    R7        2.75610   0.00164   0.00000   0.00424   0.00424   2.76034
    R8        2.06746   0.00199   0.00000   0.00556   0.00556   2.07302
    R9        2.06470  -0.00311   0.00000  -0.00863  -0.00863   2.05607
   R10        2.06764   0.00204   0.00000   0.00570   0.00570   2.07333
   R11        2.75848   0.00261   0.00000   0.00679   0.00679   2.76527
   R12        2.06701   0.00258   0.00000   0.00721   0.00721   2.07422
   R13        2.05593  -0.00025   0.00000  -0.00068  -0.00068   2.05524
   R14        2.06791   0.00068   0.00000   0.00191   0.00191   2.06982
   R15        3.36810   0.01078   0.00000   0.03715   0.03715   3.40525
   R16        2.06477   0.00056   0.00000   0.00156   0.00156   2.06633
   R17        2.06174   0.00006   0.00000   0.00016   0.00016   2.06190
   R18        2.05918   0.00102   0.00000   0.00281   0.00281   2.06199
   R19        2.88874   0.00627   0.00000   0.02022   0.02022   2.90895
   R20        2.88138   0.00739   0.00000   0.02355   0.02355   2.90492
   R21        2.07196   0.00043   0.00000   0.00121   0.00121   2.07317
   R22        2.06845   0.00237   0.00000   0.00662   0.00662   2.07507
   R23        2.90578   0.00218   0.00000   0.00721   0.00721   2.91299
   R24        2.07527  -0.00153   0.00000  -0.00434  -0.00434   2.07093
   R25        2.07537  -0.00019   0.00000  -0.00053  -0.00053   2.07484
   R26        2.76929   0.00788   0.00000   0.02088   0.02088   2.79018
   R27        2.07019   0.00138   0.00000   0.00386   0.00386   2.07405
   R28        2.07098  -0.00218   0.00000  -0.00612  -0.00612   2.06486
   R29        2.84394  -0.01705   0.00000  -0.05117  -0.05117   2.79278
   R30        2.05949  -0.00052   0.00000  -0.00143  -0.00143   2.05806
   R31        1.90891  -0.00018   0.00000  -0.00039  -0.00039   1.90852
   R32        1.90912  -0.00027   0.00000  -0.00056  -0.00056   1.90855
   R33        1.91631  -0.00219   0.00000  -0.00468  -0.00468   1.91163
   R34        3.17607   0.00963   0.00000   0.02422   0.02422   3.20029
   R35        1.94711  -0.00757   0.00000  -0.01713  -0.01713   1.92998
   R36        1.90890  -0.00017   0.00000  -0.00037  -0.00037   1.90853
   R37        1.90627   0.00044   0.00000   0.00092   0.00092   1.90718
   R38        2.74520   0.00765   0.00000   0.00796   0.00796   2.75316
   R39        2.74357   0.01455   0.00000   0.01507   0.01507   2.75864
    A1        2.09437   0.00231   0.00000   0.00931   0.00870   2.10307
    A2        2.07416  -0.00518   0.00000  -0.01907  -0.01967   2.05450
    A3        2.11417   0.00292   0.00000   0.01165   0.01103   2.12519
    A4        2.08210   0.00297   0.00000   0.01123   0.01123   2.09333
    A5        2.06833   0.00454   0.00000   0.01717   0.01717   2.08549
    A6        2.13276  -0.00752   0.00000  -0.02841  -0.02841   2.10434
    A7        1.89862   0.00492   0.00000   0.02961   0.02942   1.92804
    A8        1.96266  -0.01120   0.00000  -0.06651  -0.06612   1.89654
    A9        1.89521   0.00593   0.00000   0.03473   0.03457   1.92979
   A10        1.89724   0.00262   0.00000   0.01333   0.01367   1.91091
   A11        1.91131  -0.00403   0.00000  -0.01816  -0.01885   1.89246
   A12        1.89843   0.00176   0.00000   0.00713   0.00754   1.90597
   A13        1.88896   0.01012   0.00000   0.06101   0.06094   1.94990
   A14        1.97079  -0.00343   0.00000  -0.02027  -0.02030   1.95049
   A15        1.90422   0.00013   0.00000  -0.00170  -0.00189   1.90233
   A16        1.90447  -0.00281   0.00000  -0.01164  -0.01157   1.89290
   A17        1.90978  -0.00465   0.00000  -0.02543  -0.02567   1.88412
   A18        1.88511   0.00041   0.00000  -0.00321  -0.00335   1.88176
   A19        1.87662  -0.00105   0.00000  -0.00407  -0.00407   1.87255
   A20        1.90349   0.00088   0.00000   0.00420   0.00421   1.90770
   A21        1.91091   0.00159   0.00000   0.00795   0.00795   1.91886
   A22        1.91136   0.00048   0.00000   0.00512   0.00512   1.91649
   A23        1.90703   0.00003   0.00000   0.00185   0.00186   1.90889
   A24        1.95285  -0.00190   0.00000  -0.01466  -0.01465   1.93820
   A25        1.94286  -0.00219   0.00000  -0.00933  -0.00934   1.93353
   A26        1.91735   0.00183   0.00000   0.00995   0.00987   1.92722
   A27        1.92344   0.00012   0.00000   0.00187   0.00188   1.92533
   A28        1.90154  -0.00080   0.00000  -0.01133  -0.01130   1.89024
   A29        1.91318   0.00171   0.00000   0.01184   0.01186   1.92504
   A30        1.86366  -0.00060   0.00000  -0.00280  -0.00279   1.86087
   A31        1.98085   0.00866   0.00000   0.03793   0.03809   2.01894
   A32        1.89771   0.00006   0.00000   0.01733   0.01771   1.91542
   A33        1.90494  -0.00104   0.00000   0.00615   0.00657   1.91151
   A34        1.90292  -0.00525   0.00000  -0.03469  -0.03534   1.86757
   A35        1.91833  -0.00483   0.00000  -0.03451  -0.03492   1.88340
   A36        1.85476   0.00205   0.00000   0.00635   0.00537   1.86013
   A37        1.95169   0.00964   0.00000   0.04550   0.04538   1.99707
   A38        1.95861  -0.00257   0.00000  -0.00615  -0.00649   1.95213
   A39        1.92123  -0.00181   0.00000  -0.00839  -0.00824   1.91299
   A40        1.90133  -0.00263   0.00000  -0.00270  -0.00301   1.89832
   A41        1.86557  -0.00394   0.00000  -0.02074  -0.02070   1.84487
   A42        1.86089   0.00079   0.00000  -0.01093  -0.01111   1.84978
   A43        1.92445  -0.00192   0.00000   0.00257   0.00245   1.92690
   A44        1.87189   0.00660   0.00000   0.04658   0.04671   1.91859
   A45        1.98003  -0.00019   0.00000   0.00713   0.00758   1.98761
   A46        1.85988  -0.00252   0.00000  -0.01051  -0.01101   1.84887
   A47        1.92594   0.00223   0.00000   0.00478   0.00419   1.93013
   A48        1.89674  -0.00429   0.00000  -0.05168  -0.05180   1.84495
   A49        2.11511   0.00138   0.00000   0.00788   0.00788   2.12299
   A50        2.10631   0.00263   0.00000   0.01505   0.01505   2.12136
   A51        2.06172  -0.00400   0.00000  -0.02291  -0.02291   2.03882
   A52        2.19502   0.00037   0.00000   0.00145   0.00144   2.19646
   A53        2.01062   0.00311   0.00000   0.01790   0.01789   2.02851
   A54        2.07372  -0.00350   0.00000  -0.02000  -0.02000   2.05371
   A55        2.06249   0.00608   0.00000   0.03156   0.03096   2.09345
   A56        1.92772  -0.00186   0.00000   0.00490   0.00405   1.93177
   A57        1.93279  -0.00102   0.00000   0.01341   0.01271   1.94551
   A58        2.08345  -0.00343   0.00000  -0.01362  -0.01372   2.06973
   A59        2.18836   0.00520   0.00000   0.01907   0.01891   2.20726
   A60        2.00877  -0.00182   0.00000  -0.00748  -0.00760   2.00117
   A61        2.10413   0.00218   0.00000   0.01245   0.01244   2.11657
   A62        2.11918   0.00039   0.00000   0.00219   0.00218   2.12136
   A63        2.05964  -0.00258   0.00000  -0.01482  -0.01483   2.04481
   A64        1.82985   0.01492   0.00000   0.04948   0.04987   1.87971
   A65        1.89464  -0.00592   0.00000  -0.02271  -0.02279   1.87186
   A66        1.90967  -0.00569   0.00000  -0.02773  -0.02737   1.88229
   A67        1.84332  -0.00305   0.00000  -0.00574  -0.00544   1.83788
   A68        1.87639  -0.00660   0.00000  -0.03256  -0.03210   1.84429
   A69        2.09174   0.00804   0.00000   0.04341   0.04317   2.13491
    D1        1.80561   0.00134   0.00000   0.06154   0.06157   1.86718
    D2       -2.45915   0.00103   0.00000   0.07642   0.07666  -2.38249
    D3       -0.36459   0.00004   0.00000   0.04793   0.04836  -0.31622
    D4       -1.36911   0.00291   0.00000   0.12601   0.12558  -1.24354
    D5        0.64931   0.00260   0.00000   0.14090   0.14066   0.78998
    D6        2.74388   0.00161   0.00000   0.11240   0.11237   2.85624
    D7        3.07047   0.00110   0.00000   0.04208   0.04234   3.11282
    D8        0.01049   0.00203   0.00000   0.07404   0.07444   0.08492
    D9       -0.03722  -0.00035   0.00000  -0.02331  -0.02371  -0.06092
   D10       -3.09720   0.00057   0.00000   0.00865   0.00838  -3.08882
   D11        0.01078   0.00027   0.00000   0.00679   0.00684   0.01762
   D12       -3.14063   0.00040   0.00000   0.00994   0.00999  -3.13064
   D13       -3.13181   0.00004   0.00000   0.00099   0.00094  -3.13087
   D14       -0.00004   0.00017   0.00000   0.00414   0.00409   0.00405
   D15        3.13832  -0.00007   0.00000  -0.00074  -0.00076   3.13756
   D16        0.09226   0.00037   0.00000   0.00836   0.00843   0.10069
   D17       -0.00224   0.00017   0.00000   0.00526   0.00518   0.00294
   D18       -3.04829   0.00060   0.00000   0.01435   0.01437  -3.03393
   D19        0.00161  -0.00013   0.00000  -0.00322  -0.00324  -0.00162
   D20       -3.11615   0.00025   0.00000   0.00614   0.00612  -3.11003
   D21       -3.14101  -0.00037   0.00000  -0.00917  -0.00915   3.13303
   D22        0.02441   0.00001   0.00000   0.00019   0.00021   0.02462
   D23        2.17087  -0.00046   0.00000   0.00377   0.00316   2.17403
   D24       -1.04418  -0.00096   0.00000  -0.02373  -0.02395  -1.06812
   D25        0.06833   0.00006   0.00000   0.00931   0.00909   0.07742
   D26        3.13647  -0.00044   0.00000  -0.01818  -0.01802   3.11845
   D27       -2.03339   0.00093   0.00000   0.01896   0.01921  -2.01419
   D28        1.03475   0.00044   0.00000  -0.00854  -0.00790   1.02684
   D29        1.75911   0.00014   0.00000   0.00186   0.00162   1.76073
   D30       -1.30396   0.00112   0.00000   0.03293   0.03294  -1.27102
   D31       -0.35108  -0.00111   0.00000  -0.01267  -0.01271  -0.36378
   D32        2.86903  -0.00014   0.00000   0.01840   0.01861   2.88765
   D33       -2.44739   0.00049   0.00000   0.00564   0.00555  -2.44184
   D34        0.77272   0.00146   0.00000   0.03671   0.03687   0.80959
   D35       -3.00481  -0.00133   0.00000  -0.01466  -0.01466  -3.01947
   D36       -1.04133  -0.00027   0.00000  -0.00746  -0.00761  -1.04894
   D37        1.27037   0.00124   0.00000   0.01023   0.01038   1.28075
   D38       -0.93371  -0.00087   0.00000  -0.00856  -0.00855  -0.94226
   D39        1.02977   0.00019   0.00000  -0.00135  -0.00151   1.02826
   D40       -2.94172   0.00170   0.00000   0.01633   0.01648  -2.92523
   D41        1.20836  -0.00164   0.00000  -0.01893  -0.01892   1.18944
   D42       -3.11135  -0.00058   0.00000  -0.01172  -0.01188  -3.12322
   D43       -0.79965   0.00093   0.00000   0.00597   0.00612  -0.79353
   D44       -3.12326   0.00066   0.00000   0.00746   0.00740  -3.11586
   D45       -1.00233  -0.00025   0.00000   0.00080   0.00099  -1.00134
   D46        1.01392   0.00166   0.00000   0.02114   0.02106   1.03498
   D47       -1.01547  -0.00054   0.00000  -0.00621  -0.00631  -1.02178
   D48        1.10546  -0.00145   0.00000  -0.01287  -0.01272   1.09274
   D49        3.12171   0.00046   0.00000   0.00747   0.00735   3.12906
   D50        1.03330  -0.00011   0.00000  -0.00254  -0.00261   1.03070
   D51       -3.12895  -0.00102   0.00000  -0.00920  -0.00901  -3.13797
   D52       -1.11270   0.00089   0.00000   0.01115   0.01105  -1.10165
   D53        3.11792  -0.00029   0.00000  -0.00346  -0.00345   3.11446
   D54       -1.02257   0.00154   0.00000   0.02229   0.02234  -1.00022
   D55        1.04695  -0.00031   0.00000  -0.00092  -0.00088   1.04607
   D56        1.00087  -0.00065   0.00000  -0.00238  -0.00245   0.99842
   D57       -3.13961   0.00118   0.00000   0.02337   0.02335  -3.11626
   D58       -1.07010  -0.00067   0.00000   0.00015   0.00013  -1.06997
   D59       -1.03270  -0.00043   0.00000   0.00080   0.00077  -1.03193
   D60        1.11000   0.00140   0.00000   0.02655   0.02657   1.13657
   D61       -3.10367  -0.00045   0.00000   0.00333   0.00335  -3.10032
   D62       -1.26571   0.00249   0.00000   0.03791   0.03779  -1.22792
   D63        2.99152  -0.00292   0.00000  -0.01264  -0.01268   2.97885
   D64        0.93528   0.00246   0.00000   0.05247   0.05252   0.98780
   D65        2.89947   0.00040   0.00000   0.01533   0.01573   2.91520
   D66        0.87351  -0.00501   0.00000  -0.03521  -0.03473   0.83878
   D67       -1.18273   0.00038   0.00000   0.02989   0.03047  -1.15227
   D68        0.87292   0.00366   0.00000   0.04694   0.04640   0.91932
   D69       -1.15304  -0.00176   0.00000  -0.00360  -0.00406  -1.15710
   D70        3.07390   0.00363   0.00000   0.06150   0.06114   3.13504
   D71        1.33961   0.00122   0.00000   0.05277   0.05291   1.39251
   D72       -1.90066   0.00111   0.00000   0.04530   0.04550  -1.85516
   D73       -0.83536  -0.00027   0.00000   0.03106   0.03100  -0.80436
   D74        2.20756  -0.00038   0.00000   0.02359   0.02359   2.23115
   D75       -2.83985   0.00215   0.00000   0.05590   0.05574  -2.78411
   D76        0.20307   0.00203   0.00000   0.04843   0.04833   0.25140
   D77        1.53891   0.00271   0.00000   0.08560   0.08534   1.62425
   D78       -0.71146   0.00049   0.00000   0.03243   0.03209  -0.67937
   D79       -2.68340   0.00251   0.00000   0.10663   0.10636  -2.57704
   D80        1.34941   0.00029   0.00000   0.05346   0.05312   1.40253
   D81       -0.60799   0.00149   0.00000   0.07928   0.07993  -0.52806
   D82       -2.85837  -0.00074   0.00000   0.02611   0.02669  -2.83168
   D83       -1.16278  -0.00178   0.00000  -0.05601  -0.05597  -1.21876
   D84        3.12070  -0.00026   0.00000  -0.04937  -0.04955   3.07115
   D85        0.86830  -0.00404   0.00000  -0.07847  -0.07878   0.78951
   D86        1.08522   0.00007   0.00000  -0.00663  -0.00628   1.07894
   D87       -0.91448   0.00159   0.00000   0.00001   0.00014  -0.91434
   D88        3.11630  -0.00219   0.00000  -0.02909  -0.02909   3.08721
         Item               Value     Threshold  Converged?
 Maximum Force            0.017049     0.000450     NO 
 RMS     Force            0.004164     0.000300     NO 
 Maximum Displacement     0.608592     0.001800     NO 
 RMS     Displacement     0.193205     0.001200     NO 
 Predicted change in Energy=-8.668566D-03
 GradGradGradGradGradGradGradGradGradGradGradGradGradGradGradGradGradGrad

                          Input orientation:                          
 ---------------------------------------------------------------------
 Center     Atomic      Atomic             Coordinates (Angstroms)
 Number     Number       Type             X           Y           Z
 ---------------------------------------------------------------------
      1          6           0       -0.708626    2.554973   -2.006252
      2          6           0        1.476402    6.532734    1.889589
      3          6           0       -0.744304    0.665415   -0.468926
      4          6           0       -2.500484    2.372924   -0.226484
      5          6           0       -2.949967    1.590525   -4.506323
      6          6           0       -0.276094    5.442790   -0.702737
      7          6           0       -0.326572    5.055506   -2.191718
      8          6           0        0.668853    6.634812   -0.480914
      9          6           0       -1.271615    3.890736   -2.547234
     10          7           0        1.466190    7.058002    3.127581
     11          7           0        0.749909    7.097365    0.918914
     12          7           0       -1.329930    3.851732   -4.023442
     13          7           0       -1.286872    1.943602   -0.922279
     14          7           0        2.223759    5.449351    1.638944
     15          8           0        0.286623    2.086906   -2.559945
     16          8           0       -2.491779    3.531621   -6.223566
     17          8           0       -3.837295    4.050129   -4.114393
     18         16           0       -2.751017    3.357155   -4.800562
     19          1           0       -0.466675    0.720782    0.590911
     20          1           0        0.136428    0.430637   -1.063053
     21          1           0       -1.486086   -0.133584   -0.591898
     22          1           0       -3.372593    1.777467   -0.525902
     23          1           0       -2.720542    3.422101   -0.409926
     24          1           0       -2.357757    2.243983    0.851795
     25          1           0       -3.795682    1.253429   -5.111940
     26          1           0       -2.042761    1.068988   -4.815357
     27          1           0       -3.165482    1.410804   -3.451868
     28          1           0       -1.274831    5.723878   -0.346248
     29          1           0        0.043932    4.585054   -0.096396
     30          1           0       -0.643168    5.918586   -2.788238
     31          1           0        0.681515    4.789557   -2.536025
     32          1           0        1.683522    6.424504   -0.842595
     33          1           0        0.316357    7.494172   -1.056405
     34          1           0       -2.286848    4.107022   -2.217665
     35          1           0        0.907765    7.868297    3.354682
     36          1           0        2.012747    6.656970    3.876230
     37          1           0        0.287483    7.965759    1.154218
     38          1           0       -0.510525    3.375766   -4.404348
     39          1           0        2.782055    5.018850    2.362113
     40          1           0        2.275517    5.045759    0.715366
 ---------------------------------------------------------------------
                    Distance matrix (angstroms):
                    1          2          3          4          5
     1  C    0.000000
     2  C    5.981179   0.000000
     3  C    2.436201   6.702206   0.000000
     4  C    2.532088   6.131673   2.461409   0.000000
     5  C    3.493441   9.215523   4.692692   4.373924   0.000000
     6  C    3.197769   3.313513   4.805955   3.820839   6.037948
     7  C    2.536342   4.699998   4.734492   3.972944   4.923992
     8  C    4.568281   2.506360   6.134400   5.317248   7.398960
     9  C    1.547218   5.849542   3.872999   3.033110   3.456280
    10  N    7.166822   1.344855   7.660700   6.995300  10.376524
    11  N    5.596181   1.337464   6.747500   5.847849   8.570156
    12  N    2.477228   7.072991   4.809382   4.239571   2.823252
    13  N    1.372275   6.049993   1.460710   1.463319   3.966853
    14  N    5.501251   1.339807   6.011536   5.938241   8.911919
    15  O    1.231335   6.401509   2.730533   3.646206   3.809239
    16  O    4.681796   9.517164   6.662184   6.107999   2.631865
    17  O    4.058118   8.393241   5.857672   4.440261   2.643977
    18  S    3.552890   8.527220   5.480460   4.685474   1.801983
    19  H    3.188738   6.264255   1.096995   2.744829   5.736287
    20  H    2.473165   6.910081   1.088024   3.380183   4.767314
    21  H    3.135790   7.705446   1.097161   2.728573   4.520865
    22  H    3.145261   7.208322   2.854437   1.097631   4.007158
    23  H    2.710714   5.707727   3.392391   1.087588   4.493081
    24  H    3.314329   5.845611   2.615227   1.095300   5.430208
    25  H    4.568285  10.231683   5.586972   5.176726   1.093453
    26  H    3.446613   9.337737   4.554155   4.792444   1.091112
    27  H    3.071656   8.735698   3.913522   3.430889   1.091156
    28  H    3.621900   3.636275   5.087688   3.570079   6.098928
    29  H    2.887061   3.128828   4.015429   3.374092   6.113763
    30  H    3.453937   5.172216   5.743279   4.752255   5.196658
    31  H    2.684496   4.822506   4.828500   4.615108   5.225280
    32  H    4.695716   2.742160   6.261077   5.856689   7.632790
    33  H    5.133078   3.308919   6.935565   5.903435   7.577853
    34  H    2.223586   6.075826   4.157186   2.649064   3.465608
    35  H    7.719050   2.062420   8.320506   7.391890  10.774411
    36  H    7.670452   2.061514   7.898129   7.453494  10.980191
    37  H    6.344873   2.001964   7.549451   6.399915   9.119563
    38  H    2.542403   7.316281   4.784162   4.734995   3.024626
    39  H    6.110495   2.054228   6.277132   6.450347   9.580444
    40  H    4.745137   2.056326   5.450622   5.553496   8.155389
                    6          7          8          9         10
     6  C    0.000000
     7  C    1.539351   0.000000
     8  C    1.537220   2.532179   0.000000
     9  C    2.608085   1.541488   3.945256   0.000000
    10  N    4.507305   5.959776   3.719688   7.051998   0.000000
    11  N    2.533782   3.873504   1.476497   5.136459   2.322244
    12  N    3.830029   2.410604   4.928506   1.477874   8.320792
    13  N    3.648862   3.495368   5.101678   2.536147   7.080806
    14  N    3.425314   4.618796   2.883895   5.671950   2.318989
    15  O    3.876576   3.053553   5.015170   2.383710   7.645334
    16  O    6.248310   4.823499   7.252409   3.890139  10.749178
    17  O    5.124554   4.127062   6.339410   3.010665   9.466807
    18  S    5.221809   3.945680   6.410764   2.747876   9.712700
    19  H    4.899715   5.152910   6.116697   4.532603   7.094436
    20  H    5.041992   4.783060   6.254131   4.019660   7.953091
    21  H    5.707216   5.552526   7.104032   4.479340   8.617968
    22  H    4.801476   4.774801   6.318948   3.600805   8.040262
    23  H    3.185004   3.402042   4.670605   2.624327   6.577421
    24  H    4.120954   4.614471   5.496895   3.930000   6.555650
    25  H    7.027043   5.917619   8.386761   4.461392  11.369700
    26  H    6.258187   5.071599   7.557688   3.701528  10.548521
    27  H    5.671261   4.788658   7.128742   3.248871   9.830178
    28  H    1.097074   2.179834   2.150777   2.864395   4.621750
    29  H    1.098079   2.179214   2.177129   2.866941   4.304918
    30  H    2.170355   1.095891   2.749204   2.136634   6.383148
    31  H    2.169026   1.097959   2.761993   2.150052   6.151259
    32  H    2.196228   2.781145   1.097542   4.249542   4.026270
    33  H    2.164311   2.765752   1.092676   4.210579   4.360975
    34  H    2.849986   2.177838   4.259366   1.089079   7.166955
    35  H    4.873115   6.340184   4.036132   7.443339   1.009946
    36  H    5.261174   6.697543   4.559742   7.726575   1.009963
    37  H    3.182966   4.476821   2.142550   5.721656   2.471343
    38  H    4.246113   2.784079   5.235040   2.072034   8.613723
    39  H    4.350322   5.513826   3.893554   6.465800   2.544716
    40  H    2.946076   3.901550   2.556862   4.955883   3.243904
                   11         12         13         14         15
    11  N    0.000000
    12  N    6.267914   0.000000
    13  N    5.839498   3.641431   0.000000
    14  N    2.325216   6.873406   5.583429   0.000000
    15  O    6.117336   2.805295   2.275605   5.717448   0.000000
    16  O    8.616153   2.508567   5.663678   9.366592   4.819630
    17  O    7.460714   2.516846   4.596923   8.473198   4.824651
    18  S    7.678414   1.693520   4.379832   8.401959   3.982606
    19  H    6.499882   5.642722   2.111340   5.540413   3.515913
    20  H    6.982107   4.755838   2.081986   6.070028   2.237514
    21  H    7.718086   5.261427   2.112709   7.064614   3.456340
    22  H    6.883591   4.550585   2.129541   7.034803   4.197969
    23  H    5.226606   3.895623   2.122232   5.723087   3.930441
    24  H    5.763454   5.235381   2.093887   5.646617   4.319421
    25  H    9.549094   3.743787   4.931909   9.970651   4.885957
    26  H    8.776229   2.979752   4.061080   8.890938   3.398392
    27  H    8.171352   3.107101   3.195602   8.442166   3.629004
    28  H    2.754391   4.126709   3.823931   4.031934   4.534994
    29  H    2.800172   4.224565   3.070894   2.917201   3.516919
    30  H    4.131968   2.503849   4.438092   5.295224   3.949482
    31  H    4.155389   2.671673   3.818139   4.499357   2.731454
    32  H    2.104113   5.081126   5.376623   2.720444   4.869844
    33  H    2.060900   4.978046   5.779027   3.883862   5.612490
    34  H    5.291708   2.059537   2.712630   6.084477   3.289495
    35  H    2.559730   8.693491   7.629603   3.244518   8.294162
    36  H    3.245678   9.024836   7.491930   2.551140   8.080182
    37  H    1.011589   6.808040   6.561769   3.211920   6.953843
    38  H    6.616352   1.021301   3.844296   6.949636   2.387138
    39  H    3.245407   7.684132   6.066346   1.009949   6.249011
    40  H    2.564761   6.072993   4.999588   1.009239   4.841299
                   16         17         18         19         20
    16  O    0.000000
    17  O    2.554971   0.000000
    18  S    1.456909   1.459808   0.000000
    19  H    7.644538   6.677239   6.421578   0.000000
    20  H    6.569206   6.180767   5.556151   1.784241   0.000000
    21  H    6.794176   5.953118   5.612322   1.779937   1.781260
    22  H    6.026298   4.272962   4.599401   3.287585   3.796803
    23  H    5.819170   3.919775   4.391222   3.657692   4.187805
    24  H    7.192823   5.487643   5.774335   2.442211   3.629853
    25  H    2.850620   2.969574   2.369377   6.624841   5.703680
    26  H    2.872147   3.549494   2.395319   5.642077   4.385903
    27  H    3.554441   2.802911   2.403963   4.909558   4.191632
    28  H    6.389822   4.854541   5.255608   5.153868   5.524841
    29  H    6.714295   5.611984   5.607910   3.957993   4.266399
    30  H    4.573449   3.930937   3.879871   6.202175   5.805310
    31  H    5.024953   4.843309   4.354558   5.258422   4.633244
    32  H    7.399781   6.842641   6.688742   6.261847   6.194235
    33  H    7.091332   6.202059   6.367291   7.014670   7.065829
    34  H    4.052199   2.450448   2.729305   4.761066   4.552055
    35  H   11.050180   9.637483  10.012246   7.785530   8.685052
    36  H   11.491929  10.240540  10.434027   7.223516   8.166046
    37  H    9.045307   7.752691   8.119797   7.305872   7.856028
    38  H    2.694292   3.406793   2.275331   5.657162   4.500732
    39  H   10.185237   9.311248   9.202175   5.671401   6.307361
    40  H    8.553858   7.853936   7.651332   5.122552   5.388676
                   21         22         23         24         25
    21  H    0.000000
    22  H    2.686146   0.000000
    23  H    3.768273   1.772975   0.000000
    24  H    2.914941   1.773578   1.763948   0.000000
    25  H    5.262017   4.635231   5.288478   6.214095   0.000000
    26  H    4.426474   4.546407   5.040272   5.796244   1.787375
    27  H    3.658543   2.956115   3.673785   4.457368   1.782627
    28  H    5.866416   4.472923   2.718881   3.836366   7.003673
    29  H    4.985180   4.442934   3.015473   3.485368   7.141292
    30  H    6.493318   5.451311   4.025455   5.449070   6.091111
    31  H    5.719742   5.435906   4.238422   5.214830   6.259779
    32  H    7.288195   6.874558   5.347655   6.056373   8.659619
    33  H    7.851574   6.824257   5.120786   6.193270   8.503123
    34  H    4.611624   3.076968   1.981194   3.591313   4.335482
    35  H    9.237754   8.395153   6.863348   6.968571  11.728708
    36  H    8.849724   8.496481   7.158179   6.908181  11.988465
    37  H    8.473124   7.383354   5.669179   6.310901  10.049495
    38  H    5.272763   5.078221   4.565274   5.685089   3.974576
    39  H    7.313739   7.531725   6.364933   6.033126  10.644552
    40  H    6.533314   6.642561   5.372444   5.416252   9.230315
                   26         27         28         29         30
    26  H    0.000000
    27  H    1.799011   0.000000
    28  H    6.498512   5.641104   0.000000
    29  H    6.243845   5.624535   1.760251   0.000000
    30  H    5.439363   5.207934   2.529867   3.081628   0.000000
    31  H    5.143897   5.201359   3.081456   2.529846   1.758722
    32  H    7.638690   7.447036   3.080437   2.574616   3.074893
    33  H    7.808850   7.407348   2.483977   3.075516   2.530297
    34  H    4.004651   3.092709   2.672191   3.187607   2.511773
    35  H   11.031126  10.228376   4.801993   4.841057   6.628894
    36  H   11.100287  10.394101   5.432140   4.893958   7.212089
    37  H    9.414421   8.723900   3.117411   3.612827   4.538721
    38  H    2.799625   3.437600   4.750365   4.508686   3.015848
    39  H    9.507699   9.066067   4.928550   3.705369   6.250423
    40  H    8.065428   7.757784   3.767206   2.418920   4.642821
                   31         32         33         34         35
    31  H    0.000000
    32  H    2.558276   0.000000
    33  H    3.104441   1.749013   0.000000
[...]
 00039,0.00005063,0.00005218,0.00001802,-0.00002109,-0.00001807,0.00001
 548,0.00000975,0.00000465,-0.00002612,0.00000496,-0.00000427,0.0000154
 7,-0.00000224,0.00000128,-0.00000171,0.00000830,0.00000247,0.00000005,
 -0.00000690,-0.00000166,0.00000272,0.00000049,-0.00000196,-0.00000086,
 -0.00000039,0.00000038,-0.00000006,-0.00000080,-0.00000113,-0.00000187
 ,-0.00002657,-0.00000812,0.00000966,-0.00000292,0.00001021,0.00002391,
 -0.00000620,-0.00002282,-0.00001877,0.00000876,-0.00000092,0.00000050,
 0.00002796,0.00006510,0.00002893,-0.00005939,-0.00009104,-0.00022830,0
 .00000414,-0.00000097,0.00000985,0.00668090,-0.00873548,0.02781271,-0.
 01110939,0.18044867,-0.00070928,-0.00039469,-0.00006609,-0.00285020,0.
 01716502,-0.02287387,0.00002433,-0.00004271,0.00007838,-0.00010158,-0.
 00002953,-0.00004205,0.00002181,0.00000007,0.00001393,0.00004440,-0.00
 005074,-0.00032591,-0.00006215,-0.00000045,0.00000864,-0.00122301,0.00
 060027,0.00046397,0.00001771,-0.00003773,-0.00008931,-0.04611635,0.176
 07148,-0.34376023,-0.00015216,-0.00449000,-0.00112206,0.00009552,0.000
 03115,0.00009741,0.00021475,0.00029298,-0.00008801,0.00167693,0.002720
 47,0.00303966,0.00070795,0.00052576,0.00066285,0.00004289,-0.00000464,
 0.00006370,0.00006105,0.00001083,0.00003946,-0.00017977,-0.00001342,-0
 .00014487,-0.00000462,-0.00000089,-0.00001901,0.00000423,-0.00003782,-
 0.00000558,0.00000457,0.00002433,0.00000154,0.00002134,0.00002052,0.00
 001335,0.00000078,-0.00000148,0.00000108,0.00002727,0.00001189,-0.0000
 0451,-0.00000136,0.00000651,0.00000333,-0.00000110,0.00000010,-0.00000
 477,-0.00000530,-0.00000069,-0.00000142,-0.00000250,-0.00001234,0.0000
 1192,-0.00004223,-0.00000360,0.00000125,0.00000296,-0.00001101,0.00000
 349,-0.00000153,0.00000860,-0.00000394,0.00005509,-0.00000244,0.000086
 06,-0.00001969,-0.00001497,0.00000108,-0.00000979,-0.00000585,0.000006
 80,0.00179961,-0.00403178,0.00800928,0.04650196,-0.18583675,0.35708335
 ,-0.00003612,-0.00008625,-0.00001412,-0.00406607,0.00305012,0.00736329
 ,0.00002806,-0.00001597,0.00000574,-0.00001649,-0.00001065,-0.00001360
 ,0.00000644,-0.00000002,0.00001623,0.00099857,-0.00085345,-0.00015933,
 -0.00047892,0.00007081,-0.00048839,0.00012913,-0.00605068,0.00060944,-
 0.00006119,-0.00002841,0.00000789,-0.00297939,-0.00036407,-0.00005257,
 -0.03560405,0.10603512,0.00153237,0.00005346,0.00007405,0.00007353,-0.
 00000077,0.00006403,-0.00000269,0.00349773,0.00161443,-0.00061121,0.00
 004932,0.00009785,0.00013078,-0.00000793,-0.00000005,0.00006200,-0.000
 01106,0.00002994,0.00006938,-0.00002301,-0.00002290,-0.00016286,-0.000
 00619,-0.00000669,0.00000061,0.00000465,-0.00001440,-0.00000400,0.0000
 0298,0.00001028,0.00000535,-0.00000002,0.00000849,0.00000653,-0.000002
 33,-0.00000311,-0.00000988,0.00000400,-0.00000658,-0.00000002,0.000000
 38,0.00000491,0.00000027,0.00000052,0.00000397,-0.00000060,-0.00000128
 ,-0.00000216,-0.00000076,-0.00050056,0.00032929,-0.00049560,-0.0001638
 7,-0.00031922,0.00002718,-0.00003904,-0.00007574,-0.00004497,-0.000111
 84,0.00014415,0.00012951,-0.00004197,0.00070501,0.00022361,0.00024656,
 0.00021931,-0.00011015,-0.00001540,-0.00002998,-0.00001472,0.00026708,
 0.00001951,-0.00229879,-0.00073529,-0.00023811,0.00038083,0.03773643,-
 0.00035150,-0.00021268,-0.00007595,0.00388529,-0.02181863,-0.00095424,
 0.00001816,-0.00001684,0.00001336,-0.00006028,-0.00002369,-0.00003077,
 0.00001937,-0.00000706,0.00001748,-0.00003332,-0.00011957,-0.00010866,
 -0.00010916,0.00000038,-0.00004048,0.00167833,-0.00372239,-0.00108999,
 -0.00003139,-0.00007049,-0.00004586,-0.00155045,0.00136054,-0.00371771
 ,0.09946273,-0.40725897,-0.06597168,0.00009617,0.00005238,0.00011604,0
 .00010026,0.00014438,-0.00001799,0.00240466,0.00363420,0.00236606,0.00
 030959,0.00025562,0.00031837,0.00002791,-0.00004191,0.00008647,0.00004
 777,-0.00000588,0.00005846,-0.00016019,0.00004636,-0.00019643,-0.00001
 172,-0.00000890,-0.00000316,0.00000751,-0.00002095,-0.00000895,0.00000
 350,0.00001467,0.00000770,0.00000928,0.00001539,0.00000910,-0.00000080
 ,-0.00000209,-0.00000529,0.00001149,0.00000247,-0.00000170,0.00000003,
 0.00000828,0.00000310,-0.00000109,0.00000169,-0.00000489,-0.00000504,-
 0.00000307,-0.00000234,-0.00011006,-0.00003994,-0.00011748,-0.00015521
 ,-0.00021630,0.00002515,-0.00000600,0.00000238,0.00002627,-0.00001266,
 0.00007974,0.00008492,-0.00083860,0.00124379,-0.00050357,-0.00010151,0
 .00107224,0.00039297,-0.00002034,-0.00001130,-0.00000688,0.00045566,0.
 00100752,0.00026178,-0.00061297,-0.00010319,0.00028230,-0.10399593,0.4
 2553748,0.00013965,0.00011042,0.00003527,-0.00621813,0.03473189,0.0102
 4579,-0.00003183,0.00001529,-0.00001864,0.00001549,-0.00001042,0.00000
 630,-0.00001024,0.00000436,-0.00000915,0.00087826,-0.00032818,-0.00037
 092,-0.00030940,0.00008966,-0.00037834,0.01054418,-0.02854450,-0.00022
 023,-0.00007288,0.00008328,0.00001995,0.00145544,-0.00057302,-0.000716
 48,0.00631787,-0.07640663,-0.08095411,-0.00004799,-0.00003936,-0.00005
 112,-0.00005479,-0.00009120,0.00002219,-0.00309692,0.00177014,-0.00551
 077,-0.00016083,-0.00017123,0.00023733,-0.00001927,0.00001896,-0.00004
 837,-0.00002875,0.00000363,-0.00002502,0.00009515,-0.00001642,0.000101
 31,-0.00000499,-0.00000820,0.00000905,0.00000164,0.00000215,-0.0000158
 0,0.00000398,-0.00000459,0.00000626,-0.00000527,-0.00000546,-0.0000030
 0,0.00000637,0.00000203,0.00000281,-0.00000618,-0.00000261,0.00000110,
 -0.00000038,-0.00000494,-0.00000155,0.00000072,-0.00000058,0.00000254,
 0.00000168,0.00000131,0.00000038,-0.00068293,0.00007127,-0.00008579,-0
 .00001722,0.00012784,0.00004962,-0.00014403,-0.00010331,-0.00004409,-0
 .00013170,0.00009159,0.00022500,-0.00180574,-0.00151745,-0.00570573,0.
 00048039,0.00053655,0.00077095,-0.00000656,-0.00003479,0.00001006,-0.0
 0230299,0.00019110,-0.00102929,0.00050044,-0.00031873,-0.00014145,-0.0
 0529120,0.06945043,0.08377055,0.00165780,-0.00051078,0.00066867,0.0000
 5261,-0.00008228,0.00008835,0.00009157,-0.00003803,0.00002694,0.000083
 43,0.00003483,0.00004563,0.00037223,0.00046458,-0.00118852,-0.00032305
 ,-0.00037502,-0.00000753,0.00193618,-0.00059189,-0.00192939,0.00016911
 ,-0.00007505,0.00002234,0.00573051,-0.00261471,-0.00370684,-0.00002234
 ,-0.00000224,-0.00004487,-0.00012779,0.00003340,-0.00009913,-0.3083434
 9,-0.00317229,0.16147431,-0.00018880,0.00020649,-0.00000127,-0.0000480
 3,0.00004307,-0.00000117,-0.00094084,0.00008216,0.00004186,0.00481589,
 -0.00086922,0.00036320,-0.00372470,0.00215768,-0.00271130,-0.02359957,
 -0.00533200,0.01791712,-0.00001837,0.00002004,-0.00001776,-0.00000611,
 -0.00001677,-0.00002553,0.00001203,0.00002320,-0.00001554,0.00000777,-
 0.00005244,0.00000267,-0.00013876,0.00009627,-0.00008471,-0.00003459,0
 .00000962,-0.00005762,0.00013341,-0.00015423,-0.00025699,-0.00000880,-
 0.00067510,-0.00074424,0.00007162,0.00025430,0.00018321,-0.00002779,-0
 .00005588,-0.00005488,-0.00004384,0.00001472,0.00005613,-0.00014718,0.
 00032581,0.00014737,-0.00036540,0.00043655,0.00015906,-0.00001451,0.00
 000661,-0.00004224,-0.00002037,-0.00002650,-0.00000902,0.00010757,-0.0
 0107540,-0.00138971,0.00000718,0.00000576,0.00000205,0.00001109,-0.000
 00459,0.00000058,0.00001682,0.00000667,0.00000599,0.32280394,0.0002164
 5,0.00104990,0.00118144,-0.00019329,0.00051947,-0.00050242,0.00001263,
 0.00006554,0.00008875,-0.00073437,0.00033627,0.00028735,-0.00037979,-0
 .00041646,0.00059775,-0.00018334,0.00015685,-0.00023630,0.00243293,0.0
 0118412,0.00025666,-0.00041494,-0.00015902,-0.00013214,0.01831840,-0.0
 0297583,-0.01569474,0.00005863,-0.00002362,0.00023421,0.00033174,-0.00
 012328,0.00051120,-0.04513944,-0.01646985,0.01481963,0.00002259,-0.000
 78998,-0.00008616,0.00000892,-0.00035296,0.00000537,-0.00022560,-0.000
 68625,-0.00018338,-0.00334722,-0.00013175,-0.00033956,0.00236992,0.001
 26510,0.00035038,0.01628956,-0.00194912,-0.00089064,0.00003953,-0.0000
 2484,-0.00003348,0.00001880,0.00003517,0.00006426,-0.00004641,-0.00006
 973,0.00005523,-0.00014311,-0.00005808,0.00004563,0.00027611,-0.000157
 88,-0.00015666,0.00019795,-0.00018761,0.00012418,0.00033855,-0.0002086
 9,-0.00032365,-0.00014322,-0.00007320,-0.00077980,-0.00031975,-0.00008
 499,-0.00014605,0.00003931,0.00017518,0.00023469,-0.00008266,0.0000501
 2,0.00043018,0.00024889,-0.00063366,0.00000203,-0.00113932,-0.00004411
 ,-0.00020413,0.00000478,0.00004265,-0.00002836,-0.00002211,-0.00003673
 ,-0.00000957,-0.00024489,-0.00202213,-0.00361708,-0.00001233,-0.000027
 26,-0.00002553,-0.00001503,0.00002535,-0.00001302,-0.00001889,-0.00001
 174,0.00001916,0.01151414,0.02253243,0.00256188,-0.00109131,-0.0002289
 3,0.00000818,-0.00003803,-0.00004704,0.00006424,-0.00000661,-0.0000556
 7,0.00015502,-0.00022195,-0.00001208,0.00077806,0.00005724,-0.00069077
 ,-0.00024601,0.00041271,-0.00005511,0.00036762,0.00124753,0.00136305,-
 0.00004650,-0.00010089,0.00006571,0.02627600,0.00256982,-0.01621940,0.
 00000295,0.00002575,0.00003924,0.00003509,0.00003513,0.00002968,0.1660
 9691,-0.00548081,-0.16663135,-0.00025872,0.00062826,0.00004872,-0.0000
 0396,0.00004419,0.00004099,-0.00115815,0.00006800,0.00015673,0.0015391
 6,0.00019642,-0.00177641,-0.00699390,0.00199321,-0.00047104,-0.0170086
 7,-0.00025763,0.01451820,-0.00003680,0.00001328,0.00000102,-0.00001882
 ,0.00000178,-0.00004737,-0.00000132,0.00003612,-0.00002846,-0.00000219
 ,0.00006600,-0.00002073,-0.00019578,-0.00009816,-0.00015120,-0.0000671
 6,0.00003379,-0.00001551,0.00023768,-0.00003173,-0.00017448,-0.0004825
 6,-0.00079234,-0.00064931,0.00008839,0.00015415,0.00000589,0.00000747,
 0.00009202,0.00014531,0.00005607,0.00008982,0.00015580,-0.00019739,-0.
 00012040,0.00019061,-0.00094666,-0.00091364,0.00037591,-0.00002786,-0.
 00002295,-0.00002552,-0.00002476,0.00000662,-0.00000874,-0.00172345,-0
 .00252470,-0.00487423,0.00000050,-0.00000676,-0.00000151,0.00000045,0.
 00000044,-0.00000564,-0.00000482,-0.00000578,0.00000853,-0.16881765,0.
 00399472,0.17513231,0.00018842,0.00019067,-0.00029032,-0.00188634,-0.0
 0366094,0.00480808,0.00000355,0.00009728,-0.00015952,-0.00002957,-0.00
 004124,-0.00001985,0.00000359,0.00000087,0.00000812,-0.00010454,0.0000
 3654,0.00010540,0.00002669,-0.00000828,0.00003377,-0.00051319,-0.00067
 754,0.00021775,0.00005294,-0.00001860,-0.00009872,-0.00352813,-0.00078
 853,0.00075816,0.00348250,-0.00083047,-0.00119009,0.00000425,-0.000014
 36,0.00006193,-0.00011695,-0.00011748,0.00018343,-0.10393272,0.1000859
 5,-0.16013621,-0.00042282,-0.00037991,0.00013181,-0.00001295,-0.000025
 28,0.00005609,-0.00001456,0.00000043,0.00006909,0.00000829,0.00001491,
 -0.00013399,-0.00011598,-0.00012143,0.00007034,0.00012199,-0.00007163,
 -0.00010577,0.00004429,0.00001953,0.00009643,-0.00000233,0.00001444,0.
 00000924,0.00000694,0.00000054,-0.00001259,-0.00002086,-0.00001969,0.0
 0000012,0.00000006,0.00000263,-0.00000033,0.00000045,0.00000194,0.0000
 0013,-0.00000139,-0.00000299,-0.00000381,0.00000135,0.00000800,-0.0000
 2597,0.00001127,0.00002276,-0.00003843,-0.00000594,-0.00000448,0.00000
 550,-0.00000609,0.00000689,0.00000766,0.00011655,0.00011756,-0.0003731
 8,0.00017824,-0.00025026,-0.00000613,-0.00001119,-0.00000361,-0.000005
 50,-0.00069288,-0.00017614,0.00004980,0.00192002,0.00067912,0.00026596
 ,0.00259029,-0.00025462,0.00022917,0.00001414,-0.00000202,0.00000506,0
 .10673509,0.00108280,0.00064246,-0.00008891,0.01760152,-0.01934708,0.0
 3198420,-0.00032330,0.00016800,-0.00023757,0.00004584,-0.00006967,0.00
 011537,-0.00001127,-0.00000318,-0.00000803,0.00001615,-0.00005432,0.00
 008851,-0.00001998,0.00004925,0.00006658,0.00021535,-0.00002362,-0.000
 44284,0.00005812,0.00008609,0.00003009,-0.00066767,0.00307117,0.000594
 78,0.00037686,-0.00386323,-0.00475475,-0.00005402,-0.00012131,-0.00004
 281,-0.00028627,-0.00055894,0.00030240,0.09100991,-0.17158184,0.134834
 13,-0.00092214,-0.00179188,-0.00122706,-0.00003233,-0.00004373,-0.0000
 1870,-0.00002714,-0.00003554,-0.00000946,0.00010266,0.00008217,0.00005
 196,-0.00009382,-0.00008515,0.00008646,0.00004203,-0.00004619,-0.00021
 771,0.00008095,-0.00001925,0.00008212,-0.00002083,-0.00001005,-0.00002
 089,0.00002470,0.00000718,0.00001199,-0.00006951,-0.00001051,-0.000002
 97,0.00000104,-0.00000525,-0.00000222,-0.00000084,0.00000104,-0.000000
 58,-0.00000172,-0.00000147,-0.00000273,-0.00002068,0.00001812,-0.00005
 756,0.00014353,0.00001778,-0.00001958,-0.00001346,-0.00003125,-0.00002
 377,0.00000426,-0.00000744,0.00000700,-0.00014817,0.00012785,0.0001506
 8,-0.00007593,0.00013739,0.00001756,0.00000911,0.00000525,0.00000857,-
 0.00055607,0.00012042,0.00005018,0.00076719,-0.00122279,-0.00202757,-0
 .00038341,-0.00064608,0.00134578,-0.00000865,0.00004093,0.00000157,-0.
 10094413,0.17701115,0.00026423,-0.00027346,0.00007127,0.00613956,0.001
 58135,0.00556213,-0.00013920,-0.00001838,0.00004545,-0.00001873,-0.000
 01260,0.00007674,0.00001244,0.00000210,0.00000637,-0.00006517,0.000100
 86,0.00017744,0.00008025,0.00002264,-0.00006518,0.00043115,-0.00013861
 ,-0.00100261,-0.00000840,-0.00007910,0.00007552,0.00114003,-0.00250381
 ,-0.00158401,-0.00167366,-0.00393273,0.00256394,0.00006717,0.00008945,
 0.00003987,-0.00007765,-0.00000065,-0.00004605,-0.15746768,0.14085849,
 -0.26127371,-0.00027903,-0.00094407,-0.00106445,0.00003905,0.00002658,
 0.00001350,0.00004450,0.00001718,-0.00000775,-0.00012789,-0.00004539,-
 0.00003408,0.00004797,0.00001484,-0.00001096,-0.00002988,-0.00006421,-
 0.00001165,0.00003447,0.00000215,-0.00000467,0.00000511,-0.00000145,-0
 .00000443,-0.00000302,-0.00000145,0.00000915,-0.00001314,0.00000449,-0
 .00001218,-0.00000091,0.00000321,0.00000208,-0.00000081,-0.00000086,-0
 .00000314,-0.00000200,0.00000148,0.00000197,-0.00001806,-0.00000129,-0
 .00000560,0.00002374,-0.00001929,-0.00002586,0.00001125,0.00002240,0.0
 0001569,-0.00000878,-0.00000060,-0.00000473,-0.00030828,0.00018684,0.0
 0017669,-0.00006833,0.00021224,0.00013923,0.00000237,0.00000258,-0.000
 00684,0.00026802,0.00030654,-0.00017630,-0.00007340,-0.00167298,-0.000
 11490,-0.00088366,0.00003311,0.00036226,-0.00000462,-0.00002195,-0.000
 00497,0.15895222,-0.15156864,0.26557058,-0.01236721,-0.00516623,-0.002
 92581,-0.00003280,-0.00566018,0.01174801,0.00081640,-0.00044184,0.0007
 3380,-0.00094004,-0.00018864,-0.00063909,0.00009931,-0.00003308,0.0000
 7360,0.00073134,0.00072299,-0.00141658,-0.00002024,-0.00000845,0.00011
 695,0.00190953,0.00062023,0.00077024,0.00015162,0.00011971,-0.00102103
 ,0.00375789,0.00452678,-0.00123134,-0.00279906,0.00154899,-0.00225443,
 0.00034407,-0.00029653,0.00052372,0.00227465,0.00321875,-0.00108142,-0
 .06958169,-0.04913684,-0.11499570,0.00464133,0.00430346,0.00773310,0.0
 0004473,-0.00027829,0.00041183,0.00017810,-0.00006393,0.00035192,-0.00
 055431,0.00034326,-0.00092529,-0.00013365,0.00004023,-0.00016814,0.000
 16452,0.00000190,0.00006708,-0.00011160,0.00021799,-0.00003844,0.00022
 925,0.00021331,0.00015551,0.00006499,0.00001505,-0.00004849,0.00032574
 ,0.00006736,0.00002570,-0.00000224,0.00003415,0.00001603,-0.00000295,0
 .00000592,-0.00001721,-0.00002922,-0.00001972,-0.00002686,-0.00039313,
 -0.00039504,0.00041112,-0.00138626,0.00037958,0.00025549,-0.00009404,-
 0.00012333,0.00005101,-0.00002851,0.00011438,0.00008937,0.00038011,-0.
 00026408,0.00140315,-0.00059727,0.00022668,-0.00020698,-0.00013430,-0.
 00008549,0.00010704,0.00247941,0.00024569,0.00053906,-0.00081682,-0.00
 005916,-0.00048993,-0.00072964,-0.00012159,-0.00022619,0.00004944,0.00
 006788,-0.00001764,-0.00409249,-0.00690064,-0.00629126,0.07620509,-0.0
 1249220,-0.00685805,0.00015337,-0.00970324,-0.02205616,-0.02305422,0.0
 0006043,-0.00046532,0.00090024,-0.00133157,-0.00019896,-0.00050364,0.0
 0013231,-0.00005943,0.00008684,0.00050065,-0.00006019,0.00023308,-0.00
 003786,0.00062274,0.00041919,0.00094252,-0.00077265,0.00229401,0.00206
 952,0.00081226,-0.00138759,0.00021549,-0.00013808,0.00351653,-0.001208
 73,0.00328056,-0.00281248,0.00045448,-0.00083110,0.00057534,0.00296173
 ,0.00379612,-0.00072857,-0.05243012,-0.14886794,-0.12158658,0.01013607
 ,0.00279630,0.00431662,0.00002933,-0.00053433,0.00051879,0.00027234,-0
 .00016738,0.00041017,-0.00066341,0.00068709,-0.00104440,0.00001798,0.0
 0007613,-0.00021108,0.00010885,-0.00073361,-0.00007771,0.00003762,0.00
 026885,-0.00004934,0.00035827,0.00028185,0.00017155,0.00011869,0.00002
 816,-0.00000088,0.00033392,0.00013225,-0.00000050,-0.00000123,0.000040
 10,0.00002051,-0.00000901,0.00000521,-0.00003009,-0.00004589,-0.000027
 86,-0.00003832,-0.00026765,-0.00017543,-0.00019161,0.00057179,0.000250
 97,0.00023238,-0.00009357,-0.00039413,-0.00015991,-0.00001756,0.000058
 85,-0.00015020,-0.00060837,0.00007549,0.00184368,-0.00040784,0.0004500
 4,-0.00015987,0.00014084,-0.00029590,0.00054539,0.00054648,-0.00023839
 ,-0.00086552,-0.00005605,-0.00027551,-0.00070816,0.00004539,-0.0001178
 9,-0.00048521,-0.00000274,0.00023970,-0.00005490,0.00711358,0.01799352
 ,0.01781297,0.05220878,0.15137217,-0.01610578,-0.00454559,-0.00120104,
 0.00979944,-0.01732028,0.01228893,0.00094144,-0.00100074,0.00163756,-0
 .00132075,-0.00009696,-0.00124863,0.00019759,-0.00005930,0.00011618,-0
 .00013772,-0.00037107,-0.00065551,-0.00030336,0.00039426,0.00025423,-0
 .00039186,0.00317171,0.00390492,0.00049051,0.00074193,-0.00084476,-0.0
 0147416,0.00760746,0.00377365,-0.00066756,0.00591489,-0.00585154,0.000
 89258,-0.00056706,0.00089900,0.00535809,0.00549943,-0.00117624,-0.1171
 5749,-0.11498764,-0.25284625,0.01342466,0.00239567,0.00289141,0.000177
 11,-0.00046724,0.00063733,0.00043478,-0.00012373,0.00040044,-0.0012306
 0,0.00056690,-0.00127782,0.00009731,0.00033526,-0.00053284,-0.00004920
 ,-0.00009891,0.00040403,-0.00012687,0.00031677,-0.00027196,0.00036034,
 0.00029218,0.00020927,0.00008078,0.00001708,-0.00000406,0.00065616,0.0
 0023709,0.00006290,-0.00000424,0.00006103,0.00003126,-0.00000976,0.000
 00132,-0.00003916,-0.00005100,-0.00002466,-0.00003471,0.00013740,-0.00
 026949,0.00017377,-0.00026228,0.00046460,0.00036384,0.00004861,-0.0003
 3131,-0.00010069,0.00005658,0.00008002,-0.00034984,0.00149218,0.002344
 41,-0.00243250,0.00014797,-0.00078998,-0.00065091,0.00001591,-0.000097
 44,0.00026422,-0.00078574,-0.00008568,0.00084773,0.00033115,0.00012194
 ,-0.00087693,0.00001942,-0.00064331,-0.00055739,0.00000517,0.00012183,
 -0.00008228,-0.00352485,-0.00905553,-0.00944585,0.10843811,0.12025018,
 0.25132032\\0.00000469,-0.00000071,-0.00000083,-0.00000285,-0.00000087
 ,-0.00000209,0.00000130,0.00000074,-0.00000019,0.00000126,-0.00000040,
 0.00000263,-0.00000034,0.00000210,-0.00000077,0.00000231,-0.00000184,-
 0.00000645,-0.00000247,-0.00000003,-0.00000088,-0.00000264,-0.00000123
 ,-0.00000328,-0.00000070,0.00000853,0.00001819,-0.00000393,0.00000074,
 0.00000211,0.00001090,0.00000538,0.00000088,-0.00001308,0.00000165,-0.
 00002455,-0.00000318,0.00000294,0.00000019,-0.00000260,-0.00000260,-0.
 00000424,0.00000103,0.00000225,0.00000209,0.00000371,0.00001091,-0.000
 00776,-0.00000924,0.00000139,0.00000774,0.00001418,-0.00002161,0.00000
 517,-0.00000062,-0.00000048,0.00000067,-0.00000173,-0.00000034,0.00000
 050,0.00000004,-0.00000108,0.00000113,-0.00000150,-0.00000019,-0.00000
 057,0.00000107,0.00000265,0.00000003,0.00000034,-0.00000005,-0.0000001
 0,0.00000052,-0.00000021,0.00000016,-0.00000057,-0.00000294,0.00000081
 ,-0.00000014,0.00000058,0.00000057,-0.00000190,0.00000001,0.00000136,0
 .,-0.00000131,0.00000003,0.00000189,0.,0.00000101,0.00000099,-0.000000
 97,0.00000189,-0.00000039,0.00000057,0.00000013,0.00000154,-0.00000079
 ,-0.00000015,-0.00000128,-0.00000439,-0.00000076,0.00000267,0.00000028
 ,-0.00000146,0.00000065,0.00000082,0.00000002,-0.00000461,-0.00000029,
 0.00000078,0.00000240,0.00000055,0.00000239,0.00000087,-0.00000024,-0.
 00000072,0.00000139,0.00000050,0.00000429\\\@


 A BIRD IN THE HAND IS SAFER THAN ONE OVERHEAD.

                       -- NEWTON'S SEVENTH LAW
 Job cpu time:  0 days  4 hours 53 minutes 10.4 seconds.
 File lengths (MBytes):  RWF=    495 Int=      0 D2E=      0 Chk=      8 Scr=      1
 Normal termination of Gaussian 09 at Sat Feb 17 01:10:41 2018.
