 Entering Gaussian System, Link 0=g09
 Initial command:
 /home/fb_chem/chemsoft/lx24-amd64/Gaussian_09_C.01_NBO_3.1_64_istanbul-64/g09/l1.exe /local/2400093.1.parallel/Gau-20628.inp -scrdir=/local/2400093.1.parallel/
 Entering Link 1 = /home/fb_chem/chemsoft/lx24-amd64/Gaussian_09_C.01_NBO_3.1_64_istanbul-64/g09/l1.exe PID=     20629.
  
 Copyright (c) 1988,1990,1992,1993,1995,1998,2003,2009,2011,
            Gaussian, Inc.  All Rights Reserved.
  
 This is part of the Gaussian(R) 09 program.  It is based on
 the Gaussian(R) 03 system (copyright 2003, Gaussian, Inc.),
 the Gaussian(R) 98 system (copyright 1998, Gaussian, Inc.),
 the Gaussian(R) 94 system (copyright 1995, Gaussian, Inc.),
 the Gaussian 92(TM) system (copyright 1992, Gaussian, Inc.),
 the Gaussian 90(TM) system (copyright 1990, Gaussian, Inc.),
 the Gaussian 88(TM) system (copyright 1988, Gaussian, Inc.),
 the Gaussian 86(TM) system (copyright 1986, Carnegie Mellon
 University), and the Gaussian 82(TM) system (copyright 1983,
 Carnegie Mellon University). Gaussian is a federally registered
 trademark of Gaussian, Inc.
  
 This software contains proprietary and confidential information,
 including trade secrets, belonging to Gaussian, Inc.
  
 This software is provided under written license and may be
 used, copied, transmitted, or stored only in accord with that
 written license.
  
 The following legend is applicable only to US Government
 contracts under FAR:
  
                    RESTRICTED RIGHTS LEGEND
  
 Use, reproduction and disclosure by the US Government is
 subject to restrictions as set forth in subparagraphs (a)
 and (c) of the Commercial Computer Software - Restricted
 Rights clause in FAR 52.227-19.
  
 Gaussian, Inc.
 340 Quinnipiac St., Bldg. 40, Wallingford CT 06492
  
  
 ---------------------------------------------------------------
 Warning -- This program may not be used in any manner that
 competes with the business of Gaussian, Inc. or will provide
 assistance to any competitor of Gaussian, Inc.  The licensee
 of this program is prohibited from giving any competitor of
 Gaussian, Inc. access to this program.  By using this program,
 the user acknowledges that Gaussian, Inc. is engaged in the
 business of creating and licensing software in the field of
 computational chemistry and represents and warrants to the
 licensee that it is not a competitor of Gaussian, Inc. and that
 it will not use this program in any manner prohibited above.
 ---------------------------------------------------------------
  

 Cite this work as:
 Gaussian 09, Revision C.01,
 M. J. Frisch, G. W. Trucks, H. B. Schlegel, G. E. Scuseria, 
 M. A. Robb, J. R. Cheeseman, G. Scalmani, V. Barone, B. Mennucci, 
 G. A. Petersson, H. Nakatsuji, M. Caricato, X. Li, H. P. Hratchian, 
 A. F. Izmaylov, J. Bloino, G. Zheng, J. L. Sonnenberg, M. Hada, 
 M. Ehara, K. Toyota, R. Fukuda, J. Hasegawa, M. Ishida, T. Nakajima, 
 Y. Honda, O. Kitao, H. Nakai, T. Vreven, J. A. Montgomery, Jr., 
 J. E. Peralta, F. Ogliaro, M. Bearpark, J. J. Heyd, E. Brothers, 
 K. N. Kudin, V. N. Staroverov, T. Keith, R. Kobayashi, J. Normand, 
 K. Raghavachari, A. Rendell, J. C. Burant, S. S. Iyengar, J. Tomasi, 
 M. Cossi, N. Rega, J. M. Millam, M. Klene, J. E. Knox, J. B. Cross, 
 V. Bakken, C. Adamo, J. Jaramillo, R. Gomperts, R. E. Stratmann, 
 O. Yazyev, A. J. Austin, R. Cammi, C. Pomelli, J. W. Ochterski, 
 R. L. Martin, K. Morokuma, V. G. Zakrzewski, G. A. Voth, 
 P. Salvador, J. J. Dannenberg, S. Dapprich, A. D. Daniels, 
 O. Farkas, J. B. Foresman, J. V. Ortiz, J. Cioslowski, 
 and D. J. Fox, Gaussian, Inc., Wallingford CT, 2010.
 
 ******************************************
 Gaussian 09:  AM64L-G09RevC.01 23-Sep-2011
                17-Feb-2018 
 ******************************************
 %nprocs=2
 Will use up to    2 processors via shared memory.
 %chk=frag50-conf2.chk
 ----------------------------------------------------------------------
 #HF/6-31G* Geom=AllCheck Guess=Read Pop=(MK,ReadRadii) Integral=(Grid=
 UltraFine) iop(6/33=2)
 ----------------------------------------------------------------------
 1/29=7,38=1/1;
 2/12=2,40=1/2;
 3/5=1,6=6,7=1,11=9,14=-4,16=1,25=1,30=1,75=-5,116=-2/1,2,3;
 4/5=1/1;
 5/5=2,38=6/2;
 6/7=2,8=2,9=2,10=2,15=8,20=101,28=1,33=2/1,2;
 99/5=1,9=1/99;
 Structure from the checkpoint file:  frag50-conf2.chk
 -----------------------------
 Optimization for frag50-conf2
 -----------------------------
 Charge =  1 Multiplicity = 1
 Redundant internal coordinates found in file.
 C,0,-0.5678511411,3.0340279812,-0.9896779899
 C,0,1.4669671843,6.2871868079,1.6605518518
 C,0,-0.3702647862,1.0168477747,0.3488396494
 C,0,-2.434766241,1.3637807449,-0.9500329143
 C,0,-3.0394723059,1.9816136812,-5.1937683899
 C,0,-0.5364692897,6.1318709942,-1.0379838104
 C,0,-0.638036911,5.2345787207,-2.295417117
 C,0,0.9200695631,6.5355238272,-0.756333198
 C,0,-1.3224206933,3.8777894163,-2.043868655
 N,0,1.7705693847,6.8944014811,2.827172538
 N,0,1.1421733869,7.0447754725,0.6063083948
 N,0,-1.4610403152,3.074646676,-3.2781527167
 N,0,-1.1206485148,1.8803591548,-0.5635375895
 N,0,1.4980171368,4.9572891125,1.5820360342
 O,0,0.5367782538,3.4318765848,-0.5638002581
 O,0,-2.4139562433,4.558502311,-5.2226253068
 O,0,-3.9132118472,3.7049862452,-3.3435116853
 S,0,-2.7960064146,3.5075693556,-4.2747526855
 H,0,-0.8130673771,1.0401714133,1.3520596438
 H,0,0.6633065369,1.353944954,0.3959389868
 H,0,-0.4030767725,-0.0132879688,-0.0202978583
 H,0,-2.3221473932,0.5068558177,-1.6239374603
 H,0,-3.0440068676,2.1178000541,-1.4422171797
 H,0,-2.9561723518,1.0295929126,-0.0467447329
 H,0,-3.8746209769,2.1630145333,-5.8745393283
 H,0,-2.1362749334,1.7596786725,-5.7658999604
 H,0,-3.276048306,1.1778625567,-4.4963961924
 H,0,-1.1525248774,7.0303272657,-1.1553487983
 H,0,-0.9296127639,5.6052369798,-0.1614530291
 H,0,-1.20135632,5.7419216802,-3.0833388224
 H,0,0.3629834454,5.0438408058,-2.7021043994
 H,0,1.5790033683,5.6772484819,-0.8974307035
 H,0,1.2529245701,7.31788882,-1.4444909527
 H,0,-2.3398077069,4.0600188754,-1.6826605475
 H,0,2.0301063386,7.8697588951,2.8572549408
 H,0,1.8711830767,6.3644749584,3.6804243948
 H,0,0.8998029436,8.0091951528,0.7942517774
 H,0,-0.6083628634,3.1107605772,-3.8393785307
 H,0,1.9590666399,4.4280934786,2.3087814731
 H,0,1.1198246646,4.423034779,0.7837877971
 Recover connectivity data from disk.
                          Input orientation:                          
 ---------------------------------------------------------------------
 Center     Atomic      Atomic             Coordinates (Angstroms)
 Number     Number       Type             X           Y           Z
 ---------------------------------------------------------------------
      1          6           0       -0.567851    3.034028   -0.989678
      2          6           0        1.466967    6.287187    1.660552
      3          6           0       -0.370265    1.016848    0.348840
      4          6           0       -2.434766    1.363781   -0.950033
      5          6           0       -3.039472    1.981614   -5.193768
      6          6           0       -0.536469    6.131871   -1.037984
      7          6           0       -0.638037    5.234579   -2.295417
      8          6           0        0.920070    6.535524   -0.756333
      9          6           0       -1.322421    3.877789   -2.043869
     10          7           0        1.770569    6.894401    2.827173
     11          7           0        1.142173    7.044775    0.606308
     12          7           0       -1.461040    3.074647   -3.278153
     13          7           0       -1.120649    1.880359   -0.563538
     14          7           0        1.498017    4.957289    1.582036
     15          8           0        0.536778    3.431877   -0.563800
     16          8           0       -2.413956    4.558502   -5.222625
     17          8           0       -3.913212    3.704986   -3.343512
     18         16           0       -2.796006    3.507569   -4.274753
     19          1           0       -0.813067    1.040171    1.352060
     20          1           0        0.663307    1.353945    0.395939
     21          1           0       -0.403077   -0.013288   -0.020298
     22          1           0       -2.322147    0.506856   -1.623937
     23          1           0       -3.044007    2.117800   -1.442217
     24          1           0       -2.956172    1.029593   -0.046745
     25          1           0       -3.874621    2.163015   -5.874539
     26          1           0       -2.136275    1.759679   -5.765900
     27          1           0       -3.276048    1.177863   -4.496396
     28          1           0       -1.152525    7.030327   -1.155349
     29          1           0       -0.929613    5.605237   -0.161453
     30          1           0       -1.201356    5.741922   -3.083339
     31          1           0        0.362983    5.043841   -2.702104
     32          1           0        1.579003    5.677248   -0.897431
     33          1           0        1.252925    7.317889   -1.444491
     34          1           0       -2.339808    4.060019   -1.682661
     35          1           0        2.030106    7.869759    2.857255
     36          1           0        1.871183    6.364475    3.680424
     37          1           0        0.899803    8.009195    0.794252
     38          1           0       -0.608363    3.110761   -3.839379
     39          1           0        1.959067    4.428093    2.308781
     40          1           0        1.119825    4.423035    0.783788
 ---------------------------------------------------------------------
                    Distance matrix (angstroms):
                    1          2          3          4          5
     1  C    0.000000
     2  C    4.663394   0.000000
     3  C    2.428927   5.733453   0.000000
     4  C    2.505328   6.802838   2.463656   0.000000
     5  C    4.989074   9.264322   6.227033   4.330898   0.000000
     6  C    3.098379   3.364517   5.302298   5.132831   6.384372
     7  C    2.559747   4.603120   4.985283   4.474525   4.974848
     8  C    3.811670   2.490402   5.774267   6.167606   7.490454
     9  C    1.546812   5.225764   3.849239   2.958721   4.057785
    10  N    5.910926   1.349773   6.728368   7.908217  10.564444
    11  N    4.643000   1.338230   6.220102   6.891328   8.761430
    12  N    2.456940   6.579091   4.310383   3.048827   2.712149
    13  N    1.348381   5.573371   1.463270   1.463946   5.013100
    14  N    3.818437   1.332575   4.531923   5.898429   8.680725
    15  O    1.248944   3.737083   2.736422   3.640916   6.027390
    16  O    4.863123   8.088760   6.910949   5.334953   2.651878
    17  O    4.145136   7.788115   5.780313   3.660025   2.675235
    18  S    3.997578   7.818379   5.784939   3.972416   1.797889
    19  H    3.085341   5.729301   1.096845   2.834477   6.977898
    20  H    2.501672   5.155773   1.088174   3.377838   6.734194
    21  H    3.202028   6.783679   1.094769   2.624593   6.139626
    22  H    3.141089   7.652286   2.821664   1.095970   3.928506
    23  H    2.678733   6.881849   3.401305   1.087182   3.754025
    24  H    3.257447   7.079641   2.616021   1.095206   5.234991
    25  H    5.962823  10.115283   7.233578   5.192564   1.092625
    26  H    5.186156   9.414556   6.407857   4.841323   1.091950
    27  H    4.803827   9.301043   5.652063   3.649522   1.090097
    28  H    4.042239   3.917052   6.247916   5.813437   6.734903
    29  H    2.725425   3.086803   4.650439   4.569168   6.550294
    30  H    3.481010   5.470079   5.898889   5.023984   4.687483
    31  H    2.799679   4.668775   5.105153   4.943683   5.211749
    32  H    3.406480   2.632081   5.203092   5.892293   7.310715
    33  H    4.676916   3.278636   6.749363   7.021037   7.807534
    34  H    2.161646   5.534337   4.155356   2.795614   4.139707
    35  H    6.703176   2.062464   7.682208   8.761180  11.188827
    36  H    6.233027   2.061371   6.687351   8.061593  11.048769
    37  H    5.485317   2.009344   7.120701   7.636977   9.365149
    38  H    2.851021   6.681760   4.688532   3.838751   3.003271
    39  H    4.382758   2.029431   4.572062   6.270219   9.341248
    40  H    2.814742   2.089087   3.743215   5.000029   7.680590
                    6          7          8          9         10
     6  C    0.000000
     7  C    1.548092   0.000000
     8  C    1.537455   2.547338   0.000000
     9  C    2.590445   1.540304   3.708108   0.000000
    10  N    4.565448   5.898925   3.700494   6.511035   0.000000
    11  N    2.520899   3.855642   1.471550   4.809102   2.312949
    12  N    3.901257   2.511655   4.899687   1.479091   7.893594
    13  N    4.317606   3.805668   5.086478   2.494358   6.707956
    14  N    3.518989   4.435568   2.879725   4.718832   2.318848
    15  O    2.943923   2.761960   3.133147   2.417863   5.001001
    16  O    4.848883   3.489916   5.913722   3.429186   9.368347
    17  O    4.754747   3.763632   6.169769   2.903641   8.975248
    18  S    4.740162   3.399583   5.946176   2.699141   9.097340
    19  H    5.631538   5.561275   6.135795   4.454643   6.566822
    20  H    5.130709   4.898593   5.314360   4.033059   6.150901
    21  H    6.230285   5.724638   6.721562   4.481129   7.781324
    22  H    5.930665   5.063445   6.899967   3.541043   8.795650
    23  H    4.750149   4.028765   5.975000   2.534444   8.013972
    24  H    5.733303   5.302093   6.770823   3.843159   8.062101
    25  H    7.091357   5.720148   8.264619   4.912048  11.400613
    26  H    6.635408   5.134579   7.566089   4.359159  10.745683
    27  H    6.633861   5.316047   7.765308   4.137772  10.572692
    28  H    1.095684   2.188416   2.167877   3.279760   4.942007
    29  H    1.095542   2.185453   2.154215   2.584930   4.229044
    30  H    2.185775   1.093410   3.247338   2.137789   6.715258
    31  H    2.182229   1.097186   2.514257   2.152565   5.998231
    32  H    2.168331   2.658118   1.091210   3.601477   3.923115
    33  H    2.184907   2.939386   1.093823   4.338887   4.323703
    34  H    2.821384   2.156637   4.196785   1.094877   6.728114
    35  H    4.977997   6.372848   4.008788   7.155157   1.009746
    36  H    5.302289   6.579022   4.540781   7.010723   1.009447
    37  H    2.990704   4.428262   2.139260   5.482857   2.476644
    38  H    4.120690   2.625890   4.854923   2.078958   8.026092
    39  H    4.509035   5.347337   3.862086   5.478737   2.527239
    40  H    2.997046   3.637332   2.621924   3.775910   3.272085
                   11         12         13         14         15
    11  N    0.000000
    12  N    6.134141   0.000000
    13  N    5.758481   2.985184   0.000000
    14  N    2.331581   5.993480   4.574756   0.000000
    15  O    3.845607   3.389189   2.270302   2.802762   0.000000
    16  O    7.266642   2.625043   5.527404   7.859134   5.628567
    17  O    7.232717   2.532735   4.342342   7.423657   5.253932
    18  S    7.200406   1.721269   4.384946   7.405559   4.988422
    19  H    6.358803   5.098806   2.114246   4.553879   3.348560
    20  H    5.714816   4.579587   2.092893   3.884283   2.292359
    21  H    7.252358   4.611751   2.096644   5.557722   3.612185
    22  H    7.727866   3.173560   2.110583   6.684181   4.225292
    23  H    6.782009   2.606146   2.127854   6.151324   3.914133
    24  H    7.307896   4.106052   2.088067   6.157883   4.270716
    25  H    9.539455   3.660283   5.989240   9.605921   7.019573
    26  H    8.904241   2.893781   5.301946   8.799145   6.083034
    27  H    8.943095   2.894160   4.539452   8.603668   5.923136
    28  H    2.892972   4.499876   5.183959   4.337757   4.019020
    29  H    2.637049   4.049706   3.751384   3.058264   2.652486
    30  H    4.561037   2.686958   4.611678   5.446833   3.834774
    31  H    3.944169   2.745290   4.096614   4.432793   2.683464
    32  H    2.078986   4.656527   4.670757   2.583148   2.497847
    33  H    2.071867   5.360319   5.998054   3.846085   4.048404
    34  H    5.125655   2.070938   2.736732   5.117835   3.149787
    35  H    2.556518   8.533723   7.583006   3.223629   5.799004
    36  H    3.231788   8.387400   6.860726   2.553950   5.328622
    37  H    1.012014   6.819665   6.594577   3.208207   4.788313
    38  H    6.189102   1.021439   3.536588   6.102314   3.484807
    39  H    3.226880   6.689005   4.921972   1.010333   3.356647
    40  H    2.627836   4.997837   3.646945   1.032307   1.771534
                   16         17         18         19         20
    16  O    0.000000
    17  O    2.550946   0.000000
    18  S    1.465908   1.467764   0.000000
    19  H    7.626794   6.225795   6.456091   0.000000
    20  H    7.162890   6.360457   6.198411   1.786701   0.000000
    21  H    7.211734   6.098390   6.018549   1.777986   1.783186
    22  H    5.419854   3.964399   4.031829   3.379099   3.702755
    23  H    4.543729   2.624804   3.164841   3.734482   4.207905
    24  H    6.287841   4.352278   4.903272   2.559231   3.660847
    25  H    2.880433   2.963995   2.351713   7.928280   7.782434
    26  H    2.864554   3.579063   2.390374   7.275570   6.780157
    27  H    3.563613   2.849820   2.388954   6.347414   6.283667
    28  H    4.923806   4.844310   4.984128   6.502638   6.158332
    29  H    5.377211   4.757974   4.980248   4.810834   4.574009
    30  H    2.728997   3.401611   2.992442   6.475337   5.902261
    31  H    3.781531   4.526564   3.848710   5.817964   4.827359
    32  H    5.991880   6.327524   5.937552   5.681962   4.604591
    33  H    5.944285   6.583943   6.238811   7.176263   6.269247
    34  H    3.575659   2.315184   2.689286   4.545321   4.545559
    35  H    9.797886   9.545568   9.653269   7.549339   7.098031
    36  H   10.044314   9.479862   9.655538   6.401148   6.111646
    37  H    7.687073   7.668925   7.721298   7.198081   6.671352
    38  H    2.696200   3.394262   2.265567   5.592877   4.758304
    39  H    8.709904   8.182601   8.173188   4.480855   3.845562
    40  H    6.970148   6.548408   6.462247   3.937356   3.127003
                   21         22         23         24         25
    21  H    0.000000
    22  H    2.554416   0.000000
    23  H    3.679389   1.774611   0.000000
    24  H    2.758006   1.778420   1.771794   0.000000
    25  H    7.145632   4.818781   4.509706   6.007610   0.000000
    26  H    6.257742   4.331278   4.432433   5.823572   1.787828
    27  H    5.450529   3.100193   3.203956   4.463597   1.796689
    28  H    7.173739   6.644040   5.271899   6.363251   7.305566
    29  H    5.644908   5.483749   4.274721   5.005659   7.291181
    30  H    6.568250   5.549049   4.384393   5.874208   5.267421
    31  H    5.775248   5.381134   4.664398   5.846530   6.026674
    32  H    6.089352   6.517649   5.859922   6.549213   8.177009
    33  H    7.649629   7.694382   6.745706   7.694989   8.514093
    34  H    4.806891   3.553692   2.079885   3.498515   4.850374
    35  H    8.737455   9.655855   8.793015   8.948970  11.986533
    36  H    7.716441   8.946059   8.272533   8.102846  11.914859
    37  H    8.168306   8.515498   7.433974   8.018146  10.072027
    38  H    4.938340   3.824337   3.558752   4.922148   3.963401
    39  H    5.543483   7.012216   6.666198   6.423230  10.301904
    40  H    4.758859   5.742889   5.254208   5.368332   8.624703
                   26         27         28         29         30
    26  H    0.000000
    27  H    1.802563   0.000000
    28  H    7.071399   7.065642   0.000000
    29  H    6.903201   6.625642   1.751685   0.000000
    30  H    4.891673   5.208811   2.319379   2.937677   0.000000
    31  H    5.139928   5.604268   2.938596   2.905319   1.754940
    32  H    7.269982   7.534491   3.059181   2.615340   3.537340
    33  H    7.813767   8.217399   2.439771   3.056605   3.345593
    34  H    4.691038   4.135273   3.241979   2.586585   2.467138
    35  H   11.360045  11.270002   5.189872   4.795894   7.089478
    36  H   11.247085  10.966099   5.742027   4.814657   7.454969
    37  H    9.555617   9.596655   2.995192   3.168462   4.958942
    38  H    2.805606   3.359213   4.781541   4.455642   2.801115
    39  H    9.438895   9.180461   5.334212   3.978969   6.386656
    40  H    7.784219   7.598367   3.965072   2.547798   4.699150
                   31         32         33         34         35
    31  H    0.000000
    32  H    2.266441   0.000000
    33  H    2.746795   1.759916   0.000000
    34  H    3.051598   4.311508   4.855735   0.000000
    35  H    6.455353   4.371300   4.406086   7.363498   0.000000
    36  H    6.689949   4.638362   5.249381   7.197614   1.723004
    37  H    4.615843   2.959912   2.369508   5.676809   2.356483
    38  H    2.444116   4.475096   5.186502   2.924111   8.628701
    39  H    5.294866   3.461883   4.789218   5.877704   3.485819
    40  H    3.620726   2.147183   3.655560   4.264294   4.124050
                   36         37         38         39         40
    36  H    0.000000
    37  H    3.461022   0.000000
    38  H    8.560505   6.909396   0.000000
    39  H    2.374595   4.029904   6.791681   0.000000
    40  H    3.567104   3.592919   5.107089   1.740678   0.000000
 Stoichiometry    C9H22N5O3S(1+)
 Framework group  C1[X(C9H22N5O3S)]
 Deg. of freedom   114
 Full point group                 C1      NOp   1
 Largest Abelian subgroup         C1      NOp   1
 Largest concise Abelian subgroup C1      NOp   1
                         Standard orientation:                         
 ---------------------------------------------------------------------
 Center     Atomic      Atomic             Coordinates (Angstroms)
 Number     Number       Type             X           Y           Z
 ---------------------------------------------------------------------
      1          6           0       -0.085081    1.149118   -0.282178
      2          6           0       -4.474124   -0.371368    0.132157
      3          6           0       -0.330405    3.565327   -0.320067
      4          6           0        1.599920    2.601968    0.869633
      5          6           0        4.760679   -0.014999   -0.515200
      6          6           0       -1.351209   -1.578151    0.465404
      7          6           0       -0.009311   -1.409501   -0.287893
      8          6           0       -2.520296   -1.774059   -0.513689
      9          6           0        0.744634   -0.111434    0.057248
     10          7           0       -5.740289   -0.328452    0.597851
     11          7           0       -3.843806   -1.551096    0.089691
     12          7           0        2.050946   -0.014163   -0.629628
     13          7           0        0.385709    2.356755    0.089440
     14          7           0       -3.882763    0.751618   -0.273984
     15          8           0       -1.164093    1.024009   -0.898574
     16          8           0        3.371264   -2.270257   -0.389529
     17          8           0        3.178918   -0.628381    1.553296
     18         16           0        3.326647   -0.895605    0.117643
     19          1           0       -0.827318    4.028455    0.541129
     20          1           0       -1.069911    3.307581   -1.075593
     21          1           0        0.382981    4.284072   -0.736005
     22          1           0        2.383557    3.022782    0.229337
     23          1           0        1.978632    1.695756    1.335810
     24          1           0        1.366876    3.327401    1.656343
     25          1           0        5.637493   -0.516306   -0.098404
     26          1           0        4.774528   -0.088480   -1.604587
     27          1           0        4.716166    1.023620   -0.187173
     28          1           0       -1.301201   -2.427726    1.155508
     29          1           0       -1.555204   -0.696101    1.082319
     30          1           0        0.661581   -2.244023   -0.066481
     31          1           0       -0.182227   -1.428243   -1.371205
     32          1           0       -2.422470   -1.085053   -1.354189
     33          1           0       -2.526299   -2.788255   -0.923347
     34          1           0        0.963104   -0.107660    1.130100
     35          1           0       -6.308467   -1.161775    0.646162
     36          1           0       -6.196155    0.551585    0.789436
     37          1           0       -4.247622   -2.304453    0.631501
     38          1           0        1.977543   -0.308238   -1.605061
     39          1           0       -4.444153    1.574039   -0.444978
     40          1           0       -2.873903    0.823699   -0.480537
 ---------------------------------------------------------------------
 Rotational constants (GHZ):      0.6258691      0.1902540      0.1557733
 Standard basis: 6-31G(d) (6D, 7F)
 There are   318 symmetry adapted basis functions of A   symmetry.
 Integral buffers will be    131072 words long.
 Raffenetti 1 integral format.
 Two-electron integral symmetry is turned on.
   318 basis functions,   616 primitive gaussians,   318 cartesian basis functions
    75 alpha electrons       75 beta electrons
       nuclear repulsion energy      1645.5133182978 Hartrees.
 NAtoms=   40 NActive=   40 NUniq=   40 SFac= 1.00D+00 NAtFMM=   60 NAOKFM=F Big=F
 One-electron integrals computed using PRISM.
 NBasis=   318 RedAO= T  NBF=   318
 NBsUse=   318 1.00D-06 NBFU=   318
 Initial guess read from the checkpoint file:  frag50-conf2.chk
 B after Tr=     0.000000    0.000000    0.000000
         Rot=    1.000000    0.000000    0.000000    0.000000 Ang=   0.00 deg.
 Initial guess orbital symmetries:
       Occupied  (A) (A) (A) (A) (A) (A) (A) (A) (A) (A) (A) (A)
                 (A) (A) (A) (A) (A) (A) (A) (A) (A) (A) (A) (A)
                 (A) (A) (A) (A) (A) (A) (A) (A) (A) (A) (A) (A)
                 (A) (A) (A) (A) (A) (A) (A) (A) (A) (A) (A) (A)
                 (A) (A) (A) (A) (A) (A) (A) (A) (A) (A) (A) (A)
                 (A) (A) (A) (A) (A) (A) (A) (A) (A) (A) (A) (A)
                 (A) (A) (A)
       Virtual   (A) (A) (A) (A) (A) (A) (A) (A) (A) (A) (A) (A)
                 (A) (A) (A) (A) (A) (A) (A) (A) (A) (A) (A) (A)
                 (A) (A) (A) (A) (A) (A) (A) (A) (A) (A) (A) (A)
                 (A) (A) (A) (A) (A) (A) (A) (A) (A) (A) (A) (A)
                 (A) (A) (A) (A) (A) (A) (A) (A) (A) (A) (A) (A)
                 (A) (A) (A) (A) (A) (A) (A) (A) (A) (A) (A) (A)
                 (A) (A) (A) (A) (A) (A) (A) (A) (A) (A) (A) (A)
                 (A) (A) (A) (A) (A) (A) (A) (A) (A) (A) (A) (A)
                 (A) (A) (A) (A) (A) (A) (A) (A) (A) (A) (A) (A)
                 (A) (A) (A) (A) (A) (A) (A) (A) (A) (A) (A) (A)
                 (A) (A) (A) (A) (A) (A) (A) (A) (A) (A) (A) (A)
                 (A) (A) (A) (A) (A) (A) (A) (A) (A) (A) (A) (A)
                 (A) (A) (A) (A) (A) (A) (A) (A) (A) (A) (A) (A)
                 (A) (A) (A) (A) (A) (A) (A) (A) (A) (A) (A) (A)
                 (A) (A) (A) (A) (A) (A) (A) (A) (A) (A) (A) (A)
                 (A) (A) (A) (A) (A) (A) (A) (A) (A) (A) (A) (A)
                 (A) (A) (A) (A) (A) (A) (A) (A) (A) (A) (A) (A)
                 (A) (A) (A) (A) (A) (A) (A) (A) (A) (A) (A) (A)
                 (A) (A) (A) (A) (A) (A) (A) (A) (A) (A) (A) (A)
                 (A) (A) (A) (A) (A) (A) (A) (A) (A) (A) (A) (A)
                 (A) (A) (A)
 Requested convergence on RMS density matrix=1.00D-08 within 128 cycles.
 Requested convergence on MAX density matrix=1.00D-06.
 Requested convergence on             energy=1.00D-06.
 No special actions if energy rises.
 SCF Done:  E(RHF) =  -1247.72617545     A.U. after   13 cycles
             Convg  =    0.5863D-08             -V/T =  2.0024

 **********************************************************************

            Population analysis using the SCF density.

 **********************************************************************

 Orbital symmetries:
 BldTbl:  Degeneracy threshold= 1.00D-02
       Occupied  (A) (A) (A) (A) (A) (A) (A) (A) (A) (A) (A) (A)
                 (A) (A) (A) (A) (A) (A) (A) (A) (A) (A) (A) (A)
                 (A) (A) (A) (A) (A) (A) (A) (A) (A) (A) (A) (A)
                 (A) (A) (A) (A) (A) (A) (A) (A) (A) (A) (A) (A)
                 (A) (A) (A) (A) (A) (A) (A) (A) (A) (A) (A) (A)
                 (A) (A) (A) (A) (A) (A) (A) (A) (A) (A) (A) (A)
                 (A) (A) (A)
       Virtual   (A) (A) (A) (A) (A) (A) (A) (A) (A) (A) (A) (A)
                 (A) (A) (A) (A) (A) (A) (A) (A) (A) (A) (A) (A)
                 (A) (A) (A) (A) (A) (A) (A) (A) (A) (A) (A) (A)
                 (A) (A) (A) (A) (A) (A) (A) (A) (A) (A) (A) (A)
                 (A) (A) (A) (A) (A) (A) (A) (A) (A) (A) (A) (A)
                 (A) (A) (A) (A) (A) (A) (A) (A) (A) (A) (A) (A)
                 (A) (A) (A) (A) (A) (A) (A) (A) (A) (A) (A) (A)
                 (A) (A) (A) (A) (A) (A) (A) (A) (A) (A) (A) (A)
                 (A) (A) (A) (A) (A) (A) (A) (A) (A) (A) (A) (A)
                 (A) (A) (A) (A) (A) (A) (A) (A) (A) (A) (A) (A)
                 (A) (A) (A) (A) (A) (A) (A) (A) (A) (A) (A) (A)
                 (A) (A) (A) (A) (A) (A) (A) (A) (A) (A) (A) (A)
                 (A) (A) (A) (A) (A) (A) (A) (A) (A) (A) (A) (A)
                 (A) (A) (A) (A) (A) (A) (A) (A) (A) (A) (A) (A)
                 (A) (A) (A) (A) (A) (A) (A) (A) (A) (A) (A) (A)
                 (A) (A) (A) (A) (A) (A) (A) (A) (A) (A) (A) (A)
                 (A) (A) (A) (A) (A) (A) (A) (A) (A) (A) (A) (A)
                 (A) (A) (A) (A) (A) (A) (A) (A) (A) (A) (A) (A)
                 (A) (A) (A) (A) (A) (A) (A) (A) (A) (A) (A) (A)
                 (A) (A) (A) (A) (A) (A) (A) (A) (A) (A) (A) (A)
                 (A) (A) (A)
 The electronic state is 1-A.
 Alpha  occ. eigenvalues --  -92.30490 -20.65321 -20.65139 -20.65069 -15.76301
 Alpha  occ. eigenvalues --  -15.76082 -15.74932 -15.71437 -15.71425 -11.56550
 Alpha  occ. eigenvalues --  -11.48063 -11.40486 -11.40333 -11.36739 -11.36492
 Alpha  occ. eigenvalues --  -11.36240 -11.35326 -11.34548  -9.27686  -6.96267
 Alpha  occ. eigenvalues --   -6.96233  -6.96148  -1.54691  -1.50284  -1.49793
 Alpha  occ. eigenvalues --   -1.42880  -1.36886  -1.36173  -1.34906  -1.33587
 Alpha  occ. eigenvalues --   -1.19533  -1.14456  -1.10858  -1.07802  -1.06570
 Alpha  occ. eigenvalues --   -1.02564  -0.99233  -0.94471  -0.94019  -0.92843
 Alpha  occ. eigenvalues --   -0.90298  -0.86321  -0.83782  -0.83021  -0.82655
 Alpha  occ. eigenvalues --   -0.79507  -0.78402  -0.77449  -0.76307  -0.75682
 Alpha  occ. eigenvalues --   -0.75530  -0.74858  -0.74361  -0.72109  -0.69944
 Alpha  occ. eigenvalues --   -0.68923  -0.68254  -0.67440  -0.67247  -0.67008
 Alpha  occ. eigenvalues --   -0.66171  -0.65119  -0.63900  -0.63693  -0.61121
 Alpha  occ. eigenvalues --   -0.60893  -0.59878  -0.58361  -0.58189  -0.56595
 Alpha  occ. eigenvalues --   -0.55703  -0.55350  -0.54228  -0.51500  -0.48717
 Alpha virt. eigenvalues --    0.03761   0.04743   0.05394   0.09572   0.10417
 Alpha virt. eigenvalues --    0.11217   0.12601   0.13475   0.14113   0.15105
 Alpha virt. eigenvalues --    0.15470   0.16015   0.17013   0.17342   0.17877
 Alpha virt. eigenvalues --    0.18895   0.19339   0.19690   0.20102   0.20596
 Alpha virt. eigenvalues --    0.21067   0.21204   0.22509   0.22684   0.23794
 Alpha virt. eigenvalues --    0.24726   0.25732   0.26043   0.27832   0.29363
 Alpha virt. eigenvalues --    0.29862   0.30397   0.32047   0.32507   0.33882
 Alpha virt. eigenvalues --    0.34870   0.36557   0.40901   0.43775   0.46159
 Alpha virt. eigenvalues --    0.47272   0.48769   0.52020   0.54337   0.57126
 Alpha virt. eigenvalues --    0.57656   0.59133   0.60954   0.61442   0.62147
 Alpha virt. eigenvalues --    0.63165   0.63640   0.63993   0.64838   0.65615
 Alpha virt. eigenvalues --    0.66284   0.67373   0.69498   0.70989   0.72159
 Alpha virt. eigenvalues --    0.73722   0.74672   0.75470   0.76200   0.78436
 Alpha virt. eigenvalues --    0.79407   0.80198   0.81651   0.82639   0.82982
 Alpha virt. eigenvalues --    0.83379   0.85001   0.85422   0.86385   0.87106
 Alpha virt. eigenvalues --    0.90533   0.92054   0.93117   0.94761   0.95389
 Alpha virt. eigenvalues --    0.96796   0.98421   0.98712   0.99947   1.00501
 Alpha virt. eigenvalues --    1.00631   1.01259   1.01556   1.02566   1.02749
 Alpha virt. eigenvalues --    1.03105   1.04358   1.04904   1.05191   1.05263
 Alpha virt. eigenvalues --    1.05737   1.06597   1.07262   1.07629   1.08327
 Alpha virt. eigenvalues --    1.08834   1.10163   1.10656   1.11567   1.12355
 Alpha virt. eigenvalues --    1.13861   1.15463   1.16403   1.17022   1.18058
 Alpha virt. eigenvalues --    1.20547   1.23879   1.24593   1.25615   1.26674
 Alpha virt. eigenvalues --    1.30428   1.32106   1.33036   1.34546   1.37112
 Alpha virt. eigenvalues --    1.38238   1.40614   1.41055   1.41534   1.43234
 Alpha virt. eigenvalues --    1.45172   1.46238   1.46558   1.49279   1.50887
 Alpha virt. eigenvalues --    1.51634   1.54820   1.57652   1.57874   1.60534
 Alpha virt. eigenvalues --    1.62335   1.62794   1.65092   1.68022   1.72037
 Alpha virt. eigenvalues --    1.73566   1.74666   1.76177   1.78411   1.79951
 Alpha virt. eigenvalues --    1.81012   1.81886   1.85632   1.88094   1.89692
 Alpha virt. eigenvalues --    1.91528   1.91993   1.93490   1.94470   1.98414
 Alpha virt. eigenvalues --    2.01153   2.01414   2.01647   2.02716   2.03847
 Alpha virt. eigenvalues --    2.05803   2.06136   2.07158   2.08574   2.10045
 Alpha virt. eigenvalues --    2.10573   2.13176   2.13952   2.15534   2.17148
 Alpha virt. eigenvalues --    2.17920   2.19871   2.22298   2.22950   2.24069
 Alpha virt. eigenvalues --    2.26487   2.26806   2.28109   2.29629   2.30289
 Alpha virt. eigenvalues --    2.31133   2.32472   2.33748   2.35885   2.38541
 Alpha virt. eigenvalues --    2.40686   2.42425   2.44454   2.45835   2.46995
 Alpha virt. eigenvalues --    2.47313   2.48200   2.49298   2.51575   2.54386
 Alpha virt. eigenvalues --    2.54879   2.57508   2.58807   2.59711   2.61601
 Alpha virt. eigenvalues --    2.62437   2.65036   2.66602   2.68671   2.71655
 Alpha virt. eigenvalues --    2.74571   2.77823   2.78953   2.79347   2.81985
 Alpha virt. eigenvalues --    2.83893   2.85512   2.88347   2.89324   2.90960
 Alpha virt. eigenvalues --    2.94908   3.01969   3.02771   3.09951   3.15190
 Alpha virt. eigenvalues --    3.21975   3.27224   3.29972   3.33191   3.45160
 Alpha virt. eigenvalues --    4.06706   4.11740   4.20702   4.22324   4.26985
 Alpha virt. eigenvalues --    4.29085   4.32641   4.33225   4.46203   4.49618
 Alpha virt. eigenvalues --    4.52529   4.55988   4.58744   4.67977   4.70474
 Alpha virt. eigenvalues --    4.81075   4.85217   4.94245
          Condensed to atoms (all electrons):
              1          2          3          4          5          6
     1  C    4.162255  -0.000029  -0.033390  -0.030738  -0.000114  -0.003468
     2  C   -0.000029   3.849323   0.000002   0.000000   0.000000  -0.000658
     3  C   -0.033390   0.000002   4.984633  -0.043571   0.000000   0.000003
     4  C   -0.030738   0.000000  -0.043571   4.996954  -0.000043  -0.000009
     5  C   -0.000114   0.000000   0.000000  -0.000043   5.496070   0.000001
     6  C   -0.003468  -0.000658   0.000003  -0.000009   0.000001   5.167007
     7  C   -0.060312  -0.000026  -0.000085   0.000408  -0.000157   0.288350
     8  C    0.001006  -0.031915   0.000000   0.000000   0.000000   0.327698
     9  C    0.351022   0.000017   0.003431   0.002423   0.001880  -0.032402
    10  N    0.000000   0.400838   0.000000   0.000000   0.000000  -0.000025
    11  N   -0.000061   0.423160   0.000000   0.000000   0.000000  -0.062418
    12  N   -0.054255   0.000000  -0.000298  -0.006161  -0.059224   0.003882
    13  N    0.358841  -0.000004   0.205419   0.198725   0.000002  -0.000166
    14  N    0.001731   0.427750  -0.000032   0.000000   0.000000  -0.000152
    15  O    0.501862  -0.000060  -0.005638   0.001506   0.000000  -0.002289
    16  O   -0.000073   0.000000   0.000000  -0.000002  -0.059125   0.000041
    17  O   -0.000274   0.000000   0.000000  -0.003031  -0.054342  -0.000017
    18  S    0.000114   0.000000  -0.000004  -0.001276   0.305405   0.000222
    19  H   -0.000422   0.000000   0.399125  -0.001192   0.000000   0.000001
    20  H   -0.004366   0.000004   0.395811   0.003010   0.000000   0.000000
    21  H    0.002184   0.000000   0.400812  -0.002345   0.000000   0.000000
    22  H    0.000185   0.000000  -0.001092   0.398290   0.000008   0.000000
    23  H   -0.004099   0.000000   0.002834   0.393492  -0.000314   0.000002
    24  H    0.001096   0.000000  -0.003473   0.398661   0.000000   0.000000
    25  H    0.000001   0.000000   0.000000   0.000002   0.371205   0.000000
    26  H    0.000001   0.000000   0.000000   0.000003   0.354467   0.000000
    27  H    0.000006   0.000000   0.000000   0.000202   0.356184   0.000000
    28  H    0.000181   0.000121   0.000000   0.000000   0.000000   0.395977
    29  H    0.000582   0.001508   0.000013   0.000000   0.000000   0.401502
    30  H    0.003280   0.000000   0.000001  -0.000004   0.000032  -0.028645
    31  H   -0.004967   0.000012  -0.000003  -0.000012   0.000002  -0.042121
    32  H    0.000331  -0.001745  -0.000002   0.000000   0.000000  -0.044453
    33  H   -0.000021   0.002512   0.000000   0.000000   0.000000  -0.039914
    34  H   -0.031394   0.000000  -0.000125  -0.002563   0.000256  -0.001599
    35  H    0.000000  -0.020408   0.000000   0.000000   0.000000   0.000004
    36  H    0.000000  -0.020849   0.000000   0.000000   0.000000   0.000004
    37  H    0.000000  -0.026209   0.000000   0.000000   0.000000   0.001150
    38  H   -0.002820   0.000000  -0.000007   0.000032  -0.000812  -0.000036
    39  H   -0.000017  -0.026263   0.000014   0.000000   0.000000  -0.000026
    40  H   -0.002632  -0.007754   0.000184  -0.000010   0.000000   0.000159
              7          8          9         10         11         12
     1  C   -0.060312   0.001006   0.351022   0.000000  -0.000061  -0.054255
     2  C   -0.000026  -0.031915   0.000017   0.400838   0.423160   0.000000
     3  C   -0.000085   0.000000   0.003431   0.000000   0.000000  -0.000298
     4  C    0.000408   0.000000   0.002423   0.000000   0.000000  -0.006161
     5  C   -0.000157   0.000000   0.001880   0.000000   0.000000  -0.059224
     6  C    0.288350   0.327698  -0.032402  -0.000025  -0.062418   0.003882
     7  C    5.162365  -0.037844   0.349119   0.000000   0.003578  -0.065215
     8  C   -0.037844   5.031463   0.000901   0.001697   0.158007  -0.000067
     9  C    0.349119   0.000901   5.146990   0.000000  -0.000056   0.224683
    10  N    0.000000   0.001697   0.000000   7.042871  -0.079339   0.000000
    11  N    0.003578   0.158007  -0.000056  -0.079339   7.183444   0.000000
    12  N   -0.065215  -0.000067   0.224683   0.000000   0.000000   7.509964
    13  N    0.002825   0.000011  -0.098559   0.000000   0.000000   0.003895
    14  N   -0.000034  -0.001236  -0.000084  -0.078439  -0.072393   0.000000
    15  O    0.003065  -0.005430  -0.072715  -0.000003  -0.000002   0.000503
    16  O   -0.000478   0.000000  -0.001987   0.000000   0.000000  -0.051956
    17  O   -0.000621   0.000000   0.000074   0.000000   0.000000  -0.053229
    18  S   -0.000875  -0.000003  -0.020836   0.000000   0.000000   0.160515
    19  H    0.000001   0.000000  -0.000135   0.000000   0.000000  -0.000003
    20  H   -0.000014   0.000000   0.000434   0.000000   0.000000  -0.000021
    21  H    0.000001   0.000000   0.000009   0.000000   0.000000   0.000015
    22  H   -0.000007   0.000000  -0.000092   0.000000   0.000000   0.000925
    23  H    0.000312   0.000000   0.001152   0.000000   0.000000  -0.006264
    24  H    0.000002   0.000000  -0.000400   0.000000   0.000000   0.000298
    25  H    0.000002   0.000000  -0.000022   0.000000   0.000000   0.002000
    26  H    0.000007   0.000000  -0.000080   0.000000   0.000000   0.000498
    27  H    0.000002   0.000000  -0.000081   0.000000   0.000000   0.001222
    28  H   -0.029911  -0.035640   0.001087  -0.000003   0.001132  -0.000070
    29  H   -0.042983  -0.042920  -0.003926  -0.000072  -0.002053   0.000129
    30  H    0.398286   0.001480  -0.035543   0.000000  -0.000064  -0.001707
    31  H    0.397175  -0.005607  -0.037932   0.000000   0.000214  -0.001317
    32  H   -0.002177   0.410900  -0.000372   0.000059  -0.040643  -0.000015
    33  H    0.000126   0.403238  -0.000021  -0.000055  -0.035826   0.000001
    34  H   -0.034490   0.000034   0.397847   0.000000   0.000001  -0.034638
    35  H    0.000000  -0.000016   0.000000   0.321348   0.000047   0.000000
    36  H    0.000000  -0.000031   0.000000   0.322768   0.002597   0.000000
    37  H   -0.000059  -0.014232   0.000001  -0.000516   0.324180   0.000000
    38  H   -0.000298  -0.000001  -0.028572   0.000000   0.000000   0.307356
    39  H    0.000001   0.000034  -0.000001  -0.000516   0.002477   0.000000
    40  H   -0.000011  -0.001216   0.000742   0.001233  -0.000370  -0.000001
             13         14         15         16         17         18
     1  C    0.358841   0.001731   0.501862  -0.000073  -0.000274   0.000114
     2  C   -0.000004   0.427750  -0.000060   0.000000   0.000000   0.000000
     3  C    0.205419  -0.000032  -0.005638   0.000000   0.000000  -0.000004
     4  C    0.198725   0.000000   0.001506  -0.000002  -0.003031  -0.001276
     5  C    0.000002   0.000000   0.000000  -0.059125  -0.054342   0.305405
     6  C   -0.000166  -0.000152  -0.002289   0.000041  -0.000017   0.000222
     7  C    0.002825  -0.000034   0.003065  -0.000478  -0.000621  -0.000875
     8  C    0.000011  -0.001236  -0.005430   0.000000   0.000000  -0.000003
     9  C   -0.098559  -0.000084  -0.072715  -0.001987   0.000074  -0.020836
    10  N    0.000000  -0.078439  -0.000003   0.000000   0.000000   0.000000
    11  N    0.000000  -0.072393  -0.000002   0.000000   0.000000   0.000000
    12  N    0.003895   0.000000   0.000503  -0.051956  -0.053229   0.160515
    13  N    7.307064  -0.000003  -0.091331   0.000000   0.000115   0.000216
    14  N   -0.000003   7.172542  -0.025939   0.000000   0.000000   0.000000
    15  O   -0.091331  -0.025939   8.357315   0.000000  -0.000001  -0.000101
    16  O    0.000000   0.000000   0.000000   8.331463  -0.037264   0.479197
    17  O    0.000115   0.000000  -0.000001  -0.037264   8.374480   0.456396
    18  S    0.000216   0.000000  -0.000101   0.479197   0.456396  13.056677
    19  H   -0.045226  -0.000012   0.000434   0.000000   0.000000   0.000000
    20  H   -0.031743   0.000074   0.008084   0.000000   0.000000   0.000000
    21  H   -0.044171   0.000001   0.000480   0.000000   0.000000   0.000000
    22  H   -0.046575   0.000000  -0.000019   0.000000  -0.000019   0.000050
    23  H   -0.028960   0.000000   0.000023   0.000006   0.008422   0.001033
    24  H   -0.043835   0.000000  -0.000020   0.000000   0.000011   0.000025
    25  H    0.000000   0.000000   0.000000   0.000470   0.000113  -0.020844
    26  H    0.000000   0.000000   0.000000   0.000131   0.001355  -0.009182
    27  H   -0.000017   0.000000   0.000000   0.001497   0.000475  -0.013456
    28  H    0.000002  -0.000017   0.000259   0.000000   0.000002  -0.000026
    29  H   -0.000268   0.000375   0.001017   0.000000  -0.000004   0.000003
    30  H   -0.000024   0.000000   0.000303   0.004274  -0.000251   0.003304
    31  H   -0.000047   0.000004   0.002217   0.000035  -0.000003  -0.000537
    32  H    0.000045   0.002189   0.005107   0.000000   0.000000  -0.000002
    33  H    0.000000   0.000185   0.000188   0.000000   0.000000   0.000000
    34  H    0.000694   0.000007   0.001159  -0.000076   0.008225  -0.006289
    35  H    0.000000   0.002438   0.000000   0.000000   0.000000   0.000000
    36  H    0.000000   0.000036   0.000000   0.000000   0.000000   0.000000
    37  H    0.000000   0.002393  -0.000005   0.000000   0.000000   0.000000
    38  H    0.000301   0.000000   0.000353   0.001056   0.001226  -0.004288
    39  H   -0.000001   0.324396   0.000188   0.000000   0.000000   0.000000
    40  H   -0.000282   0.227728   0.053350   0.000000   0.000000   0.000001
             19         20         21         22         23         24
     1  C   -0.000422  -0.004366   0.002184   0.000185  -0.004099   0.001096
     2  C    0.000000   0.000004   0.000000   0.000000   0.000000   0.000000
     3  C    0.399125   0.395811   0.400812  -0.001092   0.002834  -0.003473
     4  C   -0.001192   0.003010  -0.002345   0.398290   0.393492   0.398661
     5  C    0.000000   0.000000   0.000000   0.000008  -0.000314   0.000000
     6  C    0.000001   0.000000   0.000000   0.000000   0.000002   0.000000
     7  C    0.000001  -0.000014   0.000001  -0.000007   0.000312   0.000002
     8  C    0.000000   0.000000   0.000000   0.000000   0.000000   0.000000
     9  C   -0.000135   0.000434   0.000009  -0.000092   0.001152  -0.000400
    10  N    0.000000   0.000000   0.000000   0.000000   0.000000   0.000000
    11  N    0.000000   0.000000   0.000000   0.000000   0.000000   0.000000
    12  N   -0.000003  -0.000021   0.000015   0.000925  -0.006264   0.000298
    13  N   -0.045226  -0.031743  -0.044171  -0.046575  -0.028960  -0.043835
    14  N   -0.000012   0.000074   0.000001   0.000000   0.000000   0.000000
    15  O    0.000434   0.008084   0.000480  -0.000019   0.000023  -0.000020
    16  O    0.000000   0.000000   0.000000   0.000000   0.000006   0.000000
    17  O    0.000000   0.000000   0.000000  -0.000019   0.008422   0.000011
    18  S    0.000000   0.000000   0.000000   0.000050   0.001033   0.000025
    19  H    0.519069  -0.024490  -0.033962  -0.000433  -0.000044   0.002868
    20  H   -0.024490   0.453364  -0.020203  -0.000012  -0.000084   0.000001
    21  H   -0.033962  -0.020203   0.499404   0.002892   0.000038  -0.001646
    22  H   -0.000433  -0.000012   0.002892   0.512555  -0.023765  -0.034723
    23  H   -0.000044  -0.000084   0.000038  -0.023765   0.450166  -0.021988
    24  H    0.002868   0.000001  -0.001646  -0.034723  -0.021988   0.507088
    25  H    0.000000   0.000000   0.000000   0.000001   0.000002   0.000000
    26  H    0.000000   0.000000   0.000000  -0.000003   0.000004   0.000000
    27  H    0.000000   0.000000   0.000000   0.000377   0.000113  -0.000006
    28  H    0.000000   0.000000   0.000000   0.000000   0.000000   0.000000
    29  H    0.000001  -0.000001   0.000000   0.000000   0.000005   0.000001
    30  H    0.000000   0.000000   0.000000   0.000000   0.000000   0.000000
    31  H    0.000000  -0.000001   0.000000   0.000001  -0.000008   0.000000
    32  H    0.000000   0.000000   0.000000   0.000000   0.000000   0.000000
    33  H    0.000000   0.000000   0.000000   0.000000   0.000000   0.000000
    34  H    0.000006  -0.000008  -0.000003   0.000090  -0.001685   0.000076
    35  H    0.000000   0.000000   0.000000   0.000000   0.000000   0.000000
    36  H    0.000000   0.000000   0.000000   0.000000   0.000000   0.000000
    37  H    0.000000   0.000000   0.000000   0.000000   0.000000   0.000000
    38  H    0.000000  -0.000001  -0.000002  -0.000006   0.000081   0.000000
    39  H    0.000003   0.000002   0.000000   0.000000   0.000000   0.000000
    40  H    0.000061   0.000011  -0.000005   0.000000   0.000001   0.000001
             25         26         27         28         29         30
     1  C    0.000001   0.000001   0.000006   0.000181   0.000582   0.003280
     2  C    0.000000   0.000000   0.000000   0.000121   0.001508   0.000000
     3  C    0.000000   0.000000   0.000000   0.000000   0.000013   0.000001
     4  C    0.000002   0.000003   0.000202   0.000000   0.000000  -0.000004
     5  C    0.371205   0.354467   0.356184   0.000000   0.000000   0.000032
     6  C    0.000000   0.000000   0.000000   0.395977   0.401502  -0.028645
     7  C    0.000002   0.000007   0.000002  -0.029911  -0.042983   0.398286
     8  C    0.000000   0.000000   0.000000  -0.035640  -0.042920   0.001480
     9  C   -0.000022  -0.000080  -0.000081   0.001087  -0.003926  -0.035543
    10  N    0.000000   0.000000   0.000000  -0.000003  -0.000072   0.000000
    11  N    0.000000   0.000000   0.000000   0.001132  -0.002053  -0.000064
    12  N    0.002000   0.000498   0.001222  -0.000070   0.000129  -0.001707
    13  N    0.000000   0.000000  -0.000017   0.000002  -0.000268  -0.000024
    14  N    0.000000   0.000000   0.000000  -0.000017   0.000375   0.000000
    15  O    0.000000   0.000000   0.000000   0.000259   0.001017   0.000303
    16  O    0.000470   0.000131   0.001497   0.000000   0.000000   0.004274
    17  O    0.000113   0.001355   0.000475   0.000002  -0.000004  -0.000251
    18  S   -0.020844  -0.009182  -0.013456  -0.000026   0.000003   0.003304
    19  H    0.000000   0.000000   0.000000   0.000000   0.000001   0.000000
    20  H    0.000000   0.000000   0.000000   0.000000  -0.000001   0.000000
    21  H    0.000000   0.000000   0.000000   0.000000   0.000000   0.000000
    22  H    0.000001  -0.000003   0.000377   0.000000   0.000000   0.000000
    23  H    0.000002   0.000004   0.000113   0.000000   0.000005   0.000000
    24  H    0.000000   0.000000  -0.000006   0.000000   0.000001   0.000000
    25  H    0.416635  -0.014619  -0.013966   0.000000   0.000000   0.000000
    26  H   -0.014619   0.452145  -0.018090   0.000000   0.000000   0.000001
    27  H   -0.013966  -0.018090   0.447686   0.000000   0.000000  -0.000001
    28  H    0.000000   0.000000   0.000000   0.494210  -0.025995  -0.004297
    29  H    0.000000   0.000000   0.000000  -0.025995   0.533826   0.001969
    30  H    0.000000   0.000001  -0.000001  -0.004297   0.001969   0.443669
    31  H    0.000000   0.000000   0.000000   0.002157   0.002819  -0.023426
    32  H    0.000000   0.000000   0.000000   0.002931  -0.000735   0.000117
    33  H    0.000000   0.000000   0.000000  -0.002760   0.003226   0.000058
    34  H   -0.000004  -0.000011  -0.000003   0.000090   0.001383  -0.001877
    35  H    0.000000   0.000000   0.000000   0.000000   0.000000   0.000000
    36  H    0.000000   0.000000   0.000000   0.000000   0.000002   0.000000
    37  H    0.000000   0.000000   0.000000   0.000447   0.000011   0.000002
    38  H   -0.000036   0.000171   0.000068  -0.000001   0.000011  -0.000173
    39  H    0.000000   0.000000   0.000000   0.000000   0.000031   0.000000
    40  H    0.000000   0.000000   0.000000   0.000020   0.000744  -0.000003
             31         32         33         34         35         36
     1  C   -0.004967   0.000331  -0.000021  -0.031394   0.000000   0.000000
     2  C    0.000012  -0.001745   0.002512   0.000000  -0.020408  -0.020849
     3  C   -0.000003  -0.000002   0.000000  -0.000125   0.000000   0.000000
     4  C   -0.000012   0.000000   0.000000  -0.002563   0.000000   0.000000
     5  C    0.000002   0.000000   0.000000   0.000256   0.000000   0.000000
     6  C   -0.042121  -0.044453  -0.039914  -0.001599   0.000004   0.000004
     7  C    0.397175  -0.002177   0.000126  -0.034490   0.000000   0.000000
     8  C   -0.005607   0.410900   0.403238   0.000034  -0.000016  -0.000031
     9  C   -0.037932  -0.000372  -0.000021   0.397847   0.000000   0.000000
    10  N    0.000000   0.000059  -0.000055   0.000000   0.321348   0.322768
    11  N    0.000214  -0.040643  -0.035826   0.000001   0.000047   0.002597
    12  N   -0.001317  -0.000015   0.000001  -0.034638   0.000000   0.000000
    13  N   -0.000047   0.000045   0.000000   0.000694   0.000000   0.000000
    14  N    0.000004   0.002189   0.000185   0.000007   0.002438   0.000036
    15  O    0.002217   0.005107   0.000188   0.001159   0.000000   0.000000
    16  O    0.000035   0.000000   0.000000  -0.000076   0.000000   0.000000
    17  O   -0.000003   0.000000   0.000000   0.008225   0.000000   0.000000
    18  S   -0.000537  -0.000002   0.000000  -0.006289   0.000000   0.000000
    19  H    0.000000   0.000000   0.000000   0.000006   0.000000   0.000000
    20  H   -0.000001   0.000000   0.000000  -0.000008   0.000000   0.000000
    21  H    0.000000   0.000000   0.000000  -0.000003   0.000000   0.000000
    22  H    0.000001   0.000000   0.000000   0.000090   0.000000   0.000000
    23  H   -0.000008   0.000000   0.000000  -0.001685   0.000000   0.000000
    24  H    0.000000   0.000000   0.000000   0.000076   0.000000   0.000000
    25  H    0.000000   0.000000   0.000000  -0.000004   0.000000   0.000000
    26  H    0.000000   0.000000   0.000000  -0.000011   0.000000   0.000000
    27  H    0.000000   0.000000   0.000000  -0.000003   0.000000   0.000000
    28  H    0.002157   0.002931  -0.002760   0.000090   0.000000   0.000000
    29  H    0.002819  -0.000735   0.003226   0.001383   0.000000   0.000002
    30  H   -0.023426   0.000117   0.000058  -0.001877   0.000000   0.000000
    31  H    0.519622   0.000785   0.001050   0.003564   0.000000   0.000000
    32  H    0.000785   0.447941  -0.018945   0.000001   0.000000  -0.000001
    33  H    0.001050  -0.018945   0.464614   0.000004  -0.000011   0.000001
    34  H    0.003564   0.000001   0.000004   0.427026   0.000000   0.000000
    35  H    0.000000   0.000000  -0.000011   0.000000   0.269076  -0.009704
    36  H    0.000000  -0.000001   0.000001   0.000000  -0.009704   0.269120
    37  H   -0.000002   0.002274  -0.003182   0.000000   0.001830  -0.000018
    38  H    0.003695  -0.000002   0.000000   0.003270   0.000000   0.000000
    39  H    0.000000   0.000084   0.000004   0.000000  -0.000030   0.001845
    40  H   -0.000012  -0.001102   0.000072  -0.000052  -0.000015  -0.000019
             37         38         39         40
     1  C    0.000000  -0.002820  -0.000017  -0.002632
     2  C   -0.026209   0.000000  -0.026263  -0.007754
     3  C    0.000000  -0.000007   0.000014   0.000184
     4  C    0.000000   0.000032   0.000000  -0.000010
     5  C    0.000000  -0.000812   0.000000   0.000000
     6  C    0.001150  -0.000036  -0.000026   0.000159
     7  C   -0.000059  -0.000298   0.000001  -0.000011
     8  C   -0.014232  -0.000001   0.000034  -0.001216
     9  C    0.000001  -0.028572  -0.000001   0.000742
    10  N   -0.000516   0.000000  -0.000516   0.001233
    11  N    0.324180   0.000000   0.002477  -0.000370
    12  N    0.000000   0.307356   0.000000  -0.000001
    13  N    0.000000   0.000301  -0.000001  -0.000282
    14  N    0.002393   0.000000   0.324396   0.227728
    15  O   -0.000005   0.000353   0.000188   0.053350
    16  O    0.000000   0.001056   0.000000   0.000000
    17  O    0.000000   0.001226   0.000000   0.000000
    18  S    0.000000  -0.004288   0.000000   0.000001
    19  H    0.000000   0.000000   0.000003   0.000061
    20  H    0.000000  -0.000001   0.000002   0.000011
    21  H    0.000000  -0.000002   0.000000  -0.000005
    22  H    0.000000  -0.000006   0.000000   0.000000
    23  H    0.000000   0.000081   0.000000   0.000001
    24  H    0.000000   0.000000   0.000000   0.000001
    25  H    0.000000  -0.000036   0.000000   0.000000
    26  H    0.000000   0.000171   0.000000   0.000000
    27  H    0.000000   0.000068   0.000000   0.000000
    28  H    0.000447  -0.000001   0.000000   0.000020
    29  H    0.000011   0.000011   0.000031   0.000744
    30  H    0.000002  -0.000173   0.000000  -0.000003
    31  H   -0.000002   0.003695   0.000000  -0.000012
    32  H    0.002274  -0.000002   0.000084  -0.001102
    33  H   -0.003182   0.000000   0.000004   0.000072
    34  H    0.000000   0.003270   0.000000  -0.000052
    35  H    0.001830   0.000000  -0.000030  -0.000015
    36  H   -0.000018   0.000000   0.001845  -0.000019
    37  H    0.290171   0.000000  -0.000065  -0.000059
    38  H    0.000000   0.317048   0.000000  -0.000001
    39  H   -0.000065   0.000000   0.278552  -0.003707
    40  H   -0.000059  -0.000001  -0.003707   0.180701
 Mulliken atomic charges:
              1
     1  C    0.848774
     2  C    1.030675
     3  C   -0.304562
     4  C   -0.302752
     5  C   -0.711379
     6  C   -0.327606
     7  C   -0.330029
     8  C   -0.160311
     9  C   -0.147995
    10  N   -0.931846
    11  N   -0.805612
    12  N   -0.881446
    13  N   -0.646943
    14  N   -0.983506
    15  O   -0.733861
    16  O   -0.667208
    17  O   -0.701836
    18  S    1.614560
    19  H    0.184351
    20  H    0.220149
    21  H    0.196503
    22  H    0.191373
    23  H    0.229527
    24  H    0.195964
    25  H    0.259062
    26  H    0.233202
    27  H    0.237788
    28  H    0.200103
    29  H    0.169800
    30  H    0.239241
    31  H    0.182644
    32  H    0.237431
    33  H    0.225457
    34  H    0.271085
    35  H    0.435442
    36  H    0.434248
    37  H    0.421886
    38  H    0.402387
    39  H    0.422996
    40  H    0.552244
 Sum of Mulliken atomic charges =   1.00000
 Mulliken charges with hydrogens summed into heavy atoms:
              1
     1  C    0.848774
     2  C    1.030675
     3  C    0.296442
     4  C    0.314112
     5  C    0.018673
     6  C    0.042297
     7  C    0.091856
     8  C    0.302576
     9  C    0.123090
    10  N   -0.062157
    11  N   -0.383726
    12  N   -0.479058
    13  N   -0.646943
    14  N   -0.008266
    15  O   -0.733861
    16  O   -0.667208
    17  O   -0.701836
    18  S    1.614560
 Sum of Mulliken charges with hydrogens summed into heavy atoms =   1.00000
 DipInt: DoE/N= T F RetVal/Mat= T F Init=T NMatP=  1 IDeriv=0 Min/MaxMlt=  0  4
 Entering OneElI...
 OneElI was handed    33293355 working-precision words.
 Multipole integrals L=0 to 4 MinM= 0 MaxM= 0.
 Requested accuracy = 0.1000D-12
 PrsmSu:  NPrtUS=   1 ThrOK=F IAlg=1 NPAlg=1 LenDen=           0.
 Prism:   IPart=     0 DynPar=F LinDyn=F Incr=          55.
 PRISM was handed    32837155 working-precision words and  5518 shell-pairs
 IPart=  0 NShTot=        5518 NBatch=          83 AvBLen=        66.5
 PrSmSu:  NxtVal=             56.
 Electronic moments (au):
       -150.00000000         -5.30997393          1.13234562         -0.28592152
      -4970.54970848      -1500.70142106       -321.88398468         14.97999786
        -12.70794894          0.52038262       7482.36856881      -3118.77867987
       -169.14220164       -365.96419241       4520.08323744       -992.83635259
       -419.29076646        -45.73539786         44.46072325       -387.26216604
    -344352.19513586     -42452.01379817      -2287.42011021       -694.15484647
      14897.49079685      -1304.57742427       -762.10460470      -1098.14994692
        -26.67516039     -24784.94053819      -9966.48670767      -3022.88652200
        713.05397746      -1079.79880576        -69.19068887
 Electronic spatial extent (au):  <R**2>=           6793.1351
 DipInt: DoE/N= F T RetVal/Mat= T F Init=T NMatP=  1 IDeriv=0 Min/MaxMlt=  0  4
 Nuclear    moments (au):
        151.00000000          0.00000000          0.00000000          0.00000000
       4965.51282540       1428.68192990        235.08068451          0.00000000
          0.00000000          0.00000000      -8058.10376684       3183.14331571
        149.83470505        252.66321473      -4511.83057532       1016.30659619
        410.95989513         46.33108737        -29.27753519        405.44881352
     337643.22753415      37817.60685235       1245.01458572       1256.95616922
     -16044.42544348       1672.32519402        686.51595686        987.38305401
         55.95096735      21647.40921450       6952.94173599       2021.09519835
       -863.15474391       1088.61753719         89.60760114
 Total      moments (au):
          1.00000000         -5.30997393          1.13234562         -0.28592152
         -5.03688308        -72.01949117        -86.80330017         14.97999786
        -12.70794894          0.52038262       -575.73519802         64.36463583
        -19.30749660       -113.30097769          8.25266212         23.47024360
         -8.33087133          0.59568950         15.18318806         18.18664748
      -6708.96760171      -4634.40694582      -1042.40552449        562.80132275
      -1146.93464662        367.74776975        -75.58864784       -110.76689292
         29.27580696      -3137.53132368      -3013.54497169      -1001.79132366
       -150.10076645          8.81873143         20.41691227
 Traceless Quadrup. (au):
         49.58300839        -17.39959969        -32.18340870         14.97999786
        -12.70794894          0.52038262
 Charge=              1.0000 electrons
 Dipole moment (field-independent basis, Debye):
    X=            -13.4966    Y=              2.8781    Z=             -0.7267  Tot=             13.8192
 Quadrupole moment (field-independent basis, Debye-Ang):
   XX=             -6.7748   YY=            -96.8687   ZZ=           -116.7534
   XY=             20.1486   XZ=            -17.0926   YZ=              0.6999
 Traceless Quadrupole moment (field-independent basis, Debye-Ang):
   XX=             66.6908   YY=            -23.4031   ZZ=            -43.2878
   XY=             20.1486   XZ=            -17.0926   YZ=              0.6999
 Octapole moment (field-independent basis, Debye-Ang**2):
  XXX=           -409.7861  YYY=             45.8123  ZZZ=            -13.7423  XYY=            -80.6433
  XXY=              5.8739  XXZ=             16.7052  XZZ=             -5.9296  YZZ=              0.4240
  YYZ=             10.8068  XYZ=             12.9446
 Hexadecapole moment (field-independent basis, Debye-Ang**3):
 XXXX=          -2526.9187 YYYY=          -1745.5398 ZZZZ=           -392.6199 XXXY=            211.9780
 XXXZ=           -431.9906 YYYX=            138.5114 YYYZ=            -28.4703 ZZZX=            -41.7201
 ZZZY=             11.0267 XXYY=          -1181.7447 XXZZ=          -1135.0455 YYZZ=           -377.3226
 XXYZ=            -56.5351 YYXZ=              3.3216 ZZXY=              7.6900
 N-N= 1.645513318298D+03 E-N=-6.208074169949D+03  KE= 1.244742604077D+03
 Entering OneElI...
 OneElI was handed    33089789 working-precision words.
 Calculate electrostatic properties
    NBasis =   318  MinDer = 0  MaxDer = 0
    NGrid  =    40  NMatD  =   1
 Requested accuracy = 0.1000D-12
 PrsmSu:  NPrtUS=   2 ThrOK=T IAlg=1 NPAlg=1 LenDen=           0.
 Prism:   IPart=     0 DynPar=F LinDyn=F Incr=         512.
 PRISM was handed    16273989 working-precision words and  4846 shell-pairs
 PRISM was handed    16273989 working-precision words and  4846 shell-pairs
 IPart=  0 NShTot=       97360 NBatch=        2435 AvBLen=        40.0
 IPart=  1 NShTot=       96480 NBatch=        2412 AvBLen=        40.0
 PrSmSu:  NxtVal=           1025.
 --------------------------------------------------------
       Center         ----      EFG at Nuclei      ----
                      3XX-RR        3YY-RR        3ZZ-RR
 --------------------------------------------------------
     1   Atom        0.124020      0.264480     -0.388500
     2   Atom        0.152735      0.257603     -0.410339
     3   Atom        0.059272     -0.177667      0.118395
     4   Atom       -0.172036      0.163284      0.008753
     5   Atom       -0.133230      0.049387      0.083843
     6   Atom       -0.038943      0.055202     -0.016259
     7   Atom       -0.007595     -0.008256      0.015851
     8   Atom       -0.274509      0.205722      0.068787
     9   Atom       -0.186634      0.052637      0.133997
    10   Atom       -0.488640     -0.397919      0.886559
    11   Atom       -0.082440     -0.483018      0.565458
    12   Atom       -0.511268      0.964738     -0.453471
    13   Atom       -0.022289     -0.478345      0.500634
    14   Atom       -0.206027     -0.506035      0.712062
    15   Atom       -0.985059      1.527403     -0.542344
    16   Atom        0.832763     -1.274555      0.441792
    17   Atom        0.775979      0.749486     -1.525466
    18   Atom       -0.231559      0.087088      0.144472
    19   Atom        0.059253      0.065592     -0.124845
    20   Atom       -0.058218      0.119797     -0.061579
    21   Atom       -0.045790     -0.045486      0.091276
    22   Atom       -0.081768      0.089863     -0.008095
    23   Atom        0.090875     -0.165363      0.074487
    24   Atom        0.113607     -0.038670     -0.074937
    25   Atom       -0.139635      0.053711      0.085924
    26   Atom        0.139585      0.151088     -0.290673
    27   Atom        0.142378     -0.254996      0.112619
    28   Atom        0.137922     -0.115297     -0.022625
    29   Atom        0.119657     -0.137048      0.017391
    30   Atom       -0.020929     -0.110034      0.130963
    31   Atom        0.123678      0.149999     -0.273677
    32   Atom        0.128558     -0.022795     -0.105763
    33   Atom        0.131562     -0.223738      0.092177
    34   Atom        0.119749      0.136718     -0.256467
    35   Atom       -0.009175     -0.222314      0.231489
    36   Atom        0.053930     -0.266600      0.212670
    37   Atom        0.080905     -0.136373      0.055468
    38   Atom        0.148136      0.167421     -0.315557
    39   Atom       -0.014237     -0.197671      0.211907
    40   Atom       -0.266349      0.110314      0.156034
 --------------------------------------------------------
                        XY            XZ            YZ
 --------------------------------------------------------
     1   Atom       -0.094391      0.368411      0.024610
     2   Atom       -0.041719     -0.225866     -0.130372
     3   Atom        0.199422     -0.031943      0.122053
     4   Atom       -0.092862     -0.211412     -0.063067
     5   Atom       -0.171145      0.114158      0.072056
     6   Atom       -0.020637     -0.026190     -0.025584
     7   Atom       -0.071310      0.041413     -0.033401
     8   Atom        0.096841      0.223679     -0.067508
     9   Atom        0.053057      0.195229      0.025344
    10   Atom       -0.033975      0.500834     -0.138538
    11   Atom        0.273098      0.534194      0.315623
    12   Atom        0.587944     -0.051318      0.133437
    13   Atom        0.013102     -0.606781     -0.064470
    14   Atom       -0.024487      0.161871      0.404219
    15   Atom       -0.377505     -0.322536      0.007194
    16   Atom        0.138741     -0.016771     -0.815953
    17   Atom        0.079855      0.205432     -0.500392
    18   Atom        0.407939     -0.418670      0.293839
    19   Atom        0.089905      0.152375     -0.137242
    20   Atom       -0.059816     -0.214788     -0.067087
    21   Atom       -0.178098      0.105206      0.114050
    22   Atom       -0.120741      0.173645      0.099995
    23   Atom        0.115237     -0.074395      0.153261
    24   Atom        0.064265      0.058460     -0.209245
    25   Atom        0.154729     -0.129609      0.085252
    26   Atom       -0.009626      0.002264     -0.029588
    27   Atom        0.016431      0.014445     -0.128193
    28   Atom        0.011941     -0.013373      0.212572
    29   Atom        0.063619      0.043720     -0.199992
    30   Atom        0.191736     -0.054605      0.069745
    31   Atom       -0.013690     -0.065578     -0.005734
    32   Atom       -0.009714      0.036372      0.208232
    33   Atom       -0.003331      0.007163     -0.150161
    34   Atom       -0.000989     -0.066468     -0.006420
    35   Atom       -0.254965      0.036396      0.013440
    36   Atom        0.213335      0.070924     -0.092188
    37   Atom       -0.148011      0.148867      0.233866
    38   Atom        0.008636     -0.038886     -0.158513
    39   Atom        0.255674     -0.038217      0.094416
    40   Atom       -0.014474      0.087642      0.020963
 --------------------------------------------------------


 ---------------------------------------------------------------------------------
              Nuclear Quadrupole in Principal Axis System
 ---------------------------------------------------------------------------------

       Atom             a.u.   MegaHertz   Gauss  10(-4) cm-1        Axes

              Baa    -0.5861   -78.648   -28.064   -26.234 -0.4672 -0.0773  0.8808
     1 C(13)  Bbb     0.2173    29.154    10.403     9.725  0.4898  0.8067  0.3306
              Bcc     0.3688    49.494    17.661    16.509  0.7361 -0.5859  0.3390
 
              Baa    -0.5140   -68.975   -24.612   -23.008  0.3257  0.1746  0.9292
     2 C(13)  Bbb     0.2318    31.112    11.101    10.378  0.9454 -0.0748 -0.3173
              Bcc     0.2822    37.863    13.510    12.630  0.0141  0.9818 -0.1894
 
              Baa    -0.3248   -43.589   -15.554   -14.540 -0.4615  0.8462 -0.2663
     3 C(13)  Bbb     0.1293    17.348     6.190     5.787 -0.6197 -0.0927  0.7794
              Bcc     0.1956    26.241     9.364     8.753  0.6348  0.5247  0.5672
 
              Baa    -0.3368   -45.190   -16.125   -15.074  0.8140  0.2190  0.5380
     4 C(13)  Bbb     0.1482    19.891     7.098     6.635 -0.5576  0.0349  0.8294
              Bcc     0.1885    25.299     9.027     8.439 -0.1629  0.9751 -0.1506
 
              Baa    -0.2853   -38.278   -13.659   -12.768  0.8041  0.4852 -0.3434
     5 C(13)  Bbb     0.1328    17.816     6.357     5.943  0.3674  0.0485  0.9288
              Bcc     0.1525    20.463     7.302     6.826 -0.4673  0.8731  0.1393
 
              Baa    -0.0644    -8.646    -3.085    -2.884  0.7857  0.2560  0.5631
     6 C(13)  Bbb    -0.0004    -0.059    -0.021    -0.020 -0.6059  0.1357  0.7839
              Bcc     0.0649     8.706     3.106     2.904 -0.1242  0.9571 -0.2617
 
              Baa    -0.0796   -10.687    -3.813    -3.565  0.7224  0.6876 -0.0728
     7 C(13)  Bbb    -0.0180    -2.420    -0.864    -0.807 -0.3317  0.4370  0.8361
              Bcc     0.0977    13.107     4.677     4.372  0.6067 -0.5799  0.5438
 
              Baa    -0.4071   -54.623   -19.491   -18.220  0.8785 -0.1873 -0.4395
     8 C(13)  Bbb     0.1735    23.287     8.310     7.768  0.4772  0.2983  0.8267
              Bcc     0.2335    31.336    11.181    10.453  0.0237  0.9359 -0.3514
 
              Baa    -0.2831   -37.988   -13.555   -12.672  0.9026 -0.1113 -0.4157
     9 C(13)  Bbb     0.0454     6.092     2.174     2.032 -0.0041  0.9638 -0.2667
              Bcc     0.2377    31.896    11.381    10.639  0.4304  0.2425  0.8695
 
              Baa    -0.6522   -25.153    -8.975    -8.390  0.9488 -0.0436 -0.3128
    10 N(14)  Bbb    -0.4113   -15.863    -5.660    -5.291  0.0716  0.9943  0.0785
              Bcc     1.0635    41.016    14.635    13.681  0.3076 -0.0969  0.9466
 
              Baa    -0.6240   -24.065    -8.587    -8.027 -0.3984  0.9150 -0.0638
    11 N(14)  Bbb    -0.3570   -13.767    -4.912    -4.592  0.7774  0.3000 -0.5529
              Bcc     0.9809    37.832    13.499    12.619  0.4867  0.2699  0.8308
 
              Baa    -0.7466   -28.796   -10.275    -9.605  0.8926 -0.3306  0.3067
    12 N(14)  Bbb    -0.4310   -16.622    -5.931    -5.544 -0.3113  0.0404  0.9495
              Bcc     1.1776    45.418    16.206    15.150  0.3262  0.9429  0.0669
 
              Baa    -0.4898   -18.891    -6.741    -6.301  0.2591  0.9405  0.2200
    13 N(14)  Bbb    -0.4128   -15.920    -5.681    -5.310  0.7950 -0.3370  0.5043
              Bcc     0.9026    34.811    12.421    11.612 -0.5485 -0.0442  0.8350
 
              Baa    -0.6397   -24.673    -8.804    -8.230  0.1653  0.9393 -0.3007
    14 N(14)  Bbb    -0.2150    -8.290    -2.958    -2.765  0.9765 -0.1986 -0.0839
              Bcc     0.8547    32.963    11.762    10.995  0.1385  0.2797  0.9500
 
              Baa    -1.1957    86.516    30.871    28.859  0.8905  0.1223  0.4383
    15 O(17)  Bbb    -0.3886    28.122    10.035     9.381 -0.4301 -0.0881  0.8985
              Bcc     1.5843  -114.639   -40.906   -38.239 -0.1485  0.9886  0.0259
 
              Baa    -1.6067   116.261    41.485    38.780 -0.0502  0.9280  0.3692
    16 O(17)  Bbb     0.7275   -52.644   -18.785   -17.560  0.5145 -0.2928  0.8059
              Bcc     0.8792   -63.617   -22.700   -21.220  0.8560  0.2305 -0.4627
 
              Baa    -1.6502   119.405    42.607    39.829 -0.0893  0.2062  0.9744
    17 O(17)  Bbb     0.7787   -56.344   -20.105   -18.794  0.9013 -0.3996  0.1671
              Bcc     0.8715   -63.061   -22.502   -21.035  0.4239  0.8932 -0.1501
 
              Baa    -0.7901   -32.393   -11.559   -10.805  0.7229 -0.4970  0.4801
    18 S(33)  Bbb     0.3652    14.972     5.342     4.994  0.6014  0.7946 -0.0830
              Bcc     0.4249    17.422     6.216     5.811 -0.3403  0.3487  0.8733
 
              Baa    -0.2869  -153.079   -54.622   -51.062 -0.4548  0.4215  0.7845
    19 H(1)   Bbb     0.1334    71.195    25.404    23.748 -0.3948  0.6942 -0.6018
              Bcc     0.1535    81.884    29.218    27.314  0.7983  0.5835  0.1493
 
              Baa    -0.2942  -156.947   -56.003   -52.352  0.6867  0.2119  0.6953
    20 H(1)   Bbb     0.1380    73.611    26.266    24.554 -0.3334  0.9418  0.0422
              Bcc     0.1562    83.337    29.737    27.798 -0.6459 -0.2608  0.7174
 
              Baa    -0.2873  -153.263   -54.688   -51.123  0.6506  0.6581 -0.3791
    21 H(1)   Bbb     0.1310    69.913    24.947    23.321  0.7540 -0.6192  0.2192
              Bcc     0.1562    83.350    29.741    27.803  0.0905  0.4285  0.8990
 
              Baa    -0.2876  -153.425   -54.746   -51.177  0.7166  0.3836 -0.5825
    22 H(1)   Bbb     0.1325    70.680    25.220    23.576  0.6497 -0.0635  0.7575
              Bcc     0.1551    82.745    29.526    27.601 -0.2536  0.9213  0.2947
 
              Baa    -0.2889  -154.168   -55.011   -51.425 -0.3380  0.8404 -0.4236
    23 H(1)   Bbb     0.1283    68.465    24.430    22.837  0.7547  0.5109  0.4115
              Bcc     0.1606    85.703    30.581    28.588 -0.5623  0.1806  0.8070
 
              Baa    -0.2856  -152.378   -54.372   -50.828 -0.2119  0.6633  0.7177
    24 H(1)   Bbb     0.1298    69.278    24.720    23.109  0.9284 -0.0928  0.3599
              Bcc     0.1557    83.100    29.652    27.719  0.3054  0.7425 -0.5961
 
              Baa    -0.2892  -154.327   -55.068   -51.478  0.8034 -0.4573  0.3814
    25 H(1)   Bbb     0.1326    70.775    25.254    23.608  0.5952  0.6352 -0.4922
              Bcc     0.1566    83.552    29.814    27.870 -0.0172  0.6225  0.7825
 
              Baa    -0.2927  -156.145   -55.717   -52.084 -0.0037  0.0664  0.9978
    26 H(1)   Bbb     0.1345    71.748    25.601    23.932  0.8855  0.4639 -0.0276
              Bcc     0.1582    84.398    30.115    28.152 -0.4647  0.8834 -0.0606
 
              Baa    -0.2962  -158.037   -56.391   -52.715 -0.0456  0.9527  0.3004
    27 H(1)   Bbb     0.1380    73.647    26.279    24.566  0.8586  0.1910 -0.4757
              Bcc     0.1582    84.390    30.112    28.150  0.5106 -0.2362  0.8267
 
              Baa    -0.2873  -153.268   -54.690   -51.125 -0.0416  0.7779 -0.6270
    28 H(1)   Bbb     0.1379    73.557    26.247    24.536  0.9641  0.1960  0.1792
              Bcc     0.1494    79.711    28.443    26.589 -0.2623  0.5970  0.7581
 
              Baa    -0.2888  -154.089   -54.983   -51.399 -0.1857  0.8103  0.5558
    29 H(1)   Bbb     0.1342    71.627    25.558    23.892  0.9826  0.1551  0.1021
              Bcc     0.1546    82.463    29.425    27.507  0.0035 -0.5651  0.8250
 
              Baa    -0.2814  -150.117   -53.565   -50.074 -0.6078  0.7658 -0.2100
    30 H(1)   Bbb     0.1313    70.078    25.006    23.376  0.7871  0.6160 -0.0317
              Bcc     0.1500    80.039    28.560    26.698 -0.1051  0.1846  0.9772
 
              Baa    -0.2844  -151.722   -54.138   -50.609  0.1592  0.0180  0.9871
    31 H(1)   Bbb     0.1273    67.907    24.231    22.651  0.8632  0.4826 -0.1481
              Bcc     0.1571    83.815    29.907    27.958 -0.4791  0.8756  0.0613
 
              Baa    -0.2795  -149.121   -53.210   -49.741 -0.0838 -0.6297  0.7723
    32 H(1)   Bbb     0.1222    65.175    23.256    21.740  0.8548 -0.4438 -0.2690
              Bcc     0.1573    83.946    29.954    28.001  0.5121  0.6376  0.5755
 
              Baa    -0.2837  -151.382   -54.017   -50.495  0.0011  0.9287  0.3709
    33 H(1)   Bbb     0.1289    68.769    24.538    22.939  0.9471  0.1181 -0.2984
              Bcc     0.1548    82.613    29.478    27.557  0.3210 -0.3516  0.8794
 
              Baa    -0.2680  -142.975   -51.017   -47.691  0.1690  0.0160  0.9855
    34 H(1)   Bbb     0.1311    69.973    24.968    23.340  0.9855 -0.0195 -0.1687
              Bcc     0.1368    73.003    26.049    24.351  0.0165  0.9997 -0.0191
 
              Baa    -0.3937  -210.038   -74.947   -70.061  0.5553  0.8302 -0.0502
    35 H(1)   Bbb     0.1540    82.174    29.322    27.410  0.7909 -0.5457 -0.2769
              Bcc     0.2396   127.865    45.625    42.651  0.2572 -0.1140  0.9596
 
              Baa    -0.3947  -210.569   -75.136   -70.238 -0.4458  0.8758  0.1850
    36 H(1)   Bbb     0.1545    82.442    29.417    27.500  0.8376  0.4810 -0.2590
              Bcc     0.2401   128.127    45.719    42.739  0.3158 -0.0395  0.9480
 
              Baa    -0.3848  -205.297   -73.255   -68.480  0.4062  0.7429 -0.5320
    37 H(1)   Bbb     0.1496    79.800    28.474    26.618  0.7792 -0.5857 -0.2230
              Bcc     0.2352   125.497    44.781    41.861  0.4773  0.3240  0.8168
 
              Baa    -0.3653  -194.903   -69.546   -65.013  0.0677  0.2835  0.9566
    38 H(1)   Bbb     0.1451    77.425    27.627    25.826  0.9612 -0.2754  0.0136
              Bcc     0.2202   117.478    41.919    39.187  0.2673  0.9186 -0.2912
 
              Baa    -0.3939  -210.142   -74.984   -70.096 -0.5624  0.8109 -0.1619
    39 H(1)   Bbb     0.1583    84.448    30.133    28.169  0.8100  0.5010 -0.3048
              Bcc     0.2356   125.694    44.851    41.927  0.1660  0.3025  0.9386
 
              Baa    -0.2847  -151.881   -54.195   -50.662  0.9793  0.0463 -0.1970
    40 H(1)   Bbb     0.1065    56.813    20.272    18.951 -0.0943  0.9657 -0.2417
              Bcc     0.1782    95.068    33.923    31.711  0.1790  0.2553  0.9501
 

 ---------------------------------------------------------------------------------

 No NMR shielding tensors so no spin-rotation constants.
 Leave Link  601 at Sat Feb 17 21:08:40 2018, MaxMem=   33554432 cpu:       1.3
 Merz-Kollman atomic radii used.
 Read replacement radii for each type of atom:
 Atom Element Radius
    1     6    1.50
    2     6    1.50
    3     6    1.50
    4     6    1.50
    5     6    1.50
    6     6    1.50
    7     6    1.50
    8     6    1.50
    9     6    1.50
   10     7    1.50
   11     7    1.50
   12     7    1.50
   13     7    1.50
   14     7    1.50
   15     8    1.40
   16     8    1.40
   17     8    1.40
   18    16    1.75
   19     1    1.20
   20     1    1.20
   21     1    1.20
   22     1    1.20
   23     1    1.20
   24     1    1.20
   25     1    1.20
   26     1    1.20
   27     1    1.20
   28     1    1.20
   29     1    1.20
   30     1    1.20
   31     1    1.20
   32     1    1.20
   33     1    1.20
   34     1    1.20
   35     1    1.20
   36     1    1.20
   37     1    1.20
   38     1    1.20
   39     1    1.20
   40     1    1.20
 Generate VDW surfaces: Layer= 4 Dens= 1 Start= 1.400 Inc= 0.200

 **********************************************************************

            Electrostatic Properties Using The SCF Density

 **********************************************************************

       Atomic Center    1 is at  -0.085081  1.149118 -0.282178
       Atomic Center    2 is at  -4.474124 -0.371368  0.132157
       Atomic Center    3 is at  -0.330405  3.565327 -0.320067
       Atomic Center    4 is at   1.599920  2.601968  0.869633
       Atomic Center    5 is at   4.760679 -0.014999 -0.515200
       Atomic Center    6 is at  -1.351209 -1.578151  0.465404
       Atomic Center    7 is at  -0.009311 -1.409501 -0.287893
[...]
  863 Fit       0.031057
  864 Fit       0.032001
  865 Fit       0.042993
  866 Fit       0.053052
  867 Fit       0.039176
  868 Fit       0.033122
  869 Fit       0.033577
  870 Fit       0.043026
  871 Fit       0.063090
  872 Fit       0.054559
  873 Fit       0.041749
  874 Fit       0.037721
  875 Fit       0.043284
  876 Fit       0.064000
  877 Fit       0.082173
  878 Fit       0.055357
  879 Fit       0.048577
  880 Fit       0.069784
  881 Fit       0.041065
  882 Fit       0.037234
  883 Fit       0.044307
  884 Fit       0.052585
  885 Fit       0.052144
  886 Fit       0.041527
  887 Fit       0.034859
  888 Fit       0.042133
  889 Fit       0.047032
  890 Fit       0.054315
  891 Fit       0.067439
  892 Fit       0.051232
  893 Fit       0.038152
  894 Fit       0.033781
  895 Fit       0.037003
  896 Fit       0.064137
  897 Fit       0.068305
  898 Fit       0.036099
  899 Fit       0.048866
  900 Fit       0.035738
  901 Fit       0.047513
  902 Fit       0.062691
  903 Fit       0.052828
  904 Fit       0.078845
  905 Fit       0.096824
  906 Fit       0.092972
  907 Fit       0.092110
  908 Fit       0.098341
  909 Fit       0.102665
  910 Fit       0.089083
  911 Fit       0.087956
  912 Fit       0.091732
  913 Fit       0.099452
  914 Fit       0.107899
  915 Fit       0.111048
  916 Fit       0.087683
  917 Fit       0.088799
  918 Fit       0.094122
  919 Fit       0.103975
  920 Fit       0.116016
  921 Fit       0.100412
  922 Fit       0.113676
  923 Fit       0.093699
  924 Fit       0.101626
  925 Fit       0.105988
  926 Fit       0.087461
  927 Fit       0.088987
  928 Fit       0.091833
  929 Fit       0.083635
  930 Fit       0.086577
  931 Fit       0.092278
  932 Fit       0.087303
  933 Fit       0.090071
  934 Fit       0.084957
  935 Fit       0.083659
  936 Fit       0.086166
  937 Fit       0.092488
  938 Fit       0.086469
  939 Fit       0.083294
  940 Fit       0.083572
  941 Fit       0.087830
  942 Fit       0.084234
  943 Fit       0.085448
  944 Fit       0.086748
  945 Fit       0.090475
  946 Fit       0.085825
  947 Fit       0.087832
  948 Fit       0.085537
  949 Fit       0.088798
  950 Fit       0.089449
  951 Fit       0.088780
  952 Fit       0.094192
  953 Fit       0.091809
  954 Fit       0.094003
  955 Fit       0.078698
  956 Fit       0.069836
  957 Fit       0.082221
  958 Fit       0.070619
  959 Fit       0.083024
  960 Fit       0.080270
  961 Fit       0.081296
  962 Fit       0.085514
  963 Fit       0.089731
  964 Fit       0.088649
  965 Fit       0.081624
  966 Fit       0.082223
  967 Fit       0.085798
  968 Fit       0.091983
  969 Fit       0.098084
  970 Fit       0.100247
  971 Fit       0.085088
  972 Fit       0.087214
  973 Fit       0.093069
  974 Fit       0.070431
  975 Fit       0.073695
  976 Fit       0.067090
  977 Fit       0.072483
  978 Fit       0.075801
  979 Fit       0.066841
  980 Fit       0.070015
  981 Fit       0.073877
  982 Fit       0.077371
  983 Fit       0.067778
  984 Fit       0.071300
  985 Fit       0.076470
  986 Fit       0.068588
  987 Fit       0.073064
  988 Fit       0.080259
  989 Fit       0.083332
  990 Fit       0.087869
  991 Fit       0.093700
  992 Fit       0.101262
  993 Fit       0.073328
  994 Fit       0.074249
  995 Fit       0.077587
  996 Fit       0.082208
  997 Fit       0.086697
  998 Fit       0.094547
  999 Fit       0.101935
 1000 Fit       0.089991
 1001 Fit       0.081510
 1002 Fit       0.088519
 1003 Fit       0.080510
 1004 Fit       0.085883
 1005 Fit       0.081097
 1006 Fit       0.085678
 1007 Fit       0.095011
 1008 Fit       0.082800
 1009 Fit       0.085351
 1010 Fit       0.092181
 1011 Fit       0.088613
 1012 Fit       0.095143
 1013 Fit       0.095323
 1014 Fit       0.089004
 1015 Fit       0.107844
 1016 Fit       0.098696
 1017 Fit       0.089412
 1018 Fit       0.087895
 1019 Fit       0.111497
 1020 Fit       0.096807
 1021 Fit       0.088285
 1022 Fit       0.084656
 1023 Fit       0.108234
 1024 Fit       0.095412
 1025 Fit       0.089105
 1026 Fit       0.099364
 1027 Fit       0.103462
 1028 Fit       0.102398
 1029 Fit       0.107724
 1030 Fit       0.110945
 1031 Fit       0.113557
 1032 Fit       0.117330
 1033 Fit       0.074140
 1034 Fit       0.084408
 1035 Fit       0.065941
 1036 Fit       0.091331
 1037 Fit       0.073296
 1038 Fit       0.083274
 1039 Fit       0.063999
 1040 Fit       0.077763
 1041 Fit       0.096681
 1042 Fit       0.087207
 1043 Fit       0.090167
 1044 Fit       0.106214
 1045 Fit       0.107328
 1046 Fit       0.096461
 1047 Fit       0.102849
 1048 Fit       0.098417
 1049 Fit       0.093950
 1050 Fit       0.098314
 1051 Fit       0.101865
 1052 Fit       0.093896
 1053 Fit       0.101958
 1054 Fit       0.106125
 1055 Fit       0.104401
 1056 Fit       0.103683
 1057 Fit       0.100332
 1058 Fit       0.114785
 1059 Fit       0.108145
 1060 Fit       0.119986
 1061 Fit       0.108333
 1062 Fit       0.101932
 1063 Fit       0.100282
 1064 Fit       0.112611
 1065 Fit       0.105799
 1066 Fit       0.100137
 1067 Fit       0.097876
 1068 Fit       0.100447
 1069 Fit       0.105324
 1070 Fit       0.106557
 1071 Fit       0.100787
 1072 Fit       0.099029
 1073 Fit       0.103111
 1074 Fit       0.082606
 1075 Fit       0.099795
 1076 Fit       0.102174
 1077 Fit       0.089854
 1078 Fit       0.127504
 1079 Fit       0.125504
 1080 Fit       0.127991
 1081 Fit       0.137755
 1082 Fit       0.125085
 1083 Fit       0.126906
 1084 Fit       0.134116
 1085 Fit       0.124133
 1086 Fit       0.127567
 1087 Fit       0.136619
 1088 Fit       0.128003
 1089 Fit       0.126306
 1090 Fit       0.124168
 1091 Fit       0.123597
 1092 Fit       0.137488
 1093 Fit       0.131727
 1094 Fit       0.126775
 1095 Fit       0.125467
 1096 Fit       0.148596
 1097 Fit       0.135255
 1098 Fit       0.128412
 1099 Fit       0.126741
 1100 Fit       0.149676
 1101 Fit       0.132958
 1102 Fit       0.127275
 1103 Fit       0.129274
 1104 Fit       0.139041
 1105 Fit       0.130815
 1106 Fit       0.126884
 1107 Fit       0.135028
 1108 Fit       0.128101
 1109 Fit       0.127635
 1110 Fit       0.138761
 1111 Fit       0.129081
 1112 Fit       0.127822
 1113 Fit       0.130980
 1114 Fit       0.127471
 1115 Fit       0.093909
 1116 Fit       0.106553
 1117 Fit       0.104459
 1118 Fit       0.104989
 1119 Fit       0.108041
 1120 Fit       0.104909
 1121 Fit       0.100568
 1122 Fit       0.104741
 1123 Fit       0.130237
 1124 Fit       0.142098
 1125 Fit       0.126332
 1126 Fit       0.129533
 1127 Fit       0.137797
 1128 Fit       0.122795
 1129 Fit       0.124144
 1130 Fit       0.127901
 1131 Fit       0.133929
 1132 Fit       0.120934
 1133 Fit       0.123528
 1134 Fit       0.113804
 1135 Fit       0.089369
 1136 Fit       0.117375
 1137 Fit       0.116041
 1138 Fit       0.112346
 1139 Fit       0.111786
 1140 Fit       0.085753
 1141 Fit       0.083178
 1142 Fit       0.084648
 1143 Fit       0.110925
 1144 Fit       0.083554
 1145 Fit       0.087689
 1146 Fit       0.095914
 1147 Fit       0.085344
 1148 Fit       0.083212
 1149 Fit       0.085822
 1150 Fit       0.083703
 1151 Fit       0.086871
 1152 Fit       0.075519
 1153 Fit       0.083905
 1154 Fit       0.073898
 1155 Fit       0.077491
 1156 Fit       0.096664
 1157 Fit       0.096680
 1158 Fit       0.077646
 1159 Fit       0.078753
 1160 Fit       0.079598
 1161 Fit       0.081688
 1162 Fit       0.082137
 1163 Fit       0.071901
 1164 Fit       0.074265
 1165 Fit       0.074807
 1166 Fit       0.077723
 1167 Fit       0.074904
 1168 Fit       0.077880
 1169 Fit       0.074594
 1170 Fit       0.076375
 1171 Fit       0.079738
 1172 Fit       0.085053
 1173 Fit       0.091103
 1174 Fit       0.068865
 1175 Fit       0.072849
 1176 Fit       0.096234
 1177 Fit       0.090738
 1178 Fit       0.105381
 1179 Fit       0.099667
 1180 Fit       0.090863
 1181 Fit       0.119031
 1182 Fit       0.106012
 1183 Fit       0.099428
 1184 Fit       0.098820
 1185 Fit       0.106711
 1186 Fit       0.110392
 1187 Fit       0.109490
 1188 Fit       0.109492
 1189 Fit       0.108161
 1190 Fit       0.109802
 1191 Fit       0.111777
 1192 Fit       0.117087
 1193 Fit       0.113360
 1194 Fit       0.112983
 1195 Fit       0.116839
 1196 Fit       0.122062
 1197 Fit       0.117500
 1198 Fit       0.117546
 1199 Fit       0.118733
 1200 Fit       0.119470
 1201 Fit       0.116599
 1202 Fit       0.117678
 1203 Fit       0.119306
 1204 Fit       0.113002
 1205 Fit       0.113722
 1206 Fit       0.119602
 1207 Fit       0.111081
 1208 Fit       0.110813
 1209 Fit       0.115917
 1210 Fit       0.118076
 1211 Fit       0.111305
 1212 Fit       0.114267
 1213 Fit       0.118278
 1214 Fit       0.118053
 1215 Fit       0.118252
 1216 Fit       0.118237
 1217 Fit       0.112976
 1218 Fit       0.112816
 1219 Fit       0.107909
 1220 Fit       0.109904
 1221 Fit       0.092504
 1222 Fit       0.094626
 1223 Fit       0.094929
 1224 Fit       0.099313
 1225 Fit       0.108591
 1226 Fit       0.092766
 1227 Fit       0.116880
 1228 Fit       0.112559
 1229 Fit       0.119410
 1230 Fit       0.113304
 1231 Fit       0.111405
 1232 Fit       0.116937
 1233 Fit       0.114519
 1234 Fit       0.120232
 1235 Fit       0.102031
 1236 Fit       0.110934
 1237 Fit       0.115067
 1238 Fit       0.114147
 1239 Fit       0.098085
 1240 Fit       0.104368
 1241 Fit       0.105728
 1242 Fit       0.106321
 1243 Fit       0.100404
 1244 Fit       0.094912
 1245 Fit       0.087087
 1246 Fit       0.081041
 1247 Fit       0.081023
 1248 Fit       0.085322
 1249 Fit       0.088511
 1250 Fit       0.089256
 1251 Fit       0.080789
 1252 Fit       0.047310
 1253 Fit       0.037780
 1254 Fit       0.035897
 1255 Fit       0.050061
 1256 Fit       0.038677
 1257 Fit       0.034283
 1258 Fit       0.036186
 1259 Fit       0.056517
 1260 Fit       0.043237
 1261 Fit       0.036452
 1262 Fit       0.034541
 1263 Fit       0.037817
 1264 Fit       0.048468
 1265 Fit       0.051771
 1266 Fit       0.041691
 1267 Fit       0.037468
 1268 Fit       0.038817
 1269 Fit       0.047380
 1270 Fit       0.070018
 1271 Fit       0.053896
 1272 Fit       0.045066
 1273 Fit       0.043097
 1274 Fit       0.048827
 1275 Fit       0.066402
 1276 Fit       0.082670
 1277 Fit       0.059804
 1278 Fit       0.053483
 1279 Fit       0.071877
 1280 Fit       0.044335
 1281 Fit       0.040550
 1282 Fit       0.046788
 1283 Fit       0.053929
 1284 Fit       0.053744
 1285 Fit       0.044891
 1286 Fit       0.038826
 1287 Fit       0.042857
 1288 Fit       0.047165
 1289 Fit       0.053076
 1290 Fit       0.061475
 1291 Fit       0.073643
 1292 Fit       0.070730
 1293 Fit       0.060565
 1294 Fit       0.048501
 1295 Fit       0.039711
 1296 Fit       0.036977
 1297 Fit       0.039045
 1298 Fit       0.053971
 1299 Fit       0.057417
 1300 Fit       0.061790
 1301 Fit       0.073350
 1302 Fit       0.055184
 1303 Fit       0.069755
 1304 Fit       0.050767
 1305 Fit       0.039544
 1306 Fit       0.038546
 1307 Fit       0.045217
 1308 Fit       0.054824
 1309 Fit       0.052413
 1310 Fit       0.057157
 1311 Fit       0.078543
 1312 Fit       0.093637
 1313 Fit       0.089980
 1314 Fit       0.089167
 1315 Fit       0.095020
 1316 Fit       0.099464
 1317 Fit       0.086323
 1318 Fit       0.085032
 1319 Fit       0.088561
 1320 Fit       0.095926
 1321 Fit       0.104112
 1322 Fit       0.108006
 1323 Fit       0.084035
 1324 Fit       0.084226
 1325 Fit       0.088111
 1326 Fit       0.095976
 1327 Fit       0.107606
 1328 Fit       0.089557
 1329 Fit       0.098130
 1330 Fit       0.102002
 1331 Fit       0.089377
 1332 Fit       0.096155
 1333 Fit       0.099629
 1334 Fit       0.085629
 1335 Fit       0.088273
 1336 Fit       0.084192
 1337 Fit       0.085768
 1338 Fit       0.082856
 1339 Fit       0.081049
 1340 Fit       0.082795
 1341 Fit       0.085710
 1342 Fit       0.080971
 1343 Fit       0.079427
 1344 Fit       0.080876
 1345 Fit       0.087882
 1346 Fit       0.082523
 1347 Fit       0.079726
 1348 Fit       0.080199
 1349 Fit       0.084641
 1350 Fit       0.081223
 1351 Fit       0.082564
 1352 Fit       0.083564
 1353 Fit       0.081443
 1354 Fit       0.083820
 1355 Fit       0.085759
 1356 Fit       0.082796
 1357 Fit       0.085200
 1358 Fit       0.086700
 1359 Fit       0.086233
 1360 Fit       0.091556
 1361 Fit       0.089141
 1362 Fit       0.092071
 1363 Fit       0.075781
 1364 Fit       0.067700
 1365 Fit       0.078038
 1366 Fit       0.079616
 1367 Fit       0.076718
 1368 Fit       0.077693
 1369 Fit       0.081544
 1370 Fit       0.085601
 1371 Fit       0.084664
 1372 Fit       0.077265
 1373 Fit       0.078091
 1374 Fit       0.081340
 1375 Fit       0.086769
 1376 Fit       0.092358
 1377 Fit       0.095442
 1378 Fit       0.079698
 1379 Fit       0.081081
 1380 Fit       0.085273
 1381 Fit       0.085925
 1382 Fit       0.065368
 1383 Fit       0.067488
 1384 Fit       0.070834
 1385 Fit       0.061970
 1386 Fit       0.064975
 1387 Fit       0.068685
 1388 Fit       0.071863
 1389 Fit       0.063480
 1390 Fit       0.066325
 1391 Fit       0.070303
 1392 Fit       0.074014
 1393 Fit       0.064459
 1394 Fit       0.067643
 1395 Fit       0.070265
 1396 Fit       0.075853
 1397 Fit       0.078801
 1398 Fit       0.083184
 1399 Fit       0.089032
 1400 Fit       0.096986
 1401 Fit       0.073439
 1402 Fit       0.071761
 1403 Fit       0.073626
 1404 Fit       0.078192
 1405 Fit       0.082370
 1406 Fit       0.089468
 1407 Fit       0.094915
 1408 Fit       0.085331
 1409 Fit       0.077848
 1410 Fit       0.083867
 1411 Fit       0.075389
 1412 Fit       0.076292
 1413 Fit       0.080664
 1414 Fit       0.077613
 1415 Fit       0.079771
 1416 Fit       0.085809
 1417 Fit       0.081200
 1418 Fit       0.086456
 1419 Fit       0.085396
 1420 Fit       0.091178
 1421 Fit       0.091852
 1422 Fit       0.085619
 1423 Fit       0.102588
 1424 Fit       0.094210
 1425 Fit       0.085923
 1426 Fit       0.082126
 1427 Fit       0.119418
 1428 Fit       0.104491
 1429 Fit       0.091811
 1430 Fit       0.083992
 1431 Fit       0.080260
 1432 Fit       0.113869
 1433 Fit       0.097073
 1434 Fit       0.087463
 1435 Fit       0.082011
 1436 Fit       0.103047
 1437 Fit       0.091986
 1438 Fit       0.099741
 1439 Fit       0.097422
 1440 Fit       0.102443
 1441 Fit       0.106052
 1442 Fit       0.108478
 1443 Fit       0.111570
 1444 Fit       0.116387
 1445 Fit       0.072123
 1446 Fit       0.065064
 1447 Fit       0.083590
 1448 Fit       0.067063
 1449 Fit       0.083198
 1450 Fit       0.066547
 1451 Fit       0.081571
 1452 Fit       0.064749
 1453 Fit       0.092315
 1454 Fit       0.085124
 1455 Fit       0.088839
 1456 Fit       0.100051
 1457 Fit       0.101374
 1458 Fit       0.094197
 1459 Fit       0.097935
 1460 Fit       0.094225
 1461 Fit       0.090826
 1462 Fit       0.094471
 1463 Fit       0.097495
 1464 Fit       0.092281
 1465 Fit       0.097656
 1466 Fit       0.100890
 1467 Fit       0.099526
 1468 Fit       0.098734
 1469 Fit       0.096307
 1470 Fit       0.113704
 1471 Fit       0.116993
 1472 Fit       0.104562
 1473 Fit       0.098594
 1474 Fit       0.097645
 1475 Fit       0.105294
 1476 Fit       0.098031
 1477 Fit       0.094137
 1478 Fit       0.093653
 1479 Fit       0.105861
 1480 Fit       0.099413
 1481 Fit       0.094546
 1482 Fit       0.092809
 1483 Fit       0.095530
 1484 Fit       0.096259
 1485 Fit       0.094783
 1486 Fit       0.079069
 1487 Fit       0.093650
 1488 Fit       0.095875
 1489 Fit       0.084945
 1490 Fit       0.083149
 1491 Fit       0.119288
 1492 Fit       0.116987
 1493 Fit       0.119005
 1494 Fit       0.127285
 1495 Fit       0.118079
 1496 Fit       0.116603
 1497 Fit       0.119678
 1498 Fit       0.128266
 1499 Fit       0.117209
 1500 Fit       0.116288
 1501 Fit       0.119557
 1502 Fit       0.127870
 1503 Fit       0.116019
 1504 Fit       0.118885
 1505 Fit       0.126482
 1506 Fit       0.115911
 1507 Fit       0.125769
 1508 Fit       0.121177
 1509 Fit       0.117300
 1510 Fit       0.116507
 1511 Fit       0.135253
 1512 Fit       0.125890
 1513 Fit       0.119855
 1514 Fit       0.117420
 1515 Fit       0.119492
 1516 Fit       0.132640
 1517 Fit       0.122759
 1518 Fit       0.118698
 1519 Fit       0.125486
 1520 Fit       0.121734
 1521 Fit       0.122069
 1522 Fit       0.119018
 1523 Fit       0.125432
 1524 Fit       0.119437
 1525 Fit       0.118918
 1526 Fit       0.125497
 1527 Fit       0.119510
 1528 Fit       0.119098
 1529 Fit       0.124392
 1530 Fit       0.119434
 1531 Fit       0.090879
 1532 Fit       0.099147
 1533 Fit       0.098624
 1534 Fit       0.099085
 1535 Fit       0.101147
 1536 Fit       0.098376
 1537 Fit       0.094784
 1538 Fit       0.098196
 1539 Fit       0.123571
 1540 Fit       0.135237
 1541 Fit       0.119714
 1542 Fit       0.121466
 1543 Fit       0.128291
 1544 Fit       0.117900
 1545 Fit       0.118487
 1546 Fit       0.122505
 1547 Fit       0.130475
 1548 Fit       0.114354
 1549 Fit       0.115112
 1550 Fit       0.117804
 1551 Fit       0.122292
 1552 Fit       0.112856
 -----------------------------------------------------------------
 Leave Link  602 at Sat Feb 17 21:08:40 2018, MaxMem=   33554432 cpu:       1.3

 Test job not archived.
 1\1\GINC-NODE009\SP\RHF\6-31G(d)\C9H22N5O3S1(1+)\WULSDORT\17-Feb-2018\
 0\\#HF/6-31G* Geom=AllCheck Guess=Read Pop=(MK,ReadRadii) Integral=(Gr
 id=UltraFine) iop(6/33=2)\\Optimization for frag50-conf2\\1,1\C,0,-0.5
 678511411,3.0340279812,-0.9896779899\C,0,1.4669671843,6.2871868079,1.6
 605518518\C,0,-0.3702647862,1.0168477747,0.3488396494\C,0,-2.434766241
 ,1.3637807449,-0.9500329143\C,0,-3.0394723059,1.9816136812,-5.19376838
 99\C,0,-0.5364692897,6.1318709942,-1.0379838104\C,0,-0.638036911,5.234
 5787207,-2.295417117\C,0,0.9200695631,6.5355238272,-0.756333198\C,0,-1
 .3224206933,3.8777894163,-2.043868655\N,0,1.7705693847,6.8944014811,2.
 827172538\N,0,1.1421733869,7.0447754725,0.6063083948\N,0,-1.4610403152
 ,3.074646676,-3.2781527167\N,0,-1.1206485148,1.8803591548,-0.563537589
 5\N,0,1.4980171368,4.9572891125,1.5820360342\O,0,0.5367782538,3.431876
 5848,-0.5638002581\O,0,-2.4139562433,4.558502311,-5.2226253068\O,0,-3.
 9132118472,3.7049862452,-3.3435116853\S,0,-2.7960064146,3.5075693556,-
 4.2747526855\H,0,-0.8130673771,1.0401714133,1.3520596438\H,0,0.6633065
 369,1.353944954,0.3959389868\H,0,-0.4030767725,-0.0132879688,-0.020297
 8583\H,0,-2.3221473932,0.5068558177,-1.6239374603\H,0,-3.0440068676,2.
 1178000541,-1.4422171797\H,0,-2.9561723518,1.0295929126,-0.0467447329\
 H,0,-3.8746209769,2.1630145333,-5.8745393283\H,0,-2.1362749334,1.75967
 86725,-5.7658999604\H,0,-3.276048306,1.1778625567,-4.4963961924\H,0,-1
 .1525248774,7.0303272657,-1.1553487983\H,0,-0.9296127639,5.6052369798,
 -0.1614530291\H,0,-1.20135632,5.7419216802,-3.0833388224\H,0,0.3629834
 454,5.0438408058,-2.7021043994\H,0,1.5790033683,5.6772484819,-0.897430
 7035\H,0,1.2529245701,7.31788882,-1.4444909527\H,0,-2.3398077069,4.060
 0188754,-1.6826605475\H,0,2.0301063386,7.8697588951,2.8572549408\H,0,1
 .8711830767,6.3644749584,3.6804243948\H,0,0.8998029436,8.0091951528,0.
 7942517774\H,0,-0.6083628634,3.1107605772,-3.8393785307\H,0,1.95906663
 99,4.4280934786,2.3087814731\H,0,1.1198246646,4.423034779,0.7837877971
 \\Version=AM64L-G09RevC.01\State=1-A\HF=-1247.7261755\RMSD=5.863e-09\D
 ipole=3.1595205,1.1390264,4.2754917\Quadrupole=-19.5663264,6.4477982,1
 3.1185282,23.21181,23.9034798,29.6013415\PG=C01 [X(C9H22N5O3S1)]\\@


 GETTING A SIMPLE ANSWER FROM A PROFESSOR IS LIKE
 GETTING A THIMBLE OF WATER FROM A FIRE HYDRANT.
     -- PROF. LEN SHAPIRO, NDSU
 Job cpu time:  0 days  0 hours  8 minutes  6.8 seconds.
 File lengths (MBytes):  RWF=     57 Int=      0 D2E=      0 Chk=      8 Scr=      1
 Normal termination of Gaussian 09 at Sat Feb 17 21:08:41 2018.
