 Entering Gaussian System, Link 0=g09
 Initial command:
 /home/fb_chem/chemsoft/lx24-amd64/Gaussian_09_C.01_NBO_3.1_64_istanbul-64/g09/l1.exe /local/2399995.1.parallel/Gau-2799.inp -scrdir=/local/2399995.1.parallel/
 Entering Link 1 = /home/fb_chem/chemsoft/lx24-amd64/Gaussian_09_C.01_NBO_3.1_64_istanbul-64/g09/l1.exe PID=      2800.
  
 Copyright (c) 1988,1990,1992,1993,1995,1998,2003,2009,2011,
            Gaussian, Inc.  All Rights Reserved.
  
 This is part of the Gaussian(R) 09 program.  It is based on
 the Gaussian(R) 03 system (copyright 2003, Gaussian, Inc.),
 the Gaussian(R) 98 system (copyright 1998, Gaussian, Inc.),
 the Gaussian(R) 94 system (copyright 1995, Gaussian, Inc.),
 the Gaussian 92(TM) system (copyright 1992, Gaussian, Inc.),
 the Gaussian 90(TM) system (copyright 1990, Gaussian, Inc.),
 the Gaussian 88(TM) system (copyright 1988, Gaussian, Inc.),
 the Gaussian 86(TM) system (copyright 1986, Carnegie Mellon
 University), and the Gaussian 82(TM) system (copyright 1983,
 Carnegie Mellon University). Gaussian is a federally registered
 trademark of Gaussian, Inc.
  
 This software contains proprietary and confidential information,
 including trade secrets, belonging to Gaussian, Inc.
  
 This software is provided under written license and may be
 used, copied, transmitted, or stored only in accord with that
 written license.
  
 The following legend is applicable only to US Government
 contracts under FAR:
  
                    RESTRICTED RIGHTS LEGEND
  
 Use, reproduction and disclosure by the US Government is
 subject to restrictions as set forth in subparagraphs (a)
 and (c) of the Commercial Computer Software - Restricted
 Rights clause in FAR 52.227-19.
  
 Gaussian, Inc.
 340 Quinnipiac St., Bldg. 40, Wallingford CT 06492
  
  
 ---------------------------------------------------------------
 Warning -- This program may not be used in any manner that
 competes with the business of Gaussian, Inc. or will provide
 assistance to any competitor of Gaussian, Inc.  The licensee
 of this program is prohibited from giving any competitor of
 Gaussian, Inc. access to this program.  By using this program,
 the user acknowledges that Gaussian, Inc. is engaged in the
 business of creating and licensing software in the field of
 computational chemistry and represents and warrants to the
 licensee that it is not a competitor of Gaussian, Inc. and that
 it will not use this program in any manner prohibited above.
 ---------------------------------------------------------------
  

 Cite this work as:
 Gaussian 09, Revision C.01,
 M. J. Frisch, G. W. Trucks, H. B. Schlegel, G. E. Scuseria, 
 M. A. Robb, J. R. Cheeseman, G. Scalmani, V. Barone, B. Mennucci, 
 G. A. Petersson, H. Nakatsuji, M. Caricato, X. Li, H. P. Hratchian, 
 A. F. Izmaylov, J. Bloino, G. Zheng, J. L. Sonnenberg, M. Hada, 
 M. Ehara, K. Toyota, R. Fukuda, J. Hasegawa, M. Ishida, T. Nakajima, 
 Y. Honda, O. Kitao, H. Nakai, T. Vreven, J. A. Montgomery, Jr., 
 J. E. Peralta, F. Ogliaro, M. Bearpark, J. J. Heyd, E. Brothers, 
 K. N. Kudin, V. N. Staroverov, T. Keith, R. Kobayashi, J. Normand, 
 K. Raghavachari, A. Rendell, J. C. Burant, S. S. Iyengar, J. Tomasi, 
 M. Cossi, N. Rega, J. M. Millam, M. Klene, J. E. Knox, J. B. Cross, 
 V. Bakken, C. Adamo, J. Jaramillo, R. Gomperts, R. E. Stratmann, 
 O. Yazyev, A. J. Austin, R. Cammi, C. Pomelli, J. W. Ochterski, 
 R. L. Martin, K. Morokuma, V. G. Zakrzewski, G. A. Voth, 
 P. Salvador, J. J. Dannenberg, S. Dapprich, A. D. Daniels, 
 O. Farkas, J. B. Foresman, J. V. Ortiz, J. Cioslowski, 
 and D. J. Fox, Gaussian, Inc., Wallingford CT, 2010.
 
 ******************************************
 Gaussian 09:  AM64L-G09RevC.01 23-Sep-2011
                17-Feb-2018 
 ******************************************
 %nprocs=2
 Will use up to    2 processors via shared memory.
 %chk=frag13-conf0.chk
 ----------------------------------------------------------------------
 #HF/6-31G* Geom=AllCheck Guess=Read Pop=(MK,ReadRadii) Integral=(Grid=
 UltraFine) iop(6/33=2)
 ----------------------------------------------------------------------
 1/29=7,38=1/1;
 2/12=2,40=1/2;
 3/5=1,6=6,7=1,11=9,14=-4,16=1,25=1,30=1,75=-5,116=-2/1,2,3;
 4/5=1/1;
 5/5=2,38=6/2;
 6/7=2,8=2,9=2,10=2,15=8,20=101,28=1,33=2/1,2;
 99/5=1,9=1/99;
 Structure from the checkpoint file:  frag13-conf0.chk
 -----------------------------
 Optimization for frag13-conf0
 -----------------------------
 Charge =  1 Multiplicity = 1
 Redundant internal coordinates found in file.
 C,0,3.5421380522,-2.9140180082,-5.0898781105
 C,0,1.2208151016,-0.4256960972,0.4775973342
 C,0,0.8129670745,-1.825892042,-0.0028512481
 C,0,1.6666813835,0.4611763084,-0.6939354289
 C,0,1.9358094001,-2.4944958785,-0.8178582654
 C,0,2.7923847599,-0.2016793013,-1.5111587445
 C,0,2.3573404795,-1.5917044529,-1.9819188564
 C,0,3.5019697034,-3.8288623516,-7.3347610888
 C,0,4.267343975,-1.4955329721,-6.9977227593
 C,0,3.8259230219,-1.7420087588,-4.108763632
 N,0,3.7656570625,-2.7302693983,-6.3969974507
 N,0,3.4799187995,-2.2810692467,-2.7516121307
 O,0,3.1152260939,-3.9614737827,-4.583478964
 H,0,0.3849014233,0.0463328711,1.0046002278
 H,0,2.0402755026,-0.5112078687,1.204952705
 H,0,0.5592169613,-2.4685313951,0.8463097454
 H,0,-0.0909614318,-1.7575055131,-0.6234436652
 H,0,0.8116317171,0.6610203011,-1.3544042352
 H,0,2.0150330654,1.4343739568,-0.3330089657
 H,0,2.8032976862,-2.6707678352,-0.1643545218
 H,0,1.6066225724,-3.4711064907,-1.1947929697
 H,0,3.0662771513,0.4351828768,-2.3615815442
 H,0,3.6885311344,-0.3030256299,-0.8803424359
 H,0,1.5373546436,-1.5138170227,-2.7056579231
 H,0,2.7475095606,-3.5158700563,-8.0639065495
 H,0,3.1415894655,-4.6930953665,-6.7804390376
 H,0,4.4242890843,-4.0874287713,-7.8650211573
 H,0,5.215098532,-1.6899557197,-7.5113968648
 H,0,4.4337084214,-0.7191265984,-6.2509336483
 H,0,3.5455366559,-1.1198906229,-7.7309833669
 H,0,4.8713997502,-1.4288968644,-4.1237542631
 H,0,3.1976845162,-0.874097736,-4.3166682641
 H,0,4.3109060294,-2.3268348748,-2.1545618433
 H,0,3.1976767647,-3.2720126898,-2.9874700909
 Recover connectivity data from disk.
                          Input orientation:                          
 ---------------------------------------------------------------------
 Center     Atomic      Atomic             Coordinates (Angstroms)
 Number     Number       Type             X           Y           Z
 ---------------------------------------------------------------------
      1          6           0        3.542138   -2.914018   -5.089878
      2          6           0        1.220815   -0.425696    0.477597
      3          6           0        0.812967   -1.825892   -0.002851
      4          6           0        1.666681    0.461176   -0.693935
      5          6           0        1.935809   -2.494496   -0.817858
      6          6           0        2.792385   -0.201679   -1.511159
      7          6           0        2.357340   -1.591704   -1.981919
      8          6           0        3.501970   -3.828862   -7.334761
      9          6           0        4.267344   -1.495533   -6.997723
     10          6           0        3.825923   -1.742009   -4.108764
     11          7           0        3.765657   -2.730269   -6.396997
     12          7           0        3.479919   -2.281069   -2.751612
     13          8           0        3.115226   -3.961474   -4.583479
     14          1           0        0.384901    0.046333    1.004600
     15          1           0        2.040276   -0.511208    1.204953
     16          1           0        0.559217   -2.468531    0.846310
     17          1           0       -0.090961   -1.757506   -0.623444
     18          1           0        0.811632    0.661020   -1.354404
     19          1           0        2.015033    1.434374   -0.333009
     20          1           0        2.803298   -2.670768   -0.164355
     21          1           0        1.606623   -3.471106   -1.194793
     22          1           0        3.066277    0.435183   -2.361582
     23          1           0        3.688531   -0.303026   -0.880342
     24          1           0        1.537355   -1.513817   -2.705658
     25          1           0        2.747510   -3.515870   -8.063907
     26          1           0        3.141589   -4.693095   -6.780439
     27          1           0        4.424289   -4.087429   -7.865021
     28          1           0        5.215099   -1.689956   -7.511397
     29          1           0        4.433708   -0.719127   -6.250934
     30          1           0        3.545537   -1.119891   -7.730983
     31          1           0        4.871400   -1.428897   -4.123754
     32          1           0        3.197685   -0.874098   -4.316668
     33          1           0        4.310906   -2.326835   -2.154562
     34          1           0        3.197677   -3.272013   -2.987470
 ---------------------------------------------------------------------
                    Distance matrix (angstroms):
                    1          2          3          4          5
     1  C    0.000000
     2  C    6.525111   0.000000
     3  C    5.874541   1.535487   0.000000
     4  C    5.850947   1.535522   2.537145   0.000000
     5  C    4.583279   2.543493   1.540144   2.970486   0.000000
     6  C    4.552597   2.544635   2.971726   1.540922   2.543894
     7  C    3.579339   2.949659   2.521238   2.519966   1.532239
     8  C    2.424470   8.821460   8.062228   8.116236   6.833990
     9  C    2.485537   8.142868   7.808334   7.094356   6.680173
    10  C    1.554582   5.436357   5.093472   4.601891   3.868957
    11  N    1.338763   7.684226   7.100802   6.864105   5.876285
    12  N    2.423218   4.355887   3.856878   3.878373   2.483793
    13  O    1.239297   6.457942   5.553671   6.065201   4.209863
    14  H    7.474924   1.095123   2.168738   2.167966   3.490341
    15  H    6.903186   1.099033   2.166442   2.165844   2.834803
    16  H    6.658423   2.178724   1.094737   3.490275   2.159893
    17  H    5.872476   2.169508   1.098589   2.831400   2.165353
    18  H    5.847250   2.169012   2.830447   1.098757   3.392483
    19  H    6.623320   2.178928   3.490459   1.094866   3.959466
    20  H    4.986566   2.820762   2.168251   3.373637   1.100307
    21  H    4.385004   3.495749   2.181134   3.964507   1.097366
    22  H    4.345940   3.493963   3.969065   2.177289   3.499151
    23  H    4.955694   2.819339   3.370160   2.169477   2.806863
    24  H    3.415293   3.378952   2.815545   2.822118   2.164321
    25  H    3.136639   9.210714   8.460443   8.444025   7.362559
    26  H    2.486675   8.635923   7.718746   8.110943   6.468394
    27  H    3.139507   9.657630   8.942590   8.928532   7.641497
    28  H    3.187613   9.020902   8.704912   7.981003   7.496965
    29  H    2.638275   7.462032   7.305699   6.319002   6.237768
    30  H    3.192858   8.559616   8.227357   7.453181   7.229942
    31  H    2.214930   5.958659   5.797441   5.060262   4.547762
    32  H    2.208569   5.205195   5.020140   4.153447   4.057054
    33  H    3.090610   4.482327   4.137195   4.110761   2.730562
    34  H    2.160309   4.900632   4.084857   4.641223   2.627557
                    6          7          8          9         10
     6  C    0.000000
     7  C    1.530702   0.000000
     8  C    6.897413   5.913372   0.000000
     9  C    5.826830   5.368021   2.478673   0.000000
    10  C    3.191922   2.588976   3.855770   2.932863   0.000000
    11  N    5.586810   4.772065   1.468277   1.461894   2.493252
    12  N    2.517000   1.525724   4.837500   4.389369   1.500722
    13  O    4.866152   3.599766   2.781494   3.638243   2.378333
    14  H    3.490921   3.936112   9.709696   9.027064   6.417576
    15  H    2.835267   3.379964   9.277397   8.556437   5.739250
    16  H    3.960216   3.464239   8.800012   8.730738   5.979294
    17  H    3.394454   2.804840   7.889325   7.726247   5.243060
    18  H    2.166150   2.803169   7.947429   6.959864   4.737826
    19  H    2.160783   3.463124   8.884659   7.620739   5.255954
    20  H    2.812543   2.160277   7.296852   7.086574   4.179320
    21  H    3.492173   2.171473   6.435801   6.682539   4.050469
    22  H    1.097192   2.180598   6.565396   5.163723   2.893073
    23  H    1.100581   2.155512   7.357027   6.259348   3.537266
    24  H    2.173392   1.096468   5.536040   5.086747   2.694127
    25  H    7.343322   6.391026   1.094910   2.743794   4.466846
    26  H    6.932538   5.767102   1.088139   3.396902   4.039192
    27  H    7.624548   6.716533   1.094854   2.737656   4.468614
    28  H    6.639832   6.225075   2.746076   1.095399   3.675654
    29  H    5.042535   4.826716   3.422466   1.090036   2.450425
    30  H    6.332185   5.889496   2.738141   1.095347   3.685936
    31  H    3.557249   3.306729   4.236241   2.937519   1.091460
    32  H    2.913297   2.583059   4.234632   2.952695   1.091411
    33  H    2.690011   2.094431   5.453891   4.914180   2.096696
    34  H    3.430846   2.130900   4.393360   4.514664   1.998225
                   11         12         13         14         15
    11  N    0.000000
    12  N    3.684055   0.000000
    13  O    2.286433   2.512468   0.000000
    14  H    8.597830   5.394911   7.398906   0.000000
    15  H    8.104987   4.567208   6.823913   1.758197   0.000000
    16  H    7.925608   4.637961   6.184227   2.525863   2.480579
    17  H    7.010970   4.189798   5.551486   2.476046   3.072208
    18  H    6.756838   4.210444   6.091053   2.474842   3.071480
    19  H    7.561805   4.669052   6.956443   2.524517   2.480172
    20  H    6.306783   2.702514   4.614313   3.820698   2.668502
    21  H    5.680951   2.710925   3.741596   4.324617   3.835079
    22  H    5.176273   2.775112   4.926440   4.321129   3.829948
    23  H    6.027516   2.730902   5.236997   3.819559   2.666185
    24  H    4.480075   2.089101   3.465099   4.186673   4.068296
    25  H    2.105322   5.502875   3.528052  10.025419   9.769336
    26  H    2.095035   4.707843   2.315729   9.521993   9.081165
    27  H    2.104940   5.504700   3.535255  10.586540  10.036797
    28  H    2.103573   5.100570   4.259338   9.943224   9.351133
    29  H    2.124223   3.949004   3.877063   8.343952   7.833390
    30  H    2.102687   5.113392   4.262223   9.362698   9.082250
    31  H    2.843215   2.131945   3.115997   6.971728   6.103486
    32  H    2.845301   2.123352   3.099980   6.088911   5.653281
    33  H    4.296314   1.024257   3.162488   5.570076   4.442815
    34  H    3.498709   1.057004   1.740517   5.904214   5.151508
                   16         17         18         19         20
    16  H    0.000000
    17  H    1.757403   0.000000
    18  H    3.834182   2.682955   0.000000
    19  H    4.329303   3.835057   1.757697   0.000000
    20  H    2.469462   3.069454   4.060020   4.183539   0.000000
    21  H    2.503660   2.478842   4.210933   4.997320   1.770417
    22  H    5.000747   4.218668   2.479684   2.493713   3.813646
    23  H    4.178917   4.057841   3.070939   2.473606   2.627257
    24  H    3.805878   2.654508   2.661292   3.814377   3.065839
    25  H    9.234582   8.155320   8.137042   9.209138   7.944824
    26  H    8.353720   7.548223   7.971017   8.965733   6.926530
    27  H    9.666794   8.846269   8.831036   9.645000   7.995924
    28  H    9.598681   8.694983   7.926296   8.457607   7.794729
    29  H    8.273026   7.295170   6.245018   6.746065   6.596483
    30  H    9.181879   8.009232   7.162865   7.974756   7.759511
    31  H    6.661629   6.081545   5.340297   5.543185   4.636393
    32  H    6.013325   5.023496   4.101810   4.753656   4.541506
    33  H    4.806296   4.695199   4.670380   4.768205   2.520337
    34  H    4.722809   4.324060   4.881482   5.531264   2.913248
                   21         22         23         24         25
    21  H    0.000000
    22  H    4.330252   0.000000
    23  H    3.803940   1.768112   0.000000
    24  H    2.473559   2.500918   3.070074   0.000000
    25  H    6.963358   6.944706   7.925370   5.846667   0.000000
    26  H    5.920205   6.769875   7.374483   5.411582   1.785622
    27  H    7.267121   7.251625   7.978019   6.448015   1.782645
    28  H    7.489531   5.971118   6.944413   6.054086   3.119010
    29  H    6.413296   4.281280   5.437985   4.646437   3.735226
    30  H    7.211754   5.610563   6.900652   5.426036   2.547234
    31  H    4.838203   3.136640   3.631320   3.624095   4.938741
    32  H    4.361426   2.356660   3.517867   2.400269   4.606888
    33  H    3.089282   3.036561   2.471192   2.942328   6.227228
    34  H    2.405158   3.761954   3.673664   2.434613   5.102188
                   26         27         28         29         30
    26  H    0.000000
    27  H    1.785628   0.000000
    28  H    3.721906   2.549178   0.000000
    29  H    4.212170   3.735081   1.772526   0.000000
    30  H    3.719476   3.097814   1.777816   1.772007   0.000000
    31  H    4.550298   4.611375   3.415026   2.284784   3.855580
    32  H    4.545113   4.941747   3.865472   2.300685   3.440779
    33  H    5.325902   5.976779   5.469814   4.402280   5.756647
    34  H    4.050831   5.095094   5.199885   4.323794   5.220494
                   31         32         33         34
    31  H    0.000000
    32  H    1.773793   0.000000
    33  H    2.235658   2.832739   0.000000
    34  H    2.736707   2.741672   1.681183   0.000000
 Stoichiometry    C10H21N2O(1+)
 Framework group  C1[X(C10H21N2O)]
 Deg. of freedom    96
 Full point group                 C1      NOp   1
 Largest Abelian subgroup         C1      NOp   1
 Largest concise Abelian subgroup C1      NOp   1
                         Standard orientation:                         
 ---------------------------------------------------------------------
 Center     Atomic      Atomic             Coordinates (Angstroms)
 Number     Number       Type             X           Y           Z
 ---------------------------------------------------------------------
      1          6           0        2.200788   -0.346161    0.139465
      2          6           0       -4.290233    0.177199   -0.272606
      3          6           0       -3.575601   -1.149799   -0.566031
      4          6           0       -3.355618    1.376549   -0.486800
      5          6           0       -2.282433   -1.291156    0.258454
      6          6           0       -2.061234    1.241843    0.338345
      7          6           0       -1.367105   -0.085290    0.022192
      8          6           0        4.476616   -0.749043   -0.592893
      9          6           0        3.730159    1.582574   -0.205356
     10          6           0        1.063565    0.628304    0.556440
     11          7           0        3.393603    0.159971   -0.197148
     12          7           0       -0.108611   -0.255570    0.867787
     13          8           0        1.917739   -1.552693    0.143998
     14          1           0       -5.173655    0.274872   -0.912389
     15          1           0       -4.654123    0.176895    0.764437
     16          1           0       -4.230673   -1.999403   -0.348079
     17          1           0       -3.329895   -1.211456   -1.635014
     18          1           0       -3.097191    1.460082   -1.551462
     19          1           0       -3.855631    2.311534   -0.213816
     20          1           0       -2.537559   -1.347659    1.327282
     21          1           0       -1.760830   -2.220625   -0.002755
     22          1           0       -1.396813    2.091965    0.139181
     23          1           0       -2.308888    1.268309    1.410374
     24          1           0       -1.004379   -0.093028   -1.012511
     25          1           0        4.795773   -0.516948   -1.614215
     26          1           0        4.117740   -1.775127   -0.543838
     27          1           0        5.327686   -0.621729    0.083994
     28          1           0        4.555547    1.773704    0.488981
     29          1           0        2.882756    2.201944    0.088697
     30          1           0        4.045016    1.883409   -1.210417
     31          1           0        1.321999    1.219030    1.437087
     32          1           0        0.790669    1.307733   -0.252931
     33          1           0       -0.363406   -0.188368    1.857568
     34          1           0        0.305577   -1.214509    0.706103
 ---------------------------------------------------------------------
 Rotational constants (GHZ):      1.9545420      0.3091507      0.2824994
 Standard basis: 6-31G(d) (6D, 7F)
 There are   237 symmetry adapted basis functions of A   symmetry.
 Integral buffers will be    131072 words long.
 Raffenetti 1 integral format.
 Two-electron integral symmetry is turned on.
   237 basis functions,   448 primitive gaussians,   237 cartesian basis functions
    51 alpha electrons       51 beta electrons
       nuclear repulsion energy       854.5203778929 Hartrees.
 NAtoms=   34 NActive=   34 NUniq=   34 SFac= 1.00D+00 NAtFMM=   60 NAOKFM=F Big=F
 One-electron integrals computed using PRISM.
 NBasis=   237 RedAO= T  NBF=   237
 NBsUse=   237 1.00D-06 NBFU=   237
 Initial guess read from the checkpoint file:  frag13-conf0.chk
 B after Tr=     0.000000    0.000000    0.000000
         Rot=    1.000000    0.000000    0.000000    0.000000 Ang=   0.00 deg.
 Initial guess orbital symmetries:
       Occupied  (A) (A) (A) (A) (A) (A) (A) (A) (A) (A) (A) (A)
                 (A) (A) (A) (A) (A) (A) (A) (A) (A) (A) (A) (A)
                 (A) (A) (A) (A) (A) (A) (A) (A) (A) (A) (A) (A)
                 (A) (A) (A) (A) (A) (A) (A) (A) (A) (A) (A) (A)
                 (A) (A) (A)
       Virtual   (A) (A) (A) (A) (A) (A) (A) (A) (A) (A) (A) (A)
                 (A) (A) (A) (A) (A) (A) (A) (A) (A) (A) (A) (A)
                 (A) (A) (A) (A) (A) (A) (A) (A) (A) (A) (A) (A)
                 (A) (A) (A) (A) (A) (A) (A) (A) (A) (A) (A) (A)
                 (A) (A) (A) (A) (A) (A) (A) (A) (A) (A) (A) (A)
                 (A) (A) (A) (A) (A) (A) (A) (A) (A) (A) (A) (A)
                 (A) (A) (A) (A) (A) (A) (A) (A) (A) (A) (A) (A)
                 (A) (A) (A) (A) (A) (A) (A) (A) (A) (A) (A) (A)
                 (A) (A) (A) (A) (A) (A) (A) (A) (A) (A) (A) (A)
                 (A) (A) (A) (A) (A) (A) (A) (A) (A) (A) (A) (A)
                 (A) (A) (A) (A) (A) (A) (A) (A) (A) (A) (A) (A)
                 (A) (A) (A) (A) (A) (A) (A) (A) (A) (A) (A) (A)
                 (A) (A) (A) (A) (A) (A) (A) (A) (A) (A) (A) (A)
                 (A) (A) (A) (A) (A) (A) (A) (A) (A) (A) (A) (A)
                 (A) (A) (A) (A) (A) (A) (A) (A) (A) (A) (A) (A)
                 (A) (A) (A) (A) (A) (A)
 Requested convergence on RMS density matrix=1.00D-08 within 128 cycles.
 Requested convergence on MAX density matrix=1.00D-06.
 Requested convergence on             energy=1.00D-06.
 No special actions if energy rises.
 SCF Done:  E(RHF) =  -574.485326436     A.U. after   13 cycles
             Convg  =    0.6190D-08             -V/T =  2.0022

 **********************************************************************

            Population analysis using the SCF density.

 **********************************************************************

 Orbital symmetries:
 BldTbl:  Degeneracy threshold= 1.00D-02
       Occupied  (A) (A) (A) (A) (A) (A) (A) (A) (A) (A) (A) (A)
                 (A) (A) (A) (A) (A) (A) (A) (A) (A) (A) (A) (A)
                 (A) (A) (A) (A) (A) (A) (A) (A) (A) (A) (A) (A)
                 (A) (A) (A) (A) (A) (A) (A) (A) (A) (A) (A) (A)
                 (A) (A) (A)
       Virtual   (A) (A) (A) (A) (A) (A) (A) (A) (A) (A) (A) (A)
                 (A) (A) (A) (A) (A) (A) (A) (A) (A) (A) (A) (A)
                 (A) (A) (A) (A) (A) (A) (A) (A) (A) (A) (A) (A)
                 (A) (A) (A) (A) (A) (A) (A) (A) (A) (A) (A) (A)
                 (A) (A) (A) (A) (A) (A) (A) (A) (A) (A) (A) (A)
                 (A) (A) (A) (A) (A) (A) (A) (A) (A) (A) (A) (A)
                 (A) (A) (A) (A) (A) (A) (A) (A) (A) (A) (A) (A)
                 (A) (A) (A) (A) (A) (A) (A) (A) (A) (A) (A) (A)
                 (A) (A) (A) (A) (A) (A) (A) (A) (A) (A) (A) (A)
                 (A) (A) (A) (A) (A) (A) (A) (A) (A) (A) (A) (A)
                 (A) (A) (A) (A) (A) (A) (A) (A) (A) (A) (A) (A)
                 (A) (A) (A) (A) (A) (A) (A) (A) (A) (A) (A) (A)
                 (A) (A) (A) (A) (A) (A) (A) (A) (A) (A) (A) (A)
                 (A) (A) (A) (A) (A) (A) (A) (A) (A) (A) (A) (A)
                 (A) (A) (A) (A) (A) (A) (A) (A) (A) (A) (A) (A)
                 (A) (A) (A) (A) (A) (A)
 The electronic state is 1-A.
 Alpha  occ. eigenvalues --  -20.68787 -15.83808 -15.74756 -11.52053 -11.46742
 Alpha  occ. eigenvalues --  -11.44277 -11.40451 -11.37879 -11.37575 -11.37063
 Alpha  occ. eigenvalues --  -11.34891 -11.34570 -11.33643  -1.54552  -1.46102
 Alpha  occ. eigenvalues --   -1.39644  -1.25864  -1.17587  -1.14626  -1.12835
 Alpha  occ. eigenvalues --   -1.10688  -1.06539  -0.98880  -0.98153  -0.93743
 Alpha  occ. eigenvalues --   -0.90226  -0.88171  -0.85059  -0.82895  -0.81409
 Alpha  occ. eigenvalues --   -0.79491  -0.77634  -0.76997  -0.74978  -0.73704
 Alpha  occ. eigenvalues --   -0.73085  -0.71473  -0.69465  -0.68891  -0.67721
 Alpha  occ. eigenvalues --   -0.67116  -0.66748  -0.66419  -0.65054  -0.64183
 Alpha  occ. eigenvalues --   -0.62252  -0.59041  -0.58477  -0.57734  -0.56897
 Alpha  occ. eigenvalues --   -0.51807
 Alpha virt. eigenvalues --    0.02474   0.04123   0.07481   0.09220   0.09398
 Alpha virt. eigenvalues --    0.11924   0.13600   0.14369   0.15560   0.16634
 Alpha virt. eigenvalues --    0.16741   0.17322   0.17702   0.18203   0.18694
 Alpha virt. eigenvalues --    0.18945   0.19886   0.20549   0.21370   0.21962
 Alpha virt. eigenvalues --    0.22001   0.22337   0.23087   0.23831   0.24926
 Alpha virt. eigenvalues --    0.26004   0.28176   0.28707   0.29602   0.29969
 Alpha virt. eigenvalues --    0.31787   0.33813   0.35596   0.39041   0.43517
 Alpha virt. eigenvalues --    0.53895   0.54247   0.56865   0.58547   0.59305
 Alpha virt. eigenvalues --    0.60248   0.61702   0.62461   0.63598   0.63959
 Alpha virt. eigenvalues --    0.64800   0.66769   0.69844   0.71944   0.74649
 Alpha virt. eigenvalues --    0.76330   0.77007   0.77957   0.79486   0.81017
 Alpha virt. eigenvalues --    0.81377   0.82864   0.84093   0.86159   0.87231
 Alpha virt. eigenvalues --    0.88415   0.88436   0.90336   0.92400   0.93893
 Alpha virt. eigenvalues --    0.94514   0.94785   0.95544   0.97474   0.98269
 Alpha virt. eigenvalues --    0.98901   0.99918   1.00661   1.01567   1.02165
 Alpha virt. eigenvalues --    1.03187   1.03842   1.04263   1.04685   1.06118
 Alpha virt. eigenvalues --    1.06643   1.07271   1.08335   1.09867   1.10482
 Alpha virt. eigenvalues --    1.11451   1.11913   1.12898   1.13282   1.15256
 Alpha virt. eigenvalues --    1.17193   1.23877   1.25883   1.26716   1.28473
 Alpha virt. eigenvalues --    1.33530   1.37484   1.40904   1.45270   1.47252
 Alpha virt. eigenvalues --    1.47880   1.48170   1.53554   1.55209   1.56774
 Alpha virt. eigenvalues --    1.58938   1.60588   1.65558   1.70280   1.73459
 Alpha virt. eigenvalues --    1.75770   1.84664   1.85146   1.85594   1.86437
 Alpha virt. eigenvalues --    1.90328   1.92076   1.93420   1.95333   1.96368
 Alpha virt. eigenvalues --    2.01020   2.03096   2.04199   2.04796   2.06751
 Alpha virt. eigenvalues --    2.07258   2.10220   2.11928   2.12334   2.13966
 Alpha virt. eigenvalues --    2.15064   2.15880   2.18836   2.19853   2.21581
 Alpha virt. eigenvalues --    2.23360   2.25355   2.26698   2.27712   2.28646
 Alpha virt. eigenvalues --    2.30256   2.36162   2.38936   2.39920   2.44508
 Alpha virt. eigenvalues --    2.46226   2.49040   2.50581   2.52504   2.52906
 Alpha virt. eigenvalues --    2.54746   2.57865   2.57950   2.60515   2.61319
 Alpha virt. eigenvalues --    2.62415   2.67306   2.69129   2.70784   2.77301
 Alpha virt. eigenvalues --    2.78756   2.82938   2.84692   2.85271   2.89489
 Alpha virt. eigenvalues --    2.91466   2.93647   2.94380   3.01549   3.05002
 Alpha virt. eigenvalues --    3.15680   3.23682   3.41594   4.18835   4.30661
 Alpha virt. eigenvalues --    4.36305   4.45586   4.48479   4.55182   4.57072
 Alpha virt. eigenvalues --    4.59631   4.63767   4.80500   4.85468   4.85940
 Alpha virt. eigenvalues --    4.87580
          Condensed to atoms (all electrons):
              1          2          3          4          5          6
     1  C    4.110827   0.000000   0.000001  -0.000001  -0.000150   0.000235
     2  C    0.000000   5.120004   0.333258   0.333695  -0.057434  -0.056906
     3  C    0.000001   0.333258   5.111312  -0.059814   0.324758  -0.003536
     4  C   -0.000001   0.333695  -0.059814   5.112926  -0.004136   0.324453
     5  C   -0.000150  -0.057434   0.324758  -0.004136   5.183585  -0.054410
     6  C    0.000235  -0.056906  -0.003536   0.324453  -0.054410   5.190919
     7  C    0.000438  -0.006293  -0.045355  -0.044941   0.333145   0.322407
     8  C   -0.031948   0.000000   0.000000   0.000000   0.000000   0.000000
     9  C   -0.034279   0.000000   0.000000   0.000000   0.000000   0.000001
    10  C    0.344437   0.000003  -0.000063  -0.000024   0.003367  -0.003961
    11  N    0.371977   0.000000   0.000000   0.000000   0.000000  -0.000002
    12  N   -0.038091  -0.000267   0.002629   0.002655  -0.059131  -0.057312
    13  O    0.531926   0.000000   0.000000   0.000000  -0.000302  -0.000026
    14  H    0.000000   0.406472  -0.034971  -0.035272   0.004251   0.004238
    15  H    0.000000   0.397799  -0.042397  -0.042900  -0.003166  -0.003275
    16  H    0.000000  -0.032463   0.405584   0.004028  -0.036261  -0.000307
    17  H    0.000000  -0.041211   0.400250  -0.002305  -0.044955   0.000355
    18  H    0.000000  -0.040726  -0.002265   0.399610   0.000403  -0.045542
    19  H    0.000000  -0.032387   0.004018   0.405547  -0.000304  -0.036535
    20  H   -0.000002  -0.002352  -0.033529   0.000482   0.392301  -0.003350
    21  H    0.000001   0.003548  -0.027851  -0.000309   0.400551   0.003621
    22  H    0.000124   0.003660  -0.000325  -0.029996   0.003492   0.399824
    23  H   -0.000015  -0.002181   0.000421  -0.033318  -0.002893   0.391314
    24  H   -0.000079  -0.000122  -0.000047   0.000057  -0.036637  -0.038018
    25  H    0.001044   0.000000   0.000000   0.000000   0.000000   0.000000
    26  H   -0.003940   0.000000   0.000000   0.000000   0.000000   0.000000
    27  H    0.001095   0.000000   0.000000   0.000000   0.000000   0.000000
    28  H    0.001114   0.000000   0.000000   0.000000   0.000000   0.000000
    29  H   -0.005131   0.000000   0.000000   0.000000   0.000000   0.000000
    30  H    0.001088   0.000000   0.000000   0.000000   0.000000   0.000000
    31  H   -0.024198   0.000000   0.000001   0.000001  -0.000093   0.000016
    32  H   -0.024963   0.000001  -0.000006  -0.000048   0.000101  -0.000500
    33  H    0.001471  -0.000002  -0.000063  -0.000030  -0.001134  -0.001451
    34  H   -0.012362   0.000013  -0.000022  -0.000042  -0.000884   0.002128
              7          8          9         10         11         12
     1  C    0.000438  -0.031948  -0.034279   0.344437   0.371977  -0.038091
     2  C   -0.006293   0.000000   0.000000   0.000003   0.000000  -0.000267
     3  C   -0.045355   0.000000   0.000000  -0.000063   0.000000   0.002629
     4  C   -0.044941   0.000000   0.000000  -0.000024   0.000000   0.002655
     5  C    0.333145   0.000000   0.000000   0.003367   0.000000  -0.059131
     6  C    0.322407   0.000000   0.000001  -0.003961  -0.000002  -0.057312
     7  C    5.150611   0.000001  -0.000005  -0.022028   0.000010   0.129547
     8  C    0.000001   5.016776  -0.043582   0.003322   0.183229  -0.000053
     9  C   -0.000005  -0.043582   4.987374   0.002109   0.205705   0.000416
    10  C   -0.022028   0.003322   0.002109   5.226470  -0.098676   0.159828
    11  N    0.000010   0.183229   0.205705  -0.098676   7.309197   0.000540
    12  N    0.129547  -0.000053   0.000416   0.159828   0.000540   7.289475
    13  O    0.001060  -0.005251   0.001419  -0.083709  -0.079473  -0.046947
    14  H   -0.000099   0.000000   0.000000   0.000000   0.000000   0.000005
    15  H    0.000283   0.000000   0.000000   0.000000   0.000000  -0.000029
    16  H    0.004220   0.000000   0.000000   0.000001   0.000000  -0.000062
    17  H   -0.004643   0.000000   0.000000   0.000000   0.000000  -0.000041
    18  H   -0.004366   0.000000   0.000000   0.000002   0.000000  -0.000050
    19  H    0.004130   0.000000   0.000000   0.000000   0.000000  -0.000061
    20  H   -0.046580   0.000000   0.000000  -0.000059   0.000000  -0.002613
    21  H   -0.039792   0.000000   0.000000  -0.000155   0.000000  -0.001584
    22  H   -0.039847   0.000000   0.000002   0.000881  -0.000001  -0.001676
    23  H   -0.046311   0.000000   0.000000  -0.000129   0.000000  -0.002497
    24  H    0.405638   0.000001   0.000000  -0.001293  -0.000027  -0.043065
    25  H    0.000000   0.398507  -0.001892  -0.000069  -0.043423   0.000001
    26  H    0.000000   0.395468   0.002593   0.000440  -0.028262  -0.000003
    27  H    0.000000   0.398496  -0.001838  -0.000075  -0.043364   0.000001
    28  H    0.000000  -0.001226   0.398841  -0.000286  -0.044879  -0.000004
    29  H   -0.000003   0.003066   0.395404   0.001734  -0.034845   0.000304
    30  H    0.000000  -0.001282   0.398743  -0.000253  -0.044729  -0.000005
    31  H    0.000923  -0.000097  -0.001502   0.389053   0.001009  -0.028880
    32  H    0.000964  -0.000102  -0.001427   0.391354   0.000819  -0.034398
    33  H   -0.016149   0.000001  -0.000003  -0.019523  -0.000007   0.303279
    34  H   -0.014156  -0.000025  -0.000077  -0.036948   0.002204   0.249138
             13         14         15         16         17         18
     1  C    0.531926   0.000000   0.000000   0.000000   0.000000   0.000000
     2  C    0.000000   0.406472   0.397799  -0.032463  -0.041211  -0.040726
     3  C    0.000000  -0.034971  -0.042397   0.405584   0.400250  -0.002265
     4  C    0.000000  -0.035272  -0.042900   0.004028  -0.002305   0.399610
     5  C   -0.000302   0.004251  -0.003166  -0.036261  -0.044955   0.000403
     6  C   -0.000026   0.004238  -0.003275  -0.000307   0.000355  -0.045542
     7  C    0.001060  -0.000099   0.000283   0.004220  -0.004643  -0.004366
     8  C   -0.005251   0.000000   0.000000   0.000000   0.000000   0.000000
     9  C    0.001419   0.000000   0.000000   0.000000   0.000000   0.000000
    10  C   -0.083709   0.000000   0.000000   0.000001   0.000000   0.000002
    11  N   -0.079473   0.000000   0.000000   0.000000   0.000000   0.000000
    12  N   -0.046947   0.000005  -0.000029  -0.000062  -0.000041  -0.000050
    13  O    8.268091   0.000000   0.000000   0.000000   0.000000   0.000000
    14  H    0.000000   0.482754  -0.023334  -0.002009  -0.002897  -0.002944
    15  H    0.000000  -0.023334   0.534676  -0.002806   0.004101   0.004131
    16  H    0.000000  -0.002009  -0.002806   0.479061  -0.023131  -0.000079
    17  H    0.000000  -0.002897   0.004101  -0.023131   0.527408   0.002609
    18  H    0.000000  -0.002944   0.004131  -0.000079   0.002609   0.530261
    19  H    0.000000  -0.002006  -0.002800  -0.000068  -0.000078  -0.023569
    20  H    0.000002  -0.000077   0.002638  -0.003244   0.004036   0.000068
    21  H    0.000010  -0.000061  -0.000078  -0.002438  -0.002565  -0.000037
    22  H    0.000000  -0.000065  -0.000079   0.000009  -0.000037  -0.002522
    23  H    0.000001  -0.000078   0.002666  -0.000040   0.000070   0.004051
    24  H    0.000675  -0.000040   0.000066  -0.000074   0.002292   0.002295
    25  H    0.000368   0.000000   0.000000   0.000000   0.000000   0.000000
    26  H    0.005454   0.000000   0.000000   0.000000   0.000000   0.000000
    27  H    0.000379   0.000000   0.000000   0.000000   0.000000   0.000000
    28  H   -0.000006   0.000000   0.000000   0.000000   0.000000   0.000000
    29  H    0.000063   0.000000   0.000000   0.000000   0.000000   0.000000
    30  H   -0.000007   0.000000   0.000000   0.000000   0.000000   0.000000
    31  H    0.001060   0.000000   0.000000   0.000000   0.000000   0.000000
    32  H    0.000897   0.000000   0.000000   0.000000  -0.000001  -0.000004
    33  H    0.000686   0.000000  -0.000003   0.000000   0.000002   0.000005
    34  H    0.064404   0.000000   0.000000  -0.000005  -0.000005  -0.000001
             19         20         21         22         23         24
     1  C    0.000000  -0.000002   0.000001   0.000124  -0.000015  -0.000079
     2  C   -0.032387  -0.002352   0.003548   0.003660  -0.002181  -0.000122
     3  C    0.004018  -0.033529  -0.027851  -0.000325   0.000421  -0.000047
     4  C    0.405547   0.000482  -0.000309  -0.029996  -0.033318   0.000057
     5  C   -0.000304   0.392301   0.400551   0.003492  -0.002893  -0.036637
     6  C   -0.036535  -0.003350   0.003621   0.399824   0.391314  -0.038018
     7  C    0.004130  -0.046580  -0.039792  -0.039847  -0.046311   0.405638
     8  C    0.000000   0.000000   0.000000   0.000000   0.000000   0.000001
     9  C    0.000000   0.000000   0.000000   0.000002   0.000000   0.000000
    10  C    0.000000  -0.000059  -0.000155   0.000881  -0.000129  -0.001293
    11  N    0.000000   0.000000   0.000000  -0.000001   0.000000  -0.000027
    12  N   -0.000061  -0.002613  -0.001584  -0.001676  -0.002497  -0.043065
    13  O    0.000000   0.000002   0.000010   0.000000   0.000001   0.000675
    14  H   -0.002006  -0.000077  -0.000061  -0.000065  -0.000078  -0.000040
    15  H   -0.002800   0.002638  -0.000078  -0.000079   0.002666   0.000066
    16  H   -0.000068  -0.003244  -0.002438   0.000009  -0.000040  -0.000074
    17  H   -0.000078   0.004036  -0.002565  -0.000037   0.000070   0.002292
    18  H   -0.023569   0.000068  -0.000037  -0.002522   0.004051   0.002295
    19  H    0.482207  -0.000039   0.000009  -0.002584  -0.003225  -0.000076
    20  H   -0.000039   0.528568  -0.025032  -0.000082   0.002609   0.003858
    21  H    0.000009  -0.025032   0.483339  -0.000077  -0.000080  -0.002597
    22  H   -0.002584  -0.000082  -0.000077   0.510093  -0.026243  -0.002570
    23  H   -0.003225   0.002609  -0.000080  -0.026243   0.529472   0.003872
    24  H   -0.000076   0.003858  -0.002597  -0.002570   0.003872   0.475400
    25  H    0.000000   0.000000   0.000000   0.000000   0.000000   0.000000
    26  H    0.000000   0.000000   0.000000   0.000000   0.000000   0.000000
    27  H    0.000000   0.000000   0.000000   0.000000   0.000000   0.000000
    28  H    0.000000   0.000000   0.000000   0.000000   0.000000   0.000000
    29  H    0.000000   0.000000   0.000000   0.000005   0.000000   0.000000
    30  H    0.000000   0.000000   0.000000   0.000000   0.000000   0.000000
    31  H    0.000000   0.000005   0.000000  -0.000238   0.000047   0.000172
    32  H    0.000003  -0.000003  -0.000001   0.001170  -0.000031  -0.000285
    33  H   -0.000002   0.002776  -0.000041  -0.000038   0.003779   0.003299
    34  H    0.000001  -0.000345   0.003711  -0.000124  -0.000091  -0.001392
             25         26         27         28         29         30
     1  C    0.001044  -0.003940   0.001095   0.001114  -0.005131   0.001088
     2  C    0.000000   0.000000   0.000000   0.000000   0.000000   0.000000
     3  C    0.000000   0.000000   0.000000   0.000000   0.000000   0.000000
     4  C    0.000000   0.000000   0.000000   0.000000   0.000000   0.000000
     5  C    0.000000   0.000000   0.000000   0.000000   0.000000   0.000000
     6  C    0.000000   0.000000   0.000000   0.000000   0.000000   0.000000
     7  C    0.000000   0.000000   0.000000   0.000000  -0.000003   0.000000
     8  C    0.398507   0.395468   0.398496  -0.001226   0.003066  -0.001282
     9  C   -0.001892   0.002593  -0.001838   0.398841   0.395404   0.398743
    10  C   -0.000069   0.000440  -0.000075  -0.000286   0.001734  -0.000253
    11  N   -0.043423  -0.028262  -0.043364  -0.044879  -0.034845  -0.044729
    12  N    0.000001  -0.000003   0.000001  -0.000004   0.000304  -0.000005
    13  O    0.000368   0.005454   0.000379  -0.000006   0.000063  -0.000007
    14  H    0.000000   0.000000   0.000000   0.000000   0.000000   0.000000
    15  H    0.000000   0.000000   0.000000   0.000000   0.000000   0.000000
    16  H    0.000000   0.000000   0.000000   0.000000   0.000000   0.000000
    17  H    0.000000   0.000000   0.000000   0.000000   0.000000   0.000000
    18  H    0.000000   0.000000   0.000000   0.000000   0.000000   0.000000
    19  H    0.000000   0.000000   0.000000   0.000000   0.000000   0.000000
    20  H    0.000000   0.000000   0.000000   0.000000   0.000000   0.000000
    21  H    0.000000   0.000000   0.000000   0.000000   0.000000   0.000000
    22  H    0.000000   0.000000   0.000000   0.000000   0.000005   0.000000
    23  H    0.000000   0.000000   0.000000   0.000000   0.000000   0.000000
    24  H    0.000000   0.000000   0.000000   0.000000   0.000000   0.000000
    25  H    0.492534  -0.019726  -0.032058  -0.000706  -0.000033   0.003195
    26  H   -0.019726   0.414738  -0.019606  -0.000032  -0.000080  -0.000030
    27  H   -0.032058  -0.019606   0.491644   0.003172  -0.000030  -0.000746
    28  H   -0.000706  -0.000032   0.003172   0.480948  -0.023899  -0.031723
    29  H   -0.000033  -0.000080  -0.000030  -0.023899   0.506640  -0.023843
    30  H    0.003195  -0.000030  -0.000746  -0.031723  -0.023843   0.481547
    31  H   -0.000002  -0.000007   0.000008   0.000168  -0.001679   0.000007
    32  H    0.000008  -0.000007  -0.000002   0.000007  -0.001582   0.000152
    33  H    0.000000   0.000000   0.000000   0.000000   0.000001   0.000000
    34  H    0.000000  -0.000010   0.000001   0.000002  -0.000014   0.000001
             31         32         33         34
     1  C   -0.024198  -0.024963   0.001471  -0.012362
     2  C    0.000000   0.000001  -0.000002   0.000013
     3  C    0.000001  -0.000006  -0.000063  -0.000022
     4  C    0.000001  -0.000048  -0.000030  -0.000042
     5  C   -0.000093   0.000101  -0.001134  -0.000884
     6  C    0.000016  -0.000500  -0.001451   0.002128
     7  C    0.000923   0.000964  -0.016149  -0.014156
     8  C   -0.000097  -0.000102   0.000001  -0.000025
     9  C   -0.001502  -0.001427  -0.000003  -0.000077
    10  C    0.389053   0.391354  -0.019523  -0.036948
    11  N    0.001009   0.000819  -0.000007   0.002204
    12  N   -0.028880  -0.034398   0.303279   0.249138
    13  O    0.001060   0.000897   0.000686   0.064404
    14  H    0.000000   0.000000   0.000000   0.000000
    15  H    0.000000   0.000000  -0.000003   0.000000
    16  H    0.000000   0.000000   0.000000  -0.000005
    17  H    0.000000  -0.000001   0.000002  -0.000005
    18  H    0.000000  -0.000004   0.000005  -0.000001
    19  H    0.000000   0.000003  -0.000002   0.000001
    20  H    0.000005  -0.000003   0.002776  -0.000345
    21  H    0.000000  -0.000001  -0.000041   0.003711
    22  H   -0.000238   0.001170  -0.000038  -0.000124
    23  H    0.000047  -0.000031   0.003779  -0.000091
    24  H    0.000172  -0.000285   0.003299  -0.001392
    25  H   -0.000002   0.000008   0.000000   0.000000
    26  H   -0.000007  -0.000007   0.000000  -0.000010
    27  H    0.000008  -0.000002   0.000000   0.000001
    28  H    0.000168   0.000007   0.000000   0.000002
    29  H   -0.001679  -0.001582   0.000001  -0.000014
    30  H    0.000007   0.000152   0.000000   0.000001
    31  H    0.418956  -0.017523  -0.002368   0.001957
    32  H   -0.017523   0.420200   0.001321   0.002061
    33  H   -0.002368   0.001321   0.288613  -0.007181
    34  H    0.001957   0.002061  -0.007181   0.236781
 Mulliken atomic charges:
              1
     1  C    0.809379
     2  C   -0.326109
     3  C   -0.331989
     4  C   -0.330319
     5  C   -0.344065
     6  C   -0.334382
     7  C   -0.022808
     8  C   -0.315300
     9  C   -0.308002
    10  C   -0.255753
    11  N   -0.657001
    12  N   -0.821050
    13  O   -0.660776
    14  H    0.206134
    15  H    0.174507
    16  H    0.210082
    17  H    0.180747
    18  H    0.178672
    19  H    0.207820
    20  H    0.179966
    21  H    0.207908
    22  H    0.187244
    23  H    0.178829
    24  H    0.228697
    25  H    0.202251
    26  H    0.253011
    27  H    0.202922
    28  H    0.218508
    29  H    0.183923
    30  H    0.217884
    31  H    0.263203
    32  H    0.261825
    33  H    0.442762
    34  H    0.511281
 Sum of Mulliken atomic charges =   1.00000
 Mulliken charges with hydrogens summed into heavy atoms:
              1
     1  C    0.809379
     2  C    0.054532
     3  C    0.058840
     4  C    0.056173
     5  C    0.043808
     6  C    0.031691
     7  C    0.205889
     8  C    0.342884
     9  C    0.312314
    10  C    0.269275
    11  N   -0.657001
    12  N    0.132993
    13  O   -0.660776
 Sum of Mulliken charges with hydrogens summed into heavy atoms =   1.00000
 DipInt: DoE/N= T F RetVal/Mat= T F Init=T NMatP=  1 IDeriv=0 Min/MaxMlt=  0  4
 Entering OneElI...
 OneElI was handed    33407737 working-precision words.
 Multipole integrals L=0 to 4 MinM= 0 MaxM= 0.
 Requested accuracy = 0.1000D-12
 PrsmSu:  NPrtUS=   1 ThrOK=F IAlg=1 NPAlg=1 LenDen=           0.
 Prism:   IPart=     0 DynPar=F LinDyn=F Incr=          37.
 PRISM was handed    33107788 working-precision words and  3755 shell-pairs
 IPart=  0 NShTot=        3755 NBatch=          58 AvBLen=        64.7
 PrSmSu:  NxtVal=             38.
 Electronic moments (au):
       -102.00000000          0.64451698          1.24020670          0.72905316
      -3273.39359897       -507.16181925       -186.82908319          6.19977815
         -1.45923728          0.08788247      -1078.70682094       -127.95393065
          2.78063065         48.90635574       -336.27836317       1776.37626729
        105.23317390        -13.14747277         65.00635395        -44.98703197
    -178364.29635088      -5710.53758552      -1244.71496991       -269.47436225
       1614.25973373       -691.09487341        130.59441154         76.71841568
        -35.55911002     -16740.43117764      -6013.68696234       -880.82120169
       -451.78241950       -147.26625181        -29.37859571
 Electronic spatial extent (au):  <R**2>=           3967.3845
 DipInt: DoE/N= F T RetVal/Mat= T F Init=T NMatP=  1 IDeriv=0 Min/MaxMlt=  0  4
 Nuclear    moments (au):
        103.00000000          0.00000000          0.00000000          0.00000000
       3244.06172239        450.07903032        132.43272482          0.00000000
          0.00000000          0.00000000       1206.85124272        137.20136593
         13.87518599        -43.54305128        356.23647558      -1800.76952199
        -96.68896041         12.03165734        -64.31937466         48.97142507
     168867.95518499       4005.55595702        688.79719986        338.51310304
      -1705.32286190        753.47737891       -130.04514913       -105.02810866
         29.19230784      14698.66690316       4054.03807534        488.48450300
        472.62583791        129.21091327         36.06534195
 Total      moments (au):
          1.00000000          0.64451698          1.24020670          0.72905316
        -29.33187658        -57.08278894        -54.39635837          6.19977815
         -1.45923728          0.08788247        128.14442179          9.24743528
         16.65581664          5.36330446         19.95811240        -24.39325470
          8.54421349         -1.11581543          0.68697929          3.98439310
      -9496.34116589      -1704.98162850       -555.91777004         69.03874078
        -91.06312817         62.38250550          0.54926241        -28.30969298
         -6.36680217      -2041.76427448      -1959.64888700       -392.33669869
         20.84341842        -18.05533853          6.68674624
 Traceless Quadrup. (au):
         17.60513138        -10.14578097         -7.45935041          6.19977815
         -1.45923728          0.08788247
 Charge=              1.0000 electrons
 Dipole moment (field-independent basis, Debye):
    X=              1.6382    Y=              3.1523    Z=              1.8531  Tot=              4.0068
 Quadrupole moment (field-independent basis, Debye-Ang):
   XX=            -39.4524   YY=            -76.7783   ZZ=            -73.1650
   XY=              8.3389   XZ=             -1.9627   YZ=              0.1182
 Traceless Quadrupole moment (field-independent basis, Debye-Ang):
   XX=             23.6795   YY=            -13.6464   ZZ=            -10.0331
   XY=              8.3389   XZ=             -1.9627   YZ=              0.1182
 Octapole moment (field-independent basis, Debye-Ang**2):
  XXX=             91.2083  YYY=              6.5820  ZZZ=             11.8550  XYY=              3.8174
  XXY=             14.2054  XXZ=            -17.3622  XZZ=              6.0814  YZZ=             -0.7942
  YYZ=              0.4890  XYZ=              2.8359
 Hexadecapole moment (field-independent basis, Debye-Ang**3):
 XXXX=          -3576.7772 YYYY=           -642.1778 ZZZZ=           -209.3853 XXXY=             26.0033
 XXXZ=            -34.2987 YYYX=             23.4962 YYYZ=              0.2069 ZZZX=            -10.6628
 ZZZY=             -2.3980 XXYY=           -769.0263 XXZZ=           -738.0977 YYZZ=           -147.7728
 XXYZ=              7.8506 YYXZ=             -6.8005 ZZXY=              2.5185
 N-N= 8.545203778929D+02 E-N=-3.033571377563D+03  KE= 5.732126392234D+02
 Entering OneElI...
 OneElI was handed    33294312 working-precision words.
 Calculate electrostatic properties
    NBasis =   237  MinDer = 0  MaxDer = 0
    NGrid  =    34  NMatD  =   1
 Requested accuracy = 0.1000D-12
 PrsmSu:  NPrtUS=   2 ThrOK=T IAlg=1 NPAlg=1 LenDen=           0.
 Prism:   IPart=     0 DynPar=F LinDyn=F Incr=         512.
 PRISM was handed    16462975 working-precision words and  3376 shell-pairs
 PRISM was handed    16462975 working-precision words and  3376 shell-pairs
 IPart=  0 NShTot=       57800 NBatch=        1700 AvBLen=        34.0
 IPart=  1 NShTot=       56984 NBatch=        1676 AvBLen=        34.0
 PrSmSu:  NxtVal=           1025.
 --------------------------------------------------------
       Center         ----      EFG at Nuclei      ----
                      3XX-RR        3YY-RR        3ZZ-RR
 --------------------------------------------------------
     1   Atom        0.148402      0.301115     -0.449517
     2   Atom        0.005816     -0.041159      0.035343
     3   Atom       -0.051172      0.048662      0.002511
     4   Atom       -0.057303      0.056140      0.001164
     5   Atom        0.018878     -0.051442      0.032564
     6   Atom        0.033836     -0.061626      0.027790
     7   Atom       -0.239378      0.272928     -0.033550
     8   Atom       -0.128653      0.013488      0.115165
     9   Atom        0.120287     -0.299834      0.179547
    10   Atom       -0.202031      0.017711      0.184319
    11   Atom       -0.363592     -0.420993      0.784584
    12   Atom       -0.068936      0.146641     -0.077705
    13   Atom        1.064042     -0.867398     -0.196644
    14   Atom       -0.135485      0.137384     -0.001899
    15   Atom        0.100087      0.139531     -0.239618
    16   Atom       -0.013439     -0.116828      0.130268
    17   Atom        0.116569      0.144779     -0.261348
    18   Atom        0.113387      0.144570     -0.257957
    19   Atom        0.051379     -0.171410      0.120030
    20   Atom        0.117633      0.141366     -0.258999
    21   Atom        0.036559     -0.161451      0.124892
    22   Atom       -0.024156     -0.112513      0.136669
    23   Atom        0.121141      0.139223     -0.260365
    24   Atom        0.079342      0.151440     -0.230782
    25   Atom        0.107799      0.121010     -0.228808
    26   Atom        0.094823     -0.247983      0.153160
    27   Atom       -0.117599      0.136270     -0.018671
    28   Atom       -0.094709      0.118145     -0.023436
    29   Atom       -0.131174     -0.000084      0.131259
    30   Atom        0.116964      0.099638     -0.216602
    31   Atom        0.112768      0.023970     -0.136739
    32   Atom        0.103869     -0.017810     -0.086060
    33   Atom        0.133570      0.175773     -0.309343
    34   Atom        0.082106     -0.193306      0.111199
 --------------------------------------------------------
                        XY            XZ            YZ
 --------------------------------------------------------
     1   Atom        0.032611     -0.204474      0.046521
     2   Atom       -0.008919      0.025332     -0.003455
     3   Atom        0.024013     -0.064363     -0.003076
     4   Atom        0.003198     -0.065546      0.016294
     5   Atom       -0.073725      0.027966      0.025685
     6   Atom        0.041339      0.033606     -0.033867
     7   Atom        0.064396     -0.347707      0.040747
     8   Atom        0.272951      0.105719     -0.093963
     9   Atom       -0.095199      0.013071     -0.002458
    10   Atom       -0.233634      0.125596      0.060538
    11   Atom       -0.088551      0.387910     -0.061814
    12   Atom       -0.181279      0.050554      0.053214
    13   Atom       -0.629224     -0.490608      0.161326
    14   Atom        0.030745     -0.207140      0.022858
    15   Atom       -0.000786      0.131914      0.000039
    16   Atom       -0.200114      0.050009      0.070729
    17   Atom        0.007200      0.093910     -0.020947
    18   Atom       -0.008202      0.098108      0.029700
    19   Atom        0.168319      0.046824     -0.095977
    20   Atom       -0.011499      0.090924      0.016466
    21   Atom        0.169526      0.048848     -0.087235
    22   Atom       -0.200111      0.050087      0.061074
    23   Atom        0.008357      0.088946     -0.005183
    24   Atom        0.001578      0.124778     -0.000550
    25   Atom       -0.014903      0.120018      0.088992
    26   Atom       -0.124104      0.011547      0.013935
    27   Atom       -0.031497     -0.206757     -0.041486
    28   Atom       -0.055204     -0.208621     -0.045244
    29   Atom        0.186293      0.101236     -0.066483
    30   Atom       -0.035002      0.114495      0.103994
    31   Atom       -0.065646     -0.073231     -0.186562
    32   Atom        0.058568     -0.079813      0.203352
    33   Atom        0.003016      0.122113     -0.037683
    34   Atom        0.089420      0.010846     -0.039061
 --------------------------------------------------------


 ---------------------------------------------------------------------------------
              Nuclear Quadrupole in Principal Axis System
 ---------------------------------------------------------------------------------

       Atom             a.u.   MegaHertz   Gauss  10(-4) cm-1        Axes

              Baa    -0.5163   -69.287   -24.723   -23.112  0.2963 -0.0660  0.9528
     1 C(13)  Bbb     0.2085    27.979     9.984     9.333  0.9362 -0.1772 -0.3035
              Bcc     0.3078    41.308    14.740    13.779  0.1889  0.9819  0.0093
 
              Baa    -0.0428    -5.746    -2.050    -1.917  0.1894  0.9817 -0.0180
     2 C(13)  Bbb    -0.0077    -1.032    -0.368    -0.344  0.8428 -0.1720 -0.5099
              Bcc     0.0505     6.778     2.418     2.261  0.5037 -0.0814  0.8600
 
              Baa    -0.0964   -12.936    -4.616    -4.315  0.8332 -0.1265  0.5383
     3 C(13)  Bbb     0.0322     4.322     1.542     1.442 -0.3480  0.6365  0.6883
              Bcc     0.0642     8.614     3.074     2.873  0.4297  0.7608 -0.4863
 
              Baa    -0.1007   -13.512    -4.822    -4.507  0.8332 -0.0739  0.5480
     4 C(13)  Bbb     0.0367     4.928     1.758     1.644 -0.5053 -0.5044  0.7002
              Bcc     0.0640     8.584     3.063     2.863 -0.2246  0.8603  0.4576
 
              Baa    -0.1076   -14.437    -5.151    -4.816  0.5284  0.8101 -0.2539
     5 C(13)  Bbb     0.0387     5.192     1.852     1.732 -0.1561  0.3867  0.9089
              Bcc     0.0689     9.245     3.299     3.084  0.8345 -0.4406  0.3308
 
              Baa    -0.0930   -12.485    -4.455    -4.165 -0.3721  0.8617  0.3450
     6 C(13)  Bbb     0.0278     3.731     1.331     1.244 -0.5033 -0.4997  0.7050
              Bcc     0.0652     8.754     3.124     2.920  0.7799  0.0887  0.6196
 
              Baa    -0.5065   -67.966   -24.252   -22.671  0.7979 -0.0970  0.5950
     7 C(13)  Bbb     0.2255    30.264    10.799    10.095 -0.5861  0.1058  0.8033
              Bcc     0.2810    37.702    13.453    12.576  0.1409  0.9896 -0.0275
 
              Baa    -0.3799   -50.975   -18.189   -17.003  0.7582 -0.5916 -0.2742
     8 C(13)  Bbb     0.1542    20.686     7.381     6.900  0.2958 -0.0627  0.9532
              Bcc     0.2257    30.289    10.808    10.103  0.5811  0.8038 -0.1275
 
              Baa    -0.3204   -42.995   -15.342   -14.341  0.2112  0.9774 -0.0007
     9 C(13)  Bbb     0.1367    18.347     6.547     6.120  0.9334 -0.2019 -0.2965
              Bcc     0.1837    24.647     8.795     8.222  0.2900 -0.0619  0.9550
 
              Baa    -0.3841   -51.543   -18.392   -17.193  0.8240  0.5148 -0.2369
    10 C(13)  Bbb     0.1617    21.692     7.740     7.236 -0.4569  0.8508  0.2595
              Bcc     0.2224    29.851    10.651     9.957  0.3351 -0.1056  0.9362
 
              Baa    -0.5265   -20.305    -7.245    -6.773  0.8062  0.5522 -0.2125
    11 N(14)  Bbb    -0.3823   -14.745    -5.261    -4.918 -0.5128  0.8313  0.2145
              Bcc     0.9088    35.051    12.507    11.692  0.2951 -0.0640  0.9533
 
              Baa    -0.2097    -8.088    -2.886    -2.698  0.7551  0.4546 -0.4724
    12 N(14)  Bbb    -0.0415    -1.599    -0.571    -0.533  0.4427  0.1780  0.8788
              Bcc     0.2512     9.688     3.457     3.231 -0.4836  0.8727  0.0669
 
              Baa    -1.0546    76.310    27.229    25.454  0.2804  0.9597 -0.0201
    13 O(17)  Bbb    -0.3616    26.164     9.336     8.727  0.2981 -0.0671  0.9522
              Bcc     1.4162  -102.475   -36.565   -34.182  0.9124 -0.2730 -0.3049
 
              Baa    -0.2898  -154.608   -55.168   -51.572  0.8051 -0.0893  0.5864
    14 H(1)   Bbb     0.1408    75.125    26.807    25.059  0.0993  0.9949  0.0152
              Bcc     0.1490    79.483    28.361    26.513 -0.5848  0.0460  0.8099
 
              Baa    -0.2848  -151.970   -54.227   -50.692 -0.3242 -0.0007  0.9460
    15 H(1)   Bbb     0.1394    74.398    26.547    24.817  0.1170  0.9923  0.0408
              Bcc     0.1454    77.571    27.679    25.875  0.9387 -0.1240  0.3216
 
              Baa    -0.2897  -154.545   -55.146   -51.551  0.5983  0.7754 -0.2019
    16 H(1)   Bbb     0.1399    74.638    26.633    24.897  0.7727 -0.4917  0.4014
              Bcc     0.1498    79.907    28.513    26.654 -0.2120  0.3962  0.8934
 
              Baa    -0.2845  -151.811   -54.170   -50.639 -0.2285  0.0513  0.9722
    17 H(1)   Bbb     0.1380    73.628    26.272    24.560  0.9342 -0.2696  0.2338
              Bcc     0.1465    78.183    27.898    26.079  0.2741  0.9616  0.0137
 
              Baa    -0.2845  -151.793   -54.163   -50.633 -0.2402 -0.0716  0.9681
    18 H(1)   Bbb     0.1376    73.439    26.205    24.497  0.9653  0.0882  0.2460
              Bcc     0.1469    78.354    27.959    26.136 -0.1030  0.9935  0.0479
 
              Baa    -0.2897  -154.545   -55.146   -51.551 -0.4559  0.8536  0.2521
    19 H(1)   Bbb     0.1398    74.585    26.614    24.879  0.8413  0.3209  0.4349
              Bcc     0.1499    79.961    28.532    26.672 -0.2904 -0.4104  0.8645
 
              Baa    -0.2806  -149.726   -53.426   -49.943 -0.2236 -0.0441  0.9737
    20 H(1)   Bbb     0.1326    70.723    25.236    23.591  0.7619  0.6151  0.2028
              Bcc     0.1481    79.004    28.190    26.353 -0.6079  0.7872 -0.1039
 
              Baa    -0.2833  -151.130   -53.927   -50.412 -0.4830  0.8427  0.2379
    21 H(1)   Bbb     0.1338    71.392    25.474    23.814  0.8735  0.4826  0.0642
              Bcc     0.1494    79.739    28.453    26.598  0.0607 -0.2388  0.9692
 
              Baa    -0.2880  -153.639   -54.822   -51.249  0.6160  0.7662 -0.1829
    22 H(1)   Bbb     0.1366    72.859    25.998    24.303  0.7722 -0.6332 -0.0521
              Bcc     0.1514    80.781    28.825    26.946  0.1557  0.1091  0.9818
 
              Baa    -0.2802  -149.499   -53.345   -49.868 -0.2167  0.0164  0.9761
    23 H(1)   Bbb     0.1330    70.974    25.325    23.674 -0.6495  0.7441 -0.1566
              Bcc     0.1472    78.525    28.020    26.193  0.7289  0.6679  0.1506
 
              Baa    -0.2748  -146.596   -52.309   -48.899 -0.3324  0.0024  0.9431
    24 H(1)   Bbb     0.1233    65.761    23.465    21.936  0.9421 -0.0463  0.3321
              Bcc     0.1515    80.835    28.844    26.964  0.0444  0.9989  0.0131
 
              Baa    -0.2868  -153.018   -54.601   -51.041 -0.2916 -0.2141  0.9323
    25 H(1)   Bbb     0.1305    69.602    24.836    23.217 -0.6474  0.7616 -0.0276
              Bcc     0.1563    83.416    29.765    27.825  0.7041  0.6116  0.3607
 
              Baa    -0.2888  -154.109   -54.990   -51.405  0.3086  0.9504 -0.0380
    26 H(1)   Bbb     0.1329    70.907    25.302    23.652  0.9024 -0.3052 -0.3044
              Bcc     0.1559    83.201    29.688    27.753  0.3009 -0.0596  0.9518
 
              Baa    -0.2867  -152.992   -54.591   -51.033  0.7773  0.1185  0.6179
    27 H(1)   Bbb     0.1304    69.552    24.818    23.200 -0.4896  0.7307  0.4758
              Bcc     0.1564    83.439    29.773    27.832  0.3951  0.6724 -0.6260
 
              Baa    -0.2834  -151.209   -53.955   -50.438  0.7528  0.1750  0.6346
    28 H(1)   Bbb     0.1308    69.780    24.899    23.276 -0.1040  0.9835 -0.1478
              Bcc     0.1526    81.429    29.056    27.162 -0.6500  0.0453  0.7586
 
              Baa    -0.2973  -158.628   -56.602   -52.913  0.7869 -0.5540 -0.2718
    29 H(1)   Bbb     0.1314    70.092    25.011    23.380  0.5452  0.8305 -0.1142
              Bcc     0.1659    88.536    31.592    29.533  0.2890 -0.0584  0.9556
 
              Baa    -0.2835  -151.276   -53.979   -50.460 -0.2864 -0.2752  0.9177
    30 H(1)   Bbb     0.1308    69.763    24.893    23.270  0.0289  0.9549  0.2954
              Bcc     0.1528    81.513    29.086    27.190  0.9577 -0.1111  0.2656
 
              Baa    -0.2834  -151.220   -53.959   -50.442  0.2387  0.5406  0.8067
    31 H(1)   Bbb     0.1267    67.587    24.117    22.545  0.7928  0.3712 -0.4833
              Bcc     0.1567    83.633    29.842    27.897 -0.5608  0.7549 -0.3400
 
              Baa    -0.2833  -151.170   -53.941   -50.425  0.2472 -0.6229  0.7422
    32 H(1)   Bbb     0.1274    67.986    24.259    22.678  0.9404  0.3387 -0.0290
              Bcc     0.1559    83.184    29.682    27.747 -0.2333  0.7051  0.6696
 
              Baa    -0.3435  -183.249   -65.388   -61.125 -0.2478  0.0716  0.9662
    33 H(1)   Bbb     0.1624    86.653    30.920    28.904  0.9052  0.3724  0.2046
              Bcc     0.1810    96.597    34.468    32.221 -0.3452  0.9253 -0.1571
 
              Baa    -0.2247  -119.880   -42.776   -39.988 -0.2817  0.9520  0.1198
    34 H(1)   Bbb     0.1085    57.906    20.662    19.315  0.9580  0.2722  0.0901
              Bcc     0.1162    61.974    22.114    20.672 -0.0531 -0.1402  0.9887
 

 ---------------------------------------------------------------------------------

 No NMR shielding tensors so no spin-rotation constants.
 Leave Link  601 at Sat Feb 17 20:57:18 2018, MaxMem=   33554432 cpu:       0.6
 Merz-Kollman atomic radii used.
 Read replacement radii for each type of atom:
 Atom Element Radius
    1     6    1.50
    2     6    1.50
    3     6    1.50
    4     6    1.50
    5     6    1.50
    6     6    1.50
    7     6    1.50
    8     6    1.50
    9     6    1.50
   10     6    1.50
   11     7    1.50
   12     7    1.50
   13     8    1.40
   14     1    1.20
   15     1    1.20
   16     1    1.20
   17     1    1.20
   18     1    1.20
   19     1    1.20
   20     1    1.20
   21     1    1.20
   22     1    1.20
   23     1    1.20
   24     1    1.20
   25     1    1.20
   26     1    1.20
   27     1    1.20
   28     1    1.20
   29     1    1.20
   30     1    1.20
   31     1    1.20
   32     1    1.20
   33     1    1.20
   34     1    1.20
 Generate VDW surfaces: Layer= 4 Dens= 1 Start= 1.400 Inc= 0.200

 **********************************************************************

            Electrostatic Properties Using The SCF Density

 **********************************************************************

       Atomic Center    1 is at   2.200788 -0.346161  0.139465
       Atomic Center    2 is at  -4.290233  0.177199 -0.272606
       Atomic Center    3 is at  -3.575601 -1.149799 -0.566031
       Atomic Center    4 is at  -3.355618  1.376549 -0.486800
       Atomic Center    5 is at  -2.282433 -1.291156  0.258454
       Atomic Center    6 is at  -2.061234  1.241843  0.338345
       Atomic Center    7 is at  -1.367105 -0.085290  0.022192
       Atomic Center    8 is at   4.476616 -0.749043 -0.592893
       Atomic Center    9 is at   3.730159  1.582574 -0.205356
       Atomic Center   10 is at   1.063565  0.628304  0.556440
       Atomic Center   11 is at   3.393603  0.159971 -0.197148
       Atomic Center   12 is at  -0.108611 -0.255570  0.867787
       Atomic Center   13 is at   1.917739 -1.552693  0.143998
       Atomic Center   14 is at  -5.173655  0.274872 -0.912389
       Atomic Center   15 is at  -4.654123  0.176895  0.764437
       Atomic Center   16 is at  -4.230673 -1.999403 -0.348079
       Atomic Center   17 is at  -3.329895 -1.211456 -1.635014
       Atomic Center   18 is at  -3.097191  1.460082 -1.551462
       Atomic Center   19 is at  -3.855631  2.311534 -0.213816
       Atomic Center   20 is at  -2.537559 -1.347659  1.327282
       Atomic Center   21 is at  -1.760830 -2.220625 -0.002755
       Atomic Center   22 is at  -1.396813  2.091965  0.139181
       Atomic Center   23 is at  -2.308888  1.268309  1.410374
       Atomic Center   24 is at  -1.004379 -0.093028 -1.012511
       Atomic Center   25 is at   4.795773 -0.516948 -1.614215
       Atomic Center   26 is at   4.117740 -1.775127 -0.543838
       Atomic Center   27 is at   5.327686 -0.621729  0.083994
       Atomic Center   28 is at   4.555547  1.773704  0.488981
       Atomic Center   29 is at   2.882756  2.201944  0.088697
       Atomic Center   30 is at   4.045016  1.883409 -1.210417
       Atomic Center   31 is at   1.321999  1.219030  1.437087
       Atomic Center   32 is at   0.790669  1.307733 -0.252931
       Atomic Center   33 is at  -0.363406 -0.188368  1.857568
       Atomic Center   34 is at   0.305577 -1.214509  0.706103
      ESP Fit Center   35 is at   2.200788 -0.346161  2.239465
      ESP Fit Center   36 is at   3.250788 -0.346161  1.958118
      ESP Fit Center   37 is at   2.725788 -1.255488  1.958118
      ESP Fit Center   38 is at   1.675788  0.563166 -1.679188
      ESP Fit Center   39 is at   1.150788 -0.346161 -1.679188
      ESP Fit Center   40 is at   2.725788 -1.255488 -1.679188
      ESP Fit Center   41 is at   2.200788 -0.346161 -1.960535
      ESP Fit Center   42 is at  -5.862106 -1.215359 -0.272606
      ESP Fit Center   43 is at  -4.290233  0.177199 -2.372606
      ESP Fit Center   44 is at  -5.320587 -1.662173 -1.616031
      ESP Fit Center   45 is at  -5.100603  1.888923 -1.536800
      ESP Fit Center   46 is at  -2.541254 -3.091298  1.308454
      ESP Fit Center   47 is at  -2.320056  3.041985  1.388345
      ESP Fit Center   48 is at   3.951616 -1.658370  1.225761
      ESP Fit Center   49 is at   5.669552 -2.477309 -0.592893
      ESP Fit Center   50 is at   5.232112 -2.403348 -1.642893
      ESP Fit Center   51 is at   6.006564 -1.732281 -1.642893
      ESP Fit Center   52 is at   4.923095  3.310840 -0.205356
      ESP Fit Center   53 is at   3.983286  3.667262 -0.205356
      ESP Fit Center   54 is at   1.588565 -0.281023  2.375093
      ESP Fit Center   55 is at   1.316692  2.712992  0.556440
      ESP Fit Center   56 is at   3.393603  0.159971  1.902852
      ESP Fit Center   57 is at   4.443603  0.159971  1.621506
      ESP Fit Center   58 is at   3.918603 -0.749355  1.621506
      ESP Fit Center   59 is at   2.343603  0.159971 -2.015801
      ESP Fit Center   60 is at   2.868603 -0.749355 -2.015801
      ESP Fit Center   61 is at   3.393603  0.159971 -2.297148
      ESP Fit Center   62 is at  -0.367432  1.544573  1.917787
      ESP Fit Center   63 is at   1.917739 -1.552693  2.103998
      ESP Fit Center   64 is at   2.897739 -1.552693  1.841407
      ESP Fit Center   65 is at   1.427739 -2.401398  1.841407
      ESP Fit Center   66 is at   2.407739 -2.401398  1.841407
      ESP Fit Center   67 is at   1.393211 -3.167026  1.123998
      ESP Fit Center   68 is at   2.442268 -3.167026  1.123998
      ESP Fit Center   69 is at   3.290973 -2.550406  1.123998
      ESP Fit Center   70 is at   0.937739 -3.250103  0.143998
      ESP Fit Center   71 is at   1.917739 -3.512693  0.143998
      ESP Fit Center   72 is at   2.897739 -3.250103  0.143998
      ESP Fit Center   73 is at   0.544506 -2.550406 -0.836002
      ESP Fit Center   74 is at   1.393211 -3.167026 -0.836002
      ESP Fit Center   75 is at   2.442268 -3.167026 -0.836002
      ESP Fit Center   76 is at   0.937739 -1.552693 -1.553412
      ESP Fit Center   77 is at   1.427739 -2.401398 -1.553412
      ESP Fit Center   78 is at   2.407739 -2.401398 -1.553412
      ESP Fit Center   79 is at   1.917739 -1.552693 -1.816002
      ESP Fit Center   80 is at  -5.972542  1.658585 -0.393240
      ESP Fit Center   81 is at  -6.675072  0.821343 -0.393240
      ESP Fit Center   82 is at  -6.675072 -0.271600 -0.393240
      ESP Fit Center   83 is at  -5.972542 -1.108842 -0.393240
      ESP Fit Center   84 is at  -5.972542  1.658585 -1.431537
      ESP Fit Center   85 is at  -6.675072  0.821343 -1.431537
      ESP Fit Center   86 is at  -6.675072 -0.271600 -1.431537
      ESP Fit Center   87 is at  -5.972542 -1.108842 -1.431537
      ESP Fit Center   88 is at  -4.868507  1.214020 -2.271537
      ESP Fit Center   89 is at  -5.972542  0.855297 -2.271537
      ESP Fit Center   90 is at  -5.972542 -0.305554 -2.271537
      ESP Fit Center   91 is at  -4.868507 -0.664277 -2.271537
      ESP Fit Center   92 is at  -5.173655  0.274872 -2.592389
      ESP Fit Center   93 is at  -4.654123  0.176895  2.444437
      ESP Fit Center   94 is at  -3.666644  0.176895  2.123585
      ESP Fit Center   95 is at  -4.348975  1.116044  2.123585
      ESP Fit Center   96 is at  -5.453010  0.757321  2.123585
      ESP Fit Center   97 is at  -5.453010 -0.403530  2.123585
      ESP Fit Center   98 is at  -4.348975 -0.762253  2.123585
      ESP Fit Center   99 is at  -5.453010  1.560609  1.283585
      ESP Fit Center  100 is at  -6.155540  0.723367  1.283585
      ESP Fit Center  101 is at  -6.155540 -0.369576  1.283585
      ESP Fit Center  102 is at  -5.453010 -1.206818  1.283585
      ESP Fit Center  103 is at  -4.230673 -1.999403  1.331921
      ESP Fit Center  104 is at  -5.029561 -2.579829  1.011070
      ESP Fit Center  105 is at  -3.925525 -2.938551  1.011070
      ESP Fit Center  106 is at  -5.732091 -1.452932  0.171070
      ESP Fit Center  107 is at  -5.732091 -2.545874  0.171070
      ESP Fit Center  108 is at  -5.029561 -3.383117  0.171070
      ESP Fit Center  109 is at  -3.953223 -3.572904  0.171070
      ESP Fit Center  110 is at  -5.732091 -1.452932 -0.867227
      ESP Fit Center  111 is at  -5.732091 -2.545874 -0.867227
      ESP Fit Center  112 is at  -5.029561 -3.383117 -0.867227
      ESP Fit Center  113 is at  -3.953223 -3.572904 -0.867227
      ESP Fit Center  114 is at  -5.029561 -2.579829 -1.707227
      ESP Fit Center  115 is at  -3.925525 -2.938551 -1.707227
      ESP Fit Center  116 is at  -1.732120 -1.211456 -2.154163
      ESP Fit Center  117 is at  -4.831313 -1.757927 -2.154163
      ESP Fit Center  118 is at  -4.128783 -2.595169 -2.154163
      ESP Fit Center  119 is at  -3.052445 -2.784957 -2.154163
      ESP Fit Center  120 is at  -2.105929 -2.238485 -2.154163
      ESP Fit Center  121 is at  -2.342416 -1.211456 -2.994163
      ESP Fit Center  122 is at  -3.024747 -0.272307 -2.994163
      ESP Fit Center  123 is at  -4.128783 -0.631030 -2.994163
      ESP Fit Center  124 is at  -4.128783 -1.791881 -2.994163
      ESP Fit Center  125 is at  -3.024747 -2.150604 -2.994163
      ESP Fit Center  126 is at  -3.329895 -1.211456 -3.315014
      ESP Fit Center  127 is at  -1.499416  1.460082 -2.070611
      ESP Fit Center  128 is at  -1.873224  2.487112 -2.070611
      ESP Fit Center  129 is at  -2.819740  3.033583 -2.070611
      ESP Fit Center  130 is at  -3.896078  2.843796 -2.070611
      ESP Fit Center  131 is at  -4.598608  2.006553 -2.070611
      ESP Fit Center  132 is at  -2.109712  1.460082 -2.910611
      ESP Fit Center  133 is at  -2.792043  2.399231 -2.910611
      ESP Fit Center  134 is at  -3.896078  2.040508 -2.910611
      ESP Fit Center  135 is at  -3.896078  0.879656 -2.910611
      ESP Fit Center  136 is at  -2.792043  0.520933 -2.910611
      ESP Fit Center  137 is at  -3.097191  1.460082 -3.231462
      ESP Fit Center  138 is at  -3.855631  2.311534  1.466184
      ESP Fit Center  139 is at  -3.550483  3.250683  1.145332
      ESP Fit Center  140 is at  -4.654519  2.891960  1.145332
      ESP Fit Center  141 is at  -2.631664  3.338564  0.305332
      ESP Fit Center  142 is at  -3.578180  3.885036  0.305332
      ESP Fit Center  143 is at  -4.654519  3.695248  0.305332
      ESP Fit Center  144 is at  -5.357048  2.858006  0.305332
      ESP Fit Center  145 is at  -2.631664  3.338564 -0.732965
      ESP Fit Center  146 is at  -3.578180  3.885036 -0.732965
      ESP Fit Center  147 is at  -4.654519  3.695248 -0.732965
      ESP Fit Center  148 is at  -5.357048  2.858006 -0.732965
      ESP Fit Center  149 is at  -3.550483  3.250683 -1.572965
      ESP Fit Center  150 is at  -4.654519  2.891960 -1.572965
      ESP Fit Center  151 is at  -2.537559 -1.347659  3.007282
      ESP Fit Center  152 is at  -1.550080 -1.347659  2.686431
      ESP Fit Center  153 is at  -2.232411 -0.408510  2.686431
      ESP Fit Center  154 is at  -3.336446 -0.767233  2.686431
      ESP Fit Center  155 is at  -3.336446 -1.928085  2.686431
      ESP Fit Center  156 is at  -2.232411 -2.286807  2.686431
      ESP Fit Center  157 is at  -4.038976 -1.894130  1.846431
      ESP Fit Center  158 is at  -3.336446 -2.731373  1.846431
      ESP Fit Center  159 is at  -2.260108 -2.921160  1.846431
      ESP Fit Center  160 is at  -1.313592 -2.374689  1.846431
      ESP Fit Center  161 is at  -1.455682 -3.159774  1.356394
      ESP Fit Center  162 is at  -2.559717 -3.604339  0.516394
      ESP Fit Center  163 is at  -1.483379 -3.794126  0.516394
      ESP Fit Center  164 is at  -0.536863 -3.247655  0.516394
      ESP Fit Center  165 is at  -2.559717 -3.604339 -0.521904
      ESP Fit Center  166 is at  -1.483379 -3.794126 -0.521904
      ESP Fit Center  167 is at  -0.536863 -3.247655 -0.521904
      ESP Fit Center  168 is at  -0.773350 -2.220625 -1.361904
      ESP Fit Center  169 is at  -1.455682 -3.159774 -1.361904
      ESP Fit Center  170 is at  -1.760830 -2.220625 -1.682755
      ESP Fit Center  171 is at  -0.409334  2.091965  1.498330
      ESP Fit Center  172 is at  -1.091665  3.031113  1.498330
      ESP Fit Center  173 is at  -0.172847  3.118995  0.658330
      ESP Fit Center  174 is at  -1.119362  3.665466  0.658330
      ESP Fit Center  175 is at  -2.195701  3.475678  0.658330
      ESP Fit Center  176 is at  -0.172847  3.118995 -0.379967
      ESP Fit Center  177 is at  -1.119362  3.665466 -0.379967
      ESP Fit Center  178 is at  -2.195701  3.475678 -0.379967
      ESP Fit Center  179 is at  -0.409334  2.091965 -1.219967
      ESP Fit Center  180 is at  -1.091665  3.031113 -1.219967
      ESP Fit Center  181 is at  -1.396813  2.091965 -1.540819
      ESP Fit Center  182 is at  -2.308888  1.268309  3.090374
      ESP Fit Center  183 is at  -1.321409  1.268309  2.769522
      ESP Fit Center  184 is at  -2.003740  2.207457  2.769522
      ESP Fit Center  185 is at  -3.107776  1.848734  2.769522
      ESP Fit Center  186 is at  -3.107776  0.687883  2.769522
      ESP Fit Center  187 is at  -2.003740  0.329160  2.769522
      ESP Fit Center  188 is at  -1.084922  2.295339  1.929522
      ESP Fit Center  189 is at  -2.031438  2.841810  1.929522
      ESP Fit Center  190 is at  -3.107776  2.652022  1.929522
      ESP Fit Center  191 is at  -3.810306  1.814780  1.929522
      ESP Fit Center  192 is at   0.593395 -0.093028 -1.531660
      ESP Fit Center  193 is at  -0.726929  1.480473 -1.531660
      ESP Fit Center  194 is at  -0.726929 -1.666529 -1.531660
      ESP Fit Center  195 is at   0.219587 -1.120058 -1.531660
      ESP Fit Center  196 is at  -0.016900 -0.093028 -2.371660
      ESP Fit Center  197 is at  -0.699232  0.846121 -2.371660
      ESP Fit Center  198 is at  -1.803267  0.487398 -2.371660
      ESP Fit Center  199 is at  -1.803267 -0.673454 -2.371660
      ESP Fit Center  200 is at  -0.699232 -1.032177 -2.371660
      ESP Fit Center  201 is at  -1.004379 -0.093028 -2.692511
      ESP Fit Center  202 is at   6.393548 -0.516948 -2.133363
      ESP Fit Center  203 is at   6.019739  0.510082 -2.133363
      ESP Fit Center  204 is at   5.073223 -2.090449 -2.133363
      ESP Fit Center  205 is at   6.019739 -1.543978 -2.133363
      ESP Fit Center  206 is at   5.783252 -0.516948 -2.973363
      ESP Fit Center  207 is at   5.100921  0.422200 -2.973363
      ESP Fit Center  208 is at   3.996885  0.063478 -2.973363
      ESP Fit Center  209 is at   3.996885 -1.097374 -2.973363
      ESP Fit Center  210 is at   5.100921 -1.456097 -2.973363
      ESP Fit Center  211 is at   4.795773 -0.516948 -3.294215
      ESP Fit Center  212 is at   4.422888 -2.714275  0.815311
      ESP Fit Center  213 is at   3.318853 -3.158840 -0.024689
      ESP Fit Center  214 is at   4.395191 -3.348628 -0.024689
      ESP Fit Center  215 is at   5.341707 -2.802157 -0.024689
      ESP Fit Center  216 is at   3.318853 -3.158840 -1.062987
      ESP Fit Center  217 is at   4.395191 -3.348628 -1.062987
      ESP Fit Center  218 is at   5.341707 -2.802157 -1.062987
      ESP Fit Center  219 is at   3.318853 -2.355552 -1.902987
      ESP Fit Center  220 is at   4.422888 -2.714275 -1.902987
      ESP Fit Center  221 is at   5.327686 -0.621729  1.763994
      ESP Fit Center  222 is at   6.315165 -0.621729  1.443143
      ESP Fit Center  223 is at   5.632833  0.317420  1.443143
      ESP Fit Center  224 is at   5.632833 -1.560877  1.443143
      ESP Fit Center  225 is at   6.925461 -0.621729  0.603143
      ESP Fit Center  226 is at   6.551652  0.405301  0.603143
      ESP Fit Center  227 is at   5.605136 -2.195230  0.603143
      ESP Fit Center  228 is at   6.551652 -1.648758  0.603143
      ESP Fit Center  229 is at   6.925461 -0.621729 -0.435154
      ESP Fit Center  230 is at   6.551652  0.405301 -0.435154
      ESP Fit Center  231 is at   6.551652 -1.648758 -0.435154
      ESP Fit Center  232 is at   4.555547  1.773704  2.168981
      ESP Fit Center  233 is at   5.543027  1.773704  1.848130
      ESP Fit Center  234 is at   4.860695  2.712852  1.848130
      ESP Fit Center  235 is at   3.756660  2.354129  1.848130
      ESP Fit Center  236 is at   4.860695  0.834555  1.848130
      ESP Fit Center  237 is at   6.153322  1.773704  1.008130
      ESP Fit Center  238 is at   5.779514  2.800734  1.008130
      ESP Fit Center  239 is at   4.832998  3.347205  1.008130
[...]
  589 Fit       0.103754
  590 Fit       0.105781
  591 Fit       0.112018
  592 Fit       0.122599
  593 Fit       0.133778
  594 Fit       0.107362
  595 Fit       0.105898
  596 Fit       0.110951
  597 Fit       0.117649
  598 Fit       0.117909
  599 Fit       0.115269
  600 Fit       0.110346
  601 Fit       0.151618
  602 Fit       0.144462
  603 Fit       0.142941
  604 Fit       0.149514
  605 Fit       0.170740
  606 Fit       0.154635
  607 Fit       0.146973
  608 Fit       0.144723
  609 Fit       0.143516
  610 Fit       0.146522
  611 Fit       0.159798
  612 Fit       0.150562
  613 Fit       0.154514
  614 Fit       0.150833
  615 Fit       0.148145
  616 Fit       0.146985
  617 Fit       0.150221
  618 Fit       0.146036
  619 Fit       0.146738
  620 Fit       0.155015
  621 Fit       0.148453
  622 Fit       0.156336
  623 Fit       0.161048
  624 Fit       0.164083
  625 Fit       0.159999
  626 Fit       0.156995
  627 Fit       0.154043
  628 Fit       0.154404
  629 Fit       0.174308
  630 Fit       0.166896
  631 Fit       0.163384
  632 Fit       0.155546
  633 Fit       0.155146
  634 Fit       0.159480
  635 Fit       0.141364
  636 Fit       0.137258
  637 Fit       0.114619
  638 Fit       0.114451
  639 Fit       0.144488
  640 Fit       0.125194
  641 Fit       0.139577
  642 Fit       0.117171
  643 Fit       0.105269
  644 Fit       0.135492
  645 Fit       0.130738
  646 Fit       0.107593
  647 Fit       0.090720
  648 Fit       0.084041
  649 Fit       0.084767
  650 Fit       0.087446
  651 Fit       0.095204
  652 Fit       0.086637
  653 Fit       0.085398
  654 Fit       0.099988
  655 Fit       0.089090
  656 Fit       0.089069
  657 Fit       0.090689
  658 Fit       0.101804
  659 Fit       0.154236
  660 Fit       0.127077
  661 Fit       0.109840
  662 Fit       0.108633
  663 Fit       0.100550
  664 Fit       0.089904
  665 Fit       0.087921
  666 Fit       0.107728
  667 Fit       0.086923
  668 Fit       0.091328
  669 Fit       0.086821
  670 Fit       0.088122
  671 Fit       0.102720
  672 Fit       0.091453
  673 Fit       0.088286
  674 Fit       0.126941
  675 Fit       0.131297
  676 Fit       0.109227
  677 Fit       0.104744
  678 Fit       0.110658
  679 Fit       0.105540
  680 Fit       0.113628
  681 Fit       0.135926
  682 Fit       0.155388
  683 Fit       0.149120
  684 Fit       0.115239
  685 Fit       0.112540
  686 Fit       0.118933
  687 Fit       0.143907
  688 Fit       0.138096
  689 Fit       0.140928
  690 Fit       0.123491
  691 Fit       0.109967
  692 Fit       0.092269
  693 Fit       0.083871
  694 Fit       0.076252
  695 Fit       0.084110
  696 Fit       0.102667
  697 Fit       0.078003
  698 Fit       0.069646
  699 Fit       0.075002
  700 Fit       0.094819
  701 Fit       0.074479
  702 Fit       0.068742
  703 Fit       0.120846
  704 Fit       0.090590
  705 Fit       0.074487
  706 Fit       0.075134
  707 Fit       0.111351
  708 Fit       0.087187
  709 Fit       0.083733
  710 Fit       0.099544
  711 Fit       0.080911
  712 Fit       0.081235
  713 Fit       0.089063
  714 Fit       0.081580
  715 Fit       0.078632
  716 Fit       0.078794
  717 Fit       0.082399
  718 Fit       0.082749
  719 Fit       0.079525
  720 Fit       0.079621
  721 Fit       0.083267
  722 Fit       0.085929
  723 Fit       0.082500
  724 Fit       0.086228
  725 Fit       0.089715
  726 Fit       0.102213
  727 Fit       0.111255
  728 Fit       0.095283
  729 Fit       0.089984
  730 Fit       0.095873
  731 Fit       0.099641
  732 Fit       0.088865
  733 Fit       0.084018
  734 Fit       0.084267
  735 Fit       0.089667
  736 Fit       0.101118
  737 Fit       0.082382
  738 Fit       0.082669
  739 Fit       0.095450
  740 Fit       0.094706
  741 Fit       0.086383
  742 Fit       0.086301
  743 Fit       0.090289
  744 Fit       0.100258
  745 Fit       0.083368
  746 Fit       0.082494
  747 Fit       0.084435
  748 Fit       0.089825
  749 Fit       0.082956
  750 Fit       0.082039
  751 Fit       0.084870
  752 Fit       0.085247
  753 Fit       0.086912
  754 Fit       0.085376
  755 Fit       0.088138
  756 Fit       0.095374
  757 Fit       0.106688
  758 Fit       0.102970
  759 Fit       0.104182
  760 Fit       0.095884
  761 Fit       0.088500
  762 Fit       0.087194
  763 Fit       0.093359
  764 Fit       0.093063
  765 Fit       0.127683
  766 Fit       0.114504
  767 Fit       0.101358
  768 Fit       0.092605
  769 Fit       0.089152
  770 Fit       0.090780
  771 Fit       0.107703
  772 Fit       0.098315
  773 Fit       0.091141
  774 Fit       0.091976
  775 Fit       0.099229
  776 Fit       0.107599
  777 Fit       0.096773
  778 Fit       0.108682
  779 Fit       0.097574
  780 Fit       0.098707
  781 Fit       0.103571
  782 Fit       0.093755
  783 Fit       0.089470
  784 Fit       0.089535
  785 Fit       0.105513
  786 Fit       0.094037
  787 Fit       0.088157
  788 Fit       0.085850
  789 Fit       0.086863
  790 Fit       0.097427
  791 Fit       0.089166
  792 Fit       0.085856
  793 Fit       0.087073
  794 Fit       0.121732
  795 Fit       0.124349
  796 Fit       0.109901
  797 Fit       0.107504
  798 Fit       0.119304
  799 Fit       0.103802
  800 Fit       0.101545
  801 Fit       0.104185
  802 Fit       0.114714
  803 Fit       0.140752
  804 Fit       0.101055
  805 Fit       0.106153
  806 Fit       0.097047
  807 Fit       0.097655
  808 Fit       0.101832
  809 Fit       0.097025
  810 Fit       0.099364
  811 Fit       0.105201
  812 Fit       0.119519
  813 Fit       0.102671
  814 Fit       0.104689
  815 Fit       0.132446
  816 Fit       0.147838
  817 Fit       0.124294
  818 Fit       0.113561
  819 Fit       0.128345
  820 Fit       0.114332
  821 Fit       0.109237
  822 Fit       0.121828
  823 Fit       0.111519
  824 Fit       0.125268
  825 Fit       0.124959
  826 Fit       0.149724
  827 Fit       0.124082
  828 Fit       0.111980
  829 Fit       0.113438
  830 Fit       0.127569
  831 Fit       0.146694
  832 Fit       0.122503
  833 Fit       0.110801
  834 Fit       0.106826
  835 Fit       0.108116
  836 Fit       0.120886
  837 Fit       0.126955
  838 Fit       0.126933
  839 Fit       0.128673
  840 Fit       0.119249
  841 Fit       0.119364
  842 Fit       0.120206
  843 Fit       0.097253
  844 Fit       0.088887
  845 Fit       0.094201
  846 Fit       0.104834
  847 Fit       0.087742
  848 Fit       0.087108
  849 Fit       0.089523
  850 Fit       0.096384
  851 Fit       0.103030
  852 Fit       0.099749
  853 Fit       0.091716
  854 Fit       0.088021
  855 Fit       0.093034
  856 Fit       0.088472
  857 Fit       0.078852
  858 Fit       0.083664
  859 Fit       0.076174
  860 Fit       0.081014
  861 Fit       0.083969
  862 Fit       0.078656
  863 Fit       0.081819
  864 Fit       0.084100
  865 Fit       0.087458
  866 Fit       0.101764
  867 Fit       0.094253
  868 Fit       0.105355
  869 Fit       0.092085
  870 Fit       0.090049
  871 Fit       0.097203
  872 Fit       0.088025
  873 Fit       0.087372
  874 Fit       0.088698
  875 Fit       0.094371
  876 Fit       0.087721
  877 Fit       0.086675
  878 Fit       0.091189
  879 Fit       0.097305
  880 Fit       0.112468
  881 Fit       0.103445
  882 Fit       0.104541
  883 Fit       0.116372
  884 Fit       0.110686
  885 Fit       0.100166
  886 Fit       0.098422
  887 Fit       0.101516
  888 Fit       0.110586
  889 Fit       0.107593
  890 Fit       0.100271
  891 Fit       0.097744
  892 Fit       0.099753
  893 Fit       0.104056
  894 Fit       0.101897
  895 Fit       0.136935
  896 Fit       0.120863
  897 Fit       0.137124
  898 Fit       0.113960
  899 Fit       0.121987
  900 Fit       0.139583
  901 Fit       0.117634
  902 Fit       0.130793
  903 Fit       0.100962
  904 Fit       0.101762
  905 Fit       0.106408
  906 Fit       0.101100
  907 Fit       0.097997
  908 Fit       0.099355
  909 Fit       0.104586
  910 Fit       0.114054
  911 Fit       0.101513
  912 Fit       0.100023
  913 Fit       0.105659
  914 Fit       0.113172
  915 Fit       0.113140
  916 Fit       0.104769
  917 Fit       0.142494
  918 Fit       0.135518
  919 Fit       0.133907
  920 Fit       0.140537
  921 Fit       0.145418
  922 Fit       0.138525
  923 Fit       0.136361
  924 Fit       0.134762
  925 Fit       0.136253
  926 Fit       0.144828
  927 Fit       0.142634
  928 Fit       0.144259
  929 Fit       0.143573
  930 Fit       0.137541
  931 Fit       0.137521
  932 Fit       0.138100
  933 Fit       0.139883
  934 Fit       0.144128
  935 Fit       0.149080
  936 Fit       0.152119
  937 Fit       0.147971
  938 Fit       0.144958
  939 Fit       0.141993
  940 Fit       0.142321
  941 Fit       0.157381
  942 Fit       0.143280
  943 Fit       0.132467
  944 Fit       0.122501
  945 Fit       0.120128
  946 Fit       0.114530
  947 Fit       0.102797
  948 Fit       0.126688
  949 Fit       0.122733
  950 Fit       0.105161
  951 Fit       0.080550
  952 Fit       0.078318
  953 Fit       0.081265
  954 Fit       0.090641
  955 Fit       0.082715
  956 Fit       0.085068
  957 Fit       0.091913
  958 Fit       0.083125
  959 Fit       0.111353
  960 Fit       0.097634
  961 Fit       0.089463
  962 Fit       0.084152
  963 Fit       0.086843
  964 Fit       0.096876
  965 Fit       0.098692
  966 Fit       0.095201
  967 Fit       0.106844
  968 Fit       0.103448
  969 Fit       0.099186
  970 Fit       0.086601
  971 Fit       0.086912
  972 Fit       0.082516
  973 Fit       0.086296
  974 Fit       0.091039
  975 Fit       0.099272
  976 Fit       0.081671
  977 Fit       0.083272
  978 Fit       0.082492
  979 Fit       0.082124
  980 Fit       0.083547
  981 Fit       0.099519
  982 Fit       0.089027
  983 Fit       0.085136
  984 Fit       0.084132
  985 Fit       0.121532
  986 Fit       0.125488
  987 Fit       0.115156
  988 Fit       0.103205
  989 Fit       0.098813
  990 Fit       0.103570
  991 Fit       0.099360
  992 Fit       0.096287
  993 Fit       0.095867
  994 Fit       0.097633
  995 Fit       0.102005
  996 Fit       0.105036
  997 Fit       0.114441
  998 Fit       0.126433
  999 Fit       0.144657
 1000 Fit       0.111240
 1001 Fit       0.109539
 1002 Fit       0.113252
 1003 Fit       0.129339
 1004 Fit       0.132562
 1005 Fit       0.126596
 1006 Fit       0.121339
 1007 Fit       0.110154
 1008 Fit       0.094824
 1009 Fit       0.101311
 1010 Fit       0.083905
 1011 Fit       0.080009
 1012 Fit       0.086718
 1013 Fit       0.094333
 1014 Fit       0.077576
 1015 Fit       0.072352
 1016 Fit       0.076987
 1017 Fit       0.096616
 1018 Fit       0.078191
 1019 Fit       0.070404
 1020 Fit       0.071809
 1021 Fit       0.085287
 1022 Fit       0.073063
 1023 Fit       0.071670
 1024 Fit       0.103735
 1025 Fit       0.084543
 1026 Fit       0.075747
 1027 Fit       0.108465
 1028 Fit       0.088716
 1029 Fit       0.085502
 1030 Fit       0.098863
 1031 Fit       0.081703
 1032 Fit       0.076977
 1033 Fit       0.075713
 1034 Fit       0.077470
 1035 Fit       0.079949
 1036 Fit       0.076043
 1037 Fit       0.074935
 1038 Fit       0.076358
 1039 Fit       0.080975
 1040 Fit       0.079731
 1041 Fit       0.076603
 1042 Fit       0.076703
 1043 Fit       0.080168
 1044 Fit       0.083134
 1045 Fit       0.079825
 1046 Fit       0.083418
 1047 Fit       0.086797
 1048 Fit       0.099290
 1049 Fit       0.092921
 1050 Fit       0.087950
 1051 Fit       0.093412
 1052 Fit       0.096580
 1053 Fit       0.086604
 1054 Fit       0.082063
 1055 Fit       0.082251
 1056 Fit       0.087216
 1057 Fit       0.097846
 1058 Fit       0.085945
 1059 Fit       0.080500
 1060 Fit       0.078977
 1061 Fit       0.080953
 1062 Fit       0.087057
 1063 Fit       0.094033
 1064 Fit       0.093129
 1065 Fit       0.084495
 1066 Fit       0.084284
 1067 Fit       0.088430
 1068 Fit       0.082403
 1069 Fit       0.079894
 1070 Fit       0.080185
 1071 Fit       0.083174
 1072 Fit       0.089903
 1073 Fit       0.081492
 1074 Fit       0.078471
 1075 Fit       0.078476
 1076 Fit       0.081074
 1077 Fit       0.087089
 1078 Fit       0.080155
 1079 Fit       0.079053
 1080 Fit       0.081813
 1081 Fit       0.111976
 1082 Fit       0.087881
 1083 Fit       0.083155
 1084 Fit       0.081978
 1085 Fit       0.084476
 1086 Fit       0.090695
 1087 Fit       0.100326
 1088 Fit       0.097675
 1089 Fit       0.098764
 1090 Fit       0.091712
 1091 Fit       0.085279
 1092 Fit       0.084186
 1093 Fit       0.089525
 1094 Fit       0.089400
 1095 Fit       0.110271
 1096 Fit       0.118312
 1097 Fit       0.107834
 1098 Fit       0.096691
 1099 Fit       0.088986
 1100 Fit       0.085712
 1101 Fit       0.086757
 1102 Fit       0.102165
 1103 Fit       0.094297
 1104 Fit       0.088038
 1105 Fit       0.088613
 1106 Fit       0.094848
 1107 Fit       0.101977
 1108 Fit       0.092991
 1109 Fit       0.095854
 1110 Fit       0.097184
 1111 Fit       0.101649
 1112 Fit       0.091688
 1113 Fit       0.087348
 1114 Fit       0.087613
 1115 Fit       0.093982
 1116 Fit       0.086867
 1117 Fit       0.083490
 1118 Fit       0.083106
 1119 Fit       0.091731
 1120 Fit       0.085109
 1121 Fit       0.082063
 1122 Fit       0.082046
 1123 Fit       0.086231
 1124 Fit       0.083027
 1125 Fit       0.116607
 1126 Fit       0.118894
 1127 Fit       0.106026
 1128 Fit       0.103997
 1129 Fit       0.114642
 1130 Fit       0.099533
 1131 Fit       0.097629
 1132 Fit       0.100503
 1133 Fit       0.110465
 1134 Fit       0.097591
 1135 Fit       0.099099
 1136 Fit       0.104308
 1137 Fit       0.093408
 1138 Fit       0.095011
 1139 Fit       0.099881
 1140 Fit       0.091785
 1141 Fit       0.092743
 1142 Fit       0.095792
 1143 Fit       0.093326
 1144 Fit       0.095298
 1145 Fit       0.100786
 1146 Fit       0.114601
 1147 Fit       0.101316
 1148 Fit       0.121178
 1149 Fit       0.111018
 1150 Fit       0.127284
 1151 Fit       0.112451
 1152 Fit       0.105958
 1153 Fit       0.125985
 1154 Fit       0.111465
 1155 Fit       0.105055
 1156 Fit       0.117169
 1157 Fit       0.107833
 1158 Fit       0.120857
 1159 Fit       0.119647
 1160 Fit       0.140007
 1161 Fit       0.119211
 1162 Fit       0.108231
 1163 Fit       0.109322
 1164 Fit       0.121662
 1165 Fit       0.139493
 1166 Fit       0.117873
 1167 Fit       0.106704
 1168 Fit       0.102565
 1169 Fit       0.103533
 1170 Fit       0.133752
 1171 Fit       0.113429
 1172 Fit       0.119009
 1173 Fit       0.119324
 1174 Fit       0.120943
 1175 Fit       0.113186
 1176 Fit       0.114153
 1177 Fit       0.086044
 1178 Fit       0.090389
 1179 Fit       0.099152
 1180 Fit       0.084426
 1181 Fit       0.089247
 1182 Fit       0.098096
 1183 Fit       0.083287
 1184 Fit       0.082690
 1185 Fit       0.085533
 1186 Fit       0.091515
 1187 Fit       0.097439
 1188 Fit       0.095191
 1189 Fit       0.088128
 1190 Fit       0.084376
 1191 Fit       0.088983
 1192 Fit       0.077470
 1193 Fit       0.081213
 1194 Fit       0.074940
 1195 Fit       0.078068
 1196 Fit       0.080836
 1197 Fit       0.076395
 1198 Fit       0.078299
 1199 Fit       0.080751
 1200 Fit       0.079917
 1201 Fit       0.079790
 1202 Fit       0.081147
 1203 Fit       0.098644
 1204 Fit       0.091128
 1205 Fit       0.101142
 1206 Fit       0.089517
 1207 Fit       0.086636
 1208 Fit       0.093474
 1209 Fit       0.084965
 1210 Fit       0.084147
 1211 Fit       0.084542
 1212 Fit       0.089849
 1213 Fit       0.082731
 1214 Fit       0.082392
 1215 Fit       0.084941
 1216 Fit       0.089894
 1217 Fit       0.099968
 1218 Fit       0.083303
 1219 Fit       0.108464
 1220 Fit       0.099544
 1221 Fit       0.100854
 1222 Fit       0.112082
 1223 Fit       0.106355
 1224 Fit       0.095669
 1225 Fit       0.094291
 1226 Fit       0.097440
 1227 Fit       0.106158
 1228 Fit       0.101709
 1229 Fit       0.094855
 1230 Fit       0.092580
 1231 Fit       0.093963
 1232 Fit       0.099168
 1233 Fit       0.096505
 1234 Fit       0.093937
 1235 Fit       0.095574
 1236 Fit       0.117115
 1237 Fit       0.132904
 1238 Fit       0.108378
 1239 Fit       0.114300
 1240 Fit       0.127676
 1241 Fit       0.112870
 1242 Fit       0.125371
 1243 Fit       0.124711
 1244 Fit       0.097624
 1245 Fit       0.094313
 1246 Fit       0.094504
 1247 Fit       0.097740
 1248 Fit       0.104402
 1249 Fit       0.096002
 1250 Fit       0.093113
 1251 Fit       0.094300
 1252 Fit       0.099098
 1253 Fit       0.107595
 1254 Fit       0.118328
 1255 Fit       0.096769
 1256 Fit       0.095518
 1257 Fit       0.100695
 1258 Fit       0.107382
 1259 Fit       0.107403
 1260 Fit       0.099983
 1261 Fit       0.134448
 1262 Fit       0.128105
 1263 Fit       0.126702
 1264 Fit       0.132845
 1265 Fit       0.136732
 1266 Fit       0.129281
 1267 Fit       0.127232
 1268 Fit       0.126105
 1269 Fit       0.128199
 1270 Fit       0.136560
 1271 Fit       0.130805
 1272 Fit       0.132018
 1273 Fit       0.139219
 1274 Fit       0.132557
 1275 Fit       0.131809
 1276 Fit       0.129380
 1277 Fit       0.130079
 1278 Fit       0.130710
 1279 Fit       0.132408
 1280 Fit       0.134027
 1281 Fit       0.137908
 1282 Fit       0.140418
 1283 Fit       0.137237
 1284 Fit       0.134483
 1285 Fit       0.131988
 1286 Fit       0.132414
 1287 Fit       0.145111
 1288 Fit       0.132186
 1289 Fit       0.131928
 1290 Fit       0.118714
 -----------------------------------------------------------------
 Leave Link  602 at Sat Feb 17 20:57:18 2018, MaxMem=   33554432 cpu:       0.6

 Test job not archived.
 1\1\GINC-NODE048\SP\RHF\6-31G(d)\C10H21N2O1(1+)\WULSDORT\17-Feb-2018\0
 \\#HF/6-31G* Geom=AllCheck Guess=Read Pop=(MK,ReadRadii) Integral=(Gri
 d=UltraFine) iop(6/33=2)\\Optimization for frag13-conf0\\1,1\C,0,3.542
 1380522,-2.9140180082,-5.0898781105\C,0,1.2208151016,-0.4256960972,0.4
 775973342\C,0,0.8129670745,-1.825892042,-0.0028512481\C,0,1.6666813835
 ,0.4611763084,-0.6939354289\C,0,1.9358094001,-2.4944958785,-0.81785826
 54\C,0,2.7923847599,-0.2016793013,-1.5111587445\C,0,2.3573404795,-1.59
 17044529,-1.9819188564\C,0,3.5019697034,-3.8288623516,-7.3347610888\C,
 0,4.267343975,-1.4955329721,-6.9977227593\C,0,3.8259230219,-1.74200875
 88,-4.108763632\N,0,3.7656570625,-2.7302693983,-6.3969974507\N,0,3.479
 9187995,-2.2810692467,-2.7516121307\O,0,3.1152260939,-3.9614737827,-4.
 583478964\H,0,0.3849014233,0.0463328711,1.0046002278\H,0,2.0402755026,
 -0.5112078687,1.204952705\H,0,0.5592169613,-2.4685313951,0.8463097454\
 H,0,-0.0909614318,-1.7575055131,-0.6234436652\H,0,0.8116317171,0.66102
 03011,-1.3544042352\H,0,2.0150330654,1.4343739568,-0.3330089657\H,0,2.
 8032976862,-2.6707678352,-0.1643545218\H,0,1.6066225724,-3.4711064907,
 -1.1947929697\H,0,3.0662771513,0.4351828768,-2.3615815442\H,0,3.688531
 1344,-0.3030256299,-0.8803424359\H,0,1.5373546436,-1.5138170227,-2.705
 6579231\H,0,2.7475095606,-3.5158700563,-8.0639065495\H,0,3.1415894655,
 -4.6930953665,-6.7804390376\H,0,4.4242890843,-4.0874287713,-7.86502115
 73\H,0,5.215098532,-1.6899557197,-7.5113968648\H,0,4.4337084214,-0.719
 1265984,-6.2509336483\H,0,3.5455366559,-1.1198906229,-7.7309833669\H,0
 ,4.8713997502,-1.4288968644,-4.1237542631\H,0,3.1976845162,-0.87409773
 6,-4.3166682641\H,0,4.3109060294,-2.3268348748,-2.1545618433\H,0,3.197
 6767647,-3.2720126898,-2.9874700909\\Version=AM64L-G09RevC.01\State=1-
 A\HF=-574.4853264\RMSD=6.190e-09\Dipole=1.2159895,0.8355305,-0.5552402
 \Quadrupole=-4.7378514,-11.2513957,15.9892471,-1.197284,-8.1070991,2.3
 080153\PG=C01 [X(C10H21N2O1)]\\@


 A COMPUTER IS LIKE A HORSE, IT WILL SENSE WEAKNESS.
     -- GREG WETTSTEIN
 Job cpu time:  0 days  0 hours  3 minutes  2.2 seconds.
 File lengths (MBytes):  RWF=     34 Int=      0 D2E=      0 Chk=      6 Scr=      1
 Normal termination of Gaussian 09 at Sat Feb 17 20:57:18 2018.
