 Entering Gaussian System, Link 0=g09
 Initial command:
 /home/fb_chem/chemsoft/lx24-amd64/Gaussian_09_C.01_NBO_3.1_64_istanbul-64/g09/l1.exe /local/2397358.1.parallel_long/Gau-12067.inp -scrdir=/local/2397358.1.parallel_long/
 Entering Link 1 = /home/fb_chem/chemsoft/lx24-amd64/Gaussian_09_C.01_NBO_3.1_64_istanbul-64/g09/l1.exe PID=     12068.
  
 Copyright (c) 1988,1990,1992,1993,1995,1998,2003,2009,2011,
            Gaussian, Inc.  All Rights Reserved.
  
 This is part of the Gaussian(R) 09 program.  It is based on
 the Gaussian(R) 03 system (copyright 2003, Gaussian, Inc.),
 the Gaussian(R) 98 system (copyright 1998, Gaussian, Inc.),
 the Gaussian(R) 94 system (copyright 1995, Gaussian, Inc.),
 the Gaussian 92(TM) system (copyright 1992, Gaussian, Inc.),
 the Gaussian 90(TM) system (copyright 1990, Gaussian, Inc.),
 the Gaussian 88(TM) system (copyright 1988, Gaussian, Inc.),
 the Gaussian 86(TM) system (copyright 1986, Carnegie Mellon
 University), and the Gaussian 82(TM) system (copyright 1983,
 Carnegie Mellon University). Gaussian is a federally registered
 trademark of Gaussian, Inc.
  
 This software contains proprietary and confidential information,
 including trade secrets, belonging to Gaussian, Inc.
  
 This software is provided under written license and may be
 used, copied, transmitted, or stored only in accord with that
 written license.
  
 The following legend is applicable only to US Government
 contracts under FAR:
  
                    RESTRICTED RIGHTS LEGEND
  
 Use, reproduction and disclosure by the US Government is
 subject to restrictions as set forth in subparagraphs (a)
 and (c) of the Commercial Computer Software - Restricted
 Rights clause in FAR 52.227-19.
  
 Gaussian, Inc.
 340 Quinnipiac St., Bldg. 40, Wallingford CT 06492
  
  
 ---------------------------------------------------------------
 Warning -- This program may not be used in any manner that
 competes with the business of Gaussian, Inc. or will provide
 assistance to any competitor of Gaussian, Inc.  The licensee
 of this program is prohibited from giving any competitor of
 Gaussian, Inc. access to this program.  By using this program,
 the user acknowledges that Gaussian, Inc. is engaged in the
 business of creating and licensing software in the field of
 computational chemistry and represents and warrants to the
 licensee that it is not a competitor of Gaussian, Inc. and that
 it will not use this program in any manner prohibited above.
 ---------------------------------------------------------------
  

 Cite this work as:
 Gaussian 09, Revision C.01,
 M. J. Frisch, G. W. Trucks, H. B. Schlegel, G. E. Scuseria, 
 M. A. Robb, J. R. Cheeseman, G. Scalmani, V. Barone, B. Mennucci, 
 G. A. Petersson, H. Nakatsuji, M. Caricato, X. Li, H. P. Hratchian, 
 A. F. Izmaylov, J. Bloino, G. Zheng, J. L. Sonnenberg, M. Hada, 
 M. Ehara, K. Toyota, R. Fukuda, J. Hasegawa, M. Ishida, T. Nakajima, 
 Y. Honda, O. Kitao, H. Nakai, T. Vreven, J. A. Montgomery, Jr., 
 J. E. Peralta, F. Ogliaro, M. Bearpark, J. J. Heyd, E. Brothers, 
 K. N. Kudin, V. N. Staroverov, T. Keith, R. Kobayashi, J. Normand, 
 K. Raghavachari, A. Rendell, J. C. Burant, S. S. Iyengar, J. Tomasi, 
 M. Cossi, N. Rega, J. M. Millam, M. Klene, J. E. Knox, J. B. Cross, 
 V. Bakken, C. Adamo, J. Jaramillo, R. Gomperts, R. E. Stratmann, 
 O. Yazyev, A. J. Austin, R. Cammi, C. Pomelli, J. W. Ochterski, 
 R. L. Martin, K. Morokuma, V. G. Zakrzewski, G. A. Voth, 
 P. Salvador, J. J. Dannenberg, S. Dapprich, A. D. Daniels, 
 O. Farkas, J. B. Foresman, J. V. Ortiz, J. Cioslowski, 
 and D. J. Fox, Gaussian, Inc., Wallingford CT, 2010.
 
 ******************************************
 Gaussian 09:  AM64L-G09RevC.01 23-Sep-2011
                16-Feb-2018 
 ******************************************
 %nprocs=4
 Will use up to    4 processors via shared memory.
 %chk=frag23-conf0.chk
 ---------------------------------------------------------
 #B3LYP/6-31G* Integral=(Grid=UltraFine) freq Opt pop=none
 ---------------------------------------------------------
 1/14=-1,18=20,19=15,26=3,38=1/1,3;
 2/9=110,12=2,17=6,18=5,40=1/2;
 3/5=1,6=6,7=1,11=2,16=1,25=1,30=1,71=1,74=-5,75=-5/1,2,3;
 4//1;
 5/5=2,38=5/2;
 7//1,2,3,16;
 1/14=-1,18=20,19=15/3(2);
 2/9=110/2;
 99//99;
 2/9=110/2;
 3/5=1,6=6,7=1,11=2,16=1,25=1,30=1,71=1,74=-5,75=-5/1,2,3;
 4/5=5,16=3/1;
 5/5=2,38=5/2;
 7//1,2,3,16;
 1/14=-1,18=20,19=15/3(-5);
 2/9=110/2;
 99/9=1/99;
 -----------------------------
 Optimization for frag23-conf0
 -----------------------------
 Charge =  0 Multiplicity = 1
 Symbolic Z-Matrix:
 C                    -2.26382  -1.34046   1.80572 
 C                    -2.12556   1.10844   1.56823 
 C                    -1.01667  -0.30524  -0.12609 
 C                    -2.39826  -6.25567   3.28558 
 C                    -1.84025  -2.7292    1.31962 
 N                    -2.16554  -3.74016   2.37089 
 N                    -1.81847  -0.23353   1.0913 
 O                    -2.99175  -1.22289   2.80132 
 O                    -1.15469  -5.63707   1.03603 
 O                    -3.65785  -5.35238   1.13829 
 S                    -2.35723  -5.30885   1.77991 
 H                    -1.18674   1.6458    1.73208 
 H                    -2.69175   1.09562   2.50269 
 H                    -2.71395   1.62605   0.80491 
 H                    -1.45197   0.36145  -0.87666 
 H                    -0.97702  -1.31178  -0.54373 
 H                    -0.00133   0.02626   0.10967 
 H                    -2.52391  -7.30698   3.01815 
 H                    -1.45458  -6.11657   3.81603 
 H                    -3.24346  -5.92187   3.89012 
 H                    -2.39367  -2.93832   0.39861 
 H                    -0.76191  -2.75542   1.14042 
 H                    -3.02402  -3.44545   2.86065 
 

 GradGradGradGradGradGradGradGradGradGradGradGradGradGradGradGradGradGrad
 Berny optimization.
 Initialization pass.
                           ----------------------------
                           !    Initial Parameters    !
                           ! (Angstroms and Degrees)  !
 --------------------------                            --------------------------
 ! Name  Definition              Value          Derivative Info.                !
 --------------------------------------------------------------------------------
 ! R1    R(1,5)                  1.5311         estimate D2E/DX2                !
 ! R2    R(1,7)                  1.3907         estimate D2E/DX2                !
 ! R3    R(1,8)                  1.2389         estimate D2E/DX2                !
 ! R4    R(2,7)                  1.4569         estimate D2E/DX2                !
 ! R5    R(2,12)                 1.0941         estimate D2E/DX2                !
 ! R6    R(2,13)                 1.0927         estimate D2E/DX2                !
 ! R7    R(2,14)                 1.094          estimate D2E/DX2                !
 ! R8    R(3,7)                  1.4595         estimate D2E/DX2                !
 ! R9    R(3,15)                 1.0942         estimate D2E/DX2                !
 ! R10   R(3,16)                 1.0905         estimate D2E/DX2                !
 ! R11   R(3,17)                 1.0938         estimate D2E/DX2                !
 ! R12   R(4,11)                 1.7791         estimate D2E/DX2                !
 ! R13   R(4,18)                 1.092          estimate D2E/DX2                !
 ! R14   R(4,19)                 1.0914         estimate D2E/DX2                !
 ! R15   R(4,20)                 1.0914         estimate D2E/DX2                !
 ! R16   R(5,6)                  1.4943         estimate D2E/DX2                !
 ! R17   R(5,21)                 1.0947         estimate D2E/DX2                !
 ! R18   R(5,22)                 1.0934         estimate D2E/DX2                !
 ! R19   R(6,11)                 1.6872         estimate D2E/DX2                !
 ! R20   R(6,23)                 1.0314         estimate D2E/DX2                !
 ! R21   R(9,11)                 1.4516         estimate D2E/DX2                !
 ! R22   R(10,11)                1.4509         estimate D2E/DX2                !
 ! A1    A(5,1,7)              118.0506         estimate D2E/DX2                !
 ! A2    A(5,1,8)              120.2482         estimate D2E/DX2                !
 ! A3    A(7,1,8)              121.6984         estimate D2E/DX2                !
 ! A4    A(7,2,12)             108.697          estimate D2E/DX2                !
 ! A5    A(7,2,13)             112.2322         estimate D2E/DX2                !
 ! A6    A(7,2,14)             108.7097         estimate D2E/DX2                !
 ! A7    A(12,2,13)            108.8033         estimate D2E/DX2                !
 ! A8    A(12,2,14)            109.4897         estimate D2E/DX2                !
 ! A9    A(13,2,14)            108.8786         estimate D2E/DX2                !
 ! A10   A(7,3,15)             108.8851         estimate D2E/DX2                !
 ! A11   A(7,3,16)             112.6312         estimate D2E/DX2                !
 ! A12   A(7,3,17)             108.3782         estimate D2E/DX2                !
 ! A13   A(15,3,16)            108.3089         estimate D2E/DX2                !
 ! A14   A(15,3,17)            109.4188         estimate D2E/DX2                !
 ! A15   A(16,3,17)            109.1811         estimate D2E/DX2                !
 ! A16   A(11,4,18)            107.9231         estimate D2E/DX2                !
 ! A17   A(11,4,19)            108.8774         estimate D2E/DX2                !
 ! A18   A(11,4,20)            108.896          estimate D2E/DX2                !
 ! A19   A(18,4,19)            109.9503         estimate D2E/DX2                !
 ! A20   A(18,4,20)            109.9358         estimate D2E/DX2                !
 ! A21   A(19,4,20)            111.1844         estimate D2E/DX2                !
 ! A22   A(1,5,6)              109.2718         estimate D2E/DX2                !
 ! A23   A(1,5,21)             107.4894         estimate D2E/DX2                !
 ! A24   A(1,5,22)             110.28           estimate D2E/DX2                !
 ! A25   A(6,5,21)             110.6466         estimate D2E/DX2                !
 ! A26   A(6,5,22)             108.2855         estimate D2E/DX2                !
 ! A27   A(21,5,22)            110.862          estimate D2E/DX2                !
 ! A28   A(5,6,11)             114.0364         estimate D2E/DX2                !
 ! A29   A(5,6,23)             108.781          estimate D2E/DX2                !
 ! A30   A(11,6,23)            109.7206         estimate D2E/DX2                !
 ! A31   A(1,7,2)              119.8338         estimate D2E/DX2                !
 ! A32   A(1,7,3)              124.4249         estimate D2E/DX2                !
 ! A33   A(2,7,3)              115.7285         estimate D2E/DX2                !
 ! A34   A(4,11,6)             101.5947         estimate D2E/DX2                !
 ! A35   A(4,11,9)             109.4184         estimate D2E/DX2                !
 ! A36   A(4,11,10)            109.7317         estimate D2E/DX2                !
 ! A37   A(6,11,9)             107.1931         estimate D2E/DX2                !
 ! A38   A(6,11,10)            106.5364         estimate D2E/DX2                !
 ! A39   A(9,11,10)            120.6105         estimate D2E/DX2                !
 ! D1    D(7,1,5,6)            167.8424         estimate D2E/DX2                !
 ! D2    D(7,1,5,21)           -72.0378         estimate D2E/DX2                !
 ! D3    D(7,1,5,22)            48.9254         estimate D2E/DX2                !
 ! D4    D(8,1,5,6)            -12.7615         estimate D2E/DX2                !
 ! D5    D(8,1,5,21)           107.3583         estimate D2E/DX2                !
 ! D6    D(8,1,5,22)          -131.6785         estimate D2E/DX2                !
 ! D7    D(5,1,7,2)           -176.0345         estimate D2E/DX2                !
 ! D8    D(5,1,7,3)              2.609          estimate D2E/DX2                !
 ! D9    D(8,1,7,2)              4.5787         estimate D2E/DX2                !
 ! D10   D(8,1,7,3)           -176.7779         estimate D2E/DX2                !
 ! D11   D(12,2,7,1)           121.4995         estimate D2E/DX2                !
 ! D12   D(12,2,7,3)           -57.2584         estimate D2E/DX2                !
 ! D13   D(13,2,7,1)             1.106          estimate D2E/DX2                !
 ! D14   D(13,2,7,3)          -177.6518         estimate D2E/DX2                !
 ! D15   D(14,2,7,1)          -119.3903         estimate D2E/DX2                !
 ! D16   D(14,2,7,3)            61.8518         estimate D2E/DX2                !
 ! D17   D(15,3,7,1)           132.4687         estimate D2E/DX2                !
 ! D18   D(15,3,7,2)           -48.8376         estimate D2E/DX2                !
 ! D19   D(16,3,7,1)            12.3147         estimate D2E/DX2                !
 ! D20   D(16,3,7,2)          -168.9915         estimate D2E/DX2                !
 ! D21   D(17,3,7,1)          -108.5894         estimate D2E/DX2                !
 ! D22   D(17,3,7,2)            70.1044         estimate D2E/DX2                !
 ! D23   D(18,4,11,6)          179.8714         estimate D2E/DX2                !
 ! D24   D(18,4,11,9)          -67.0323         estimate D2E/DX2                !
 ! D25   D(18,4,11,10)          67.397          estimate D2E/DX2                !
 ! D26   D(19,4,11,6)          -60.8152         estimate D2E/DX2                !
 ! D27   D(19,4,11,9)           52.2812         estimate D2E/DX2                !
 ! D28   D(19,4,11,10)        -173.2895         estimate D2E/DX2                !
 ! D29   D(20,4,11,6)           60.5648         estimate D2E/DX2                !
 ! D30   D(20,4,11,9)          173.6611         estimate D2E/DX2                !
 ! D31   D(20,4,11,10)         -51.9096         estimate D2E/DX2                !
 ! D32   D(1,5,6,11)           156.171          estimate D2E/DX2                !
 ! D33   D(1,5,6,23)            33.3571         estimate D2E/DX2                !
 ! D34   D(21,5,6,11)           38.0089         estimate D2E/DX2                !
 ! D35   D(21,5,6,23)          -84.805          estimate D2E/DX2                !
 ! D36   D(22,5,6,11)          -83.6802         estimate D2E/DX2                !
 ! D37   D(22,5,6,23)          153.5058         estimate D2E/DX2                !
 ! D38   D(5,6,11,4)           169.1242         estimate D2E/DX2                !
 ! D39   D(5,6,11,9)            54.3685         estimate D2E/DX2                !
 ! D40   D(5,6,11,10)          -76.0137         estimate D2E/DX2                !
 ! D41   D(23,6,11,4)          -68.5759         estimate D2E/DX2                !
 ! D42   D(23,6,11,9)          176.6685         estimate D2E/DX2                !
 ! D43   D(23,6,11,10)          46.2862         estimate D2E/DX2                !
 --------------------------------------------------------------------------------
 Trust Radius=3.00D-01 FncErr=1.00D-07 GrdErr=1.00D-06
 Number of steps in this run=    114 maximum allowed number of steps=    138.
 GradGradGradGradGradGradGradGradGradGradGradGradGradGradGradGradGradGrad

                          Input orientation:                          
 ---------------------------------------------------------------------
 Center     Atomic      Atomic             Coordinates (Angstroms)
 Number     Number       Type             X           Y           Z
 ---------------------------------------------------------------------
      1          6           0       -2.263823   -1.340459    1.805721
      2          6           0       -2.125556    1.108442    1.568225
      3          6           0       -1.016668   -0.305244   -0.126089
      4          6           0       -2.398256   -6.255674    3.285583
      5          6           0       -1.840246   -2.729197    1.319618
      6          7           0       -2.165542   -3.740163    2.370887
      7          7           0       -1.818467   -0.233530    1.091301
      8          8           0       -2.991753   -1.222890    2.801323
      9          8           0       -1.154689   -5.637068    1.036029
     10          8           0       -3.657847   -5.352378    1.138287
     11         16           0       -2.357230   -5.308850    1.779910
     12          1           0       -1.186744    1.645804    1.732077
     13          1           0       -2.691746    1.095624    2.502687
     14          1           0       -2.713951    1.626047    0.804915
     15          1           0       -1.451973    0.361446   -0.876661
     16          1           0       -0.977019   -1.311777   -0.543732
     17          1           0       -0.001334    0.026265    0.109666
     18          1           0       -2.523912   -7.306982    3.018153
     19          1           0       -1.454583   -6.116566    3.816031
     20          1           0       -3.243458   -5.921867    3.890121
     21          1           0       -2.393674   -2.938319    0.398615
     22          1           0       -0.761911   -2.755418    1.140415
     23          1           0       -3.024022   -3.445452    2.860651
 ---------------------------------------------------------------------
                    Distance matrix (angstroms):
                    1          2          3          4          5
     1  C    0.000000
     2  C    2.464273   0.000000
     3  C    2.521697   2.469583   0.000000
     4  C    5.134921   7.566631   6.996851   0.000000
     5  C    1.531113   3.856252   2.940051   4.075836   0.000000
     6  N    2.467317   4.914757   4.399258   2.686750   1.494335
     7  N    1.390694   1.456932   1.459473   6.435624   2.506184
     8  O    1.238923   2.775957   3.648668   5.090743   2.406321
     9  O    4.503715   6.835768   5.458747   2.643790   3.001020
    10  O    4.299333   6.653943   5.835070   2.648281   3.196503
    11  S    3.969574   6.424961   5.519603   1.779104   2.670908
    12  H    3.175419   1.094063   2.699684   8.143372   4.442727
    13  H    2.569704   1.092682   3.417423   7.398693   4.093160
    14  H    3.162971   1.093968   2.734488   8.268913   4.471737
    15  H    3.278834   2.643707   1.094223   7.874389   3.811361
    16  H    2.678920   3.411299   1.090462   6.412931   2.495258
    17  H    3.140603   2.794784   1.093792   7.436023   3.526776
    18  H    6.094016   8.548704   7.821916   1.092042   4.930368
    19  H    5.244752   7.596288   7.035876   1.091441   4.225528
    20  H    5.127739   7.487734   7.254998   1.091448   4.332393
    21  H    2.133065   4.220918   3.017374   4.397665   1.094651
    22  H    2.168059   4.119704   2.769889   4.419408   1.093438
    23  H    2.474223   4.818253   4.776086   2.910240   2.071022
                    6          7          8          9         10
     6  N    0.000000
     7  N    3.748904   0.000000
     8  O    2.684132   2.297740   0.000000
     9  O    2.530201   5.444436   5.096669   0.000000
    10  O    2.519030   5.439497   4.501338   2.521370   0.000000
    11  S    1.687239   5.150080   4.259222   1.451616   1.450923
    12  H    5.511330   2.083642   3.553977   7.316128   7.445367
    13  H    4.866117   2.126330   2.356840   7.059941   6.661206
    14  H    5.616870   2.083731   3.489880   7.432197   7.049858
    15  H    5.280051   2.088345   4.290525   6.303088   6.447765
    16  H    3.975506   2.131662   3.905950   4.608183   5.132492
    17  H    4.897233   2.081603   4.212839   5.853351   6.584675
    18  H    3.642743   7.365062   6.105904   2.931245   2.939418
    19  H    2.870749   6.493588   5.228823   2.836947   3.550868
    20  H    2.868764   6.497782   4.830033   3.548226   2.840533
    21  H    2.141228   2.850712   3.012209   3.037207   2.823638
    22  H    2.110441   2.734710   3.174815   2.910168   3.889814
    23  H    1.031363   3.860105   2.223589   3.409814   2.646627
                   11         12         13         14         15
    11  S    0.000000
    12  H    7.052626   0.000000
    13  H    6.453805   1.778080   0.000000
    14  H    7.012180   1.786724   1.778840   0.000000
    15  H    6.326856   2.919834   3.673696   2.453467   0.000000
    16  H    4.825027   3.737723   4.244589   3.669685   1.770903
    17  H    6.066581   2.580759   3.756114   3.225052   1.785928
    18  H    2.356599   9.142996   8.420075   9.205082   8.667376
    19  H    2.369170   8.041703   7.434456   8.402434   7.999125
    20  H    2.369426   8.133687   7.174576   8.171284   8.087747
    21  H    2.743852   4.924326   4.559459   4.593593   3.660816
    22  H    3.077988   4.461087   4.517806   4.808353   3.776191
    23  H    2.254964   5.529029   4.567266   5.481086   5.561593
                   16         17         18         19         20
    16  H    0.000000
    17  H    1.780238   0.000000
    18  H    7.142995   8.282463   0.000000
    19  H    6.505505   7.320071   1.788061   0.000000
    20  H    6.785921   7.757801   1.787909   1.800963   0.000000
    21  H    2.353840   3.820410   5.095503   4.760450   4.670579
    22  H    2.228614   3.062463   5.229462   4.351555   4.872921
    23  H    4.509170   5.362591   3.896963   3.242027   2.690834
                   21         22         23
    21  H    0.000000
    22  H    1.801768   0.000000
    23  H    2.591553   2.924466   0.000000
 Stoichiometry    C5H12N2O3S
 Framework group  C1[X(C5H12N2O3S)]
 Deg. of freedom    63
 Full point group                 C1      NOp   1
 Largest Abelian subgroup         C1      NOp   1
 Largest concise Abelian subgroup C1      NOp   1
                         Standard orientation:                         
 ---------------------------------------------------------------------
 Center     Atomic      Atomic             Coordinates (Angstroms)
 Number     Number       Type             X           Y           Z
 ---------------------------------------------------------------------
      1          6           0        1.650614   -0.473844   -0.012989
      2          6           0        4.110097   -0.627387   -0.015417
      3          6           0        3.068198    1.611560   -0.035402
      4          6           0       -3.422627   -0.923487   -0.666786
      5          6           0        0.392725    0.394496   -0.102476
      6          7           0       -0.788314   -0.475959   -0.386183
      7          7           0        2.886602    0.163622   -0.011748
      8          8           0        1.553749   -1.706382    0.066988
      9          8           0       -2.368340    1.496148   -0.513578
     10          8           0       -2.324471    0.038037    1.542947
     11         16           0       -2.262201    0.185272    0.100857
     12          1           0        4.697921   -0.360045   -0.898573
     13          1           0        3.908222   -1.701011   -0.038483
     14          1           0        4.681567   -0.393993    0.887754
     15          1           0        3.798134    1.889524    0.730922
     16          1           0        2.142597    2.153796    0.160434
     17          1           0        3.449334    1.895272   -1.020605
     18          1           0       -4.429314   -0.585729   -0.411722
     19          1           0       -3.281216   -0.889210   -1.748485
     20          1           0       -3.258636   -1.930569   -0.279291
     21          1           0        0.275034    0.903225    0.859608
     22          1           0        0.488922    1.118231   -0.916453
     23          1           0       -0.646907   -1.387935    0.074268
 ---------------------------------------------------------------------
 Rotational constants (GHZ):      2.3013720      0.4262766      0.3921991
 Standard basis: 6-31G(d) (6D, 7F)
 There are   193 symmetry adapted basis functions of A   symmetry.
 Integral buffers will be    131072 words long.
 Raffenetti 2 integral format.
 Two-electron integral symmetry is turned on.
   193 basis functions,   380 primitive gaussians,   193 cartesian basis functions
    48 alpha electrons       48 beta electrons
       nuclear repulsion energy       783.3007099275 Hartrees.
 NAtoms=   23 NActive=   23 NUniq=   23 SFac= 1.00D+00 NAtFMM=   60 NAOKFM=F Big=F
 One-electron integrals computed using PRISM.
 NBasis=   193 RedAO= T  NBF=   193
 NBsUse=   193 1.00D-06 NBFU=   193
 Harris functional with IExCor=  402 diagonalized for initial guess.
 ExpMin= 1.17D-01 ExpMax= 2.19D+04 ExpMxC= 3.30D+03 IAcc=3 IRadAn=         5 AccDes= 0.00D+00
 HarFok:  IExCor=  402 AccDes= 0.00D+00 IRadAn=         5 IDoV= 1
 ScaDFX=  1.000000  1.000000  1.000000  1.000000
 FoFCou: FMM=F IPFlag=           0 FMFlag=      100000 FMFlg1=           0
         NFxFlg=           0 DoJE=T BraDBF=F KetDBF=T FulRan=T
         Omega=  0.000000  0.000000  1.000000  0.000000  0.000000 ICntrl=     500 IOpCl=  0
         NMat0=    1 NMatS0=    1 NMatT0=    0 NMatD0=    1 NMtDS0=    0 NMtDT0=    0
         I1Cent=           4 NGrid=           0.
 Petite list used in FoFCou.
 Initial guess orbital symmetries:
       Occupied  (A) (A) (A) (A) (A) (A) (A) (A) (A) (A) (A) (A)
                 (A) (A) (A) (A) (A) (A) (A) (A) (A) (A) (A) (A)
                 (A) (A) (A) (A) (A) (A) (A) (A) (A) (A) (A) (A)
                 (A) (A) (A) (A) (A) (A) (A) (A) (A) (A) (A) (A)
       Virtual   (A) (A) (A) (A) (A) (A) (A) (A) (A) (A) (A) (A)
                 (A) (A) (A) (A) (A) (A) (A) (A) (A) (A) (A) (A)
                 (A) (A) (A) (A) (A) (A) (A) (A) (A) (A) (A) (A)
                 (A) (A) (A) (A) (A) (A) (A) (A) (A) (A) (A) (A)
                 (A) (A) (A) (A) (A) (A) (A) (A) (A) (A) (A) (A)
                 (A) (A) (A) (A) (A) (A) (A) (A) (A) (A) (A) (A)
                 (A) (A) (A) (A) (A) (A) (A) (A) (A) (A) (A) (A)
                 (A) (A) (A) (A) (A) (A) (A) (A) (A) (A) (A) (A)
                 (A) (A) (A) (A) (A) (A) (A) (A) (A) (A) (A) (A)
                 (A) (A) (A) (A) (A) (A) (A) (A) (A) (A) (A) (A)
                 (A) (A) (A) (A) (A) (A) (A) (A) (A) (A) (A) (A)
                 (A) (A) (A) (A) (A) (A) (A) (A) (A) (A) (A) (A)
                 (A)
 The electronic state of the initial guess is 1-A.
 Requested convergence on RMS density matrix=1.00D-08 within 128 cycles.
 Requested convergence on MAX density matrix=1.00D-06.
 Requested convergence on             energy=1.00D-06.
 No special actions if energy rises.
 Integral accuracy reduced to 1.0D-05 until final iterations.
 Initial convergence to 1.0D-05 achieved.  Increase integral accuracy.
 SCF Done:  E(RB3LYP) =  -931.056401887     A.U. after   14 cycles
             Convg  =    0.9457D-08             -V/T =  2.0069
 Calling FoFJK, ICntrl=      2127 FMM=F ISym2X=0 I1Cent= 0 IOpClX= 0 NMat=1 NMatS=1 NMatT=0.
 ***** Axes restored to original set *****
 -------------------------------------------------------------------
 Center     Atomic                   Forces (Hartrees/Bohr)
 Number     Number              X              Y              Z
 -------------------------------------------------------------------
      1        6          -0.007334852    0.018831264    0.010914067
      2        6          -0.000033216   -0.001148194   -0.001789043
      3        6          -0.001428058    0.002054568    0.008143134
      4        6           0.000810062   -0.001782751    0.008378997
      5        6          -0.001194255   -0.007831128    0.009931196
      6        7           0.003859105    0.016359577    0.006320811
      7        7          -0.008981210   -0.025301416    0.009947790
      8        8           0.008985717   -0.003750768   -0.012043218
      9        8           0.013176276   -0.005756387   -0.008087287
     10        8          -0.021850800   -0.013286196   -0.011490791
     11       16           0.001984577    0.020039948    0.001791753
     12        1           0.000935609    0.003837900   -0.000316332
     13        1           0.001418811   -0.006363311   -0.002699031
     14        1          -0.000382790    0.004302085   -0.000372684
     15        1           0.001143005    0.000670485   -0.002028160
     16        1          -0.001077070    0.000314225    0.001500391
     17        1           0.004433039    0.001131789   -0.005143856
     18        1          -0.000803526    0.000334585   -0.001877109
     19        1          -0.000604621    0.000457888    0.000075882
     20        1          -0.000054103   -0.000643958    0.001204443
     21        1           0.002768279   -0.000984803   -0.005392865
     22        1          -0.001947496   -0.002549509   -0.003246009
     23        1           0.006177518    0.001064110   -0.003722079
 -------------------------------------------------------------------
 Cartesian Forces:  Max     0.025301416 RMS     0.007564761

 GradGradGradGradGradGradGradGradGradGradGradGradGradGradGradGradGradGrad
 Berny optimization.
 Internal  Forces:  Max     0.025067295 RMS     0.005723117
 Search for a local minimum.
 Step number   1 out of a maximum of  114
 All quantities printed in internal units (Hartrees-Bohrs-Radians)
 Mixed Optimization -- RFO/linear search
 Second derivative matrix not updated -- first step.
 ITU=  0
     Eigenvalues ---    0.00354   0.00444   0.00647   0.00905   0.00939
     Eigenvalues ---    0.00950   0.01167   0.01465   0.01815   0.02788
     Eigenvalues ---    0.05291   0.06070   0.06228   0.06513   0.07290
     Eigenvalues ---    0.07355   0.07728   0.07738   0.08321   0.09233
     Eigenvalues ---    0.09298   0.11346   0.12505   0.12824   0.16000
     Eigenvalues ---    0.16000   0.16000   0.16000   0.16000   0.16000
     Eigenvalues ---    0.16000   0.16000   0.16000   0.17752   0.22071
     Eigenvalues ---    0.23372   0.24993   0.24996   0.24999   0.25000
     Eigenvalues ---    0.25000   0.27834   0.29321   0.32979   0.34281
     Eigenvalues ---    0.34329   0.34347   0.34358   0.34378   0.34418
     Eigenvalues ---    0.34505   0.34578   0.34646   0.34647   0.34759
     Eigenvalues ---    0.37030   0.37351   0.37471   0.42573   0.47198
     Eigenvalues ---    0.87468   0.95221   0.95528
 RFO step:  Lambda=-1.15808071D-02 EMin= 3.54383652D-03
 Linear search not attempted -- first point.
 Iteration  1 RMS(Cart)=  0.07442263 RMS(Int)=  0.00185376
 Iteration  2 RMS(Cart)=  0.00251684 RMS(Int)=  0.00047051
 Iteration  3 RMS(Cart)=  0.00000266 RMS(Int)=  0.00047051
 Iteration  4 RMS(Cart)=  0.00000000 RMS(Int)=  0.00047051
 Variable       Old X    -DE/DX   Delta X   Delta X   Delta X     New X
                                 (Linear)    (Quad)   (Total)
    R1        2.89338  -0.00233   0.00000  -0.00766  -0.00766   2.88573
    R2        2.62803  -0.02131   0.00000  -0.04407  -0.04407   2.58396
    R3        2.34122  -0.01531   0.00000  -0.01728  -0.01728   2.32395
    R4        2.75320  -0.00152   0.00000  -0.00396  -0.00396   2.74924
    R5        2.06748   0.00264   0.00000   0.00744   0.00744   2.07492
    R6        2.06487  -0.00297   0.00000  -0.00832  -0.00832   2.05655
    R7        2.06730   0.00250   0.00000   0.00704   0.00704   2.07434
    R8        2.75800  -0.00058   0.00000  -0.00152  -0.00152   2.75649
    R9        2.06778   0.00134   0.00000   0.00379   0.00379   2.07157
   R10        2.06067  -0.00090   0.00000  -0.00252  -0.00252   2.05816
   R11        2.06697   0.00335   0.00000   0.00943   0.00943   2.07639
   R12        3.36202   0.00747   0.00000   0.02577   0.02577   3.38779
   R13        2.06366   0.00023   0.00000   0.00064   0.00064   2.06430
   R14        2.06253  -0.00043   0.00000  -0.00119  -0.00119   2.06133
   R15        2.06254   0.00051   0.00000   0.00143   0.00143   2.06397
   R16        2.82388  -0.01715   0.00000  -0.05025  -0.05025   2.77363
   R17        2.06859   0.00333   0.00000   0.00939   0.00939   2.07798
   R18        2.06630  -0.00133   0.00000  -0.00373  -0.00373   2.06257
   R19        3.18842   0.00493   0.00000   0.01277   0.01277   3.20119
   R20        1.94899  -0.00661   0.00000  -0.01510  -0.01510   1.93389
   R21        2.74316   0.01636   0.00000   0.01698   0.01698   2.76013
   R22        2.74185   0.02507   0.00000   0.02593   0.02593   2.76777
    A1        2.06037  -0.00479   0.00000  -0.01835  -0.01841   2.04196
    A2        2.09873  -0.00032   0.00000  -0.00129  -0.00134   2.09738
    A3        2.12404   0.00511   0.00000   0.01946   0.01940   2.14344
    A4        1.89712   0.00474   0.00000   0.02913   0.02886   1.92598
    A5        1.95882  -0.01116   0.00000  -0.06826  -0.06789   1.89093
    A6        1.89734   0.00599   0.00000   0.03651   0.03632   1.93367
    A7        1.89898   0.00234   0.00000   0.01041   0.01069   1.90967
    A8        1.91096  -0.00361   0.00000  -0.01427  -0.01506   1.89590
    A9        1.90029   0.00170   0.00000   0.00682   0.00727   1.90756
   A10        1.90040   0.00186   0.00000   0.00893   0.00858   1.90898
   A11        1.96579  -0.00453   0.00000  -0.02837  -0.02828   1.93751
   A12        1.89156   0.00909   0.00000   0.05680   0.05666   1.94822
   A13        1.89035  -0.00029   0.00000  -0.00888  -0.00898   1.88136
   A14        1.90972  -0.00429   0.00000  -0.02077  -0.02133   1.88839
   A15        1.90557  -0.00198   0.00000  -0.00830  -0.00804   1.89753
   A16        1.88361  -0.00320   0.00000  -0.01982  -0.01979   1.86382
   A17        1.90027   0.00017   0.00000   0.00200   0.00197   1.90224
   A18        1.90059   0.00226   0.00000   0.01336   0.01336   1.91396
   A19        1.91899   0.00140   0.00000   0.00779   0.00777   1.92677
   A20        1.91874   0.00015   0.00000  -0.00116  -0.00109   1.91765
   A21        1.94053  -0.00085   0.00000  -0.00263  -0.00267   1.93786
   A22        1.90715  -0.01340   0.00000  -0.05431  -0.05394   1.85322
   A23        1.87604   0.00398   0.00000   0.02014   0.02037   1.89641
   A24        1.92475   0.00607   0.00000   0.03292   0.03281   1.95755
   A25        1.93115   0.00525   0.00000   0.02788   0.02816   1.95931
   A26        1.88994   0.00255   0.00000   0.00460   0.00497   1.89491
   A27        1.93491  -0.00463   0.00000  -0.03161  -0.03188   1.90303
   A28        1.99031  -0.00369   0.00000  -0.01496  -0.01495   1.97537
   A29        1.89859  -0.00041   0.00000  -0.00776  -0.00768   1.89091
   A30        1.91499   0.00280   0.00000   0.01813   0.01808   1.93307
   A31        2.09149  -0.00290   0.00000  -0.01109  -0.01109   2.08040
   A32        2.17162   0.00257   0.00000   0.00986   0.00986   2.18148
   A33        2.01984   0.00033   0.00000   0.00128   0.00128   2.02113
   A34        1.77316  -0.01178   0.00000  -0.04104  -0.04049   1.73267
   A35        1.90971   0.00120   0.00000  -0.01967  -0.02019   1.88952
   A36        1.91518  -0.00488   0.00000  -0.03389  -0.03309   1.88209
   A37        1.87087   0.00167   0.00000   0.00548   0.00391   1.87479
   A38        1.85941   0.01493   0.00000   0.10065   0.09986   1.95927
   A39        2.10505  -0.00227   0.00000  -0.01138  -0.01439   2.09066
    D1        2.92940  -0.00083   0.00000  -0.01086  -0.01104   2.91836
    D2       -1.25730   0.00021   0.00000   0.00367   0.00345  -1.25385
    D3        0.85391   0.00062   0.00000  -0.00295  -0.00271   0.85120
    D4       -0.22273  -0.00123   0.00000  -0.03024  -0.03031  -0.25304
    D5        1.87376  -0.00018   0.00000  -0.01572  -0.01583   1.85793
    D6       -2.29822   0.00023   0.00000  -0.02233  -0.02198  -2.32021
    D7       -3.07238  -0.00108   0.00000  -0.03916  -0.03923  -3.11161
    D8        0.04553  -0.00101   0.00000  -0.03641  -0.03649   0.00905
    D9        0.07991  -0.00064   0.00000  -0.01934  -0.01927   0.06065
   D10       -3.08536  -0.00058   0.00000  -0.01659  -0.01652  -3.10188
   D11        2.12057  -0.00088   0.00000  -0.00925  -0.00969   2.11088
   D12       -0.99935  -0.00098   0.00000  -0.01190  -0.01232  -1.01167
   D13        0.01930   0.00006   0.00000   0.00128   0.00121   0.02051
   D14       -3.10061  -0.00004   0.00000  -0.00137  -0.00143  -3.10203
   D15       -2.08375   0.00096   0.00000   0.01140   0.01189  -2.07186
   D16        1.07952   0.00086   0.00000   0.00875   0.00926   1.08878
   D17        2.31201  -0.00121   0.00000  -0.02100  -0.02119   2.29082
   D18       -0.85238  -0.00119   0.00000  -0.01851  -0.01869  -0.87106
   D19        0.21493   0.00077   0.00000   0.00219   0.00204   0.21697
   D20       -2.94946   0.00080   0.00000   0.00468   0.00454  -2.94491
   D21       -1.89524  -0.00008   0.00000  -0.00821  -0.00790  -1.90314
   D22        1.22355  -0.00005   0.00000  -0.00573  -0.00539   1.21816
   D23        3.13935   0.00406   0.00000   0.03013   0.03001  -3.11382
   D24       -1.16993   0.00084   0.00000   0.00962   0.00943  -1.16050
   D25        1.17630  -0.00535   0.00000  -0.05115  -0.05091   1.12539
   D26       -1.06142   0.00400   0.00000   0.02921   0.02911  -1.03231
   D27        0.91248   0.00078   0.00000   0.00871   0.00853   0.92101
   D28       -3.02447  -0.00542   0.00000  -0.05206  -0.05181  -3.07628
   D29        1.05705   0.00445   0.00000   0.03537   0.03531   1.09236
   D30        3.03096   0.00122   0.00000   0.01486   0.01473   3.04569
   D31       -0.90599  -0.00497   0.00000  -0.04590  -0.04561  -0.95161
   D32        2.72570  -0.00057   0.00000  -0.03073  -0.03090   2.69480
   D33        0.58219  -0.00133   0.00000  -0.03804  -0.03828   0.54391
   D34        0.66338  -0.00035   0.00000  -0.03870  -0.03853   0.62485
   D35       -1.48013  -0.00112   0.00000  -0.04600  -0.04591  -1.52604
   D36       -1.46050   0.00046   0.00000  -0.01992  -0.01981  -1.48030
   D37        2.67918  -0.00031   0.00000  -0.02723  -0.02719   2.65199
   D38        2.95177   0.00037   0.00000  -0.03076  -0.03018   2.92160
   D39        0.94891   0.00355   0.00000   0.00692   0.00777   0.95668
   D40       -1.32669  -0.00457   0.00000  -0.04892  -0.05022  -1.37691
   D41       -1.19687  -0.00066   0.00000  -0.03776  -0.03727  -1.23414
   D42        3.08345   0.00253   0.00000  -0.00008   0.00068   3.08413
   D43        0.80785  -0.00559   0.00000  -0.05592  -0.05731   0.75054
         Item               Value     Threshold  Converged?
 Maximum Force            0.025067     0.000450     NO 
 RMS     Force            0.005723     0.000300     NO 
 Maximum Displacement     0.277639     0.001800     NO 
 RMS     Displacement     0.074426     0.001200     NO 
 Predicted change in Energy=-6.236314D-03
 GradGradGradGradGradGradGradGradGradGradGradGradGradGradGradGradGradGrad

                          Input orientation:                          
 ---------------------------------------------------------------------
 Center     Atomic      Atomic             Coordinates (Angstroms)
 Number     Number       Type             X           Y           Z
 ---------------------------------------------------------------------
      1          6           0       -2.252419   -1.367676    1.799420
      2          6           0       -2.155820    1.056114    1.591885
      3          6           0       -0.978043   -0.317400   -0.086786
      4          6           0       -2.384157   -6.165021    3.297811
      5          6           0       -1.826843   -2.736381    1.272685
      6          7           0       -2.151914   -3.700812    2.330264
      7          7           0       -1.810273   -0.272516    1.110335
      8          8           0       -2.987089   -1.284722    2.782138
      9          8           0       -1.232400   -5.650445    0.974671
     10          8           0       -3.746361   -5.428044    1.160327
     11         16           0       -2.413065   -5.269012    1.745314
     12          1           0       -1.246520    1.633165    1.805856
     13          1           0       -2.739202    0.948704    2.504286
     14          1           0       -2.748208    1.599591    0.844461
     15          1           0       -1.412191    0.331733   -0.856109
     16          1           0       -0.930377   -1.327377   -0.491605
     17          1           0        0.044401    0.029218    0.117620
     18          1           0       -2.516457   -7.221768    3.054742
     19          1           0       -1.420294   -6.004224    3.782555
     20          1           0       -3.204345   -5.824816    3.933786
     21          1           0       -2.373635   -2.940174    0.340673
     22          1           0       -0.754669   -2.786064    1.074526
     23          1           0       -2.974523   -3.360276    2.834879
 ---------------------------------------------------------------------
                    Distance matrix (angstroms):
                    1          2          3          4          5
     1  C    0.000000
     2  C    2.434576   0.000000
     3  C    2.506967   2.468124   0.000000
     4  C    5.027629   7.423417   6.901256   0.000000
     5  C    1.527061   3.820095   2.901739   4.020859   0.000000
     6  N    2.394873   4.813892   4.320599   2.657520   1.467744
     7  N    1.367373   1.454837   1.458670   6.311578   2.469263
     8  O    1.229779   2.754491   3.633552   4.944367   2.394145
     9  O    4.479147   6.797910   5.443598   2.643541   2.988971
    10  O    4.373430   6.690319   5.944540   2.639616   3.307903
    11  S    3.905016   6.332214   5.471228   1.792739   2.642206
    12  H    3.164953   1.097998   2.731094   8.020715   4.440043
    13  H    2.469699   1.088277   3.379105   7.166647   3.991126
    14  H    3.156332   1.097695   2.770480   8.151115   4.453419
    15  H    3.262791   2.659020   1.096228   7.772232   3.757263
    16  H    2.645414   3.394653   1.089130   6.314742   2.429334
    17  H    3.170985   2.840589   1.098780   7.374287   3.533308
    18  H    5.992991   8.413878   7.739911   1.092383   4.875448
    19  H    5.111050   7.428890   6.892558   1.090809   4.140475
    20  H    5.032671   7.343780   7.173078   1.092205   4.303185
    21  H    2.148344   4.193244   3.001557   4.375433   1.099618
    22  H    2.186447   4.122283   2.737306   4.360686   1.091463
    23  H    2.358827   4.660452   4.667028   2.903349   2.036385
                    6          7          8          9         10
     6  N    0.000000
     7  N    3.654881   0.000000
     8  O    2.595996   2.281312   0.000000
     9  O    2.546411   5.410588   5.040378   0.000000
    10  O    2.625709   5.507305   4.513744   2.530598   0.000000
    11  S    1.693995   5.072625   4.156810   1.460600   1.464643
    12  H    5.435628   2.105514   3.535078   7.330897   7.518417
    13  H    4.689690   2.073015   2.264253   6.939664   6.594203
    14  H    5.536917   2.110734   3.482947   7.407945   7.105191
    15  H    5.192454   2.095348   4.281363   6.258637   6.533712
    16  H    3.884365   2.110251   3.866430   4.574943   5.241576
    17  H    4.861349   2.125168   4.244529   5.884160   6.725981
    18  H    3.613156   7.250622   5.961906   2.905951   2.884254
    19  H    2.819597   6.336034   5.072414   2.836314   3.552274
    20  H    2.861868   6.383052   4.688918   3.560243   2.853644
    21  H    2.141542   2.833047   3.012905   3.008311   2.957314
    22  H    2.089482   2.726445   3.186482   2.905663   3.992197
    23  H    1.023371   3.723412   2.076262   3.426403   2.770473
                   11         12         13         14         15
    11  S    0.000000
    12  H    7.000325   0.000000
    13  H    6.272352   1.784487   0.000000
    14  H    6.935529   1.783389   1.782906   0.000000
    15  H    6.255997   2.967698   3.665224   2.506859   0.000000
    16  H    4.768507   3.760729   4.174657   3.695501   1.765687
    17  H    6.062984   2.662567   3.780222   3.285275   1.778010
    18  H    2.353412   9.032293   8.192023   9.097002   8.577269
    19  H    2.382537   7.890961   7.191433   8.259162   7.852491
    20  H    2.392582   7.998916   6.938329   8.054428   8.003624
    21  H    2.719937   4.932807   4.465225   4.582966   3.614144
    22  H    3.060272   4.506257   4.464424   4.822976   3.725633
    23  H    2.268404   5.383247   4.328046   5.349137   5.449331
                   16         17         18         19         20
    16  H    0.000000
    17  H    1.778116   0.000000
    18  H    7.059468   8.231737   0.000000
    19  H    6.354634   7.209682   1.792679   0.000000
    20  H    6.706861   7.706309   1.788123   1.799415   0.000000
    21  H    2.318792   3.835876   5.071353   4.705721   4.682061
    22  H    2.147419   3.078960   5.167265   4.258290   4.838419
    23  H    4.401899   5.290186   3.894777   3.210013   2.708205
                   21         22         23
    21  H    0.000000
    22  H    1.784191   0.000000
    23  H    2.599734   2.890729   0.000000
 Stoichiometry    C5H12N2O3S
 Framework group  C1[X(C5H12N2O3S)]
 Deg. of freedom    63
 Full point group                 C1      NOp   1
 Largest Abelian subgroup         C1      NOp   1
 Largest concise Abelian subgroup C1      NOp   1
                         Standard orientation:                         
 ---------------------------------------------------------------------
 Center     Atomic      Atomic             Coordinates (Angstroms)
 Number     Number       Type             X           Y           Z
 ---------------------------------------------------------------------
      1          6           0        1.630791   -0.459678   -0.017652
      2          6           0        4.056780   -0.658163    0.030703
      3          6           0        3.061569    1.598322   -0.066600
      4          6           0       -3.320191   -0.938185   -0.749679
      5          6           0        0.400732    0.441272   -0.102269
      6          7           0       -0.732374   -0.440952   -0.405621
      7          7           0        2.851736    0.155911   -0.010567
      8          8           0        1.498796   -1.679058    0.072054
      9          8           0       -2.366814    1.510824   -0.463782
     10          8           0       -2.425571   -0.013686    1.555214
     11         16           0       -2.219204    0.179284    0.118080
     12          1           0        4.685348   -0.454569   -0.846253
     13          1           0        3.762489   -1.705893    0.029484
     14          1           0        4.639410   -0.446115    0.936525
     15          1           0        3.767180    1.893978    0.718523
     16          1           0        2.129581    2.135437    0.104015
     17          1           0        3.475902    1.909903   -1.035394
     18          1           0       -4.339306   -0.622531   -0.515015
     19          1           0       -3.134702   -0.858002   -1.821607
     20          1           0       -3.157930   -1.959808   -0.399151
     21          1           0        0.278423    0.960788    0.859138
     22          1           0        0.487249    1.182362   -0.898882
     23          1           0       -0.551282   -1.354870    0.017753
 ---------------------------------------------------------------------
 Rotational constants (GHZ):      2.2838503      0.4344360      0.3998253
 Standard basis: 6-31G(d) (6D, 7F)
 There are   193 symmetry adapted basis functions of A   symmetry.
 Integral buffers will be    131072 words long.
 Raffenetti 2 integral format.
 Two-electron integral symmetry is turned on.
   193 basis functions,   380 primitive gaussians,   193 cartesian basis functions
    48 alpha electrons       48 beta electrons
       nuclear repulsion energy       786.2751427746 Hartrees.
 NAtoms=   23 NActive=   23 NUniq=   23 SFac= 1.00D+00 NAtFMM=   60 NAOKFM=F Big=F
 One-electron integrals computed using PRISM.
 NBasis=   193 RedAO= T  NBF=   193
 NBsUse=   193 1.00D-06 NBFU=   193
 Initial guess read from the read-write file.
 B after Tr=     0.000000    0.000000    0.000000
         Rot=    1.000000    0.000000    0.000000    0.000000 Ang=   0.00 deg.
 Initial guess orbital symmetries:
       Occupied  (A) (A) (A) (A) (A) (A) (A) (A) (A) (A) (A) (A)
                 (A) (A) (A) (A) (A) (A) (A) (A) (A) (A) (A) (A)
                 (A) (A) (A) (A) (A) (A) (A) (A) (A) (A) (A) (A)
                 (A) (A) (A) (A) (A) (A) (A) (A) (A) (A) (A) (A)
       Virtual   (A) (A) (A) (A) (A) (A) (A) (A) (A) (A) (A) (A)
                 (A) (A) (A) (A) (A) (A) (A) (A) (A) (A) (A) (A)
                 (A) (A) (A) (A) (A) (A) (A) (A) (A) (A) (A) (A)
                 (A) (A) (A) (A) (A) (A) (A) (A) (A) (A) (A) (A)
                 (A) (A) (A) (A) (A) (A) (A) (A) (A) (A) (A) (A)
                 (A) (A) (A) (A) (A) (A) (A) (A) (A) (A) (A) (A)
                 (A) (A) (A) (A) (A) (A) (A) (A) (A) (A) (A) (A)
                 (A) (A) (A) (A) (A) (A) (A) (A) (A) (A) (A) (A)
                 (A) (A) (A) (A) (A) (A) (A) (A) (A) (A) (A) (A)
                 (A) (A) (A) (A) (A) (A) (A) (A) (A) (A) (A) (A)
                 (A) (A) (A) (A) (A) (A) (A) (A) (A) (A) (A) (A)
                 (A) (A) (A) (A) (A) (A) (A) (A) (A) (A) (A) (A)
                 (A)
 Harris functional with IExCor=  402 diagonalized for initial guess.
 ExpMin= 1.17D-01 ExpMax= 2.19D+04 ExpMxC= 3.30D+03 IAcc=3 IRadAn=         5 AccDes= 0.00D+00
 HarFok:  IExCor=  402 AccDes= 0.00D+00 IRadAn=         5 IDoV= 1
 ScaDFX=  1.000000  1.000000  1.000000  1.000000
 FoFCou: FMM=F IPFlag=           0 FMFlag=      100000 FMFlg1=           0
         NFxFlg=           0 DoJE=T BraDBF=F KetDBF=T FulRan=T
         Omega=  0.000000  0.000000  1.000000  0.000000  0.000000 ICntrl=     500 IOpCl=  0
         NMat0=    1 NMatS0=    1 NMatT0=    0 NMatD0=    1 NMtDS0=    0 NMtDT0=    0
         I1Cent=           4 NGrid=           0.
 Petite list used in FoFCou.
 Requested convergence on RMS density matrix=1.00D-08 within 128 cycles.
 Requested convergence on MAX density matrix=1.00D-06.
 Requested convergence on             energy=1.00D-06.
 No special actions if energy rises.
 Integral accuracy reduced to 1.0D-05 until final iterations.
 Initial convergence to 1.0D-05 achieved.  Increase integral accuracy.
 SCF Done:  E(RB3LYP) =  -931.061555497     A.U. after   13 cycles
             Convg  =    0.3492D-08             -V/T =  2.0069
 Calling FoFJK, ICntrl=      2127 FMM=F ISym2X=0 I1Cent= 0 IOpClX= 0 NMat=1 NMatS=1 NMatT=0.
 ***** Axes restored to original set *****
 -------------------------------------------------------------------
 Center     Atomic                   Forces (Hartrees/Bohr)
 Number     Number              X              Y              Z
 -------------------------------------------------------------------
      1        6           0.000222050    0.008515648   -0.003977968
      2        6          -0.000435145    0.001165513    0.001239060
      3        6          -0.001791633   -0.001236403    0.001525526
      4        6          -0.000003369   -0.001301770    0.003400515
      5        6          -0.000389940   -0.003486444    0.005254012
      6        7           0.000465722   -0.003931562   -0.004666071
      7        7           0.001429968   -0.001164325   -0.000537803
      8        8          -0.000008526   -0.000636944    0.000542433
      9        8           0.005241806    0.002299816   -0.006041717
     10        8          -0.005688389    0.001581044   -0.003765032
     11       16           0.000995759   -0.004684720    0.010320145
     12        1          -0.000204176   -0.000076876   -0.000458870
     13        1          -0.000381053    0.000296816    0.000454055
     14        1           0.000437960   -0.000274634   -0.000279076
     15        1           0.000035286    0.000194747   -0.000104085
     16        1           0.000612783    0.000474839   -0.000839915
     17        1          -0.000387051    0.000124627    0.000585764
     18        1          -0.000491546    0.000121400   -0.000394359
     19        1          -0.000258882    0.000218120   -0.000179306
     20        1          -0.000008465   -0.000135025    0.000203025
     21        1           0.001298816    0.000610735   -0.001709850
     22        1          -0.000060880   -0.000057325   -0.001594294
     23        1          -0.000631094    0.001382724    0.001023810
 -------------------------------------------------------------------
 Cartesian Forces:  Max     0.010320145 RMS     0.002569909

 GradGradGradGradGradGradGradGradGradGradGradGradGradGradGradGradGradGrad
 Berny optimization.
 Using GEDIIS/GDIIS optimizer.
 Internal  Forces:  Max     0.006824175 RMS     0.001753030
 Search for a local minimum.
 Step number   2 out of a maximum of  114
 All quantities printed in internal units (Hartrees-Bohrs-Radians)
 Mixed Optimization -- RFO/linear search
 Update second derivatives using D2CorX and points    1    2
 DE= -5.15D-03 DEPred=-6.24D-03 R= 8.26D-01
 SS=  1.41D+00  RLast= 2.71D-01 DXNew= 5.0454D-01 8.1381D-01
 Trust test= 8.26D-01 RLast= 2.71D-01 DXMaxT set to 5.05D-01
 ITU=  1  0
 Use linear search instead of GDIIS.
     Eigenvalues ---    0.00355   0.00445   0.00647   0.00906   0.00939
     Eigenvalues ---    0.00964   0.01166   0.01457   0.01818   0.02830
     Eigenvalues ---    0.05544   0.06001   0.06315   0.06402   0.07231
     Eigenvalues ---    0.07465   0.07549   0.07676   0.08817   0.09020
     Eigenvalues ---    0.09554   0.11208   0.12459   0.12830   0.15779
     Eigenvalues ---    0.16000   0.16000   0.16000   0.16000   0.16000
     Eigenvalues ---    0.16000   0.16000   0.16653   0.16980   0.22575
     Eigenvalues ---    0.23660   0.24771   0.24992   0.24997   0.24998
     Eigenvalues ---    0.26433   0.27548   0.29984   0.34102   0.34233
     Eigenvalues ---    0.34327   0.34353   0.34367   0.34409   0.34454
     Eigenvalues ---    0.34578   0.34639   0.34645   0.34757   0.34890
     Eigenvalues ---    0.37071   0.37379   0.37558   0.42800   0.46328
     Eigenvalues ---    0.86704   0.91507   0.95409
 RFO step:  Lambda=-1.29294015D-03 EMin= 3.54611087D-03
 Quartic linear search produced a step of -0.09580.
 Iteration  1 RMS(Cart)=  0.05231900 RMS(Int)=  0.00110530
 Iteration  2 RMS(Cart)=  0.00156424 RMS(Int)=  0.00006274
 Iteration  3 RMS(Cart)=  0.00000132 RMS(Int)=  0.00006274
 Iteration  4 RMS(Cart)=  0.00000000 RMS(Int)=  0.00006274
 Variable       Old X    -DE/DX   Delta X   Delta X   Delta X     New X
                                 (Linear)    (Quad)   (Total)
    R1        2.88573   0.00611   0.00073   0.01715   0.01788   2.90361
    R2        2.58396  -0.00142   0.00422  -0.01149  -0.00727   2.57669
    R3        2.32395   0.00040   0.00166  -0.00303  -0.00138   2.32257
    R4        2.74924   0.00147   0.00038   0.00274   0.00312   2.75236
    R5        2.07492  -0.00030  -0.00071   0.00071   0.00000   2.07491
    R6        2.05655   0.00056   0.00080  -0.00022   0.00058   2.05712
    R7        2.07434  -0.00018  -0.00067   0.00093   0.00026   2.07460
    R8        2.75649  -0.00182   0.00015  -0.00471  -0.00456   2.75192
    R9        2.07157   0.00017  -0.00036   0.00121   0.00085   2.07242
   R10        2.05816  -0.00010   0.00024  -0.00077  -0.00052   2.05763
   R11        2.07639  -0.00021  -0.00090   0.00133   0.00043   2.07682
   R12        3.38779   0.00316  -0.00247   0.01534   0.01288   3.40066
   R13        2.06430   0.00003  -0.00006   0.00021   0.00014   2.06445
   R14        2.06133  -0.00028   0.00011  -0.00095  -0.00084   2.06049
   R15        2.06397   0.00008  -0.00014   0.00050   0.00036   2.06433
   R16        2.77363   0.00294   0.00481  -0.00208   0.00274   2.77637
   R17        2.07798   0.00069  -0.00090   0.00368   0.00279   2.08076
   R18        2.06257   0.00023   0.00036  -0.00014   0.00022   2.06278
   R19        3.20119   0.00057  -0.00122   0.00392   0.00269   3.20388
   R20        1.93389   0.00147   0.00145   0.00009   0.00153   1.93542
   R21        2.76013   0.00682  -0.00163   0.00982   0.00819   2.76833
   R22        2.76777   0.00651  -0.00248   0.01128   0.00880   2.77658
    A1        2.04196   0.00323   0.00176   0.00803   0.00976   2.05172
    A2        2.09738  -0.00240   0.00013  -0.00873  -0.00864   2.08874
    A3        2.14344  -0.00082  -0.00186   0.00112  -0.00078   2.14266
    A4        1.92598  -0.00015  -0.00276   0.00461   0.00187   1.92785
    A5        1.89093   0.00082   0.00650  -0.00788  -0.00142   1.88951
    A6        1.93367  -0.00080  -0.00348   0.00199  -0.00147   1.93219
    A7        1.90967   0.00004  -0.00102   0.00420   0.00314   1.91282
    A8        1.89590  -0.00003   0.00144  -0.00574  -0.00422   1.89168
    A9        1.90756   0.00013  -0.00070   0.00295   0.00221   1.90977
   A10        1.90898  -0.00007  -0.00082   0.00094   0.00014   1.90913
   A11        1.93751   0.00197   0.00271   0.00660   0.00929   1.94680
   A12        1.94822  -0.00140  -0.00543   0.00269  -0.00273   1.94549
   A13        1.88136  -0.00053   0.00086  -0.00291  -0.00205   1.87931
   A14        1.88839   0.00021   0.00204  -0.00583  -0.00374   1.88465
   A15        1.89753  -0.00019   0.00077  -0.00201  -0.00127   1.89626
   A16        1.86382  -0.00067   0.00190  -0.00798  -0.00609   1.85773
   A17        1.90224  -0.00019  -0.00019  -0.00016  -0.00034   1.90190
   A18        1.91396   0.00043  -0.00128   0.00480   0.00352   1.91747
   A19        1.92677   0.00051  -0.00074   0.00510   0.00435   1.93112
   A20        1.91765  -0.00002   0.00010  -0.00147  -0.00137   1.91628
   A21        1.93786  -0.00007   0.00026  -0.00051  -0.00025   1.93761
   A22        1.85322   0.00453   0.00517   0.01273   0.01775   1.87097
   A23        1.89641  -0.00185  -0.00195  -0.00402  -0.00616   1.89025
   A24        1.95755  -0.00084  -0.00314   0.00499   0.00177   1.95932
   A25        1.95931   0.00003  -0.00270   0.01312   0.01037   1.96968
   A26        1.89491  -0.00107  -0.00048   0.00042  -0.00014   1.89477
   A27        1.90303  -0.00070   0.00305  -0.02574  -0.02267   1.88036
   A28        1.97537   0.00320   0.00143   0.01269   0.01399   1.98936
   A29        1.89091  -0.00098   0.00074   0.00153   0.00205   1.89296
   A30        1.93307  -0.00038  -0.00173   0.01230   0.01043   1.94350
   A31        2.08040  -0.00040   0.00106  -0.00366  -0.00260   2.07781
   A32        2.18148   0.00095  -0.00094   0.00538   0.00444   2.18592
   A33        2.02113  -0.00055  -0.00012  -0.00169  -0.00181   2.01931
   A34        1.73267   0.00319   0.00388   0.00603   0.00993   1.74259
   A35        1.88952   0.00338   0.00193   0.02225   0.02427   1.91380
   A36        1.88209   0.00092   0.00317   0.00687   0.00992   1.89201
   A37        1.87479  -0.00361  -0.00037  -0.02391  -0.02435   1.85044
   A38        1.95927  -0.00230  -0.00957   0.00232  -0.00736   1.95191
   A39        2.09066  -0.00055   0.00138  -0.00912  -0.00800   2.08265
    D1        2.91836  -0.00041   0.00106  -0.03205  -0.03093   2.88744
    D2       -1.25385   0.00120  -0.00033  -0.01144  -0.01177  -1.26562
    D3        0.85120  -0.00145   0.00026  -0.04321  -0.04295   0.80825
    D4       -0.25304  -0.00015   0.00290  -0.01661  -0.01368  -0.26673
    D5        1.85793   0.00146   0.00152   0.00400   0.00548   1.86340
    D6       -2.32021  -0.00119   0.00211  -0.02777  -0.02571  -2.34592
    D7       -3.11161  -0.00002   0.00376  -0.00595  -0.00216  -3.11377
    D8        0.00905  -0.00001   0.00350  -0.00376  -0.00023   0.00881
    D9        0.06065  -0.00026   0.00185  -0.02165  -0.01984   0.04081
   D10       -3.10188  -0.00025   0.00158  -0.01947  -0.01791  -3.11979
   D11        2.11088   0.00038   0.00093   0.00176   0.00273   2.11361
   D12       -1.01167   0.00035   0.00118  -0.00031   0.00091  -1.01076
   D13        0.02051  -0.00009  -0.00012  -0.00124  -0.00135   0.01916
   D14       -3.10203  -0.00012   0.00014  -0.00331  -0.00317  -3.10520
   D15       -2.07186  -0.00029  -0.00114  -0.00110  -0.00229  -2.07415
   D16        1.08878  -0.00032  -0.00089  -0.00317  -0.00411   1.08467
   D17        2.29082   0.00042   0.00203   0.00214   0.00419   2.29502
   D18       -0.87106   0.00044   0.00179   0.00424   0.00605  -0.86502
   D19        0.21697  -0.00008  -0.00020   0.00110   0.00091   0.21788
   D20       -2.94491  -0.00007  -0.00044   0.00319   0.00276  -2.94215
   D21       -1.90314  -0.00025   0.00076  -0.00281  -0.00208  -1.90522
   D22        1.21816  -0.00024   0.00052  -0.00071  -0.00023   1.21793
   D23       -3.11382   0.00010  -0.00288  -0.00103  -0.00391  -3.11773
   D24       -1.16050  -0.00147  -0.00090  -0.01786  -0.01878  -1.17928
   D25        1.12539   0.00090   0.00488  -0.00867  -0.00377   1.12162
   D26       -1.03231   0.00022  -0.00279   0.00044  -0.00235  -1.03467
   D27        0.92101  -0.00135  -0.00082  -0.01639  -0.01723   0.90378
   D28       -3.07628   0.00102   0.00496  -0.00721  -0.00222  -3.07850
   D29        1.09236   0.00028  -0.00338   0.00271  -0.00067   1.09169
   D30        3.04569  -0.00129  -0.00141  -0.01412  -0.01555   3.03013
   D31       -0.95161   0.00108   0.00437  -0.00493  -0.00054  -0.95214
   D32        2.69480   0.00009   0.00296  -0.03995  -0.03692   2.65788
   D33        0.54391  -0.00087   0.00367  -0.06541  -0.06168   0.48223
   D34        0.62485  -0.00051   0.00369  -0.05028  -0.04667   0.57818
   D35       -1.52604  -0.00146   0.00440  -0.07574  -0.07143  -1.59747
   D36       -1.48030   0.00107   0.00190  -0.02664  -0.02472  -1.50502
   D37        2.65199   0.00011   0.00260  -0.05210  -0.04948   2.60252
   D38        2.92160  -0.00014   0.00289  -0.03981  -0.03707   2.88452
   D39        0.95668  -0.00403  -0.00074  -0.05922  -0.05989   0.89679
   D40       -1.37691   0.00173   0.00481  -0.02804  -0.02332  -1.40023
   D41       -1.23414   0.00058   0.00357  -0.01967  -0.01614  -1.25028
   D42        3.08413  -0.00331  -0.00007  -0.03908  -0.03896   3.04517
   D43        0.75054   0.00245   0.00549  -0.00789  -0.00239   0.74816
         Item               Value     Threshold  Converged?
 Maximum Force            0.006824     0.000450     NO 
 RMS     Force            0.001753     0.000300     NO 
 Maximum Displacement     0.174762     0.001800     NO 
 RMS     Displacement     0.052830     0.001200     NO 
 Predicted change in Energy=-7.306598D-04
 GradGradGradGradGradGradGradGradGradGradGradGradGradGradGradGradGradGrad

                          Input orientation:                          
 ---------------------------------------------------------------------
 Center     Atomic      Atomic             Coordinates (Angstroms)
 Number     Number       Type             X           Y           Z
 ---------------------------------------------------------------------
      1          6           0       -2.275216   -1.357801    1.774141
      2          6           0       -2.174262    1.062555    1.571970
      3          6           0       -0.937728   -0.307139   -0.064008
      4          6           0       -2.351272   -6.192549    3.306999
      5          6           0       -1.838783   -2.742488    1.271078
      6          7           0       -2.158989   -3.709950    2.329384
      7          7           0       -1.809437   -0.266815    1.101829
      8          8           0       -3.028411   -1.271425    2.741510
      9          8           0       -1.324880   -5.623251    0.902825
     10          8           0       -3.826703   -5.416047    1.236505
     11         16           0       -2.461065   -5.278374    1.760835
     12          1           0       -1.275095    1.643134    1.816965
     13          1           0       -2.791324    0.952188    2.461950
     14          1           0       -2.737858    1.605474    0.802014
     15          1           0       -1.343744    0.347128   -0.844897
     16          1           0       -0.869120   -1.312133   -0.477385
     17          1           0        0.075346    0.042810    0.178961
     18          1           0       -2.508429   -7.244163    3.056242
     19          1           0       -1.360433   -6.043820    3.737129
     20          1           0       -3.131105   -5.855434    3.993691
     21          1           0       -2.367334   -2.950065    0.327707
     22          1           0       -0.767086   -2.790245    1.069272
     23          1           0       -2.951475   -3.349797    2.869018
 ---------------------------------------------------------------------
                    Distance matrix (angstroms):
                    1          2          3          4          5
     1  C    0.000000
     2  C    2.430882   0.000000
     3  C    2.504307   2.466070   0.000000
     4  C    5.072498   7.461782   6.928192   0.000000
     5  C    1.536523   3.831635   2.919808   4.038631   0.000000
     6  N    2.419589   4.832258   4.335773   2.675070   1.469193
     7  N    1.363526   1.456487   1.456255   6.345919   2.481625
     8  O    1.229051   2.746790   3.629288   4.999576   2.396124
     9  O    4.456051   6.772680   5.417167   2.675376   2.949322
    10  O    4.377845   6.694429   6.011526   2.658345   3.331807
    11  S    3.924998   6.350221   5.510334   1.799553   2.656655
    12  H    3.163493   1.097996   2.730466   8.048372   4.455268
    13  H    2.464853   1.088582   3.376712   7.207984   3.997016
    14  H    3.152787   1.097832   2.765601   8.199608   4.464653
    15  H    3.260948   2.653835   1.096678   7.811577   3.777320
    16  H    2.654912   3.397409   1.088853   6.351126   2.458309
    17  H    3.167246   2.835681   1.099008   7.385987   3.551689
    18  H    6.028883   8.444897   7.766940   1.092459   4.888795
    19  H    5.162260   7.473339   6.894696   1.090365   4.148376
    20  H    5.087991   7.391810   7.215220   1.092397   4.332799
    21  H    2.153129   4.205543   3.030227   4.403424   1.101092
    22  H    2.196177   4.132423   2.734823   4.369524   1.091578
    23  H    2.371525   4.664251   4.681409   2.938250   2.039686
                    6          7          8          9         10
     6  N    0.000000
     7  N    3.672092   0.000000
     8  O    2.621479   2.276772   0.000000
     9  O    2.528147   5.381988   5.022068   0.000000
    10  O    2.624199   5.531915   4.481094   2.532468   0.000000
    11  S    1.695420   5.096531   4.164042   1.464936   1.469300
    12  H    5.449712   2.108281   3.524706   7.323830   7.528590
    13  H    4.706693   2.073644   2.253623   6.915036   6.567202
    14  H    5.560727   2.111237   3.481754   7.366215   7.118716
    15  H    5.215417   2.093691   4.280202   6.220958   6.611468
    16  H    3.910402   2.114427   3.876271   4.549553   5.341051
    17  H    4.868242   2.121311   4.234050   5.881229   6.792901
    18  H    3.625064   7.279540   6.003585   2.943696   2.896774
    19  H    2.840138   6.365548   5.152588   2.865558   3.567872
    20  H    2.884099   6.429800   4.753067   3.587452   2.877324
    21  H    2.151173   2.847867   3.013520   2.926327   3.006116
    22  H    2.090726   2.730432   3.196371   2.892189   4.035351
    23  H    1.024182   3.732557   2.083701   3.417648   2.774980
                   11         12         13         14         15
    11  S    0.000000
    12  H    7.022603   0.000000
    13  H    6.278578   1.786718   0.000000
    14  H    6.955812   1.780791   1.784665   0.000000
    15  H    6.299566   2.961394   3.660167   2.497860   0.000000
    16  H    4.824416   3.763305   4.178721   3.693436   1.764506
    17  H    6.103336   2.658531   3.775818   3.277839   1.776152
    18  H    2.354707   9.057647   8.222736   9.135111   8.614121
    19  H    2.388103   7.923609   7.253803   8.308062   7.863807
    20  H    2.401582   8.025673   6.986087   8.124444   8.067117
    21  H    2.735629   4.950592   4.467924   4.595128   3.646124
    22  H    3.088464   4.524597   4.476930   4.824699   3.720174
    23  H    2.277714   5.370887   4.324168   5.373346   5.481352
                   16         17         18         19         20
    16  H    0.000000
    17  H    1.777267   0.000000
    18  H    7.096677   8.249522   0.000000
    19  H    6.355500   7.195074   1.795083   0.000000
    20  H    6.763777   7.721578   1.787485   1.799053   0.000000
    21  H    2.361279   3.866021   5.089605   4.712677   4.739615
    22  H    2.141816   3.086834   5.178581   4.249150   4.851412
    23  H    4.436969   5.282787   3.923956   3.246967   2.752340
                   21         22         23
    21  H    0.000000
    22  H    1.770947   0.000000
    23  H    2.638043   2.885090   0.000000
 Stoichiometry    C5H12N2O3S
 Framework group  C1[X(C5H12N2O3S)]
 Deg. of freedom    63
 Full point group                 C1      NOp   1
 Largest Abelian subgroup         C1      NOp   1
 Largest concise Abelian subgroup C1      NOp   1
                         Standard orientation:                         
 ---------------------------------------------------------------------
 Center     Atomic      Atomic             Coordinates (Angstroms)
 Number     Number       Type             X           Y           Z
 ---------------------------------------------------------------------
      1          6           0        1.638907   -0.453245   -0.009928
      2          6           0        4.059528   -0.671803    0.034952
      3          6           0        3.084622    1.590318   -0.082805
      4          6           0       -3.348692   -0.868477   -0.835559
      5          6           0        0.397608    0.447963   -0.098834
      6          7           0       -0.743296   -0.415689   -0.431958
      7          7           0        2.860156    0.153176   -0.012688
      8          8           0        1.501503   -1.671749    0.073352
      9          8           0       -2.326454    1.553093   -0.336900
     10          8           0       -2.438567   -0.131294    1.550867
     11         16           0       -2.234454    0.166465    0.126606
     12          1           0        4.690432   -0.482847   -0.843598
     13          1           0        3.754530   -1.716710    0.047485
     14          1           0        4.646326   -0.451959    0.936379
     15          1           0        3.799336    1.885472    0.694866
     16          1           0        2.164308    2.147416    0.085315
     17          1           0        3.501174    1.885339   -1.056081
     18          1           0       -4.362806   -0.559607   -0.571666
     19          1           0       -3.159864   -0.701832   -1.896440
     20          1           0       -3.201162   -1.918167   -0.571519
     21          1           0        0.275561    0.964600    0.865839
     22          1           0        0.494595    1.210076   -0.874281
     23          1           0       -0.552874   -1.356569   -0.074980
 ---------------------------------------------------------------------
 Rotational constants (GHZ):      2.2820467      0.4316099      0.3977793
 Standard basis: 6-31G(d) (6D, 7F)
 There are   193 symmetry adapted basis functions of A   symmetry.
 Integral buffers will be    131072 words long.
 Raffenetti 2 integral format.
 Two-electron integral symmetry is turned on.
   193 basis functions,   380 primitive gaussians,   193 cartesian basis functions
    48 alpha electrons       48 beta electrons
       nuclear repulsion energy       784.5815016231 Hartrees.
 NAtoms=   23 NActive=   23 NUniq=   23 SFac= 1.00D+00 NAtFMM=   60 NAOKFM=F Big=F
 One-electron integrals computed using PRISM.
 NBasis=   193 RedAO= T  NBF=   193
 NBsUse=   193 1.00D-06 NBFU=   193
 Initial guess read from the read-write file.
 B after Tr=     0.000000    0.000000    0.000000
         Rot=    1.000000    0.000000    0.000000    0.000000 Ang=   0.00 deg.
 Initial guess orbital symmetries:
       Occupied  (A) (A) (A) (A) (A) (A) (A) (A) (A) (A) (A) (A)
                 (A) (A) (A) (A) (A) (A) (A) (A) (A) (A) (A) (A)
                 (A) (A) (A) (A) (A) (A) (A) (A) (A) (A) (A) (A)
                 (A) (A) (A) (A) (A) (A) (A) (A) (A) (A) (A) (A)
       Virtual   (A) (A) (A) (A) (A) (A) (A) (A) (A) (A) (A) (A)
                 (A) (A) (A) (A) (A) (A) (A) (A) (A) (A) (A) (A)
                 (A) (A) (A) (A) (A) (A) (A) (A) (A) (A) (A) (A)
                 (A) (A) (A) (A) (A) (A) (A) (A) (A) (A) (A) (A)
                 (A) (A) (A) (A) (A) (A) (A) (A) (A) (A) (A) (A)
                 (A) (A) (A) (A) (A) (A) (A) (A) (A) (A) (A) (A)
                 (A) (A) (A) (A) (A) (A) (A) (A) (A) (A) (A) (A)
                 (A) (A) (A) (A) (A) (A) (A) (A) (A) (A) (A) (A)
                 (A) (A) (A) (A) (A) (A) (A) (A) (A) (A) (A) (A)
                 (A) (A) (A) (A) (A) (A) (A) (A) (A) (A) (A) (A)
                 (A) (A) (A) (A) (A) (A) (A) (A) (A) (A) (A) (A)
                 (A) (A) (A) (A) (A) (A) (A) (A) (A) (A) (A) (A)
                 (A)
 Harris functional with IExCor=  402 diagonalized for initial guess.
 ExpMin= 1.17D-01 ExpMax= 2.19D+04 ExpMxC= 3.30D+03 IAcc=3 IRadAn=         5 AccDes= 0.00D+00
 HarFok:  IExCor=  402 AccDes= 0.00D+00 IRadAn=         5 IDoV= 1
 ScaDFX=  1.000000  1.000000  1.000000  1.000000
 FoFCou: FMM=F IPFlag=           0 FMFlag=      100000 FMFlg1=           0
         NFxFlg=           0 DoJE=T BraDBF=F KetDBF=T FulRan=T
         Omega=  0.000000  0.000000  1.000000  0.000000  0.000000 ICntrl=     500 IOpCl=  0
         NMat0=    1 NMatS0=    1 NMatT0=    0 NMatD0=    1 NMtDS0=    0 NMtDT0=    0
         I1Cent=           4 NGrid=           0.
 Petite list used in FoFCou.
 Requested convergence on RMS density matrix=1.00D-08 within 128 cycles.
 Requested convergence on MAX density matrix=1.00D-06.
 Requested convergence on             energy=1.00D-06.
 No special actions if energy rises.
 Integral accuracy reduced to 1.0D-05 until final iterations.
 Initial convergence to 1.0D-05 achieved.  Increase integral accuracy.
 SCF Done:  E(RB3LYP) =  -931.062231340     A.U. after   12 cycles
             Convg  =    0.4529D-08             -V/T =  2.0069
 Calling FoFJK, ICntrl=      2127 FMM=F ISym2X=0 I1Cent= 0 IOpClX= 0 NMat=1 NMatS=1 NMatT=0.
 ***** Axes restored to original set *****
 -------------------------------------------------------------------
 Center     Atomic                   Forces (Hartrees/Bohr)
 Number     Number              X              Y              Z
 -------------------------------------------------------------------
      1        6           0.002100323    0.000110469   -0.000753859
      2        6          -0.000579350    0.000875717    0.000736011
      3        6          -0.000690016   -0.000101800   -0.000132848
      4        6           0.000241996   -0.001123985    0.000471896
      5        6           0.000266609   -0.001287221    0.001310505
      6        7          -0.001058244   -0.001155417   -0.001214446
      7        7           0.001252312    0.000625988   -0.001648682
      8        8          -0.001625718   -0.000842510    0.001753860
      9        8           0.001501891   -0.001047008   -0.000743669
     10        8          -0.000938745   -0.000732938    0.001110098
     11       16           0.000088266    0.003311761    0.000161212
     12        1          -0.000031383   -0.000511246   -0.000172743
     13        1          -0.000104189    0.000538671    0.000217042
     14        1           0.000232677   -0.000501973   -0.000148704
     15        1          -0.000005490   -0.000002735   -0.000018721
     16        1           0.000121349   -0.000168567   -0.000164988
     17        1          -0.000362370   -0.000059667    0.000502806
     18        1          -0.000177495   -0.000023589   -0.000010903
     19        1           0.000075213    0.000200133   -0.000335374
     20        1          -0.000076121    0.000458615   -0.000629275
     21        1           0.000220548   -0.000074919    0.000121820
     22        1           0.000341712    0.000496320   -0.000368842
     23        1          -0.000793777    0.001015902   -0.000042195
 -------------------------------------------------------------------
 Cartesian Forces:  Max     0.003311761 RMS     0.000844299

 GradGradGradGradGradGradGradGradGradGradGradGradGradGradGradGradGradGrad
 Berny optimization.
 Using GEDIIS/GDIIS optimizer.
 Internal  Forces:  Max     0.002317546 RMS     0.000588992
 Search for a local minimum.
 Step number   3 out of a maximum of  114
 All quantities printed in internal units (Hartrees-Bohrs-Radians)
 Mixed Optimization -- En-DIIS/RFO-DIIS
 Update second derivatives using D2CorX and points    1    2    3
 DE= -6.76D-04 DEPred=-7.31D-04 R= 9.25D-01
 SS=  1.41D+00  RLast= 1.80D-01 DXNew= 8.4853D-01 5.3938D-01
 Trust test= 9.25D-01 RLast= 1.80D-01 DXMaxT set to 5.39D-01
 ITU=  1  1  0
 Use linear search instead of GDIIS.
     Eigenvalues ---    0.00363   0.00447   0.00643   0.00906   0.00939
     Eigenvalues ---    0.00986   0.01164   0.01295   0.01832   0.02689
     Eigenvalues ---    0.05362   0.05993   0.06241   0.06386   0.07205
     Eigenvalues ---    0.07473   0.07521   0.07673   0.08748   0.08991
     Eigenvalues ---    0.09635   0.11322   0.12716   0.14546   0.15640
     Eigenvalues ---    0.16000   0.16000   0.16000   0.16000   0.16000
     Eigenvalues ---    0.16000   0.16420   0.16668   0.17114   0.22534
     Eigenvalues ---    0.23569   0.24422   0.24997   0.24997   0.25244
     Eigenvalues ---    0.26379   0.27737   0.29811   0.34222   0.34326
     Eigenvalues ---    0.34352   0.34366   0.34386   0.34439   0.34501
     Eigenvalues ---    0.34577   0.34639   0.34648   0.34759   0.35711
     Eigenvalues ---    0.36952   0.37353   0.37900   0.42685   0.46819
     Eigenvalues ---    0.87620   0.88230   0.95496
 RFO step:  Lambda=-3.26585716D-04 EMin= 3.63142986D-03
 Quartic linear search produced a step of -0.04127.
 Iteration  1 RMS(Cart)=  0.03977341 RMS(Int)=  0.00044522
 Iteration  2 RMS(Cart)=  0.00117702 RMS(Int)=  0.00003389
 Iteration  3 RMS(Cart)=  0.00000029 RMS(Int)=  0.00003389
 Variable       Old X    -DE/DX   Delta X   Delta X   Delta X     New X
                                 (Linear)    (Quad)   (Total)
    R1        2.90361  -0.00007  -0.00074   0.00498   0.00424   2.90784
    R2        2.57669   0.00091   0.00030  -0.00117  -0.00087   2.57582
    R3        2.32257   0.00232   0.00006   0.00179   0.00185   2.32442
    R4        2.75236   0.00069  -0.00013   0.00262   0.00250   2.75486
    R5        2.07491  -0.00033   0.00000  -0.00079  -0.00079   2.07412
    R6        2.05712   0.00018  -0.00002   0.00052   0.00049   2.05762
    R7        2.07460  -0.00026  -0.00001  -0.00052  -0.00053   2.07407
    R8        2.75192  -0.00070   0.00019  -0.00320  -0.00301   2.74891
    R9        2.07242   0.00001  -0.00004   0.00036   0.00033   2.07275
   R10        2.05763   0.00023   0.00002   0.00042   0.00044   2.05807
   R11        2.07682  -0.00024  -0.00002  -0.00036  -0.00038   2.07644
   R12        3.40066  -0.00018  -0.00053   0.00371   0.00318   3.40384
   R13        2.06445   0.00005  -0.00001   0.00020   0.00019   2.06464
   R14        2.06049  -0.00004   0.00003  -0.00037  -0.00034   2.06015
   R15        2.06433  -0.00020  -0.00001  -0.00042  -0.00043   2.06390
   R16        2.77637  -0.00124  -0.00011  -0.00372  -0.00384   2.77254
   R17        2.08076  -0.00020  -0.00011   0.00046   0.00035   2.08111
   R18        2.06278   0.00038  -0.00001   0.00105   0.00105   2.06383
   R19        3.20388  -0.00110  -0.00011  -0.00176  -0.00187   3.20201
   R20        1.93542   0.00095  -0.00006   0.00230   0.00224   1.93766
   R21        2.76833   0.00185  -0.00034   0.00463   0.00429   2.77262
   R22        2.77658   0.00055  -0.00036   0.00367   0.00331   2.77988
    A1        2.05172   0.00012  -0.00040   0.00286   0.00229   2.05401
    A2        2.08874  -0.00122   0.00036  -0.00741  -0.00721   2.08153
    A3        2.14266   0.00110   0.00003   0.00418   0.00404   2.14670
    A4        1.92785  -0.00069  -0.00008  -0.00358  -0.00367   1.92418
    A5        1.88951   0.00112   0.00006   0.00595   0.00601   1.89552
    A6        1.93219  -0.00081   0.00006  -0.00501  -0.00495   1.92724
    A7        1.91282  -0.00008  -0.00013   0.00149   0.00136   1.91418
    A8        1.89168   0.00044   0.00017  -0.00077  -0.00061   1.89107
    A9        1.90977   0.00002  -0.00009   0.00200   0.00191   1.91168
   A10        1.90913   0.00015  -0.00001   0.00144   0.00143   1.91055
[...]
 0215649,0.01794491,-0.06089488,0.05028068,-0.00182614,0.00075998,0.002
 35810,-0.00003940,-0.00008674,-0.00005294,-0.00108857,-0.00059026,-0.0
 0053782,-0.00001383,-0.00078728,-0.00022258,0.01395093,-0.02423955,0.0
 3193255,-0.00187215,0.00075519,0.00152466,-0.00006637,-0.00017522,-0.0
 0014509,-0.00020256,-0.00016384,0.00000295,0.00029481,0.00063773,0.000
 32426,-0.00675560,0.00681678,-0.01960848,-0.00091989,0.00003171,0.0003
 9717,-0.02713019,0.07664186,-0.00079504,-0.00198311,-0.00002543,-0.079
 34738,0.05415939,-0.26539366,0.00077868,-0.00044018,0.00140011,0.00002
 438,0.00004321,0.00002297,-0.00035636,-0.00020297,-0.00018897,0.000030
 23,0.00032231,0.00003003,0.00301661,0.00435025,0.00758550,0.00044642,0
 .00115531,0.00025351,0.00004270,0.00009868,0.00009648,0.00009704,0.000
 08240,0.00000439,-0.00021178,-0.00038407,-0.00015781,-0.00227571,0.001
 29289,-0.00833070,-0.00908324,0.00346998,-0.01702084,0.08909599,-0.062
 36005,0.28159529,0.00189318,0.00507836,0.00208592,0.00176798,-0.002257
 33,0.00097865,-0.07670394,0.01765835,-0.08004562,-0.00001329,-0.000025
 45,-0.00001303,-0.00016068,0.00009110,-0.00009946,0.00030403,-0.000246
 25,-0.00019676,0.00246299,-0.00842687,0.03608482,-0.00290380,-0.001477
 73,0.00040601,-0.00000195,-0.00003038,-0.00005735,0.00001080,-0.000031
 11,-0.00001324,0.00003613,0.00015580,0.00009992,-0.00042793,0.00034422
 ,-0.00027808,0.00004913,-0.00030671,-0.00007516,0.00004037,0.00016648,
 -0.00112667,0.08370091,0.00018655,-0.00032729,0.00058622,-0.00092817,0
 .00096408,-0.00169958,0.01611826,-0.06352467,0.04727704,-0.00001031,-0
 .00002827,-0.00004400,0.00017363,0.00000601,0.00009557,-0.00030630,-0.
 00017762,0.00002449,-0.00006294,0.00177028,-0.00263354,0.00013164,0.00
 003594,-0.00022299,-0.00002662,-0.00006413,-0.00018660,-0.00007198,-0.
 00008684,-0.00004695,0.00010678,0.00032929,0.00031495,-0.00005510,-0.0
 0000682,-0.00001927,-0.00004448,0.00002466,0.00012146,-0.00006615,0.00
 037958,0.00063796,-0.01709871,0.05982460,-0.00358328,-0.00647834,-0.00
 006040,-0.00131030,0.00200534,0.00061849,-0.07721927,0.04706429,-0.266
 65886,0.00003014,0.00007588,0.00005048,-0.00003288,0.00013047,0.000175
 15,-0.00015033,0.00052700,0.00020502,0.01028217,0.00783176,-0.02417865
 ,0.00273082,0.00112087,-0.00117820,0.00002611,0.00016647,0.00022440,0.
 00009261,0.00016062,0.00003578,-0.00020682,-0.00067717,-0.00036682,-0.
 00017211,-0.00034237,-0.00017233,0.00024271,0.00014155,0.00029276,0.00
 072737,-0.00113362,0.00017950,0.07433114,-0.05269275,0.29730352,0.0010
 1175,0.00304007,-0.00101113,-0.00362701,-0.00209811,0.00352863,-0.0852
 0804,0.08640554,-0.00106161,0.00002815,0.00004166,-0.00002009,-0.00009
 682,-0.00071265,0.00137452,0.00032193,0.00005756,-0.00056292,-0.012199
 78,0.02730012,-0.00121567,-0.00011262,-0.00058616,0.00019511,0.0000944
 8,0.00025386,-0.00011562,0.00017293,0.00015999,-0.00007772,-0.00022588
 ,-0.00066980,0.00020240,0.00030114,0.00022159,0.00014111,-0.00029388,0
 .00164684,0.00017389,0.00017943,-0.00027440,-0.00008137,-0.00334458,0.
 00973459,-0.00075734,0.09220653,-0.00032513,-0.00120790,0.00077835,0.0
 0062287,0.00109641,-0.00091464,0.09553338,-0.29514925,0.00888836,-0.00
 000251,-0.00000505,-0.00001033,-0.00137957,-0.00224973,0.00205602,-0.0
 0077256,0.00044751,0.00033956,0.00095582,0.00008156,-0.00172119,0.0004
 0884,0.00035449,-0.00044932,-0.00000344,-0.00001575,-0.00005719,-0.000
 04899,-0.00002983,-0.00001954,0.00006713,0.00012202,0.00011292,-0.0000
 4567,0.00029791,0.00022097,0.00000044,-0.00021136,0.00028045,-0.000153
 35,0.00004146,0.00006736,0.00054681,-0.00409368,0.00040311,-0.10067405
 ,0.31990647,-0.00012363,-0.00158637,0.00148179,0.00287306,0.00128595,-
 0.00287574,-0.00427244,0.01668389,-0.05168139,-0.00001358,-0.00004402,
 -0.00005511,0.00187895,0.00177371,-0.00059926,-0.00032790,-0.00055153,
 -0.00015222,0.00836391,-0.02478296,-0.00050633,-0.00019796,0.00028856,
 -0.00011654,0.00000983,-0.00012223,-0.00024694,-0.00013445,-0.00016198
 ,-0.00004731,0.00006333,0.00054176,0.00045409,-0.00012501,0.00026635,0
 .00001740,0.00075897,-0.00118258,0.00029499,0.00029861,-0.00018294,0.0
 0031095,-0.00998083,0.02945233,0.00127728,-0.00260102,-0.01410688,0.05
 350820,-0.00185620,0.00538261,-0.00520838,0.00097308,-0.00288948,-0.00
 080788,-0.17861207,-0.11560315,-0.05177425,-0.00002104,-0.00005932,-0.
 00002261,0.00015667,0.00009371,0.00002326,0.00025514,-0.00048469,-0.00
 025458,-0.02633298,-0.01793395,0.00882494,-0.00155771,-0.00094379,0.00
 315380,0.00000570,-0.00013733,-0.00008932,-0.00004049,-0.00011973,-0.0
 0000045,0.00010427,0.00047543,0.00015577,0.00014322,0.00124518,0.00032
 889,0.00033193,-0.00000525,0.00022648,-0.00022954,0.00028610,-0.000217
 28,-0.00681950,-0.00757570,-0.00501149,0.01122025,0.00728655,0.0035135
 6,0.20232254,0.00028638,0.00018037,-0.00108807,0.00158589,0.00161104,0
 .00055097,-0.11782347,-0.15916706,-0.04457092,-0.00001082,-0.00004425,
 0.00000224,-0.00010418,-0.00023287,-0.00005745,-0.00016194,-0.00010744
 ,0.00020818,0.00320319,0.00412130,0.00400297,-0.00009848,0.00013092,-0
 .00013044,-0.00004579,-0.00016109,0.00002668,-0.00009351,-0.00011711,0
 .00003690,0.00012519,0.00047645,-0.00002899,-0.00098029,0.00042045,0.0
 0000393,-0.00002530,0.00013649,0.00015180,-0.00010737,-0.00011589,-0.0
 0016930,0.00580964,0.00502482,0.00184215,-0.02240813,-0.01729669,-0.00
 907902,0.13085420,0.16512133,0.00330059,-0.00252074,0.00211973,-0.0003
 7099,0.00180542,0.00056050,-0.05405835,-0.04745710,-0.07043938,0.00001
 581,0.00003304,0.00003034,0.00006945,-0.00008047,-0.00001484,-0.000144
 43,0.00025083,0.00014177,0.02465682,0.01869201,0.00259882,0.00043490,0
 .00080382,-0.00244016,-0.00000327,0.00003649,0.00013416,0.00001244,0.0
 0005113,0.00003578,-0.00006834,-0.00022494,-0.00022693,-0.00061961,-0.
 00044035,0.00009352,-0.00009134,0.00027518,-0.00004590,-0.00012418,-0.
 00048910,-0.00030322,-0.02202138,-0.02096975,-0.00760003,0.00183710,0.
 00211350,0.00029801,0.04725882,0.04815398,0.07513612,0.00014787,0.0000
 6762,-0.00009776,0.00005481,-0.00002744,-0.00003450,-0.00005569,0.0000
 1212,0.00004498,-0.07277549,-0.07450902,-0.02722385,-0.00119077,0.0004
 1330,0.00030353,-0.00005904,0.00390679,-0.00036810,-0.00003963,0.00024
 494,-0.00002217,0.00008172,0.00021022,-0.00014433,-0.00057707,-0.00144
 142,0.00014667,-0.00068610,-0.00196783,-0.00039623,0.00589097,0.016464
 10,0.00669688,0.00000050,0.00002792,-0.00000352,0.00000273,-0.00001711
 ,0.00000266,-0.00000508,0.00002398,-0.00000991,0.00000963,0.00000498,-
 0.00001729,-0.00001326,0.00000027,0.00000608,0.00001507,0.00001216,-0.
 00000879,0.07370498,-0.00000750,0.00005676,0.00003395,-0.00007042,0.00
 004515,0.00003188,0.00006882,-0.00001075,-0.00006064,-0.07476483,-0.27
 173261,-0.08494656,0.00117639,-0.00011164,-0.00041361,0.00175271,-0.00
 335732,0.00014271,0.00000266,-0.00029898,0.00006407,-0.00012426,-0.000
 36973,0.00019784,0.00051942,0.00280890,0.00136287,0.00115428,0.0025693
 3,0.00042435,-0.00865047,-0.01900453,-0.00869446,-0.00000103,-0.000034
 18,0.00000391,-0.00000455,0.00002485,-0.00000517,0.00000663,-0.0000298
 3,0.00001568,-0.00000863,-0.00001333,0.00002766,0.00001398,-0.00000239
 ,-0.00001952,-0.00001943,-0.00001347,0.00001210,0.07954764,0.29057060,
 -0.00004389,-0.00001212,0.00008288,0.00003102,-0.00002196,-0.00002294,
 -0.00003884,0.00000820,0.00003341,-0.02725180,-0.08493549,-0.08105105,
 -0.00040429,0.00007631,0.00032927,-0.00150910,0.00259664,0.00120543,0.
 00000699,0.00015165,-0.00004440,0.00009421,0.00025458,-0.00013420,-0.0
 0038666,-0.00146834,-0.00070197,0.00043081,-0.00076884,-0.00051434,0.0
 0485396,0.01219705,0.00413311,0.00000183,0.00001714,-0.00000223,0.0000
 0251,-0.00001459,0.00000168,-0.00000400,0.00001692,-0.00000761,0.00000
 582,0.00000779,-0.00001517,-0.00000704,-0.00000021,0.00000963,0.000011
 69,0.00000775,-0.00000773,0.03127977,0.09144818,0.08131902,-0.00000005
 ,0.00017097,-0.00004241,-0.00001108,0.00001912,-0.00000163,-0.00000629
 ,0.00001243,-0.00000382,-0.29954568,-0.05008131,0.07190648,0.00007038,
 0.00038500,-0.00001583,0.00248230,0.00016036,-0.00076064,0.00000164,-0
 .00003622,0.00000864,0.00009419,-0.00016913,-0.00000897,0.00331137,0.0
 0013916,-0.00083916,-0.00218980,0.00338873,-0.00184513,-0.01803730,-0.
 00605356,0.00735362,0.00000022,-0.00000520,0.00000105,-0.00000143,0.00
 000511,-0.00000340,-0.00000041,-0.00000503,0.00000474,0.00000039,-0.00
 000165,0.00000290,0.00000670,-0.00000009,-0.00000136,-0.00000091,-0.00
 000443,-0.00000004,-0.00562052,-0.00033729,0.00200767,0.31950563,-0.00
 001372,-0.00030052,0.00003258,0.00002627,-0.00003519,0.00000256,0.0000
 0111,-0.00002378,0.00001529,-0.05022367,-0.05622423,0.01310665,0.00016
 019,-0.00016427,-0.00011855,-0.00242546,0.00006715,0.00064105,-0.00000
 652,0.00008411,-0.00002125,-0.00012782,0.00022353,0.00001784,-0.002303
 09,-0.00048909,-0.00028235,0.00602396,-0.00315871,0.00210814,0.0219520
 5,0.00476094,-0.00751296,-0.00000042,0.00001116,-0.00000086,0.00000121
 ,-0.00000816,0.00000564,-0.00000145,0.00001061,-0.00000966,-0.00000362
 ,0.00001031,-0.00001084,-0.00000358,0.00000372,0.00001529,0.00000337,0
 .00000544,-0.00000112,-0.02773326,-0.00196969,0.00875811,0.05279794,0.
 05730091,-0.00000813,-0.00004061,-0.00000007,0.00001025,-0.00000226,-0
 .00000433,-0.00002084,0.00001505,0.00001580,0.07271135,0.01294090,-0.0
 6929405,0.00006888,-0.00004378,0.00026599,0.00057217,-0.00016817,-0.00
 080398,0.00000795,0.00002837,-0.00002740,0.00004200,-0.00002044,-0.000
 00669,0.00137390,0.00018551,-0.00025610,-0.00336889,0.00264973,0.00054
 319,-0.01306701,-0.00379358,0.00278425,-0.00000082,0.00000120,0.000001
 79,0.00000117,-0.00000295,0.00000115,-0.00000286,0.00000285,-0.0000024
 5,-0.00000140,0.00000440,-0.00000738,0.00000152,0.00000461,0.00001389,
 0.00000317,-0.00000481,-0.00000136,-0.01097544,-0.00101638,0.00263026,
 -0.07760398,-0.01601127,0.06871367,-0.00005272,-0.00010031,0.00010340,
 0.00000063,-0.00001307,-0.00000026,-0.00000120,0.00000183,-0.00000044,
 -0.05238503,0.00038658,0.03376372,0.00018049,-0.00028226,0.00010415,-0
 .00100809,-0.00029526,0.00083889,0.00001630,-0.00001531,-0.00001070,-0
 .00002439,0.00004103,-0.00000985,-0.00109655,0.00393776,-0.00412464,0.
 00003983,-0.00004442,0.00220181,0.00218609,-0.00258577,-0.01907618,0.0
 0000198,-0.00000013,0.00000118,0.00000050,-0.00000225,0.00000026,-0.00
 000115,-0.00000068,-0.00000170,-0.00000227,-0.00000391,0.00000045,-0.0
 0000985,0.00000093,0.00000048,0.00000108,0.00000087,0.00000377,0.00054
 521,0.00029883,-0.00943547,0.00012237,0.00178668,0.03046222,0.05150896
 ,0.00001744,0.00006721,-0.00006413,0.00001871,-0.00000247,-0.00000145,
 -0.00001560,0.00000846,0.00002414,0.00065575,-0.04808202,-0.01968050,-
 0.00018801,0.00018587,0.00002729,0.00032173,0.00018865,-0.00214277,-0.
 00000870,0.00007562,-0.00002678,0.00005753,-0.00000082,-0.00006189,0.0
 0351936,-0.00330550,0.00519497,-0.00064994,-0.00026273,-0.00238290,-0.
 00427919,0.00159939,0.02300760,-0.00000347,0.00000484,0.00000069,0.000
 00342,-0.00000354,0.00000437,-0.00000117,0.00000796,-0.00000680,0.0000
 0094,0.00000920,-0.00001153,0.00000880,0.00000434,0.00001332,0.0000028
 2,-0.00000367,-0.00000513,0.00388403,0.00170312,-0.02896276,-0.0003513
 9,-0.00037700,0.00542549,-0.00310285,0.04817330,-0.00004243,-0.0000074
 2,0.00006980,-0.00001602,0.00000121,0.00000304,0.00001404,-0.00000487,
 -0.00001663,0.03261134,-0.01862160,-0.32813269,0.00037534,0.00005693,-
 0.00007062,-0.00030681,-0.00031962,0.00192489,0.00000736,-0.00006398,0
 .00001304,-0.00002593,-0.00000656,0.00001999,-0.00195792,0.00237699,-0
 .00042798,-0.00011850,-0.00037559,0.00270911,0.00353387,-0.00239360,-0
 .01420756,0.00000221,-0.00000523,0.00000018,-0.00000090,0.00000305,-0.
 00000187,0.00000118,-0.00000568,0.00000309,-0.00000082,-0.00000676,0.0
 0000746,-0.00000312,-0.00000204,-0.00000980,-0.00000236,0.00000126,0.0
 0000408,0.00122862,0.00054395,-0.00664086,-0.00031757,-0.00073477,-0.0
 0449716,-0.03485029,0.01950563,0.34923035,-0.00001831,0.00481935,0.015
 72711,-0.00042551,-0.00010950,-0.00024410,0.00048490,-0.00063161,-0.00
 039362,-0.00010355,-0.00024089,-0.00065904,-0.04814601,-0.00288031,-0.
 00746862,-0.00242783,0.00397677,0.01960796,0.00008164,-0.00053260,-0.0
 0015135,-0.00273187,0.00200483,-0.00129952,-0.00023780,0.00113676,-0.0
 0250492,0.00002179,-0.00025139,-0.00061320,0.00035936,0.00060491,0.006
 30950,0.00011355,-0.00011779,-0.00005473,-0.00003542,-0.00005244,0.000
 02701,-0.00002190,0.00009626,0.00002604,0.00002755,0.00008060,-0.00003
 838,-0.00072721,-0.00100775,0.00008661,-0.00006180,0.00023661,-0.00002
 736,0.00006308,-0.00012610,0.00003440,-0.00004265,0.00009323,-0.000088
 37,-0.00018723,0.00018600,-0.00011146,0.05490907,-0.00188333,-0.006385
 97,-0.02913373,0.00060000,-0.00002480,0.00085914,-0.00004521,-0.000627
 32,0.00008136,-0.00018158,-0.00032624,-0.00067088,-0.00094821,-0.07959
 872,-0.09153852,-0.00440013,0.00445547,0.02184534,0.00063624,-0.000275
 05,0.00139963,0.00308271,-0.00283397,0.00215492,0.00076740,-0.00123613
 ,-0.00383387,0.00031384,-0.00047969,-0.00107667,-0.00283352,0.00153729
 ,0.00846321,-0.00013042,0.00020155,0.00001144,-0.00001301,0.00016585,0
 .00000017,0.00015068,-0.00025274,-0.00003477,-0.00015005,-0.00015344,0
 .00019574,-0.00161828,-0.00116607,0.00026636,-0.00017274,0.00033620,0.
 00007573,0.00006294,-0.00014560,0.00001992,0.00003146,0.00001331,0.000
 04601,-0.00012806,0.00026421,-0.00015016,0.00669840,0.08800164,0.00260
 684,-0.00266089,0.00286326,-0.00003612,-0.00036932,-0.00004432,0.00094
 100,0.00001368,0.00034215,0.00007469,0.00014478,-0.00015454,-0.0057845
 9,-0.08248221,-0.27718071,0.00950495,0.00333363,-0.01898798,0.00049177
 ,0.00061387,-0.00018011,-0.00215213,0.00043589,0.00035117,-0.00213930,
 -0.00243233,0.00124859,-0.00015619,0.00070583,0.00036853,0.00053169,-0
 .00463119,-0.00376868,-0.00004538,0.00004575,-0.00000809,-0.00001262,0
 .00002932,-0.00001286,-0.00006315,0.00009031,-0.00007565,-0.00014195,0
 .00033392,-0.00020885,0.00002188,0.00132603,0.00005206,-0.00010266,0.0
 0015719,-0.00003782,-0.00004031,0.00005272,0.00002528,-0.00005514,0.00
 009040,-0.00006102,-0.00006119,0.00001907,0.00005510,-0.00078195,0.087
 83461,0.30741424,-0.01378536,-0.00017015,-0.00442895,0.00036936,0.0004
 7265,0.00009064,-0.00005144,0.00055492,0.00071054,-0.00009029,-0.00025
 814,-0.00014412,-0.27317903,-0.00533254,-0.08311292,-0.01373387,-0.011
 34416,0.00642061,0.00053361,0.00059018,0.00094677,0.00081211,0.0020961
 9,0.00036991,0.00034900,-0.00048174,-0.00083388,-0.00078362,-0.0015631
 4,-0.00013150,-0.00133181,0.00450934,0.00219637,-0.00010720,0.00012166
 ,-0.00001318,-0.00000018,-0.00016982,0.00003401,0.00005352,-0.00011399
 ,-0.00006486,0.00017718,-0.00021736,-0.00010995,0.00032962,-0.00088825
 ,-0.00004836,0.00010111,-0.00019967,-0.00011676,0.00010485,-0.00010389
 ,0.00005182,0.00003192,-0.00015824,0.00000793,0.00001837,0.00001700,-0
 .00003412,-0.00008347,0.00009457,-0.00133394,0.30199411,0.02862922,0.0
 0542667,0.01199908,-0.00080376,-0.00024421,-0.00069478,0.00017034,-0.0
 0016035,0.00050206,-0.00014708,0.00011196,0.00001571,-0.00082304,-0.04
 677247,-0.00384292,-0.02336124,-0.00649710,0.00162568,-0.00083949,-0.0
 0159967,-0.00087052,0.00056613,-0.00418167,-0.00386494,0.00061330,-0.0
 0071801,-0.00051155,-0.00129005,-0.00230617,0.00008441,-0.00338379,0.0
 0322648,0.00136974,0.00012398,-0.00036808,-0.00006753,-0.00002480,0.00
 014056,-0.00004636,-0.00009142,0.00014373,0.00007670,-0.00013887,0.000
 15586,0.00007697,-0.00009603,-0.00065455,0.00133279,-0.00016567,-0.000
 27796,0.00016104,0.00011191,-0.00001360,0.00001721,0.00016458,-0.00023
 121,0.00000094,0.00002379,-0.00002914,0.00000192,-0.01237177,0.0013746
 1,-0.00470774,0.01412816,0.05596921,0.00415386,-0.00245706,0.00173618,
 0.00006069,-0.00000940,-0.00029080,-0.00075214,0.00069781,0.00026681,-
 0.00010552,-0.00009022,0.00013770,-0.08391918,-0.00472526,-0.07635438,
 0.02425784,0.00651197,0.00489444,0.00027820,0.00103186,0.00015189,0.00
 005250,-0.00063121,-0.00101073,-0.00053056,-0.00078331,0.00125400,0.00
 062620,0.00151794,0.00028784,0.00213522,-0.00194857,-0.00257294,0.0000
 0502,0.00003141,0.00002821,0.00003801,-0.00004511,-0.00000634,-0.00006
 483,0.00006908,0.00001303,0.00014439,-0.00034086,-0.00001524,0.0001163
 5,0.00056265,-0.00137680,0.00006275,-0.00004107,-0.00003610,-0.0000129
 5,0.00000391,-0.00004622,-0.00004913,0.00000519,0.00004793,0.00006042,
 0.00003642,-0.00000418,-0.02964307,0.00119689,-0.00913577,0.08063637,-
 0.00214995,0.08253351,0.00078301,0.00062093,0.00102185,-0.00006293,0.0
 0031541,0.00003810,0.00026454,-0.00012337,0.00010057,-0.00141434,-0.00
 146003,0.00038504,-0.01481787,0.00216225,0.00660106,-0.25120483,0.1291
 4918,0.14185609,-0.00129371,-0.00090160,0.00140656,-0.00335420,0.00191
 957,-0.00154586,-0.00250252,-0.00333100,-0.00636235,-0.00231346,0.0006
 9189,0.00121404,0.01665270,-0.00638197,-0.00840814,-0.00004435,-0.0000
 4955,0.00000573,0.00003646,0.00011917,-0.00003753,0.00004109,-0.000046
 75,0.00000847,-0.00010235,-0.00006766,0.00014302,-0.00001397,-0.000121
 68,-0.00002684,-0.00009782,-0.00005075,0.00006514,0.00040122,-0.000322
 94,0.00026857,-0.00017102,0.00015485,-0.00012477,0.00014664,-0.0000932
 4,0.00001429,-0.00081037,0.00006631,-0.00126619,-0.00172850,-0.0009944
 1,0.00244958,0.26160655,-0.01447996,-0.00342711,0.01276148,0.00038964,
 -0.00071156,-0.00005207,-0.00123335,0.00105420,0.00068782,-0.00251339,
 -0.00300017,-0.00129979,-0.01442240,0.01555427,0.01029583,0.12336049,-
 0.13424360,-0.08287506,0.00470982,0.00299027,-0.00425139,0.00647259,0.
 00141353,-0.00697713,-0.00172325,0.00076749,0.00051472,0.00002671,0.00
 530189,0.00280954,0.02208037,-0.02230119,-0.01298781,0.00011015,0.0002
 0641,-0.00003139,0.00005718,-0.00063499,0.00009708,-0.00003932,0.00016
 931,-0.00018121,0.00035000,-0.00005853,-0.00042325,0.00025660,-0.00027
 366,-0.00010028,0.00048026,-0.00002731,-0.00027557,0.00070114,-0.00067
 107,0.00060687,-0.00022952,0.00049065,-0.00020083,0.00009601,-0.000225
 28,0.00020694,-0.00161158,-0.00284436,0.00205671,-0.00158356,-0.002494
 90,0.00155688,-0.12125461,0.14296568,0.00326446,0.00129048,-0.00020581
 ,-0.00025085,0.00003417,0.00024731,0.00057827,-0.00001362,-0.00004952,
 0.00036570,0.00209741,0.00144804,0.01924215,-0.00555187,-0.01475946,0.
 10941983,-0.05887770,-0.06993903,0.00046642,-0.00125042,0.00018397,-0.
 00212629,-0.00328281,-0.00260931,-0.00193653,-0.00217459,-0.00307728,0
 .00081293,0.00458725,-0.00065774,0.00712467,-0.01723728,-0.00976629,-0
 .00005173,-0.00015005,0.00004177,-0.00001468,0.00015019,0.00000063,0.0
 0003903,-0.00010475,0.00001150,-0.00008492,0.00000691,0.00009207,-0.00
 007783,0.00012744,-0.00005088,-0.00007189,0.00002409,0.00000062,-0.000
 35402,0.00079056,-0.00058125,0.00026310,-0.00009511,-0.00005595,0.0000
 2998,0.00008765,-0.00003077,0.00226107,0.00198812,-0.00286397,-0.00109
 242,-0.00050795,-0.00050206,-0.13780644,0.07806189,0.10312340\\-0.0000
 1092,-0.00000410,-0.00000763,0.00000489,-0.00000780,-0.00000353,0.0000
 0153,0.00000130,-0.00000058,0.00000078,0.00000416,-0.00000298,0.000000
 11,-0.00000062,0.00000204,0.00000318,0.00000041,0.00001107,0.00000168,
 0.00000080,0.00001028,0.00000566,-0.00000097,0.00000013,-0.00000275,0.
 00000567,0.00000318,0.00000604,-0.00000015,-0.00000735,-0.00000683,-0.
 00001058,-0.00000253,0.00000027,0.00000202,0.00000045,0.00000045,-0.00
 000208,-0.00000026,0.00000056,0.00000122,-0.00000100,-0.00000125,0.000
 00206,0.00000005,-0.00000195,0.00000655,-0.00000094,0.00000134,0.00000
 176,0.00000102,-0.00000098,-0.00000008,0.00000043,-0.00000014,-0.00000
 055,0.00000112,0.00000123,-0.00000083,0.00000116,0.00000092,0.00000198
 ,-0.00000158,-0.00000287,-0.00000155,0.00000075,-0.00000098,0.00000136
 ,-0.00000329\\\@


 REALITY IS FOR PEOPLE WHO CAN'T FACE SCIENCE FICTION.
 Job cpu time:  0 days  1 hours 21 minutes 45.5 seconds.
 File lengths (MBytes):  RWF=    123 Int=      0 D2E=      0 Chk=      4 Scr=      1
 Normal termination of Gaussian 09 at Fri Feb 16 20:02:19 2018.
