 Entering Gaussian System, Link 0=g09
 Initial command:
 /home/fb_chem/chemsoft/lx24-amd64/Gaussian_09_C.01_NBO_3.1_64_istanbul-64/g09/l1.exe /local/2399974.1.parallel/Gau-6759.inp -scrdir=/local/2399974.1.parallel/
 Entering Link 1 = /home/fb_chem/chemsoft/lx24-amd64/Gaussian_09_C.01_NBO_3.1_64_istanbul-64/g09/l1.exe PID=      6760.
  
 Copyright (c) 1988,1990,1992,1993,1995,1998,2003,2009,2011,
            Gaussian, Inc.  All Rights Reserved.
  
 This is part of the Gaussian(R) 09 program.  It is based on
 the Gaussian(R) 03 system (copyright 2003, Gaussian, Inc.),
 the Gaussian(R) 98 system (copyright 1998, Gaussian, Inc.),
 the Gaussian(R) 94 system (copyright 1995, Gaussian, Inc.),
 the Gaussian 92(TM) system (copyright 1992, Gaussian, Inc.),
 the Gaussian 90(TM) system (copyright 1990, Gaussian, Inc.),
 the Gaussian 88(TM) system (copyright 1988, Gaussian, Inc.),
 the Gaussian 86(TM) system (copyright 1986, Carnegie Mellon
 University), and the Gaussian 82(TM) system (copyright 1983,
 Carnegie Mellon University). Gaussian is a federally registered
 trademark of Gaussian, Inc.
  
 This software contains proprietary and confidential information,
 including trade secrets, belonging to Gaussian, Inc.
  
 This software is provided under written license and may be
 used, copied, transmitted, or stored only in accord with that
 written license.
  
 The following legend is applicable only to US Government
 contracts under FAR:
  
                    RESTRICTED RIGHTS LEGEND
  
 Use, reproduction and disclosure by the US Government is
 subject to restrictions as set forth in subparagraphs (a)
 and (c) of the Commercial Computer Software - Restricted
 Rights clause in FAR 52.227-19.
  
 Gaussian, Inc.
 340 Quinnipiac St., Bldg. 40, Wallingford CT 06492
  
  
 ---------------------------------------------------------------
 Warning -- This program may not be used in any manner that
 competes with the business of Gaussian, Inc. or will provide
 assistance to any competitor of Gaussian, Inc.  The licensee
 of this program is prohibited from giving any competitor of
 Gaussian, Inc. access to this program.  By using this program,
 the user acknowledges that Gaussian, Inc. is engaged in the
 business of creating and licensing software in the field of
 computational chemistry and represents and warrants to the
 licensee that it is not a competitor of Gaussian, Inc. and that
 it will not use this program in any manner prohibited above.
 ---------------------------------------------------------------
  

 Cite this work as:
 Gaussian 09, Revision C.01,
 M. J. Frisch, G. W. Trucks, H. B. Schlegel, G. E. Scuseria, 
 M. A. Robb, J. R. Cheeseman, G. Scalmani, V. Barone, B. Mennucci, 
 G. A. Petersson, H. Nakatsuji, M. Caricato, X. Li, H. P. Hratchian, 
 A. F. Izmaylov, J. Bloino, G. Zheng, J. L. Sonnenberg, M. Hada, 
 M. Ehara, K. Toyota, R. Fukuda, J. Hasegawa, M. Ishida, T. Nakajima, 
 Y. Honda, O. Kitao, H. Nakai, T. Vreven, J. A. Montgomery, Jr., 
 J. E. Peralta, F. Ogliaro, M. Bearpark, J. J. Heyd, E. Brothers, 
 K. N. Kudin, V. N. Staroverov, T. Keith, R. Kobayashi, J. Normand, 
 K. Raghavachari, A. Rendell, J. C. Burant, S. S. Iyengar, J. Tomasi, 
 M. Cossi, N. Rega, J. M. Millam, M. Klene, J. E. Knox, J. B. Cross, 
 V. Bakken, C. Adamo, J. Jaramillo, R. Gomperts, R. E. Stratmann, 
 O. Yazyev, A. J. Austin, R. Cammi, C. Pomelli, J. W. Ochterski, 
 R. L. Martin, K. Morokuma, V. G. Zakrzewski, G. A. Voth, 
 P. Salvador, J. J. Dannenberg, S. Dapprich, A. D. Daniels, 
 O. Farkas, J. B. Foresman, J. V. Ortiz, J. Cioslowski, 
 and D. J. Fox, Gaussian, Inc., Wallingford CT, 2010.
 
 ******************************************
 Gaussian 09:  AM64L-G09RevC.01 23-Sep-2011
                17-Feb-2018 
 ******************************************
 %nprocs=2
 Will use up to    2 processors via shared memory.
 %chk=frag5-conf0.chk
 ----------------------------------------------------------------------
 #HF/6-31G* Geom=AllCheck Guess=Read Pop=(MK,ReadRadii) Integral=(Grid=
 UltraFine) iop(6/33=2)
 ----------------------------------------------------------------------
 1/29=7,38=1/1;
 2/12=2,40=1/2;
 3/5=1,6=6,7=1,11=9,14=-4,16=1,25=1,30=1,75=-5,116=-2/1,2,3;
 4/5=1/1;
 5/5=2,38=6/2;
 6/7=2,8=2,9=2,10=2,15=8,20=101,28=1,33=2/1,2;
 99/5=1,9=1/99;
 Structure from the checkpoint file:  frag5-conf0.chk
 ----------------------------
 Optimization for frag5-conf0
 ----------------------------
 Charge =  0 Multiplicity = 1
 Redundant internal coordinates found in file.
 C,0,2.119194221,-1.1084406102,0.0461194081
 C,0,0.917290076,-0.4936087101,0.4045007264
 C,0,2.9627433503,-1.6323668628,1.0237835557
 C,0,1.3908096202,-0.9135307196,2.7374663951
 C,0,0.5441156987,-0.3922827472,1.747813567
 C,0,2.5827191505,-1.5257546872,2.363098037
 C,0,-1.8876607515,-0.8366492159,4.0615922642
 C,0,-2.8926049948,-1.8986422865,4.4811254585
 C,0,-0.7650374492,0.2644576166,2.1497385658
 N,0,-1.7417313934,-0.6645004519,2.7102661365
 O,0,-1.2607276593,-0.1769459367,4.883047211
 Cl,0,3.6437472891,-2.17786285,3.6080485147
 H,0,2.4021379141,-1.1815352495,-1.0003915351
 H,0,0.267661146,-0.0862118163,-0.3667458932
 H,0,3.8987699054,-2.1124293422,0.759302091
 H,0,1.1158545114,-0.8325743378,3.7843133815
 H,0,-2.362819219,-2.6974428566,5.0102957211
 H,0,-3.5981392201,-1.4520139151,5.1874865798
 H,0,-3.4504602548,-2.3348366155,3.6465352221
 H,0,-0.5920737886,1.0163699726,2.9239476439
 H,0,-1.2139641726,0.7637493305,1.2840292364
 H,0,-2.1794442471,-1.3272356406,2.0858683434
 Recover connectivity data from disk.
                          Input orientation:                          
 ---------------------------------------------------------------------
 Center     Atomic      Atomic             Coordinates (Angstroms)
 Number     Number       Type             X           Y           Z
 ---------------------------------------------------------------------
      1          6           0        2.119194   -1.108441    0.046119
      2          6           0        0.917290   -0.493609    0.404501
      3          6           0        2.962743   -1.632367    1.023784
      4          6           0        1.390810   -0.913531    2.737466
      5          6           0        0.544116   -0.392283    1.747814
      6          6           0        2.582719   -1.525755    2.363098
      7          6           0       -1.887661   -0.836649    4.061592
      8          6           0       -2.892605   -1.898642    4.481125
      9          6           0       -0.765037    0.264458    2.149739
     10          7           0       -1.741731   -0.664500    2.710266
     11          8           0       -1.260728   -0.176946    4.883047
     12         17           0        3.643747   -2.177863    3.608049
     13          1           0        2.402138   -1.181535   -1.000392
     14          1           0        0.267661   -0.086212   -0.366746
     15          1           0        3.898770   -2.112429    0.759302
     16          1           0        1.115855   -0.832574    3.784313
     17          1           0       -2.362819   -2.697443    5.010296
     18          1           0       -3.598139   -1.452014    5.187487
     19          1           0       -3.450460   -2.334837    3.646535
     20          1           0       -0.592074    1.016370    2.923948
     21          1           0       -1.213964    0.763749    1.284029
     22          1           0       -2.179444   -1.327236    2.085868
 ---------------------------------------------------------------------
                    Distance matrix (angstroms):
                    1          2          3          4          5
     1  C    0.000000
     2  C    1.396792   0.000000
     3  C    1.393521   2.421603   0.000000
     4  C    2.794975   2.417289   2.434011   0.000000
     5  C    2.426833   1.397861   2.812790   1.402855   0.000000
     6  C    2.399458   2.770394   1.396262   1.391265   2.412310
     7  C    5.679153   4.621660   5.778224   3.536607   3.385937
     8  C    6.738830   5.753980   6.805088   4.728470   4.642323
     9  C    3.824769   2.539832   4.331520   2.526016   1.518793
    10  N    4.711848   3.523656   5.090488   3.142542   2.495098
    11  O    5.973895   4.990132   5.903378   3.489516   3.624020
    12  Cl   4.019361   4.531335   2.727592   2.726202   4.031933
    13  H    1.086547   2.156789   2.148211   3.881519   3.409956
    14  H    2.154898   1.087571   3.404062   3.403242   2.154407
    15  H    2.164142   3.411112   1.084692   3.411797   3.897405
    16  H    3.880320   3.402567   3.416313   1.085377   2.160572
    17  H    6.874330   6.068719   6.737083   4.736858   4.940427
    18  H    7.696727   6.647149   7.772653   5.584100   5.487500
    19  H    6.744486   5.742661   6.964300   5.126832   4.830662
    20  H    4.488618   3.302397   4.823189   2.773287   2.158361
    21  H    4.018390   2.626169   4.822239   3.422075   2.154612
    22  H    4.763060   3.621007   5.259584   3.652731   2.899344
                    6          7          8          9         10
     6  C    0.000000
     7  C    4.831568   0.000000
     8  C    5.882539   1.521102   0.000000
     9  C    3.802349   2.475460   3.826344   0.000000
    10  N    4.423026   1.370041   2.446131   1.459824   0.000000
    11  O    4.789730   1.225986   2.405993   2.812743   2.278168
    12  Cl   1.760945   5.709731   6.600313   5.246807   5.665656
    13  H    3.385876   6.644170   7.654775   4.695233   5.586408
    14  H    3.857956   4.981842   6.064161   2.742650   3.720226
    15  H    2.156001   6.783474   7.747286   5.416088   6.141499
    16  H    2.156860   3.016290   4.205924   2.722695   3.057388
    17  H    5.730520   2.142047   1.094887   4.416848   3.131891
    18  H    6.796000   2.138235   1.093710   4.494514   3.194221
    19  H    6.221019   2.204355   1.094536   4.025944   2.566394
    20  H    4.105638   2.531099   4.026729   1.093018   2.047608
    21  H    4.563006   3.275668   4.486378   1.095573   2.086286
    22  H    4.774355   2.056526   2.563662   2.130285   1.010289
                   11         12         13         14         15
    11  O    0.000000
    12  Cl   5.448226   0.000000
    13  H    7.002902   4.875652   0.000000
    14  H    5.468504   5.618892   2.481377   0.000000
    15  H    6.882716   2.860887   2.490581   4.307957   0.000000
    16  H    2.699112   2.868992   4.966860   4.302067   4.305037
    17  H    2.753852   6.189919   7.818641   6.530737   7.590829
    18  H    2.679921   7.447577   8.623591   6.903573   8.732045
    19  H    3.313666   7.096048   7.561543   5.914995   7.899162
    20  H    2.389387   5.349140   5.403381   3.575401   5.885809
    21  H    3.720218   6.136083   4.698819   2.375438   5.889634
    22  H    3.160920   6.078664   5.526041   3.680188   6.270645
                   16         17         18         19         20
    16  H    0.000000
    17  H    4.133030   0.000000
    18  H    4.957251   1.763095   0.000000
    19  H    4.809055   1.781653   1.782054   0.000000
    20  H    2.660046   4.613111   4.500329   4.463529   0.000000
    21  H    3.771966   5.213903   5.082409   4.492726   1.771976
    22  H    3.740107   3.234713   3.412961   2.250872   2.952052
                   21         22
    21  H    0.000000
    22  H    2.438712   0.000000
 Stoichiometry    C9H10ClNO
 Framework group  C1[X(C9H10ClNO)]
 Deg. of freedom    60
 Full point group                 C1      NOp   1
 Largest Abelian subgroup         C1      NOp   1
 Largest concise Abelian subgroup C1      NOp   1
                         Standard orientation:                         
 ---------------------------------------------------------------------
 Center     Atomic      Atomic             Coordinates (Angstroms)
 Number     Number       Type             X           Y           Z
 ---------------------------------------------------------------------
      1          6           0       -2.251854    1.945345    0.414060
      2          6           0       -0.924988    2.171520    0.040833
      3          6           0       -2.776555    0.654398    0.407168
      4          6           0       -0.628226   -0.193600   -0.360942
      5          6           0       -0.105082    1.107990   -0.347336
      6          6           0       -1.950895   -0.401810    0.016966
      7          6           0        2.880396   -0.450922    0.000917
      8          6           0        3.805157   -0.924782    1.111784
      9          6           0        1.342279    1.339435   -0.745221
     10          7           0        2.307992    0.778595    0.194962
     11          8           0        2.672999   -1.125302   -1.001700
     12         17           0       -2.604683   -2.036775   -0.002469
     13          1           0       -2.882542    2.778086    0.712993
     14          1           0       -0.526610    3.183477    0.047806
     15          1           0       -3.805085    0.464739    0.694765
     16          1           0       -0.003720   -1.026063   -0.669226
     17          1           0        3.379403   -1.825286    1.566318
     18          1           0        4.765699   -1.205495    0.670469
     19          1           0        3.975896   -0.178807    1.894330
     20          1           0        1.553644    0.864473   -1.706691
     21          1           0        1.535117    2.413196   -0.845871
     22          1           0        2.406483    1.223669    1.096567
 ---------------------------------------------------------------------
 Rotational constants (GHZ):      1.1993947      0.4692018      0.3654692
 Standard basis: 6-31G(d) (6D, 7F)
 There are   204 symmetry adapted basis functions of A   symmetry.
 Integral buffers will be    131072 words long.
 Raffenetti 1 integral format.
 Two-electron integral symmetry is turned on.
   204 basis functions,   400 primitive gaussians,   204 cartesian basis functions
    48 alpha electrons       48 beta electrons
       nuclear repulsion energy       736.1521801581 Hartrees.
 NAtoms=   22 NActive=   22 NUniq=   22 SFac= 1.00D+00 NAtFMM=   60 NAOKFM=F Big=F
 One-electron integrals computed using PRISM.
 NBasis=   204 RedAO= T  NBF=   204
 NBsUse=   204 1.00D-06 NBFU=   204
 Initial guess read from the checkpoint file:  frag5-conf0.chk
 B after Tr=     0.000000    0.000000    0.000000
         Rot=    1.000000    0.000000    0.000000    0.000000 Ang=   0.00 deg.
 Initial guess orbital symmetries:
       Occupied  (A) (A) (A) (A) (A) (A) (A) (A) (A) (A) (A) (A)
                 (A) (A) (A) (A) (A) (A) (A) (A) (A) (A) (A) (A)
                 (A) (A) (A) (A) (A) (A) (A) (A) (A) (A) (A) (A)
                 (A) (A) (A) (A) (A) (A) (A) (A) (A) (A) (A) (A)
       Virtual   (A) (A) (A) (A) (A) (A) (A) (A) (A) (A) (A) (A)
                 (A) (A) (A) (A) (A) (A) (A) (A) (A) (A) (A) (A)
                 (A) (A) (A) (A) (A) (A) (A) (A) (A) (A) (A) (A)
                 (A) (A) (A) (A) (A) (A) (A) (A) (A) (A) (A) (A)
                 (A) (A) (A) (A) (A) (A) (A) (A) (A) (A) (A) (A)
                 (A) (A) (A) (A) (A) (A) (A) (A) (A) (A) (A) (A)
                 (A) (A) (A) (A) (A) (A) (A) (A) (A) (A) (A) (A)
                 (A) (A) (A) (A) (A) (A) (A) (A) (A) (A) (A) (A)
                 (A) (A) (A) (A) (A) (A) (A) (A) (A) (A) (A) (A)
                 (A) (A) (A) (A) (A) (A) (A) (A) (A) (A) (A) (A)
                 (A) (A) (A) (A) (A) (A) (A) (A) (A) (A) (A) (A)
                 (A) (A) (A) (A) (A) (A) (A) (A) (A) (A) (A) (A)
                 (A) (A) (A) (A) (A) (A) (A) (A) (A) (A) (A) (A)
 Requested convergence on RMS density matrix=1.00D-08 within 128 cycles.
 Requested convergence on MAX density matrix=1.00D-06.
 Requested convergence on             energy=1.00D-06.
 No special actions if energy rises.
 SCF Done:  E(RHF) =  -935.450905880     A.U. after   14 cycles
             Convg  =    0.3340D-08             -V/T =  2.0015

 **********************************************************************

            Population analysis using the SCF density.

 **********************************************************************

 Orbital symmetries:
 BldTbl:  Degeneracy threshold= 1.00D-02
       Occupied  (A) (A) (A) (A) (A) (A) (A) (A) (A) (A) (A) (A)
                 (A) (A) (A) (A) (A) (A) (A) (A) (A) (A) (A) (A)
                 (A) (A) (A) (A) (A) (A) (A) (A) (A) (A) (A) (A)
                 (A) (A) (A) (A) (A) (A) (A) (A) (A) (A) (A) (A)
       Virtual   (A) (A) (A) (A) (A) (A) (A) (A) (A) (A) (A) (A)
                 (A) (A) (A) (A) (A) (A) (A) (A) (A) (A) (A) (A)
                 (A) (A) (A) (A) (A) (A) (A) (A) (A) (A) (A) (A)
                 (A) (A) (A) (A) (A) (A) (A) (A) (A) (A) (A) (A)
                 (A) (A) (A) (A) (A) (A) (A) (A) (A) (A) (A) (A)
                 (A) (A) (A) (A) (A) (A) (A) (A) (A) (A) (A) (A)
                 (A) (A) (A) (A) (A) (A) (A) (A) (A) (A) (A) (A)
                 (A) (A) (A) (A) (A) (A) (A) (A) (A) (A) (A) (A)
                 (A) (A) (A) (A) (A) (A) (A) (A) (A) (A) (A) (A)
                 (A) (A) (A) (A) (A) (A) (A) (A) (A) (A) (A) (A)
                 (A) (A) (A) (A) (A) (A) (A) (A) (A) (A) (A) (A)
                 (A) (A) (A) (A) (A) (A) (A) (A) (A) (A) (A) (A)
                 (A) (A) (A) (A) (A) (A) (A) (A) (A) (A) (A) (A)
 The electronic state is 1-A.
 Alpha  occ. eigenvalues -- -104.82224 -20.52637 -15.59699 -11.36031 -11.30599
 Alpha  occ. eigenvalues --  -11.27878 -11.25643 -11.25292 -11.25174 -11.24844
 Alpha  occ. eigenvalues --  -11.24743 -11.24333 -10.55530  -8.02466  -8.02136
 Alpha  occ. eigenvalues --   -8.02134  -1.37829  -1.23538  -1.18366  -1.11634
 Alpha  occ. eigenvalues --   -1.05123  -1.00946  -0.99571  -0.93313  -0.83374
 Alpha  occ. eigenvalues --   -0.81125  -0.78777  -0.70689  -0.69209  -0.65752
 Alpha  occ. eigenvalues --   -0.65091  -0.63649  -0.61854  -0.58997  -0.58368
 Alpha  occ. eigenvalues --   -0.58097  -0.56478  -0.55349  -0.53357  -0.52544
 Alpha  occ. eigenvalues --   -0.50528  -0.49845  -0.46177  -0.44920  -0.42370
 Alpha  occ. eigenvalues --   -0.39569  -0.34123  -0.33390
 Alpha virt. eigenvalues --    0.12254   0.12872   0.18816   0.20203   0.21168
 Alpha virt. eigenvalues --    0.24628   0.26879   0.28260   0.30422   0.30824
 Alpha virt. eigenvalues --    0.31212   0.32497   0.33147   0.34016   0.34296
 Alpha virt. eigenvalues --    0.39032   0.40797   0.42891   0.43468   0.46254
 Alpha virt. eigenvalues --    0.48176   0.50841   0.52992   0.59094   0.59915
 Alpha virt. eigenvalues --    0.60348   0.62294   0.64189   0.68705   0.71315
 Alpha virt. eigenvalues --    0.72841   0.73151   0.74726   0.75722   0.76201
 Alpha virt. eigenvalues --    0.77914   0.79568   0.81410   0.82640   0.82844
 Alpha virt. eigenvalues --    0.83169   0.84960   0.85481   0.87473   0.88747
 Alpha virt. eigenvalues --    0.91307   0.94481   0.94999   0.96485   0.98972
 Alpha virt. eigenvalues --    1.01183   1.01717   1.06156   1.06966   1.08245
 Alpha virt. eigenvalues --    1.09035   1.10570   1.12017   1.12830   1.13870
 Alpha virt. eigenvalues --    1.15635   1.15835   1.16665   1.17651   1.18642
 Alpha virt. eigenvalues --    1.19623   1.20106   1.20471   1.21079   1.22259
 Alpha virt. eigenvalues --    1.24615   1.29065   1.33374   1.35328   1.37763
 Alpha virt. eigenvalues --    1.39094   1.40099   1.42821   1.45985   1.48654
 Alpha virt. eigenvalues --    1.49111   1.52782   1.56791   1.60942   1.64306
 Alpha virt. eigenvalues --    1.65161   1.67976   1.70647   1.72050   1.73901
 Alpha virt. eigenvalues --    1.75709   1.76403   1.79773   1.83689   1.84139
 Alpha virt. eigenvalues --    1.93707   2.02168   2.03274   2.07105   2.10374
 Alpha virt. eigenvalues --    2.11386   2.12544   2.13120   2.15470   2.19866
 Alpha virt. eigenvalues --    2.22613   2.23974   2.25860   2.28947   2.30610
 Alpha virt. eigenvalues --    2.35550   2.37193   2.38583   2.41416   2.44426
 Alpha virt. eigenvalues --    2.45083   2.49438   2.53579   2.54254   2.54984
 Alpha virt. eigenvalues --    2.59666   2.61529   2.63871   2.65455   2.68866
 Alpha virt. eigenvalues --    2.72487   2.74115   2.78490   2.88007   2.90248
 Alpha virt. eigenvalues --    2.92742   2.97393   3.02017   3.03517   3.04863
 Alpha virt. eigenvalues --    3.08865   3.10330   3.14223   3.20698   3.25009
 Alpha virt. eigenvalues --    3.35891   3.42061   3.49773   3.74549   4.36757
 Alpha virt. eigenvalues --    4.46993   4.48123   4.51653   4.55763   4.60544
 Alpha virt. eigenvalues --    4.69755   4.73004   4.78655   4.83789   4.92130
 Alpha virt. eigenvalues --    5.11722
          Condensed to atoms (all electrons):
              1          2          3          4          5          6
     1  C    4.890497   0.537001   0.546139  -0.034431  -0.040858  -0.040095
     2  C    0.537001   4.928773  -0.045970  -0.044524   0.568055  -0.034516
     3  C    0.546139  -0.045970   4.944900  -0.046171  -0.029757   0.523529
     4  C   -0.034431  -0.044524  -0.046171   5.011807   0.536182   0.515414
     5  C   -0.040858   0.568055  -0.029757   0.536182   4.878133  -0.038310
     6  C   -0.040095  -0.034516   0.523529   0.515414  -0.038310   5.038519
     7  C   -0.000001  -0.000065   0.000000   0.001950  -0.002285   0.000073
     8  C    0.000000  -0.000005   0.000000   0.000012  -0.000408   0.000002
     9  C    0.002899  -0.034803   0.000237  -0.043019   0.326542   0.001767
    10  N   -0.000015  -0.000987  -0.000005   0.000118  -0.072255  -0.000024
    11  O    0.000000  -0.000031   0.000000  -0.001810  -0.002710   0.000115
    12  Cl   0.002735   0.000198  -0.064556  -0.064098   0.002599   0.216785
    13  H    0.381763  -0.028103  -0.029312   0.000188   0.001991   0.002492
    14  H   -0.028234   0.379293   0.002487   0.002957  -0.032306   0.000098
    15  H   -0.025627   0.002263   0.382044   0.002019   0.000157  -0.029666
    16  H    0.000036   0.002206   0.001923   0.368027  -0.023877  -0.025219
    17  H    0.000000   0.000000   0.000000   0.000012   0.000043   0.000000
    18  H    0.000000   0.000000   0.000000   0.000001  -0.000004   0.000000
    19  H    0.000000   0.000001   0.000000  -0.000006   0.000012   0.000000
    20  H   -0.000060   0.001291   0.000001  -0.002739  -0.039386   0.000027
    21  H    0.000262  -0.000759  -0.000020   0.003347  -0.060404  -0.000016
    22  H    0.000000   0.000655  -0.000006   0.000375   0.001462  -0.000006
              7          8          9         10         11         12
     1  C   -0.000001   0.000000   0.002899  -0.000015   0.000000   0.002735
     2  C   -0.000065  -0.000005  -0.034803  -0.000987  -0.000031   0.000198
     3  C    0.000000   0.000000   0.000237  -0.000005   0.000000  -0.064556
     4  C    0.001950   0.000012  -0.043019   0.000118  -0.001810  -0.064098
     5  C   -0.002285  -0.000408   0.326542  -0.072255  -0.002710   0.002599
     6  C    0.000073   0.000002   0.001767  -0.000024   0.000115   0.216785
     7  C    4.161914   0.360229  -0.025451   0.278653   0.568060  -0.000004
     8  C    0.360229   5.244734   0.004562  -0.101709  -0.067251   0.000000
     9  C   -0.025451   0.004562   4.937380   0.193235   0.002845  -0.000100
    10  N    0.278653  -0.101709   0.193235   7.349665  -0.095738   0.000008
    11  O    0.568060  -0.067251   0.002845  -0.095738   8.202985  -0.000006
    12  Cl  -0.000004   0.000000  -0.000100   0.000008  -0.000006  16.914004
    13  H    0.000000   0.000000  -0.000103   0.000001   0.000000  -0.000088
    14  H   -0.000001   0.000000  -0.002576   0.000091   0.000000   0.000007
    15  H    0.000000   0.000000   0.000005   0.000000   0.000000   0.000361
    16  H    0.001519   0.000145  -0.000297  -0.002400   0.008898   0.000180
    17  H   -0.027381   0.379765  -0.000110   0.001165   0.000316   0.000000
    18  H   -0.027608   0.381185  -0.000117   0.001958   0.000945   0.000000
    19  H   -0.039055   0.374577   0.000029   0.005324   0.002491   0.000000
    20  H   -0.000645   0.000395   0.407525  -0.041640   0.008052  -0.000001
    21  H    0.002293  -0.000031   0.416870  -0.041517   0.000396   0.000002
    22  H   -0.015217   0.000405  -0.021957   0.317291   0.002154   0.000000
             13         14         15         16         17         18
     1  C    0.381763  -0.028234  -0.025627   0.000036   0.000000   0.000000
     2  C   -0.028103   0.379293   0.002263   0.002206   0.000000   0.000000
     3  C   -0.029312   0.002487   0.382044   0.001923   0.000000   0.000000
     4  C    0.000188   0.002957   0.002019   0.368027   0.000012   0.000001
     5  C    0.001991  -0.032306   0.000157  -0.023877   0.000043  -0.000004
     6  C    0.002492   0.000098  -0.029666  -0.025219   0.000000   0.000000
     7  C    0.000000  -0.000001   0.000000   0.001519  -0.027381  -0.027608
     8  C    0.000000   0.000000   0.000000   0.000145   0.379765   0.381185
     9  C   -0.000103  -0.002576   0.000005  -0.000297  -0.000110  -0.000117
    10  N    0.000001   0.000091   0.000000  -0.002400   0.001165   0.001958
    11  O    0.000000   0.000000   0.000000   0.008898   0.000316   0.000945
    12  Cl  -0.000088   0.000007   0.000361   0.000180   0.000000   0.000000
    13  H    0.461619  -0.001282  -0.001576   0.000007   0.000000   0.000000
    14  H   -0.001282   0.473031  -0.000092  -0.000090   0.000000   0.000000
    15  H   -0.001576  -0.000092   0.439639  -0.000081   0.000000   0.000000
    16  H    0.000007  -0.000090  -0.000081   0.397140  -0.000015   0.000000
    17  H    0.000000   0.000000   0.000000  -0.000015   0.478597  -0.019265
    18  H    0.000000   0.000000   0.000000   0.000000  -0.019265   0.472863
    19  H    0.000000   0.000000   0.000000  -0.000008  -0.022923  -0.022713
    20  H    0.000002   0.000030   0.000000   0.000378  -0.000009   0.000003
    21  H   -0.000003   0.002687   0.000000  -0.000042  -0.000001   0.000006
    22  H    0.000000   0.000026   0.000000  -0.000048  -0.000077   0.000065
             19         20         21         22
     1  C    0.000000  -0.000060   0.000262   0.000000
     2  C    0.000001   0.001291  -0.000759   0.000655
     3  C    0.000000   0.000001  -0.000020  -0.000006
     4  C   -0.000006  -0.002739   0.003347   0.000375
     5  C    0.000012  -0.039386  -0.060404   0.001462
     6  C    0.000000   0.000027  -0.000016  -0.000006
     7  C   -0.039055  -0.000645   0.002293  -0.015217
     8  C    0.374577   0.000395  -0.000031   0.000405
     9  C    0.000029   0.407525   0.416870  -0.021957
    10  N    0.005324  -0.041640  -0.041517   0.317291
    11  O    0.002491   0.008052   0.000396   0.002154
    12  Cl   0.000000  -0.000001   0.000002   0.000000
    13  H    0.000000   0.000002  -0.000003   0.000000
    14  H    0.000000   0.000030   0.002687   0.000026
    15  H    0.000000   0.000000   0.000000   0.000000
    16  H   -0.000008   0.000378  -0.000042  -0.000048
    17  H   -0.022923  -0.000009  -0.000001  -0.000077
    18  H   -0.022713   0.000003   0.000006   0.000065
    19  H    0.532567  -0.000024  -0.000024   0.001188
    20  H   -0.000024   0.441439  -0.019573   0.002890
    21  H   -0.000024  -0.019573   0.509902  -0.001671
    22  H    0.001188   0.002890  -0.001671   0.327840
 Mulliken atomic charges:
              1
     1  C   -0.192009
     2  C   -0.229972
     3  C   -0.185464
     4  C   -0.205612
     5  C    0.027382
     6  C   -0.130967
     7  C    0.763022
     8  C   -0.576609
     9  C   -0.165365
    10  N   -0.791219
    11  O   -0.629712
    12  Cl  -0.008024
    13  H    0.212403
    14  H    0.203875
    15  H    0.230557
    16  H    0.271618
    17  H    0.209883
    18  H    0.212680
    19  H    0.168563
    20  H    0.242044
    21  H    0.188296
    22  H    0.384630
 Sum of Mulliken atomic charges =   0.00000
 Mulliken charges with hydrogens summed into heavy atoms:
              1
     1  C    0.020394
     2  C   -0.026097
     3  C    0.045092
     4  C    0.066006
     5  C    0.027382
     6  C   -0.130967
     7  C    0.763022
     8  C    0.014517
     9  C    0.264974
    10  N   -0.406589
    11  O   -0.629712
    12  Cl  -0.008024
 Sum of Mulliken charges with hydrogens summed into heavy atoms =   0.00000
 DipInt: DoE/N= T F RetVal/Mat= T F Init=T NMatP=  1 IDeriv=0 Min/MaxMlt=  0  4
 Entering OneElI...
 OneElI was handed    33445144 working-precision words.
 Multipole integrals L=0 to 4 MinM= 0 MaxM= 0.
 Requested accuracy = 0.1000D-12
 PrsmSu:  NPrtUS=   1 ThrOK=F IAlg=1 NPAlg=1 LenDen=           0.
 Prism:   IPart=     0 DynPar=F LinDyn=F Incr=          21.
 PRISM was handed    33247872 working-precision words and  2127 shell-pairs
 IPart=  0 NShTot=        2127 NBatch=          61 AvBLen=        34.9
 PrSmSu:  NxtVal=             22.
 Electronic moments (au):
        -96.00000000          0.42799981          1.64133271          1.20130524
      -2010.85455144       -756.64599638       -185.43920582         -0.04751458
          5.19079398         -1.39918853      -2208.37362263       -214.58872534
        -34.13958705       1303.28338318       1865.59464721       -954.69836072
       -522.69926846         44.30473308        -18.74483639        287.46812511
     -69160.42701558     -12363.25441826      -1280.99445461       4107.08802702
      -4266.97751109      -1357.36411581       -123.89800805       -469.78257933
        159.54876475     -14445.22774760      -5233.06665245      -1196.48995543
        334.58198447        508.76242419        884.38278957
 Electronic spatial extent (au):  <R**2>=           2952.9398
 DipInt: DoE/N= F T RetVal/Mat= T F Init=T NMatP=  1 IDeriv=0 Min/MaxMlt=  0  4
 Nuclear    moments (au):
         96.00000000          0.00000000          0.00000000          0.00000000
       1956.58004120        700.45596461        126.22242219          0.00000000
          0.00000000          0.00000000       2233.47807830        228.24720025
         34.77631150      -1302.19451826      -1842.02442644       1003.81731533
        533.24561610        -44.93640655         28.99319328       -303.80105699
      62522.88495389       9882.17412547        635.65124114      -4198.00225808
       4371.39467278       1388.24381962        140.08568044        490.18712396
       -156.32859701      12830.22467358       3917.86379412        631.75543826
       -356.78490832       -490.11650512       -831.27293531
 Total      moments (au):
          0.00000000          0.42799981          1.64133271          1.20130524
        -54.27451025        -56.19003177        -59.21678363         -0.04751458
          5.19079398         -1.39918853         25.10445567         13.65847491
          0.63672444          1.08886491         23.57022077         49.11895461
         10.54634764         -0.63167347         10.24835689        -16.33293188
      -6637.54206169      -2481.08029279       -645.34321346        -90.91423106
        104.41716170         30.87970380         16.18767239         20.40454463
          3.22016775      -1615.00307403      -1315.20285833       -564.73451718
        -22.20292385         18.64591908         53.10985426
 Traceless Quadrup. (au):
          2.28593163          0.37041011         -2.65634175         -0.04751458
          5.19079398         -1.39918853
 Charge=              0.0000 electrons
 Dipole moment (field-independent basis, Debye):
    X=              1.0879    Y=              4.1719    Z=              3.0534  Tot=              5.2831
 Quadrupole moment (field-independent basis, Debye-Ang):
   XX=            -73.0011   YY=            -75.5775   ZZ=            -79.6486
   XY=             -0.0639   XZ=              6.9818   YZ=             -1.8820
 Traceless Quadrupole moment (field-independent basis, Debye-Ang):
   XX=              3.0747   YY=              0.4982   ZZ=             -3.5729
   XY=             -0.0639   XZ=              6.9818   YZ=             -1.8820
 Octapole moment (field-independent basis, Debye-Ang**2):
  XXX=             17.8684  YYY=              9.7216  ZZZ=              0.4532  XYY=              0.7750
  XXY=             16.7764  XXZ=             34.9610  XZZ=              7.5065  YZZ=             -0.4496
  YYZ=              7.2944  XYZ=            -11.6252
 Hexadecapole moment (field-independent basis, Debye-Ang**3):
 XXXX=          -2500.0165 YYYY=           -934.4937 ZZZZ=           -243.0672 XXXY=            -34.2427
 XXXZ=             39.3285 YYYX=             11.6308 YYYZ=              6.0971 ZZZX=              7.6853
 ZZZY=              1.2129 XXYY=           -608.2876 XXZZ=           -495.3684 YYZZ=           -212.7061
 XXYZ=             -8.3627 YYXZ=              7.0229 ZZXY=             20.0037
 N-N= 7.361521801581D+02 E-N=-3.677987497809D+03  KE= 9.340876283675D+02
 Entering OneElI...
 OneElI was handed    33361158 working-precision words.
 Calculate electrostatic properties
    NBasis =   204  MinDer = 0  MaxDer = 0
    NGrid  =    22  NMatD  =   1
 Requested accuracy = 0.1000D-12
 PrsmSu:  NPrtUS=   2 ThrOK=T IAlg=1 NPAlg=1 LenDen=           0.
 Prism:   IPart=     0 DynPar=F LinDyn=F Incr=         214.
 PRISM was handed    16557611 working-precision words and  1947 shell-pairs
 PRISM was handed    16557611 working-precision words and  1947 shell-pairs
 IPart=  0 NShTot=       21670 NBatch=         985 AvBLen=        22.0
 IPart=  1 NShTot=       21164 NBatch=         962 AvBLen=        22.0
 PrSmSu:  NxtVal=            429.
 --------------------------------------------------------
       Center         ----      EFG at Nuclei      ----
                      3XX-RR        3YY-RR        3ZZ-RR
 --------------------------------------------------------
     1   Atom        0.138872      0.149886     -0.288757
     2   Atom        0.143025      0.115442     -0.258468
     3   Atom        0.097115      0.156966     -0.254082
     4   Atom        0.087824      0.175577     -0.263401
     5   Atom        0.104802      0.189237     -0.294039
     6   Atom        0.266515     -0.204688     -0.061827
     7   Atom       -0.218468      0.022538      0.195931
     8   Atom        0.002871      0.023684     -0.026555
     9   Atom       -0.086852      0.087604     -0.000752
    10   Atom        0.387838     -0.119465     -0.268373
    11   Atom        0.238351      0.343246     -0.581597
    12   Atom        1.110640     -2.870521      1.759881
    13   Atom       -0.006980     -0.121682      0.128662
    14   Atom        0.081451     -0.245393      0.163942
    15   Atom       -0.261513      0.129269      0.132244
    16   Atom       -0.001523     -0.122090      0.123613
    17   Atom        0.078430     -0.148506      0.070077
    18   Atom       -0.197155      0.124079      0.073076
    19   Atom        0.139166     -0.063722     -0.075444
    20   Atom        0.121572      0.075326     -0.196899
    21   Atom        0.125604     -0.271331      0.145727
    22   Atom        0.202250      0.071839     -0.274088
 --------------------------------------------------------
                        XY            XZ            YZ
 --------------------------------------------------------
     1   Atom        0.040840     -0.140706      0.051022
     2   Atom       -0.006489     -0.134127      0.053000
     3   Atom        0.045812     -0.113377      0.045081
     4   Atom        0.008756     -0.122540      0.061408
     5   Atom       -0.004354     -0.122811      0.069483
     6   Atom       -0.215312     -0.143968      0.052299
     7   Atom       -0.245188      0.344354      0.179778
     8   Atom        0.012152     -0.053593      0.010970
     9   Atom        0.068652     -0.167203      0.157963
    10   Atom        0.582783     -0.470530     -0.290333
    11   Atom       -1.050369      0.451512     -0.698609
    12   Atom       -1.905418     -0.060871     -0.033905
    13   Atom        0.199315      0.077995     -0.097651
    14   Atom       -0.153977      0.005952     -0.005856
    15   Atom       -0.073527      0.120534      0.017473
    16   Atom        0.190279      0.075789     -0.097780
    17   Atom       -0.142486      0.067106      0.154858
    18   Atom        0.101908      0.154879     -0.042958
    19   Atom       -0.038282     -0.053744     -0.216358
    20   Atom        0.034442      0.063872     -0.157126
    21   Atom       -0.071654      0.000856      0.039910
    22   Atom        0.009415     -0.073396     -0.233786
 --------------------------------------------------------


 ---------------------------------------------------------------------------------
              Nuclear Quadrupole in Principal Axis System
 ---------------------------------------------------------------------------------

       Atom             a.u.   MegaHertz   Gauss  10(-4) cm-1        Axes

              Baa    -0.3384   -45.415   -16.205   -15.149  0.2903 -0.1234  0.9489
     1 C(13)  Bbb     0.1422    19.082     6.809     6.365 -0.4772  0.8409  0.2554
              Bcc     0.1962    26.333     9.396     8.784  0.8295  0.5270 -0.1852
 
              Baa    -0.3048   -40.907   -14.597   -13.645  0.2834 -0.1157  0.9520
     2 C(13)  Bbb     0.1145    15.361     5.481     5.124  0.3156  0.9486  0.0213
              Bcc     0.1904    25.545     9.115     8.521  0.9056 -0.2945 -0.3054
 
              Baa    -0.2945   -39.523   -14.103   -13.184  0.2893 -0.1241  0.9492
     3 C(13)  Bbb     0.1121    15.042     5.367     5.018  0.8034 -0.5076 -0.3112
              Bcc     0.1824    24.481     8.736     8.166  0.5204  0.8526 -0.0471
 
              Baa    -0.3097   -41.552   -14.827   -13.860  0.2948 -0.1252  0.9473
     4 C(13)  Bbb     0.1247    16.727     5.969     5.580  0.9476  0.1662 -0.2729
              Bcc     0.1850    24.825     8.858     8.281 -0.1233  0.9781  0.1676
 
              Baa    -0.3370   -45.227   -16.138   -15.086  0.2646 -0.1241  0.9563
     5 C(13)  Bbb     0.1316    17.660     6.302     5.891  0.9212  0.3259 -0.2126
              Bcc     0.2054    27.567     9.836     9.195 -0.2853  0.9372  0.2005
 
              Baa    -0.2883   -38.689   -13.805   -12.905  0.3657  0.9306  0.0176
     6 C(13)  Bbb    -0.1125   -15.092    -5.385    -5.034  0.2864 -0.1305  0.9492
              Bcc     0.4008    53.780    19.190    17.939  0.8856 -0.3421 -0.3143
 
              Baa    -0.5679   -76.205   -27.192   -25.419  0.7662  0.4560 -0.4528
     7 C(13)  Bbb     0.1723    23.127     8.252     7.714 -0.4658  0.8795  0.0975
              Bcc     0.3955    53.079    18.940    17.705  0.4427  0.1362  0.8863
 
              Baa    -0.0702    -9.417    -3.360    -3.141  0.6011 -0.1691  0.7810
     8 C(13)  Bbb     0.0259     3.482     1.242     1.161 -0.0293  0.9720  0.2330
              Bcc     0.0442     5.935     2.118     1.980  0.7986  0.1630 -0.5794
 
              Baa    -0.2812   -37.740   -13.466   -12.589  0.6755 -0.3929  0.6240
     9 C(13)  Bbb     0.0637     8.554     3.052     2.853  0.7067  0.5865 -0.3957
              Bcc     0.2175    29.186    10.414     9.735 -0.2104  0.7083  0.6739
 
              Baa    -0.5187   -20.003    -7.138    -6.672  0.6004 -0.3556  0.7163
    10 N(14)  Bbb    -0.4903   -18.910    -6.747    -6.308 -0.2167  0.7898  0.5738
              Bcc     1.0089    38.913    13.885    12.980  0.7698  0.4997 -0.3971
 
              Baa    -0.9788    70.824    25.272    23.624  0.2122  0.5830  0.7842
    11 O(17)  Bbb    -0.6652    48.134    17.176    16.056  0.7467  0.4209 -0.5150
              Bcc     1.6440  -118.959   -42.447   -39.680 -0.6304  0.6949 -0.3460
 
              Baa    -3.6360  -190.301   -67.904   -63.478  0.3726  0.9279  0.0100
    12 Cl(35) Bbb     1.7456    91.362    32.600    30.475  0.2931 -0.1280  0.9475
              Bcc     1.8904    98.939    35.304    33.003  0.8805 -0.3501 -0.3197
 
              Baa    -0.3075  -164.075   -58.546   -54.730 -0.5799  0.7667  0.2754
    13 H(1)   Bbb     0.1425    76.049    27.136    25.367  0.7623  0.6300 -0.1486
              Bcc     0.1650    88.026    31.410    29.362  0.2874 -0.1237  0.9498
 
              Baa    -0.3065  -163.549   -58.358   -54.554  0.3688  0.9295  0.0069
    14 H(1)   Bbb     0.1401    74.743    26.670    24.932  0.8855 -0.3491 -0.3066
              Bcc     0.1664    88.806    31.688    29.622  0.2826 -0.1192  0.9518
 
              Baa    -0.3085  -164.604   -58.735   -54.906  0.9488  0.1700 -0.2662
    15 H(1)   Bbb     0.1419    75.713    27.016    25.255 -0.1284  0.9776  0.1667
              Bcc     0.1666    88.891    31.719    29.651  0.2886 -0.1240  0.9494
 
              Baa    -0.2977  -158.843   -56.679   -52.984 -0.5686  0.7729  0.2817
    16 H(1)   Bbb     0.1373    73.272    26.145    24.441  0.7737  0.6188 -0.1361
              Bcc     0.1604    85.571    30.534    28.543  0.2794 -0.1406  0.9498
 
              Baa    -0.2951  -157.443   -56.180   -52.517  0.3884  0.8206 -0.4194
    17 H(1)   Bbb     0.1414    75.426    26.914    25.159  0.7843 -0.0554  0.6179
              Bcc     0.1537    82.017    29.266    27.358 -0.4838  0.5689  0.6650
 
              Baa    -0.2966  -158.264   -56.473   -52.791  0.8812 -0.2542 -0.3987
    18 H(1)   Bbb     0.1427    76.112    27.159    25.388  0.3335 -0.2635  0.9052
              Bcc     0.1540    82.152    29.314    27.403  0.3351  0.9306  0.1474
 
              Baa    -0.2958  -157.826   -56.316   -52.645  0.1483  0.6873  0.7110
    19 H(1)   Bbb     0.1379    73.581    26.255    24.544  0.6614 -0.6035  0.4453
              Bcc     0.1579    84.246    30.061    28.101  0.7352  0.4042 -0.5442
 
              Baa    -0.2817  -150.287   -53.626   -50.130 -0.1768  0.4107  0.8945
    20 H(1)   Bbb     0.1330    70.961    25.321    23.670  0.9333 -0.2186  0.2848
              Bcc     0.1487    79.326    28.305    26.460  0.3125  0.8852 -0.3447
 
              Baa    -0.2875  -153.378   -54.729   -51.161  0.1704  0.9812 -0.0907
    21 H(1)   Bbb     0.1355    72.309    25.802    24.120  0.9095 -0.1212  0.3976
              Bcc     0.1519    81.068    28.927    27.041 -0.3792  0.1503  0.9130
 
              Baa    -0.3982  -212.475   -75.816   -70.874  0.1020  0.4413  0.8915
    22 H(1)   Bbb     0.1568    83.675    29.857    27.911 -0.6198  0.7292 -0.2900
              Bcc     0.2414   128.800    45.959    42.963  0.7781  0.5230 -0.3480
 

 ---------------------------------------------------------------------------------

 No NMR shielding tensors so no spin-rotation constants.
 Leave Link  601 at Sat Feb 17 20:56:32 2018, MaxMem=   33554432 cpu:       0.5
 Merz-Kollman atomic radii used.
 Read replacement radii for each type of atom:
 Atom Element Radius
    1     6    1.50
    2     6    1.50
    3     6    1.50
    4     6    1.50
    5     6    1.50
    6     6    1.50
    7     6    1.50
    8     6    1.50
    9     6    1.50
   10     7    1.50
   11     8    1.40
   12    17    1.70
   13     1    1.20
   14     1    1.20
   15     1    1.20
   16     1    1.20
   17     1    1.20
   18     1    1.20
   19     1    1.20
   20     1    1.20
   21     1    1.20
   22     1    1.20
 Generate VDW surfaces: Layer= 4 Dens= 1 Start= 1.400 Inc= 0.200

 **********************************************************************

            Electrostatic Properties Using The SCF Density

 **********************************************************************

       Atomic Center    1 is at  -2.251854  1.945345  0.414060
       Atomic Center    2 is at  -0.924988  2.171520  0.040833
       Atomic Center    3 is at  -2.776555  0.654398  0.407168
       Atomic Center    4 is at  -0.628226 -0.193600 -0.360942
       Atomic Center    5 is at  -0.105082  1.107990 -0.347336
       Atomic Center    6 is at  -1.950895 -0.401810  0.016966
       Atomic Center    7 is at   2.880396 -0.450922  0.000917
       Atomic Center    8 is at   3.805157 -0.924782  1.111784
       Atomic Center    9 is at   1.342279  1.339435 -0.745221
       Atomic Center   10 is at   2.307992  0.778595  0.194962
       Atomic Center   11 is at   2.672999 -1.125302 -1.001700
       Atomic Center   12 is at  -2.604683 -2.036775 -0.002469
       Atomic Center   13 is at  -2.882542  2.778086  0.712993
       Atomic Center   14 is at  -0.526610  3.183477  0.047806
       Atomic Center   15 is at  -3.805085  0.464739  0.694765
       Atomic Center   16 is at  -0.003720 -1.026063 -0.669226
       Atomic Center   17 is at   3.379403 -1.825286  1.566318
       Atomic Center   18 is at   4.765699 -1.205495  0.670469
       Atomic Center   19 is at   3.975896 -0.178807  1.894330
       Atomic Center   20 is at   1.553644  0.864473 -1.706691
       Atomic Center   21 is at   1.535117  2.413196 -0.845871
       Atomic Center   22 is at   2.406483  1.223669  1.096567
      ESP Fit Center   23 is at  -2.251854  1.945345  2.514060
      ESP Fit Center   24 is at  -1.201854  1.945345  2.232714
      ESP Fit Center   25 is at  -1.726854  2.854671  2.232714
      ESP Fit Center   26 is at  -3.301854  1.945345  2.232714
      ESP Fit Center   27 is at  -1.726854  1.036018  2.232714
      ESP Fit Center   28 is at  -2.510676  3.745487 -0.635940
      ESP Fit Center   29 is at  -3.996840  2.457719 -0.635940
      ESP Fit Center   30 is at  -2.776854  2.854671 -1.404593
      ESP Fit Center   31 is at  -3.301854  1.945345 -1.404593
      ESP Fit Center   32 is at  -2.251854  1.945345 -1.685940
      ESP Fit Center   33 is at  -0.924988  2.171520  2.140833
      ESP Fit Center   34 is at   0.125012  2.171520  1.859486
      ESP Fit Center   35 is at  -0.399988  3.080847  1.859486
      ESP Fit Center   36 is at  -0.399988  1.262193  1.859486
      ESP Fit Center   37 is at  -2.115953  3.545967 -1.009167
      ESP Fit Center   38 is at  -0.399988  3.080847 -1.777821
      ESP Fit Center   39 is at  -1.449988  3.080847 -1.777821
      ESP Fit Center   40 is at  -1.974988  2.171520 -1.777821
      ESP Fit Center   41 is at  -0.924988  2.171520 -2.059167
      ESP Fit Center   42 is at  -2.776555  0.654398  2.507168
      ESP Fit Center   43 is at  -1.726555  0.654398  2.225822
      ESP Fit Center   44 is at  -3.301555  1.563725  2.225822
      ESP Fit Center   45 is at  -3.301555 -0.254929  2.225822
      ESP Fit Center   46 is at  -2.251555 -0.254929  2.225822
      ESP Fit Center   47 is at  -3.301555  1.563725 -1.411485
      ESP Fit Center   48 is at  -3.826555  0.654398 -1.411485
      ESP Fit Center   49 is at  -2.776555  0.654398 -1.692832
      ESP Fit Center   50 is at  -0.628226 -0.193600  1.739058
      ESP Fit Center   51 is at   0.421774 -0.193600  1.457712
      ESP Fit Center   52 is at  -0.103226 -1.102927  1.457712
      ESP Fit Center   53 is at  -1.153226  0.715726 -2.179595
      ESP Fit Center   54 is at  -1.678226 -0.193600 -2.179595
      ESP Fit Center   55 is at  -1.153226 -1.102927 -2.179595
      ESP Fit Center   56 is at  -0.628226 -0.193600 -2.460942
      ESP Fit Center   57 is at  -0.105082  1.107990  1.752664
      ESP Fit Center   58 is at   0.419918  0.198664  1.471318
      ESP Fit Center   59 is at  -0.630082  2.017317 -2.165989
      ESP Fit Center   60 is at  -1.155082  1.107990 -2.165989
      ESP Fit Center   61 is at  -0.105082  1.107990 -2.447336
      ESP Fit Center   62 is at  -1.950895 -0.401810  2.116966
      ESP Fit Center   63 is at  -0.900895 -0.401810  1.835619
      ESP Fit Center   64 is at  -2.475895  0.507517 -1.801688
      ESP Fit Center   65 is at  -3.000895 -0.401810 -1.801688
      ESP Fit Center   66 is at  -1.950895 -0.401810 -2.083034
      ESP Fit Center   67 is at   1.135411 -0.963296  1.050917
      ESP Fit Center   68 is at   1.689432 -1.825369  1.050917
      ESP Fit Center   69 is at   4.699050 -0.450922 -1.049083
      ESP Fit Center   70 is at   4.410345  0.532316 -1.049083
      ESP Fit Center   71 is at   2.755157 -0.924782  2.930437
      ESP Fit Center   72 is at   5.623810 -0.924782  2.161784
      ESP Fit Center   73 is at   2.060172 -0.412408  2.161784
      ESP Fit Center   74 is at   5.335105 -1.908020  2.161784
      ESP Fit Center   75 is at   3.546335 -2.724924  0.061784
      ESP Fit Center   76 is at   0.151314  2.713881 -1.795221
      ESP Fit Center   77 is at   0.817279  2.248761 -2.563874
      ESP Fit Center   78 is at   1.782992 -0.130732  2.013615
      ESP Fit Center   79 is at   1.117027 -0.595851  1.244962
      ESP Fit Center   80 is at   4.167449  1.754514  0.194962
      ESP Fit Center   81 is at   3.500928  2.506861  0.194962
      ESP Fit Center   82 is at   3.837940  1.761833 -0.855038
      ESP Fit Center   83 is at   1.299765 -2.123014 -0.021700
      ESP Fit Center   84 is at   2.148470 -2.739635 -0.021700
      ESP Fit Center   85 is at   3.197527 -2.739635 -0.021700
      ESP Fit Center   86 is at   1.692999 -2.822712 -1.001700
      ESP Fit Center   87 is at   2.672999 -3.085302 -1.001700
      ESP Fit Center   88 is at   3.652999 -2.822712 -1.001700
      ESP Fit Center   89 is at   4.370408 -2.105302 -1.001700
      ESP Fit Center   90 is at   4.370408 -1.125302 -1.981700
      ESP Fit Center   91 is at   4.046232 -0.127589 -1.981700
      ESP Fit Center   92 is at   3.197527  0.489031 -1.981700
      ESP Fit Center   93 is at   1.299765 -2.123014 -1.981700
      ESP Fit Center   94 is at   2.148470 -2.739635 -1.981700
      ESP Fit Center   95 is at   3.197527 -2.739635 -1.981700
      ESP Fit Center   96 is at   4.046232 -2.123014 -1.981700
      ESP Fit Center   97 is at   3.652999 -1.125302 -2.699109
      ESP Fit Center   98 is at   3.162999 -0.276597 -2.699109
      ESP Fit Center   99 is at   1.692999 -1.125302 -2.699109
      ESP Fit Center  100 is at   2.182999 -1.974007 -2.699109
      ESP Fit Center  101 is at   3.162999 -1.974007 -2.699109
      ESP Fit Center  102 is at   2.672999 -1.125302 -2.961700
      ESP Fit Center  103 is at  -2.604683 -2.036775  2.377531
      ESP Fit Center  104 is at  -1.572039 -2.036775  2.141837
      ESP Fit Center  105 is at  -2.088361 -1.142480  2.141837
      ESP Fit Center  106 is at  -3.121004 -1.142480  2.141837
      ESP Fit Center  107 is at  -3.637326 -2.036775  2.141837
      ESP Fit Center  108 is at  -3.121004 -2.931071  2.141837
      ESP Fit Center  109 is at  -2.088361 -2.931071  2.141837
      ESP Fit Center  110 is at  -0.743924 -2.036775  1.481437
      ESP Fit Center  111 is at  -4.465441 -2.036775  1.481437
      ESP Fit Center  112 is at  -4.110068 -3.130502  1.481437
      ESP Fit Center  113 is at  -3.179689 -3.806462  1.481437
      ESP Fit Center  114 is at  -2.029676 -3.806462  1.481437
      ESP Fit Center  115 is at  -1.099297 -3.130502  1.481437
      ESP Fit Center  116 is at  -4.857586 -1.481484  0.527131
      ESP Fit Center  117 is at  -4.857586 -2.592066  0.527131
      ESP Fit Center  118 is at  -4.341473 -3.575438  0.527131
      ESP Fit Center  119 is at  -3.427482 -4.206320  0.527131
      ESP Fit Center  120 is at  -2.324998 -4.340186  0.527131
      ESP Fit Center  121 is at  -1.286586 -3.946368  0.527131
      ESP Fit Center  122 is at  -0.550134 -3.115086  0.527131
      ESP Fit Center  123 is at  -4.857586 -1.481484 -0.532069
      ESP Fit Center  124 is at  -4.857586 -2.592066 -0.532069
      ESP Fit Center  125 is at  -4.341473 -3.575438 -0.532069
      ESP Fit Center  126 is at  -3.427482 -4.206320 -0.532069
      ESP Fit Center  127 is at  -2.324998 -4.340186 -0.532069
      ESP Fit Center  128 is at  -1.286586 -3.946368 -0.532069
      ESP Fit Center  129 is at  -0.550134 -3.115086 -0.532069
      ESP Fit Center  130 is at  -4.110068 -0.943049 -1.486374
      ESP Fit Center  131 is at  -4.465441 -2.036775 -1.486374
      ESP Fit Center  132 is at  -4.110068 -3.130502 -1.486374
      ESP Fit Center  133 is at  -3.179689 -3.806462 -1.486374
      ESP Fit Center  134 is at  -2.029676 -3.806462 -1.486374
      ESP Fit Center  135 is at  -1.099297 -3.130502 -1.486374
      ESP Fit Center  136 is at  -1.572039 -2.036775 -2.146775
      ESP Fit Center  137 is at  -2.088361 -1.142480 -2.146775
      ESP Fit Center  138 is at  -3.121004 -1.142480 -2.146775
      ESP Fit Center  139 is at  -3.637326 -2.036775 -2.146775
      ESP Fit Center  140 is at  -3.121004 -2.931071 -2.146775
      ESP Fit Center  141 is at  -2.088361 -2.931071 -2.146775
      ESP Fit Center  142 is at  -2.604683 -2.036775 -2.382469
      ESP Fit Center  143 is at  -2.882542  2.778086  2.392993
      ESP Fit Center  144 is at  -2.577394  3.717235  2.072142
      ESP Fit Center  145 is at  -3.681429  3.358512  2.072142
      ESP Fit Center  146 is at  -3.681429  2.197660  2.072142
      ESP Fit Center  147 is at  -1.658575  3.805116  1.232142
      ESP Fit Center  148 is at  -2.605091  4.351587  1.232142
      ESP Fit Center  149 is at  -3.681429  4.161800  1.232142
      ESP Fit Center  150 is at  -4.383959  3.324557  1.232142
      ESP Fit Center  151 is at  -4.383959  2.231615  1.232142
      ESP Fit Center  152 is at  -2.605091  4.351587  0.193844
      ESP Fit Center  153 is at  -3.681429  4.161800  0.193844
      ESP Fit Center  154 is at  -4.383959  3.324557  0.193844
      ESP Fit Center  155 is at  -4.383959  2.231615  0.193844
      ESP Fit Center  156 is at  -3.681429  3.358512 -0.646156
      ESP Fit Center  157 is at   0.460869  3.183477  1.406954
      ESP Fit Center  158 is at  -0.221462  4.122626  1.406954
      ESP Fit Center  159 is at  -1.325497  3.763903  1.406954
      ESP Fit Center  160 is at   0.697357  4.210507  0.566954
      ESP Fit Center  161 is at  -0.249159  4.756978  0.566954
      ESP Fit Center  162 is at  -1.325497  4.567191  0.566954
      ESP Fit Center  163 is at   0.697357  4.210507 -0.471343
      ESP Fit Center  164 is at  -0.249159  4.756978 -0.471343
      ESP Fit Center  165 is at  -1.325497  4.567191 -0.471343
      ESP Fit Center  166 is at  -0.221462  4.122626 -1.311343
      ESP Fit Center  167 is at  -1.325497  3.763903 -1.311343
      ESP Fit Center  168 is at  -3.805085  0.464739  2.374765
      ESP Fit Center  169 is at  -4.603972  1.045165  2.053914
      ESP Fit Center  170 is at  -4.603972 -0.115687  2.053914
      ESP Fit Center  171 is at  -3.499937 -0.474410  2.053914
      ESP Fit Center  172 is at  -4.603972  1.848453  1.213914
      ESP Fit Center  173 is at  -5.306502  1.011210  1.213914
      ESP Fit Center  174 is at  -5.306502 -0.081732  1.213914
      ESP Fit Center  175 is at  -4.603972 -0.918975  1.213914
      ESP Fit Center  176 is at  -4.603972  1.848453  0.175616
      ESP Fit Center  177 is at  -5.306502  1.011210  0.175616
      ESP Fit Center  178 is at  -5.306502 -0.081732  0.175616
      ESP Fit Center  179 is at  -4.603972  1.045165 -0.664384
      ESP Fit Center  180 is at  -4.603972 -0.115687 -0.664384
      ESP Fit Center  181 is at   0.301428 -1.965212  0.689922
      ESP Fit Center  182 is at   0.273731 -2.599565 -0.150078
      ESP Fit Center  183 is at   0.273731 -2.599565 -1.188375
      ESP Fit Center  184 is at   0.983760 -1.026063 -2.028375
      ESP Fit Center  185 is at  -0.802607 -1.606489 -2.028375
      ESP Fit Center  186 is at   0.301428 -1.965212 -2.028375
      ESP Fit Center  187 is at  -0.003720 -1.026063 -2.349226
      ESP Fit Center  188 is at   3.379403 -1.825286  3.246318
      ESP Fit Center  189 is at   4.366882 -1.825286  2.925467
      ESP Fit Center  190 is at   2.580516 -1.244861  2.925467
      ESP Fit Center  191 is at   2.580516 -2.405712  2.925467
      ESP Fit Center  192 is at   3.684551 -2.764435  2.925467
      ESP Fit Center  193 is at   1.877986 -1.278815  2.085467
      ESP Fit Center  194 is at   1.877986 -2.371758  2.085467
      ESP Fit Center  195 is at   2.580516 -3.209000  2.085467
      ESP Fit Center  196 is at   3.656854 -3.398788  2.085467
      ESP Fit Center  197 is at   4.603370 -2.852316  2.085467
      ESP Fit Center  198 is at   1.877986 -2.371758  1.047170
      ESP Fit Center  199 is at   2.580516 -3.209000  1.047170
      ESP Fit Center  200 is at   3.656854 -3.398788  1.047170
      ESP Fit Center  201 is at   5.753179 -1.205495  2.029617
      ESP Fit Center  202 is at   6.363474 -1.205495  1.189617
      ESP Fit Center  203 is at   5.989666 -0.178465  1.189617
      ESP Fit Center  204 is at   5.043150 -2.778997  1.189617
      ESP Fit Center  205 is at   5.989666 -2.232525  1.189617
      ESP Fit Center  206 is at   6.363474 -1.205495  0.151320
      ESP Fit Center  207 is at   5.989666 -0.178465  0.151320
      ESP Fit Center  208 is at   5.043150 -2.778997  0.151320
      ESP Fit Center  209 is at   5.989666 -2.232525  0.151320
      ESP Fit Center  210 is at   5.753179 -1.205495 -0.688680
      ESP Fit Center  211 is at   5.070847 -0.266347 -0.688680
      ESP Fit Center  212 is at   5.070847 -2.144644 -0.688680
      ESP Fit Center  213 is at   4.765699 -1.205495 -1.009531
      ESP Fit Center  214 is at   3.975896 -0.178807  3.574330
      ESP Fit Center  215 is at   4.963375 -0.178807  3.253479
      ESP Fit Center  216 is at   4.281044  0.760341  3.253479
      ESP Fit Center  217 is at   3.177008  0.401619  3.253479
      ESP Fit Center  218 is at   3.177008 -0.759233  3.253479
      ESP Fit Center  219 is at   4.281044 -1.117956  3.253479
      ESP Fit Center  220 is at   5.573671 -0.178807  2.413479
      ESP Fit Center  221 is at   5.199862  0.848223  2.413479
      ESP Fit Center  222 is at   4.253346  1.394694  2.413479
      ESP Fit Center  223 is at   5.199862  0.848223  1.375182
      ESP Fit Center  224 is at   4.253346  1.394694  1.375182
      ESP Fit Center  225 is at   3.151419  0.864473 -2.225840
      ESP Fit Center  226 is at   2.777611  1.891503 -2.225840
      ESP Fit Center  227 is at   0.754757 -0.519241 -2.225840
      ESP Fit Center  228 is at   2.541123  0.864473 -3.065840
      ESP Fit Center  229 is at   1.858792  1.803622 -3.065840
      ESP Fit Center  230 is at   0.754757  1.444899 -3.065840
      ESP Fit Center  231 is at   0.754757  0.284047 -3.065840
      ESP Fit Center  232 is at   1.858792 -0.074675 -3.065840
      ESP Fit Center  233 is at   1.553644  0.864473 -3.386691
      ESP Fit Center  234 is at   1.840264  3.352344  0.513278
      ESP Fit Center  235 is at   2.759083  3.440226 -0.326722
      ESP Fit Center  236 is at   1.812567  3.986697 -0.326722
      ESP Fit Center  237 is at   3.132892  2.413196 -1.365019
      ESP Fit Center  238 is at   2.759083  3.440226 -1.365019
      ESP Fit Center  239 is at   1.812567  3.986697 -1.365019
      ESP Fit Center  240 is at   0.736229  3.796910 -1.365019
      ESP Fit Center  241 is at   2.522596  2.413196 -2.205019
      ESP Fit Center  242 is at   1.840264  3.352344 -2.205019
      ESP Fit Center  243 is at   0.736229  2.993622 -2.205019
      ESP Fit Center  244 is at   2.406483  1.223669  2.776567
      ESP Fit Center  245 is at   2.711631  2.162818  2.455715
      ESP Fit Center  246 is at   1.607596  1.804095  2.455715
      ESP Fit Center  247 is at   1.607596  0.643243  2.455715
      ESP Fit Center  248 is at   3.630450  2.250699  1.615715
      ESP Fit Center  249 is at   2.683934  2.797170  1.615715
      ESP Fit Center  250 is at   1.607596  2.607383  1.615715
      ESP Fit Center  251 is at   0.905066  1.770140  1.615715
      ESP Fit Center  252 is at  -2.251854  1.945345  2.814060
      ESP Fit Center  253 is at  -1.210533  1.945345  2.576386
      ESP Fit Center  254 is at  -1.731194  2.847155  2.576386
      ESP Fit Center  255 is at  -3.293175  1.945345  2.576386
      ESP Fit Center  256 is at  -1.731194  1.043534  2.576386
      ESP Fit Center  257 is at  -1.472372  3.652174  1.910436
      ESP Fit Center  258 is at  -2.518893  3.802641 -1.082315
      ESP Fit Center  259 is at  -3.480632  3.363430 -1.082315
      ESP Fit Center  260 is at  -4.052243  2.473986 -1.082315
      ESP Fit Center  261 is at  -2.772515  2.847155 -1.748265
      ESP Fit Center  262 is at  -3.293175  1.945345 -1.748265
      ESP Fit Center  263 is at  -2.251854  1.945345 -1.985940
      ESP Fit Center  264 is at  -0.924988  2.171520  2.440833
      ESP Fit Center  265 is at   0.116333  2.171520  2.203158
      ESP Fit Center  266 is at  -0.404327  3.073330  2.203158
      ESP Fit Center  267 is at  -0.404327  1.269710  2.203158
      ESP Fit Center  268 is at  -2.153766  3.589605 -1.455543
      ESP Fit Center  269 is at  -0.404327  3.073330 -2.121492
      ESP Fit Center  270 is at  -1.445648  3.073330 -2.121492
      ESP Fit Center  271 is at  -1.966309  2.171520 -2.121492
      ESP Fit Center  272 is at  -0.924988  2.171520 -2.359167
      ESP Fit Center  273 is at  -2.776555  0.654398  2.807168
      ESP Fit Center  274 is at  -1.735234  0.654398  2.569493
      ESP Fit Center  275 is at  -3.297215  1.556209  2.569493
      ESP Fit Center  276 is at  -3.297215 -0.247412  2.569493
      ESP Fit Center  277 is at  -2.255894 -0.247412  2.569493
      ESP Fit Center  278 is at  -4.576943  1.183040 -1.089207
      ESP Fit Center  279 is at  -4.576943  0.125756 -1.089207
      ESP Fit Center  280 is at  -3.297215  1.556209 -1.755157
      ESP Fit Center  281 is at  -3.817876  0.654398 -1.755157
      ESP Fit Center  282 is at  -2.776555  0.654398 -1.992832
      ESP Fit Center  283 is at  -0.628226 -0.193600  2.039058
      ESP Fit Center  284 is at   0.413095 -0.193600  1.801383
      ESP Fit Center  285 is at  -0.107566 -1.095411  1.801383
      ESP Fit Center  286 is at   0.151257 -1.900430  1.135434
      ESP Fit Center  287 is at  -1.148887  0.708210 -2.523267
      ESP Fit Center  288 is at  -1.669547 -0.193600 -2.523267
      ESP Fit Center  289 is at  -1.148887 -1.095411 -2.523267
      ESP Fit Center  290 is at  -0.628226 -0.193600 -2.760942
      ESP Fit Center  291 is at  -0.105082  1.107990  2.052664
      ESP Fit Center  292 is at   0.415578  0.206180  1.814989
      ESP Fit Center  293 is at  -0.625743  2.009801 -2.509661
      ESP Fit Center  294 is at  -1.146403  1.107990 -2.509661
      ESP Fit Center  295 is at  -0.105082  1.107990 -2.747336
      ESP Fit Center  296 is at  -1.950895 -0.401810  2.416966
      ESP Fit Center  297 is at  -0.909574 -0.401810  2.179291
      ESP Fit Center  298 is at  -2.471556  0.500000 -2.145360
      ESP Fit Center  299 is at  -2.992216 -0.401810 -2.145360
      ESP Fit Center  300 is at  -1.950895 -0.401810 -2.383034
      ESP Fit Center  301 is at   1.080008 -0.979564  1.497292
      ESP Fit Center  302 is at   1.421538 -2.280273  0.534967
      ESP Fit Center  303 is at   4.988507  0.564291 -0.533133
      ESP Fit Center  304 is at   4.756792 -0.450922 -1.495459
      ESP Fit Center  305 is at   4.458921  0.563534 -1.495459
      ESP Fit Center  306 is at   2.763836 -0.924782  3.274109
      ESP Fit Center  307 is at   4.325817 -1.826592  3.274109
      ESP Fit Center  308 is at   5.681552 -0.924782  2.608159
      ESP Fit Center  309 is at   2.004768 -0.396140  2.608159
      ESP Fit Center  310 is at   5.383681 -1.939238  2.608159
      ESP Fit Center  311 is at   5.913268  0.090431  1.645834
      ESP Fit Center  312 is at   5.264015  0.904569  0.577734
      ESP Fit Center  313 is at   4.325817 -3.205944  0.577734
      ESP Fit Center  314 is at   3.450390  2.354648 -1.279271
      ESP Fit Center  315 is at   2.920803  2.353891 -2.241596
      ESP Fit Center  316 is at   0.113501  2.757520 -2.241596
      ESP Fit Center  317 is at   0.821618  2.241245 -2.907546
      ESP Fit Center  318 is at   1.787331 -0.123215  2.357287
      ESP Fit Center  319 is at   1.079214 -0.639490  1.691337
      ESP Fit Center  320 is at   4.416103  1.793808  0.729012
      ESP Fit Center  321 is at   3.766850  2.607946  0.729012
      ESP Fit Center  322 is at   4.416103  1.793808 -0.339089
      ESP Fit Center  323 is at   3.766850  2.607946 -0.339089
      ESP Fit Center  324 is at   3.886516  1.793051 -1.301414
      ESP Fit Center  325 is at   2.131816 -2.790890  0.394918
      ESP Fit Center  326 is at   1.898599 -3.167226 -0.503253
      ESP Fit Center  327 is at   2.936231 -3.293218 -0.503253
      ESP Fit Center  328 is at   3.913560 -2.922566 -0.503253
      ESP Fit Center  329 is at   4.856837 -1.125302 -1.500147
      ESP Fit Center  330 is at   1.038372 -2.573455 -1.500147
      ESP Fit Center  331 is at   1.898599 -3.167226 -1.500147
      ESP Fit Center  332 is at   2.936231 -3.293218 -1.500147
      ESP Fit Center  333 is at   3.913560 -2.922566 -1.500147
      ESP Fit Center  334 is at   4.606692 -2.140182 -1.500147
      ESP Fit Center  335 is at   4.424301 -1.125302 -2.398317
      ESP Fit Center  336 is at   4.089832 -0.095912 -2.398317
      ESP Fit Center  337 is at   0.921696 -1.125302 -2.398317
      ESP Fit Center  338 is at   1.256165 -2.154692 -2.398317
      ESP Fit Center  339 is at   2.131816 -2.790890 -2.398317
      ESP Fit Center  340 is at   3.214181 -2.790890 -2.398317
      ESP Fit Center  341 is at   4.089832 -2.154692 -2.398317
      ESP Fit Center  342 is at   3.644898 -1.125302 -3.019870
      ESP Fit Center  343 is at   3.158948 -0.283612 -3.019870
      ESP Fit Center  344 is at   1.701099 -1.125302 -3.019870
      ESP Fit Center  345 is at   2.187049 -1.966992 -3.019870
      ESP Fit Center  346 is at   3.158948 -1.966992 -3.019870
      ESP Fit Center  347 is at   2.672999 -1.125302 -3.241700
      ESP Fit Center  348 is at  -2.604683 -2.036775  2.717531
      ESP Fit Center  349 is at  -1.563784 -2.036775  2.510484
      ESP Fit Center  350 is at  -2.084233 -1.135330  2.510484
      ESP Fit Center  351 is at  -3.125132 -1.135330  2.510484
      ESP Fit Center  352 is at  -3.645581 -2.036775  2.510484
      ESP Fit Center  353 is at  -3.125132 -2.938220  2.510484
      ESP Fit Center  354 is at  -2.084233 -2.938220  2.510484
      ESP Fit Center  355 is at  -0.681352 -2.036775  1.920862
      ESP Fit Center  356 is at  -4.270336 -1.075110  1.920862
      ESP Fit Center  357 is at  -4.528013 -2.036775  1.920862
      ESP Fit Center  358 is at  -4.270336 -2.998441  1.920862
      ESP Fit Center  359 is at  -3.566348 -3.702428  1.920862
      ESP Fit Center  360 is at  -2.604683 -3.960106  1.920862
      ESP Fit Center  361 is at  -1.643017 -3.702428  1.920862
      ESP Fit Center  362 is at  -0.939030 -2.998441  1.920862
      ESP Fit Center  363 is at  -5.062721 -1.514303  1.038430
      ESP Fit Center  364 is at  -5.062721 -2.559248  1.038430
      ESP Fit Center  365 is at  -4.637704 -3.513852  1.038430
      ESP Fit Center  366 is at  -3.861159 -4.213056  1.038430
      ESP Fit Center  367 is at  -2.867358 -4.535962  1.038430
      ESP Fit Center  368 is at  -1.828138 -4.426735  1.038430
      ESP Fit Center  369 is at  -0.923189 -3.904263  1.038430
      ESP Fit Center  370 is at  -0.308986 -3.058885  1.038430
      ESP Fit Center  371 is at  -5.278369 -1.536977 -0.002469
      ESP Fit Center  372 is at  -5.278369 -2.536574 -0.002469
      ESP Fit Center  373 is at  -4.917273 -3.468671 -0.002469
      ESP Fit Center  374 is at  -4.243849 -4.207382 -0.002469
      ESP Fit Center  375 is at  -3.349046 -4.652941 -0.002469
      ESP Fit Center  376 is at  -2.353713 -4.745172 -0.002469
      ESP Fit Center  377 is at  -1.392274 -4.471620 -0.002469
      ESP Fit Center  378 is at  -0.594578 -3.869228 -0.002469
      ESP Fit Center  379 is at  -0.068358 -3.019353 -0.002469
      ESP Fit Center  380 is at  -4.637704 -0.559699 -1.043368
      ESP Fit Center  381 is at  -5.062721 -1.514303 -1.043368
      ESP Fit Center  382 is at  -5.062721 -2.559248 -1.043368
      ESP Fit Center  383 is at  -4.637704 -3.513852 -1.043368
      ESP Fit Center  384 is at  -3.861159 -4.213056 -1.043368
      ESP Fit Center  385 is at  -2.867358 -4.535962 -1.043368
      ESP Fit Center  386 is at  -1.828138 -4.426735 -1.043368
      ESP Fit Center  387 is at  -0.923189 -3.904263 -1.043368
      ESP Fit Center  388 is at  -0.308986 -3.058885 -1.043368
      ESP Fit Center  389 is at  -3.566348 -0.371122 -1.925799
      ESP Fit Center  390 is at  -4.270336 -1.075110 -1.925799
      ESP Fit Center  391 is at  -4.528013 -2.036775 -1.925799
      ESP Fit Center  392 is at  -4.270336 -2.998441 -1.925799
      ESP Fit Center  393 is at  -3.566348 -3.702428 -1.925799
      ESP Fit Center  394 is at  -2.604683 -3.960106 -1.925799
      ESP Fit Center  395 is at  -1.643017 -3.702428 -1.925799
      ESP Fit Center  396 is at  -0.939030 -2.998441 -1.925799
      ESP Fit Center  397 is at  -1.563784 -2.036775 -2.515421
      ESP Fit Center  398 is at  -2.084233 -1.135330 -2.515421
      ESP Fit Center  399 is at  -3.125132 -1.135330 -2.515421
      ESP Fit Center  400 is at  -3.645581 -2.036775 -2.515421
      ESP Fit Center  401 is at  -3.125132 -2.938220 -2.515421
      ESP Fit Center  402 is at  -2.084233 -2.938220 -2.515421
      ESP Fit Center  403 is at  -2.604683 -2.036775 -2.722469
      ESP Fit Center  404 is at  -2.882542  2.778086  2.632993
      ESP Fit Center  405 is at  -2.402542  3.609470  2.375762
      ESP Fit Center  406 is at  -3.362542  3.609470  2.375762
      ESP Fit Center  407 is at  -3.842542  2.778086  2.375762
      ESP Fit Center  408 is at  -2.368718  4.359473  1.672993
      ESP Fit Center  409 is at  -3.396365  4.359473  1.672993
      ESP Fit Center  410 is at  -4.227750  3.755437  1.672993
      ESP Fit Center  411 is at  -4.545310  2.778086  1.672993
      ESP Fit Center  412 is at  -1.922542  4.440855  0.712993
      ESP Fit Center  413 is at  -2.882542  4.698086  0.712993
      ESP Fit Center  414 is at  -3.842542  4.440855  0.712993
      ESP Fit Center  415 is at  -4.545310  3.738086  0.712993
      ESP Fit Center  416 is at  -4.802542  2.778086  0.712993
      ESP Fit Center  417 is at  -2.368718  4.359473 -0.247007
      ESP Fit Center  418 is at  -3.396365  4.359473 -0.247007
      ESP Fit Center  419 is at  -4.227750  3.755437 -0.247007
      ESP Fit Center  420 is at  -4.545310  2.778086 -0.247007
      ESP Fit Center  421 is at  -3.362542  3.609470 -0.949776
      ESP Fit Center  422 is at  -0.046610  4.014862  1.710574
      ESP Fit Center  423 is at  -1.006610  4.014862  1.710574
      ESP Fit Center  424 is at   1.136159  3.183477  1.007806
      ESP Fit Center  425 is at   0.818598  4.160828  1.007806
      ESP Fit Center  426 is at  -0.012786  4.764864  1.007806
      ESP Fit Center  427 is at  -1.040434  4.764864  1.007806
      ESP Fit Center  428 is at   1.136159  4.143477  0.047806
      ESP Fit Center  429 is at   0.433390  4.846246  0.047806
      ESP Fit Center  430 is at  -0.526610  5.103477  0.047806
      ESP Fit Center  431 is at  -1.486610  4.846246  0.047806
      ESP Fit Center  432 is at  -0.012786  4.764864 -0.912194
      ESP Fit Center  433 is at  -1.040434  4.764864 -0.912194
      ESP Fit Center  434 is at  -1.871818  4.160828 -0.912194
      ESP Fit Center  435 is at  -0.046610  4.014862 -1.614963
      ESP Fit Center  436 is at  -1.006610  4.014862 -1.614963
      ESP Fit Center  437 is at  -3.805085  0.464739  2.614765
      ESP Fit Center  438 is at  -4.285085  1.296123  2.357534
      ESP Fit Center  439 is at  -4.765085  0.464739  2.357534
      ESP Fit Center  440 is at  -4.285085 -0.366645  2.357534
      ESP Fit Center  441 is at  -5.150293  1.442090  1.654765
      ESP Fit Center  442 is at  -5.467853  0.464739  1.654765
      ESP Fit Center  443 is at  -5.150293 -0.512612  1.654765
      ESP Fit Center  444 is at  -4.765085  2.127508  0.694765
      ESP Fit Center  445 is at  -5.467853  1.424739  0.694765
      ESP Fit Center  446 is at  -5.725085  0.464739  0.694765
      ESP Fit Center  447 is at  -5.467853 -0.495261  0.694765
      ESP Fit Center  448 is at  -5.150293  1.442090 -0.265235
      ESP Fit Center  449 is at  -5.467853  0.464739 -0.265235
      ESP Fit Center  450 is at  -5.150293 -0.512612 -0.265235
      ESP Fit Center  451 is at  -4.765085  0.464739 -0.968004
      ESP Fit Center  452 is at   0.476280 -1.857448  0.993542
      ESP Fit Center  453 is at   0.510104 -2.607450  0.290774
      ESP Fit Center  454 is at  -0.003720 -2.946063 -0.669226
      ESP Fit Center  455 is at   0.956280 -2.688832 -0.669226
      ESP Fit Center  456 is at   0.510104 -2.607450 -1.629226
      ESP Fit Center  457 is at  -0.483720 -1.857448 -2.331995
      ESP Fit Center  458 is at   0.476280 -1.857448 -2.331995
      ESP Fit Center  459 is at  -0.003720 -1.026063 -2.589226
      ESP Fit Center  460 is at   3.379403 -1.825286  3.486318
      ESP Fit Center  461 is at   2.419403 -1.825286  3.229087
      ESP Fit Center  462 is at   2.899403 -2.656671  3.229087
      ESP Fit Center  463 is at   3.859403 -2.656671  3.229087
      ESP Fit Center  464 is at   1.716634 -1.825286  2.526318
      ESP Fit Center  465 is at   2.034195 -2.802637  2.526318
      ESP Fit Center  466 is at   2.865579 -3.406673  2.526318
      ESP Fit Center  467 is at   3.893227 -3.406673  2.526318
      ESP Fit Center  468 is at   4.724611 -2.802637  2.526318
      ESP Fit Center  469 is at   1.459403 -1.825286  1.566318
      ESP Fit Center  470 is at   1.716634 -2.785286  1.566318
      ESP Fit Center  471 is at   2.419403 -3.488055  1.566318
      ESP Fit Center  472 is at   3.379403 -3.745286  1.566318
      ESP Fit Center  473 is at   4.339403 -3.488055  1.566318
      ESP Fit Center  474 is at   2.034195 -2.802637  0.606318
      ESP Fit Center  475 is at   2.865579 -3.406673  0.606318
      ESP Fit Center  476 is at   3.893227 -3.406673  0.606318
      ESP Fit Center  477 is at   6.428468 -1.205495  1.630469
      ESP Fit Center  478 is at   6.110908 -0.228144  1.630469
      ESP Fit Center  479 is at   5.279523 -2.786882  1.630469
      ESP Fit Center  480 is at   6.110908 -2.182846  1.630469
      ESP Fit Center  481 is at   6.685699 -1.205495  0.670469
      ESP Fit Center  482 is at   6.428468 -0.245495  0.670469
      ESP Fit Center  483 is at   5.725699  0.457273  0.670469
      ESP Fit Center  484 is at   4.765699 -3.125495  0.670469
      ESP Fit Center  485 is at   5.725699 -2.868264  0.670469
      ESP Fit Center  486 is at   6.428468 -2.165495  0.670469
      ESP Fit Center  487 is at   6.428468 -1.205495 -0.289531
      ESP Fit Center  488 is at   6.110908 -0.228144 -0.289531
      ESP Fit Center  489 is at   5.279523  0.375892 -0.289531
      ESP Fit Center  490 is at   5.279523 -2.786882 -0.289531
      ESP Fit Center  491 is at   6.110908 -2.182846 -0.289531
      ESP Fit Center  492 is at   5.725699 -1.205495 -0.992300
      ESP Fit Center  493 is at   5.245699 -0.374111 -0.992300
      ESP Fit Center  494 is at   5.245699 -2.036880 -0.992300
      ESP Fit Center  495 is at   3.975896 -0.178807  3.814330
      ESP Fit Center  496 is at   4.935896 -0.178807  3.557099
      ESP Fit Center  497 is at   4.455896  0.652577  3.557099
      ESP Fit Center  498 is at   3.495896  0.652577  3.557099
      ESP Fit Center  499 is at   3.015896 -0.178807  3.557099
      ESP Fit Center  500 is at   3.495896 -1.010192  3.557099
      ESP Fit Center  501 is at   4.455896 -1.010192  3.557099
      ESP Fit Center  502 is at   5.638664 -0.178807  2.854330
      ESP Fit Center  503 is at   5.321104  0.798544  2.854330
      ESP Fit Center  504 is at   4.489719  1.402580  2.854330
      ESP Fit Center  505 is at   3.462072  1.402580  2.854330
      ESP Fit Center  506 is at   2.313127 -0.178807  2.854330
      ESP Fit Center  507 is at   5.638664  0.781193  1.894330
      ESP Fit Center  508 is at   4.935896  1.483962  1.894330
      ESP Fit Center  509 is at   3.216413  0.864473 -2.666691
      ESP Fit Center  510 is at   2.898852  1.841824 -2.666691
      ESP Fit Center  511 is at   0.208436 -0.112878 -2.666691
      ESP Fit Center  512 is at   1.039820 -0.716914 -2.666691
      ESP Fit Center  513 is at   2.513644  0.864473 -3.369460
      ESP Fit Center  514 is at   2.033644  1.695858 -3.369460
      ESP Fit Center  515 is at   1.073644  1.695858 -3.369460
      ESP Fit Center  516 is at   0.593644  0.864473 -3.369460
      ESP Fit Center  517 is at   1.073644  0.033089 -3.369460
      ESP Fit Center  518 is at   2.033644  0.033089 -3.369460
      ESP Fit Center  519 is at   1.553644  0.864473 -3.626691
      ESP Fit Center  520 is at   2.015117  3.244580  0.816898
      ESP Fit Center  521 is at   2.880325  3.390547  0.114129
      ESP Fit Center  522 is at   2.048940  3.994583  0.114129
      ESP Fit Center  523 is at   3.197885  3.373196 -0.845871
      ESP Fit Center  524 is at   2.495117  4.075965 -0.845871
      ESP Fit Center  525 is at   1.535117  4.333196 -0.845871
      ESP Fit Center  526 is at   2.880325  3.390547 -1.805871
      ESP Fit Center  527 is at   2.048940  3.994583 -1.805871
      ESP Fit Center  528 is at   1.021293  3.994583 -1.805871
      ESP Fit Center  529 is at   0.189908  3.390547 -1.805871
      ESP Fit Center  530 is at   2.015117  3.244580 -2.508639
      ESP Fit Center  531 is at   1.055117  3.244580 -2.508639
      ESP Fit Center  532 is at   2.406483  1.223669  3.016567
      ESP Fit Center  533 is at   2.886483  2.055054  2.759335
      ESP Fit Center  534 is at   1.926483  2.055054  2.759335
      ESP Fit Center  535 is at   1.446483  1.223669  2.759335
      ESP Fit Center  536 is at   1.926483  0.392285  2.759335
      ESP Fit Center  537 is at   3.751691  2.201020  2.056567
      ESP Fit Center  538 is at   2.920307  2.805056  2.056567
      ESP Fit Center  539 is at   1.892659  2.805056  2.056567
      ESP Fit Center  540 is at   1.061275  2.201020  2.056567
      ESP Fit Center  541 is at   0.743714  1.223669  2.056567
      ESP Fit Center  542 is at   4.069252  2.183669  1.096567
      ESP Fit Center  543 is at   3.366483  2.886438  1.096567
      ESP Fit Center  544 is at   2.406483  3.143669  1.096567
      ESP Fit Center  545 is at   1.446483  2.886438  1.096567
      ESP Fit Center  546 is at  -2.251854  1.945345  3.114060
      ESP Fit Center  547 is at  -1.218609  1.945345  2.908535
      ESP Fit Center  548 is at  -1.735232  2.840161  2.908535
      ESP Fit Center  549 is at  -2.768477  2.840161  2.908535
      ESP Fit Center  550 is at  -3.285100  1.945345  2.908535
      ESP Fit Center  551 is at  -1.735232  1.050528  2.908535
      ESP Fit Center  552 is at  -1.458749  3.682004  2.323249
      ESP Fit Center  553 is at  -2.523560  3.835100 -1.495128
      ESP Fit Center  554 is at  -3.502107  3.388213 -1.495128
      ESP Fit Center  555 is at  -4.083707  2.483225 -1.495128
      ESP Fit Center  556 is at  -2.768477  2.840161 -2.080414
      ESP Fit Center  557 is at  -3.285100  1.945345 -2.080414
      ESP Fit Center  558 is at   0.108257  2.171520  2.535308
      ESP Fit Center  559 is at  -0.408365  3.066337  2.535308
      ESP Fit Center  560 is at  -0.408365  1.276703  2.535308
      ESP Fit Center  561 is at   0.681124  3.203705  1.950021
      ESP Fit Center  562 is at  -1.196694  4.061276  1.950021
      ESP Fit Center  563 is at  -1.196694  4.061276 -1.868355
      ESP Fit Center  564 is at  -2.175240  3.614388 -1.868355
      ESP Fit Center  565 is at  -0.408365  3.066337 -2.453642
      ESP Fit Center  566 is at  -1.441611  3.066337 -2.453642
      ESP Fit Center  567 is at  -1.958233  2.171520 -2.453642
      ESP Fit Center  568 is at  -2.776555  0.654398  3.107168
      ESP Fit Center  569 is at  -1.743310  0.654398  2.901643
      ESP Fit Center  570 is at  -3.293177  1.549215  2.901643
      ESP Fit Center  571 is at  -3.809800  0.654398  2.901643
      ESP Fit Center  572 is at  -3.293177 -0.240418  2.901643
      ESP Fit Center  573 is at  -2.259932 -0.240418  2.901643
      ESP Fit Center  574 is at  -5.023999  1.736710 -0.626077
      ESP Fit Center  575 is at  -4.608408  1.192279 -1.502020
      ESP Fit Center  576 is at  -4.608408  0.116518 -1.502020
      ESP Fit Center  577 is at  -3.293177  1.549215 -2.087307
      ESP Fit Center  578 is at  -3.809800  0.654398 -2.087307
      ESP Fit Center  579 is at   0.405019 -0.193600  2.133533
      ESP Fit Center  580 is at  -0.111604 -1.088417  2.133533
      ESP Fit Center  581 is at   0.164879 -1.930259  1.548246
      ESP Fit Center  582 is at  -1.144849  0.701216 -2.855417
      ESP Fit Center  583 is at  -1.661472 -0.193600 -2.855417
[...]
  453 Fit      -0.010876
  454 Fit      -0.016039
  455 Fit      -0.025794
  456 Fit      -0.022589
  457 Fit      -0.014893
  458 Fit      -0.023026
  459 Fit      -0.014682
  460 Fit       0.014395
  461 Fit       0.013886
  462 Fit       0.012794
  463 Fit       0.012653
  464 Fit       0.011806
  465 Fit       0.009825
  466 Fit       0.009884
  467 Fit       0.009976
  468 Fit       0.010463
  469 Fit       0.009070
  470 Fit       0.003825
  471 Fit       0.003434
  472 Fit       0.004238
  473 Fit       0.005158
  474 Fit      -0.010720
  475 Fit      -0.008796
  476 Fit      -0.005153
  477 Fit       0.012667
  478 Fit       0.014028
  479 Fit       0.008101
  480 Fit       0.010641
  481 Fit       0.011744
  482 Fit       0.012445
  483 Fit       0.013488
  484 Fit       0.000139
  485 Fit       0.005357
  486 Fit       0.009544
  487 Fit       0.008231
  488 Fit       0.009261
  489 Fit       0.010831
  490 Fit      -0.003902
  491 Fit       0.004425
  492 Fit      -0.000549
  493 Fit       0.000456
  494 Fit      -0.010635
  495 Fit       0.020031
  496 Fit       0.018344
  497 Fit       0.023218
  498 Fit       0.026923
  499 Fit       0.021828
  500 Fit       0.016814
  501 Fit       0.015972
  502 Fit       0.016313
  503 Fit       0.020451
  504 Fit       0.027425
  505 Fit       0.038685
  506 Fit       0.025477
  507 Fit       0.017338
  508 Fit       0.023305
  509 Fit      -0.010266
  510 Fit       0.002463
  511 Fit      -0.008016
  512 Fit      -0.025100
  513 Fit      -0.005457
  514 Fit       0.003252
  515 Fit       0.004491
  516 Fit      -0.000334
  517 Fit      -0.008839
  518 Fit      -0.015879
  519 Fit      -0.001491
  520 Fit       0.033550
  521 Fit       0.022404
  522 Fit       0.025380
  523 Fit       0.014922
  524 Fit       0.019809
  525 Fit       0.023005
  526 Fit       0.012797
  527 Fit       0.016871
  528 Fit       0.018310
  529 Fit       0.015351
  530 Fit       0.011725
  531 Fit       0.012539
  532 Fit       0.037653
  533 Fit       0.039753
  534 Fit       0.036534
  535 Fit       0.029662
  536 Fit       0.030139
  537 Fit       0.036098
  538 Fit       0.037190
  539 Fit       0.036987
  540 Fit       0.029088
  541 Fit       0.016306
  542 Fit       0.023782
  543 Fit       0.028585
  544 Fit       0.034752
  545 Fit       0.036850
  546 Fit      -0.000515
  547 Fit      -0.001931
  548 Fit       0.003883
  549 Fit       0.006740
  550 Fit       0.004013
  551 Fit      -0.006883
  552 Fit       0.010412
  553 Fit       0.002698
  554 Fit       0.000870
  555 Fit      -0.002485
  556 Fit      -0.006466
  557 Fit      -0.010447
  558 Fit       0.008178
  559 Fit       0.008142
  560 Fit      -0.002352
  561 Fit       0.019780
  562 Fit       0.014187
  563 Fit       0.006274
  564 Fit      -0.000293
  565 Fit       0.003492
  566 Fit      -0.003157
  567 Fit      -0.010849
  568 Fit      -0.003739
  569 Fit      -0.007725
  570 Fit       0.002121
  571 Fit       0.002401
  572 Fit      -0.003745
  573 Fit      -0.008081
  574 Fit       0.004609
  575 Fit      -0.004284
  576 Fit      -0.007117
  577 Fit      -0.012321
  578 Fit      -0.011458
  579 Fit       0.000144
  580 Fit      -0.005833
  581 Fit      -0.006141
  582 Fit      -0.012590
  583 Fit      -0.015406
  584 Fit      -0.015463
  585 Fit      -0.015400
  586 Fit      -0.012364
  587 Fit       0.001662
  588 Fit      -0.003674
  589 Fit      -0.011124
  590 Fit      -0.008832
  591 Fit      -0.015910
  592 Fit       0.006981
  593 Fit      -0.002391
  594 Fit       0.002098
  595 Fit      -0.010208
  596 Fit       0.015865
  597 Fit       0.012500
  598 Fit       0.013068
  599 Fit       0.019130
  600 Fit       0.010691
  601 Fit       0.007821
  602 Fit       0.014050
  603 Fit       0.002032
  604 Fit       0.010416
  605 Fit      -0.010377
  606 Fit       0.003915
  607 Fit       0.004357
  608 Fit       0.005911
  609 Fit       0.005185
  610 Fit       0.008246
  611 Fit       0.021474
  612 Fit       0.009357
  613 Fit       0.011104
  614 Fit       0.018210
  615 Fit       0.001661
  616 Fit       0.006268
  617 Fit      -0.001266
  618 Fit      -0.025597
  619 Fit      -0.029759
  620 Fit      -0.028496
  621 Fit      -0.016743
  622 Fit      -0.033351
  623 Fit      -0.037718
  624 Fit      -0.037760
  625 Fit      -0.033973
  626 Fit      -0.026036
  627 Fit      -0.029376
  628 Fit      -0.022914
  629 Fit      -0.029202
  630 Fit      -0.037175
  631 Fit      -0.040452
  632 Fit      -0.039962
  633 Fit      -0.035834
  634 Fit      -0.034381
  635 Fit      -0.027468
  636 Fit      -0.031971
  637 Fit      -0.038578
  638 Fit      -0.039059
  639 Fit      -0.034925
  640 Fit      -0.011894
  641 Fit      -0.011492
  642 Fit      -0.010016
  643 Fit      -0.008522
  644 Fit      -0.011106
  645 Fit      -0.013189
  646 Fit      -0.013539
  647 Fit      -0.009870
  648 Fit      -0.003914
  649 Fit      -0.009746
  650 Fit      -0.011894
  651 Fit      -0.012321
  652 Fit      -0.013234
  653 Fit      -0.014144
  654 Fit      -0.012890
  655 Fit      -0.007520
  656 Fit      -0.008927
  657 Fit      -0.010897
  658 Fit      -0.010441
  659 Fit      -0.010325
  660 Fit      -0.011754
  661 Fit      -0.013951
  662 Fit      -0.014770
  663 Fit      -0.012196
  664 Fit      -0.002137
  665 Fit      -0.009539
  666 Fit      -0.010827
  667 Fit      -0.009673
  668 Fit      -0.008745
  669 Fit      -0.009613
  670 Fit      -0.012276
  671 Fit      -0.015299
  672 Fit      -0.016558
  673 Fit      -0.013755
  674 Fit      -0.006929
  675 Fit      -0.011420
  676 Fit      -0.011855
  677 Fit      -0.010385
  678 Fit      -0.009356
  679 Fit      -0.010271
  680 Fit      -0.013155
  681 Fit      -0.016691
  682 Fit      -0.018987
  683 Fit      -0.009127
  684 Fit      -0.011419
  685 Fit      -0.013771
  686 Fit      -0.013714
  687 Fit      -0.012502
  688 Fit      -0.012230
  689 Fit      -0.013985
  690 Fit      -0.017142
  691 Fit      -0.019871
  692 Fit      -0.019225
  693 Fit      -0.014327
  694 Fit      -0.014559
  695 Fit      -0.015919
  696 Fit      -0.015925
  697 Fit      -0.015689
  698 Fit      -0.016942
  699 Fit      -0.019199
  700 Fit      -0.019845
  701 Fit      -0.018180
  702 Fit      -0.016818
  703 Fit      -0.016497
  704 Fit      -0.017471
  705 Fit      -0.018151
  706 Fit      -0.019240
  707 Fit      -0.018260
  708 Fit       0.011102
  709 Fit       0.012790
  710 Fit       0.011350
  711 Fit       0.016011
  712 Fit       0.015681
  713 Fit       0.015122
  714 Fit       0.014394
  715 Fit       0.014993
  716 Fit       0.016822
  717 Fit       0.015339
  718 Fit       0.014330
  719 Fit       0.013535
  720 Fit       0.012669
  721 Fit       0.011140
  722 Fit       0.009348
  723 Fit       0.016936
  724 Fit       0.014642
  725 Fit       0.023651
  726 Fit       0.020065
  727 Fit       0.018289
  728 Fit       0.019134
  729 Fit       0.021574
  730 Fit       0.018915
  731 Fit       0.017313
  732 Fit       0.018354
  733 Fit       0.014994
  734 Fit       0.011483
  735 Fit       0.013764
  736 Fit       0.008763
  737 Fit       0.007196
  738 Fit       0.001045
  739 Fit       0.013606
  740 Fit       0.010784
  741 Fit       0.007106
  742 Fit       0.000127
  743 Fit       0.012373
  744 Fit       0.009690
  745 Fit       0.006145
  746 Fit      -0.001021
  747 Fit       0.005572
  748 Fit       0.001845
  749 Fit      -0.012045
  750 Fit      -0.018309
  751 Fit      -0.028558
  752 Fit      -0.016417
  753 Fit      -0.024799
  754 Fit       0.012925
  755 Fit       0.011979
  756 Fit       0.010464
  757 Fit       0.010737
  758 Fit       0.011975
  759 Fit       0.007672
  760 Fit       0.006924
  761 Fit       0.007346
  762 Fit       0.007911
  763 Fit       0.009176
  764 Fit       0.002410
  765 Fit       0.000254
  766 Fit       0.000932
  767 Fit       0.002166
  768 Fit       0.003780
  769 Fit      -0.014020
  770 Fit      -0.010419
  771 Fit       0.010990
  772 Fit       0.012740
  773 Fit       0.007119
  774 Fit       0.009160
  775 Fit       0.009504
  776 Fit       0.010584
  777 Fit      -0.000149
  778 Fit       0.004175
  779 Fit       0.007512
  780 Fit       0.005774
  781 Fit       0.007057
  782 Fit       0.008065
  783 Fit      -0.016532
  784 Fit      -0.004086
  785 Fit       0.002501
  786 Fit      -0.003092
  787 Fit      -0.002464
  788 Fit      -0.013247
  789 Fit       0.017754
  790 Fit       0.016193
  791 Fit       0.020549
  792 Fit       0.024088
  793 Fit       0.019507
  794 Fit       0.014258
  795 Fit       0.014520
  796 Fit       0.017689
  797 Fit       0.023093
  798 Fit       0.032185
  799 Fit       0.015278
  800 Fit       0.019756
  801 Fit      -0.011182
  802 Fit       0.000729
  803 Fit      -0.006988
  804 Fit       0.001730
  805 Fit       0.002737
  806 Fit      -0.002422
  807 Fit      -0.010702
  808 Fit      -0.017341
  809 Fit      -0.003396
  810 Fit       0.020494
  811 Fit       0.022677
  812 Fit       0.012659
  813 Fit       0.016938
  814 Fit       0.019711
  815 Fit       0.010347
  816 Fit       0.013994
  817 Fit       0.015713
  818 Fit       0.014664
  819 Fit       0.009732
  820 Fit       0.010320
  821 Fit       0.031779
  822 Fit       0.033751
  823 Fit       0.030625
  824 Fit       0.024259
  825 Fit       0.025137
  826 Fit       0.031051
  827 Fit       0.031512
  828 Fit       0.032019
  829 Fit       0.027606
  830 Fit       0.024075
  831 Fit       0.029270
  832 Fit       0.000773
  833 Fit       0.000342
  834 Fit       0.004384
  835 Fit       0.005945
  836 Fit       0.003633
  837 Fit      -0.003961
  838 Fit       0.009230
  839 Fit       0.008909
  840 Fit       0.008635
  841 Fit       0.004879
  842 Fit       0.002370
  843 Fit       0.001445
  844 Fit      -0.000241
  845 Fit      -0.003148
  846 Fit      -0.005575
  847 Fit      -0.009015
  848 Fit       0.008861
  849 Fit       0.008327
  850 Fit       0.000278
  851 Fit       0.018131
  852 Fit       0.013923
  853 Fit       0.012081
  854 Fit       0.006669
  855 Fit       0.009441
  856 Fit       0.004706
  857 Fit      -0.000513
  858 Fit       0.002688
  859 Fit      -0.002428
  860 Fit      -0.008642
  861 Fit      -0.002404
  862 Fit      -0.004931
  863 Fit       0.002106
  864 Fit       0.001619
  865 Fit      -0.003255
  866 Fit      -0.006132
  867 Fit       0.008421
  868 Fit       0.001700
  869 Fit       0.000769
  870 Fit      -0.005174
  871 Fit      -0.008160
  872 Fit      -0.010631
  873 Fit      -0.010707
  874 Fit       0.002302
  875 Fit      -0.004108
  876 Fit      -0.010727
  877 Fit      -0.013740
  878 Fit      -0.014776
  879 Fit      -0.015419
  880 Fit      -0.011631
  881 Fit       0.004007
  882 Fit      -0.003145
  883 Fit      -0.009284
  884 Fit      -0.006448
  885 Fit      -0.013963
  886 Fit       0.007274
  887 Fit      -0.006213
  888 Fit      -0.002207
  889 Fit      -0.011719
  890 Fit       0.014275
  891 Fit       0.011392
  892 Fit       0.012143
  893 Fit       0.016627
  894 Fit       0.009951
  895 Fit       0.010940
  896 Fit       0.007573
  897 Fit       0.009168
  898 Fit       0.011562
  899 Fit       0.003765
  900 Fit       0.010848
  901 Fit       0.007057
  902 Fit      -0.013641
  903 Fit       0.002474
  904 Fit       0.002844
  905 Fit       0.003970
  906 Fit       0.003153
  907 Fit       0.004890
  908 Fit       0.008790
  909 Fit       0.013589
  910 Fit       0.014828
  911 Fit       0.019128
  912 Fit       0.006240
  913 Fit       0.007833
  914 Fit       0.000829
  915 Fit       0.004898
  916 Fit      -0.019337
  917 Fit      -0.019449
  918 Fit      -0.025970
  919 Fit      -0.028702
  920 Fit      -0.028477
  921 Fit      -0.025886
  922 Fit      -0.020173
  923 Fit      -0.017790
  924 Fit      -0.012845
  925 Fit      -0.031515
  926 Fit      -0.033167
  927 Fit      -0.032400
  928 Fit      -0.029223
  929 Fit      -0.023823
  930 Fit      -0.025383
  931 Fit      -0.020651
  932 Fit      -0.015253
  933 Fit      -0.022264
  934 Fit      -0.028992
  935 Fit      -0.033020
  936 Fit      -0.034280
  937 Fit      -0.033178
  938 Fit      -0.029922
  939 Fit      -0.028583
  940 Fit      -0.022965
  941 Fit      -0.026753
  942 Fit      -0.032166
  943 Fit      -0.032447
  944 Fit      -0.028837
  945 Fit      -0.009279
  946 Fit      -0.008910
  947 Fit      -0.007907
  948 Fit      -0.006890
  949 Fit      -0.008705
  950 Fit      -0.010486
  951 Fit      -0.010603
  952 Fit      -0.007457
  953 Fit      -0.007324
  954 Fit      -0.003535
  955 Fit      -0.007640
  956 Fit      -0.009726
  957 Fit      -0.010472
  958 Fit      -0.011106
  959 Fit      -0.011332
  960 Fit      -0.009919
  961 Fit      -0.005214
  962 Fit      -0.006823
  963 Fit      -0.009050
  964 Fit      -0.009409
  965 Fit      -0.009670
  966 Fit      -0.010612
  967 Fit      -0.011751
  968 Fit      -0.011688
  969 Fit      -0.009099
  970 Fit      -0.004538
  971 Fit      -0.008291
  972 Fit      -0.008989
  973 Fit      -0.008641
  974 Fit      -0.008658
  975 Fit      -0.009687
  976 Fit      -0.011479
  977 Fit      -0.013066
  978 Fit      -0.013138
  979 Fit      -0.010273
  980 Fit      -0.006466
  981 Fit      -0.009099
  982 Fit      -0.009421
  983 Fit      -0.008826
  984 Fit      -0.008485
  985 Fit      -0.009115
  986 Fit      -0.010811
  987 Fit      -0.013096
  988 Fit      -0.015218
  989 Fit      -0.016536
  990 Fit      -0.005117
  991 Fit      -0.008887
  992 Fit      -0.010586
  993 Fit      -0.010505
  994 Fit      -0.009856
  995 Fit      -0.009832
  996 Fit      -0.011058
  997 Fit      -0.013389
  998 Fit      -0.016173
  999 Fit      -0.018873
 1000 Fit      -0.009400
 1001 Fit      -0.010402
 1002 Fit      -0.011975
 1003 Fit      -0.012309
 1004 Fit      -0.011946
 1005 Fit      -0.012116
 1006 Fit      -0.013529
 1007 Fit      -0.015943
 1008 Fit      -0.018549
 1009 Fit      -0.020144
 1010 Fit      -0.013009
 1011 Fit      -0.012837
 1012 Fit      -0.013702
 1013 Fit      -0.014038
 1014 Fit      -0.014284
 1015 Fit      -0.015416
 1016 Fit      -0.017262
 1017 Fit      -0.018438
 1018 Fit      -0.016584
 1019 Fit      -0.015266
 1020 Fit      -0.014581
 1021 Fit      -0.015031
 1022 Fit      -0.015793
 1023 Fit      -0.016921
 1024 Fit      -0.015952
 1025 Fit       0.009558
 1026 Fit       0.010720
 1027 Fit       0.009378
 1028 Fit       0.013500
 1029 Fit       0.013327
 1030 Fit       0.012792
 1031 Fit       0.012124
 1032 Fit       0.012051
 1033 Fit       0.015507
 1034 Fit       0.014052
 1035 Fit       0.013171
 1036 Fit       0.012467
 1037 Fit       0.012619
 1038 Fit       0.015177
 1039 Fit       0.012913
 1040 Fit       0.011699
 1041 Fit       0.010672
 1042 Fit       0.010242
 1043 Fit       0.009691
 1044 Fit       0.008168
 1045 Fit       0.006279
 1046 Fit       0.015152
 1047 Fit       0.021340
 1048 Fit       0.017763
 1049 Fit       0.016151
 1050 Fit       0.019995
 1051 Fit       0.017546
 1052 Fit       0.016293
 1053 Fit       0.017019
 1054 Fit       0.019411
 1055 Fit       0.016560
 1056 Fit       0.014680
 1057 Fit       0.013556
 1058 Fit       0.015268
 1059 Fit       0.012120
 1060 Fit       0.011193
 1061 Fit       0.005229
 1062 Fit       0.000152
 1063 Fit       0.011049
 1064 Fit       0.008543
 1065 Fit       0.005182
 1066 Fit      -0.000584
 1067 Fit       0.013030
 1068 Fit       0.009694
 1069 Fit       0.006991
 1070 Fit       0.002848
 1071 Fit       0.007562
 1072 Fit       0.004997
 1073 Fit       0.000509
 1074 Fit       0.002437
 1075 Fit      -0.001075
 1076 Fit      -0.008860
 1077 Fit      -0.022165
 1078 Fit      -0.016826
 1079 Fit      -0.023833
 1080 Fit       0.011770
 1081 Fit       0.010780
 1082 Fit       0.009167
 1083 Fit       0.009641
 1084 Fit       0.006901
 1085 Fit       0.006172
 1086 Fit       0.006592
 1087 Fit       0.007331
 1088 Fit       0.004274
 1089 Fit       0.001573
 1090 Fit       0.001539
 1091 Fit       0.002454
 1092 Fit       0.003530
 1093 Fit       0.004983
 1094 Fit      -0.005801
 1095 Fit      -0.006313
 1096 Fit      -0.004568
 1097 Fit      -0.002425
 1098 Fit      -0.017771
 1099 Fit       0.010201
 1100 Fit       0.008517
 1101 Fit       0.008816
 1102 Fit       0.010158
 1103 Fit       0.004955
 1104 Fit       0.007178
 1105 Fit       0.006632
 1106 Fit       0.007851
 1107 Fit       0.009010
 1108 Fit      -0.003519
 1109 Fit       0.001336
 1110 Fit       0.004615
 1111 Fit       0.002277
 1112 Fit       0.003706
 1113 Fit      -0.008063
 1114 Fit      -0.001152
 1115 Fit      -0.006738
 1116 Fit      -0.016641
 1117 Fit       0.015934
 1118 Fit       0.014719
 1119 Fit       0.018129
 1120 Fit       0.020629
 1121 Fit       0.017262
 1122 Fit       0.013184
 1123 Fit       0.013479
 1124 Fit       0.016163
 1125 Fit       0.020456
 1126 Fit       0.026588
 1127 Fit       0.023468
 1128 Fit       0.014347
 1129 Fit       0.017919
 1130 Fit       0.024684
 1131 Fit       0.015802
 1132 Fit      -0.010492
 1133 Fit      -0.000502
 1134 Fit      -0.013679
 1135 Fit      -0.007190
 1136 Fit       0.000076
 1137 Fit       0.000857
 1138 Fit      -0.003677
 1139 Fit      -0.010559
 1140 Fit      -0.015072
 1141 Fit      -0.004541
 1142 Fit       0.022699
 1143 Fit       0.013380
 1144 Fit       0.016741
 1145 Fit       0.018963
 1146 Fit       0.009467
 1147 Fit       0.013088
 1148 Fit       0.015373
 1149 Fit       0.017270
 1150 Fit       0.008156
 1151 Fit       0.011120
 1152 Fit       0.012333
 1153 Fit       0.010911
 1154 Fit       0.007724
 1155 Fit       0.008087
 1156 Fit       0.027275
 1157 Fit       0.029141
 1158 Fit       0.026295
 1159 Fit       0.021466
 1160 Fit       0.022351
 1161 Fit       0.028551
 1162 Fit       0.028167
 1163 Fit       0.027812
 1164 Fit       0.023824
 1165 Fit       0.015123
 1166 Fit       0.022960
 1167 Fit       0.023910
 1168 Fit       0.026395
 1169 Fit       0.028209
 -----------------------------------------------------------------
 Leave Link  602 at Sat Feb 17 20:56:32 2018, MaxMem=   33554432 cpu:       0.4

 Test job not archived.
 1\1\GINC-NODE040\SP\RHF\6-31G(d)\C9H10Cl1N1O1\WULSDORT\17-Feb-2018\0\\
 #HF/6-31G* Geom=AllCheck Guess=Read Pop=(MK,ReadRadii) Integral=(Grid=
 UltraFine) iop(6/33=2)\\Optimization for frag5-conf0\\0,1\C,0,2.119194
 221,-1.1084406102,0.0461194081\C,0,0.917290076,-0.4936087101,0.4045007
 264\C,0,2.9627433503,-1.6323668628,1.0237835557\C,0,1.3908096202,-0.91
 35307196,2.7374663951\C,0,0.5441156987,-0.3922827472,1.747813567\C,0,2
 .5827191505,-1.5257546872,2.363098037\C,0,-1.8876607515,-0.8366492159,
 4.0615922642\C,0,-2.8926049948,-1.8986422865,4.4811254585\C,0,-0.76503
 74492,0.2644576166,2.1497385658\N,0,-1.7417313934,-0.6645004519,2.7102
 661365\O,0,-1.2607276593,-0.1769459367,4.883047211\Cl,0,3.6437472891,-
 2.17786285,3.6080485147\H,0,2.4021379141,-1.1815352495,-1.0003915351\H
 ,0,0.267661146,-0.0862118163,-0.3667458932\H,0,3.8987699054,-2.1124293
 422,0.759302091\H,0,1.1158545114,-0.8325743378,3.7843133815\H,0,-2.362
 819219,-2.6974428566,5.0102957211\H,0,-3.5981392201,-1.4520139151,5.18
 74865798\H,0,-3.4504602548,-2.3348366155,3.6465352221\H,0,-0.592073788
 6,1.0163699726,2.9239476439\H,0,-1.2139641726,0.7637493305,1.284029236
 4\H,0,-2.1794442471,-1.3272356406,2.0858683434\\Version=AM64L-G09RevC.
 01\State=1-A\HF=-935.4509059\RMSD=3.340e-09\Dipole=-1.1467039,-0.47091
 41,-1.6684128\Quadrupole=4.0174522,-2.6453534,-1.3720988,3.1089525,-0.
 3318696,-3.5815903\PG=C01 [X(C9H10Cl1N1O1)]\\@


 THE RARE EARTHS PERPLEX US IN OUR RESEARCHES,
 BAFFLE US IN OUR SPECULATIONS, AND HAUNT US IN OUR
 VERY DREAMS.  THEY STRETCH LIKE AN UNKNOWN BEFORE US,
 MOCKING, MYSTIFYING, AND MURMURING STRANGE REVELATIONS
 AND POSSIBILITIES.  -- SIR WILLIAM CROOKE, 1832-1919
 Job cpu time:  0 days  0 hours  1 minutes 53.5 seconds.
 File lengths (MBytes):  RWF=     27 Int=      0 D2E=      0 Chk=      4 Scr=      1
 Normal termination of Gaussian 09 at Sat Feb 17 20:56:32 2018.
