 Entering Gaussian System, Link 0=g09
 Initial command:
 /home/fb_chem/chemsoft/lx24-amd64/Gaussian_09_C.01_NBO_3.1_64_istanbul-64/g09/l1.exe /local/2397371.1.parallel_long/Gau-12302.inp -scrdir=/local/2397371.1.parallel_long/
 Entering Link 1 = /home/fb_chem/chemsoft/lx24-amd64/Gaussian_09_C.01_NBO_3.1_64_istanbul-64/g09/l1.exe PID=     12303.
  
 Copyright (c) 1988,1990,1992,1993,1995,1998,2003,2009,2011,
            Gaussian, Inc.  All Rights Reserved.
  
 This is part of the Gaussian(R) 09 program.  It is based on
 the Gaussian(R) 03 system (copyright 2003, Gaussian, Inc.),
 the Gaussian(R) 98 system (copyright 1998, Gaussian, Inc.),
 the Gaussian(R) 94 system (copyright 1995, Gaussian, Inc.),
 the Gaussian 92(TM) system (copyright 1992, Gaussian, Inc.),
 the Gaussian 90(TM) system (copyright 1990, Gaussian, Inc.),
 the Gaussian 88(TM) system (copyright 1988, Gaussian, Inc.),
 the Gaussian 86(TM) system (copyright 1986, Carnegie Mellon
 University), and the Gaussian 82(TM) system (copyright 1983,
 Carnegie Mellon University). Gaussian is a federally registered
 trademark of Gaussian, Inc.
  
 This software contains proprietary and confidential information,
 including trade secrets, belonging to Gaussian, Inc.
  
 This software is provided under written license and may be
 used, copied, transmitted, or stored only in accord with that
 written license.
  
 The following legend is applicable only to US Government
 contracts under FAR:
  
                    RESTRICTED RIGHTS LEGEND
  
 Use, reproduction and disclosure by the US Government is
 subject to restrictions as set forth in subparagraphs (a)
 and (c) of the Commercial Computer Software - Restricted
 Rights clause in FAR 52.227-19.
  
 Gaussian, Inc.
 340 Quinnipiac St., Bldg. 40, Wallingford CT 06492
  
  
 ---------------------------------------------------------------
 Warning -- This program may not be used in any manner that
 competes with the business of Gaussian, Inc. or will provide
 assistance to any competitor of Gaussian, Inc.  The licensee
 of this program is prohibited from giving any competitor of
 Gaussian, Inc. access to this program.  By using this program,
 the user acknowledges that Gaussian, Inc. is engaged in the
 business of creating and licensing software in the field of
 computational chemistry and represents and warrants to the
 licensee that it is not a competitor of Gaussian, Inc. and that
 it will not use this program in any manner prohibited above.
 ---------------------------------------------------------------
  

 Cite this work as:
 Gaussian 09, Revision C.01,
 M. J. Frisch, G. W. Trucks, H. B. Schlegel, G. E. Scuseria, 
 M. A. Robb, J. R. Cheeseman, G. Scalmani, V. Barone, B. Mennucci, 
 G. A. Petersson, H. Nakatsuji, M. Caricato, X. Li, H. P. Hratchian, 
 A. F. Izmaylov, J. Bloino, G. Zheng, J. L. Sonnenberg, M. Hada, 
 M. Ehara, K. Toyota, R. Fukuda, J. Hasegawa, M. Ishida, T. Nakajima, 
 Y. Honda, O. Kitao, H. Nakai, T. Vreven, J. A. Montgomery, Jr., 
 J. E. Peralta, F. Ogliaro, M. Bearpark, J. J. Heyd, E. Brothers, 
 K. N. Kudin, V. N. Staroverov, T. Keith, R. Kobayashi, J. Normand, 
 K. Raghavachari, A. Rendell, J. C. Burant, S. S. Iyengar, J. Tomasi, 
 M. Cossi, N. Rega, J. M. Millam, M. Klene, J. E. Knox, J. B. Cross, 
 V. Bakken, C. Adamo, J. Jaramillo, R. Gomperts, R. E. Stratmann, 
 O. Yazyev, A. J. Austin, R. Cammi, C. Pomelli, J. W. Ochterski, 
 R. L. Martin, K. Morokuma, V. G. Zakrzewski, G. A. Voth, 
 P. Salvador, J. J. Dannenberg, S. Dapprich, A. D. Daniels, 
 O. Farkas, J. B. Foresman, J. V. Ortiz, J. Cioslowski, 
 and D. J. Fox, Gaussian, Inc., Wallingford CT, 2010.
 
 ******************************************
 Gaussian 09:  AM64L-G09RevC.01 23-Sep-2011
                16-Feb-2018 
 ******************************************
 %nprocs=4
 Will use up to    4 processors via shared memory.
 %chk=frag27-conf1.chk
 ---------------------------------------------------------
 #B3LYP/6-31G* Integral=(Grid=UltraFine) freq Opt pop=none
 ---------------------------------------------------------
 1/14=-1,18=20,19=15,26=3,38=1/1,3;
 2/9=110,12=2,17=6,18=5,40=1/2;
 3/5=1,6=6,7=1,11=2,16=1,25=1,30=1,71=1,74=-5,75=-5/1,2,3;
 4//1;
 5/5=2,38=5/2;
 7//1,2,3,16;
 1/14=-1,18=20,19=15/3(2);
 2/9=110/2;
 99//99;
 2/9=110/2;
 3/5=1,6=6,7=1,11=2,16=1,25=1,30=1,71=1,74=-5,75=-5/1,2,3;
 4/5=5,16=3/1;
 5/5=2,38=5/2;
 7//1,2,3,16;
 1/14=-1,18=20,19=15/3(-5);
 2/9=110/2;
 99/9=1/99;
 -----------------------------
 Optimization for frag27-conf1
 -----------------------------
 Charge =  1 Multiplicity = 1
 Symbolic Z-Matrix:
 C                     2.19921  -1.36757  -0.45507 
 C                     0.9895   -0.67616  -0.37372 
 C                     1.21819  -0.57514   2.02685 
 C                     2.94413  -1.66575   0.70173 
 C                     2.44544  -1.26285   1.9628 
 C                     0.5032   -0.28261   0.86697 
 C                     3.67556  -3.57498   4.60896 
 C                     3.16668  -4.93319   5.00751 
 C                     3.15901  -1.57958   3.25609 
 C                     4.22805  -2.44991   0.5499 
 N                     2.89612  -2.94037   3.67219 
 N                     4.04734  -3.86311   0.87306 
 O                     4.69075  -3.07858   5.09165 
 Cl                   -0.99208   0.56306   0.97255 
 H                     2.55883  -1.67773  -1.43664 
 H                     0.43383  -0.45593  -1.28237 
 H                     0.81777  -0.2696    2.99266 
 H                     4.00423  -5.55185   5.34124 
 H                     2.4473   -4.82237   5.82305 
 H                     2.68266  -5.43135   4.16261 
 H                     4.23747  -1.41193   3.16823 
 H                     2.81529  -0.92037   4.06234 
 H                     4.59819  -2.40608  -0.48032 
 H                     5.02071  -2.05696   1.19342 
 H                     1.99781  -3.35068   3.42798 
 H                     3.34625  -4.29586   0.27295 
 H                     3.73733  -3.97512   1.83848 
 H                     4.91531  -4.38571   0.76464 
 

 GradGradGradGradGradGradGradGradGradGradGradGradGradGradGradGradGradGrad
 Berny optimization.
 Initialization pass.
                           ----------------------------
                           !    Initial Parameters    !
                           ! (Angstroms and Degrees)  !
 --------------------------                            --------------------------
 ! Name  Definition              Value          Derivative Info.                !
 --------------------------------------------------------------------------------
 ! R1    R(1,2)                  1.3957         estimate D2E/DX2                !
 ! R2    R(1,4)                  1.4078         estimate D2E/DX2                !
 ! R3    R(1,15)                 1.0904         estimate D2E/DX2                !
 ! R4    R(2,6)                  1.3895         estimate D2E/DX2                !
 ! R5    R(2,16)                 1.0876         estimate D2E/DX2                !
 ! R6    R(3,5)                  1.4083         estimate D2E/DX2                !
 ! R7    R(3,6)                  1.3936         estimate D2E/DX2                !
 ! R8    R(3,17)                 1.0893         estimate D2E/DX2                !
 ! R9    R(4,5)                  1.4147         estimate D2E/DX2                !
 ! R10   R(4,10)                 1.5121         estimate D2E/DX2                !
 ! R11   R(5,9)                  1.5107         estimate D2E/DX2                !
 ! R12   R(6,14)                 1.7211         estimate D2E/DX2                !
 ! R13   R(7,8)                  1.5042         estimate D2E/DX2                !
 ! R14   R(7,11)                 1.374          estimate D2E/DX2                !
 ! R15   R(7,13)                 1.2288         estimate D2E/DX2                !
 ! R16   R(8,18)                 1.0934         estimate D2E/DX2                !
 ! R17   R(8,19)                 1.0931         estimate D2E/DX2                !
 ! R18   R(8,20)                 1.0938         estimate D2E/DX2                !
 ! R19   R(9,11)                 1.4471         estimate D2E/DX2                !
 ! R20   R(9,21)                 1.0949         estimate D2E/DX2                !
 ! R21   R(9,22)                 1.0967         estimate D2E/DX2                !
 ! R22   R(10,12)                1.4609         estimate D2E/DX2                !
 ! R23   R(10,23)                1.0956         estimate D2E/DX2                !
 ! R24   R(10,24)                1.094          estimate D2E/DX2                !
 ! R25   R(11,25)                1.0173         estimate D2E/DX2                !
 ! R26   R(12,26)                1.0193         estimate D2E/DX2                !
 ! R27   R(12,27)                1.0201         estimate D2E/DX2                !
 ! R28   R(12,28)                1.0189         estimate D2E/DX2                !
 ! A1    A(2,1,4)              121.0399         estimate D2E/DX2                !
 ! A2    A(2,1,15)             118.6342         estimate D2E/DX2                !
 ! A3    A(4,1,15)             120.3257         estimate D2E/DX2                !
 ! A4    A(1,2,6)              119.7151         estimate D2E/DX2                !
 ! A5    A(1,2,16)             119.6321         estimate D2E/DX2                !
 ! A6    A(6,2,16)             120.6518         estimate D2E/DX2                !
 ! A7    A(5,3,6)              120.7813         estimate D2E/DX2                !
 ! A8    A(5,3,17)             119.8458         estimate D2E/DX2                !
 ! A9    A(6,3,17)             119.3725         estimate D2E/DX2                !
 ! A10   A(1,4,5)              119.0532         estimate D2E/DX2                !
 ! A11   A(1,4,10)             118.4647         estimate D2E/DX2                !
 ! A12   A(5,4,10)             122.4471         estimate D2E/DX2                !
 ! A13   A(3,5,4)              119.1322         estimate D2E/DX2                !
 ! A14   A(3,5,9)              118.3651         estimate D2E/DX2                !
 ! A15   A(4,5,9)              122.4749         estimate D2E/DX2                !
 ! A16   A(2,6,3)              120.2749         estimate D2E/DX2                !
 ! A17   A(2,6,14)             119.8684         estimate D2E/DX2                !
 ! A18   A(3,6,14)             119.8561         estimate D2E/DX2                !
 ! A19   A(8,7,11)             113.9405         estimate D2E/DX2                !
 ! A20   A(8,7,13)             122.696          estimate D2E/DX2                !
 ! A21   A(11,7,13)            123.3598         estimate D2E/DX2                !
 ! A22   A(7,8,18)             109.4282         estimate D2E/DX2                !
 ! A23   A(7,8,19)             109.1947         estimate D2E/DX2                !
 ! A24   A(7,8,20)             110.8738         estimate D2E/DX2                !
 ! A25   A(18,8,19)            109.4958         estimate D2E/DX2                !
 ! A26   A(18,8,20)            108.4841         estimate D2E/DX2                !
 ! A27   A(19,8,20)            109.3453         estimate D2E/DX2                !
 ! A28   A(5,9,11)             110.9479         estimate D2E/DX2                !
 ! A29   A(5,9,21)             111.3736         estimate D2E/DX2                !
 ! A30   A(5,9,22)             110.8128         estimate D2E/DX2                !
 ! A31   A(11,9,21)            110.242          estimate D2E/DX2                !
 ! A32   A(11,9,22)            107.2723         estimate D2E/DX2                !
 ! A33   A(21,9,22)            106.0014         estimate D2E/DX2                !
 ! A34   A(4,10,12)            111.9884         estimate D2E/DX2                !
 ! A35   A(4,10,23)            111.1335         estimate D2E/DX2                !
 ! A36   A(4,10,24)            111.7088         estimate D2E/DX2                !
 ! A37   A(12,10,23)           106.7683         estimate D2E/DX2                !
 ! A38   A(12,10,24)           107.8764         estimate D2E/DX2                !
 ! A39   A(23,10,24)           107.0961         estimate D2E/DX2                !
 ! A40   A(7,11,9)             121.8255         estimate D2E/DX2                !
 ! A41   A(7,11,25)            118.5747         estimate D2E/DX2                !
 ! A42   A(9,11,25)            118.0773         estimate D2E/DX2                !
 ! A43   A(10,12,26)           111.4413         estimate D2E/DX2                !
 ! A44   A(10,12,27)           110.6801         estimate D2E/DX2                !
 ! A45   A(10,12,28)           111.5455         estimate D2E/DX2                !
 ! A46   A(26,12,27)           107.5494         estimate D2E/DX2                !
 ! A47   A(26,12,28)           107.789          estimate D2E/DX2                !
 ! A48   A(27,12,28)           107.6528         estimate D2E/DX2                !
 ! D1    D(4,1,2,6)             -0.4982         estimate D2E/DX2                !
 ! D2    D(4,1,2,16)           179.8615         estimate D2E/DX2                !
 ! D3    D(15,1,2,6)           179.325          estimate D2E/DX2                !
 ! D4    D(15,1,2,16)           -0.3153         estimate D2E/DX2                !
 ! D5    D(2,1,4,5)              0.4779         estimate D2E/DX2                !
 ! D6    D(2,1,4,10)           178.3776         estimate D2E/DX2                !
 ! D7    D(15,1,4,5)          -179.3423         estimate D2E/DX2                !
 ! D8    D(15,1,4,10)           -1.4427         estimate D2E/DX2                !
 ! D9    D(1,2,6,3)              0.0221         estimate D2E/DX2                !
 ! D10   D(1,2,6,14)          -179.6855         estimate D2E/DX2                !
 ! D11   D(16,2,6,3)           179.6587         estimate D2E/DX2                !
 ! D12   D(16,2,6,14)           -0.0489         estimate D2E/DX2                !
 ! D13   D(6,3,5,4)             -0.4805         estimate D2E/DX2                !
 ! D14   D(6,3,5,9)           -178.6086         estimate D2E/DX2                !
 ! D15   D(17,3,5,4)           179.2972         estimate D2E/DX2                !
 ! D16   D(17,3,5,9)             1.169          estimate D2E/DX2                !
 ! D17   D(5,3,6,2)              0.4687         estimate D2E/DX2                !
 ! D18   D(5,3,6,14)          -179.8237         estimate D2E/DX2                !
 ! D19   D(17,3,6,2)          -179.31           estimate D2E/DX2                !
 ! D20   D(17,3,6,14)            0.3976         estimate D2E/DX2                !
 ! D21   D(1,4,5,3)              0.0105         estimate D2E/DX2                !
 ! D22   D(1,4,5,9)            178.0581         estimate D2E/DX2                !
 ! D23   D(10,4,5,3)          -177.8015         estimate D2E/DX2                !
 ! D24   D(10,4,5,9)             0.2461         estimate D2E/DX2                !
 ! D25   D(1,4,10,12)         -100.0849         estimate D2E/DX2                !
 ! D26   D(1,4,10,23)           19.2326         estimate D2E/DX2                !
 ! D27   D(1,4,10,24)          138.7787         estimate D2E/DX2                !
 ! D28   D(5,4,10,12)           77.7393         estimate D2E/DX2                !
 ! D29   D(5,4,10,23)         -162.9431         estimate D2E/DX2                !
 ! D30   D(5,4,10,24)          -43.397          estimate D2E/DX2                !
 ! D31   D(3,5,9,11)            98.2544         estimate D2E/DX2                !
 ! D32   D(3,5,9,21)          -138.5392         estimate D2E/DX2                !
 ! D33   D(3,5,9,22)           -20.7998         estimate D2E/DX2                !
 ! D34   D(4,5,9,11)           -79.8074         estimate D2E/DX2                !
 ! D35   D(4,5,9,21)            43.3989         estimate D2E/DX2                !
 ! D36   D(4,5,9,22)           161.1383         estimate D2E/DX2                !
 ! D37   D(11,7,8,18)          153.1464         estimate D2E/DX2                !
 ! D38   D(11,7,8,19)          -87.0182         estimate D2E/DX2                !
 ! D39   D(11,7,8,20)           33.5229         estimate D2E/DX2                !
 ! D40   D(13,7,8,18)          -27.5229         estimate D2E/DX2                !
 ! D41   D(13,7,8,19)           92.3125         estimate D2E/DX2                !
 ! D42   D(13,7,8,20)         -147.1464         estimate D2E/DX2                !
 ! D43   D(8,7,11,9)           174.3524         estimate D2E/DX2                !
 ! D44   D(8,7,11,25)            8.7012         estimate D2E/DX2                !
 ! D45   D(13,7,11,9)           -4.9732         estimate D2E/DX2                !
 ! D46   D(13,7,11,25)        -170.6244         estimate D2E/DX2                !
 ! D47   D(5,9,11,7)           163.2823         estimate D2E/DX2                !
 ! D48   D(5,9,11,25)          -30.9981         estimate D2E/DX2                !
 ! D49   D(21,9,11,7)           39.427          estimate D2E/DX2                !
 ! D50   D(21,9,11,25)        -154.8535         estimate D2E/DX2                !
 ! D51   D(22,9,11,7)          -75.5556         estimate D2E/DX2                !
 ! D52   D(22,9,11,25)          90.164          estimate D2E/DX2                !
 ! D53   D(4,10,12,26)          59.2249         estimate D2E/DX2                !
 ! D54   D(4,10,12,27)         -60.412          estimate D2E/DX2                !
 ! D55   D(4,10,12,28)         179.752          estimate D2E/DX2                !
 ! D56   D(23,10,12,26)        -62.6294         estimate D2E/DX2                !
 ! D57   D(23,10,12,27)        177.7337         estimate D2E/DX2                !
 ! D58   D(23,10,12,28)         57.8977         estimate D2E/DX2                !
 ! D59   D(24,10,12,26)       -177.4507         estimate D2E/DX2                !
 ! D60   D(24,10,12,27)         62.9124         estimate D2E/DX2                !
 ! D61   D(24,10,12,28)        -56.9236         estimate D2E/DX2                !
 --------------------------------------------------------------------------------
 Trust Radius=3.00D-01 FncErr=1.00D-07 GrdErr=1.00D-06
 Number of steps in this run=    147 maximum allowed number of steps=    168.
 GradGradGradGradGradGradGradGradGradGradGradGradGradGradGradGradGradGrad

                          Input orientation:                          
 ---------------------------------------------------------------------
 Center     Atomic      Atomic             Coordinates (Angstroms)
 Number     Number       Type             X           Y           Z
 ---------------------------------------------------------------------
      1          6           0        2.199206   -1.367571   -0.455068
      2          6           0        0.989502   -0.676158   -0.373721
      3          6           0        1.218194   -0.575135    2.026847
      4          6           0        2.944128   -1.665751    0.701731
      5          6           0        2.445439   -1.262851    1.962796
      6          6           0        0.503201   -0.282610    0.866971
      7          6           0        3.675562   -3.574979    4.608964
      8          6           0        3.166683   -4.933187    5.007507
      9          6           0        3.159009   -1.579575    3.256090
     10          6           0        4.228049   -2.449907    0.549904
     11          7           0        2.896124   -2.940371    3.672191
     12          7           0        4.047343   -3.863108    0.873063
     13          8           0        4.690745   -3.078579    5.091654
     14         17           0       -0.992078    0.563063    0.972554
     15          1           0        2.558826   -1.677728   -1.436636
     16          1           0        0.433830   -0.455931   -1.282367
     17          1           0        0.817767   -0.269603    2.992664
     18          1           0        4.004228   -5.551852    5.341239
     19          1           0        2.447301   -4.822366    5.823053
     20          1           0        2.682655   -5.431354    4.162614
     21          1           0        4.237473   -1.411930    3.168229
     22          1           0        2.815285   -0.920374    4.062340
     23          1           0        4.598190   -2.406077   -0.480321
     24          1           0        5.020712   -2.056957    1.193421
     25          1           0        1.997808   -3.350683    3.427976
     26          1           0        3.346248   -4.295862    0.272950
     27          1           0        3.737326   -3.975124    1.838482
     28          1           0        4.915310   -4.385714    0.764641
 ---------------------------------------------------------------------
                    Distance matrix (angstroms):
                    1          2          3          4          5
     1  C    0.000000
     2  C    1.395727   0.000000
     3  C    2.783926   2.413552   0.000000
     4  C    1.407836   2.440585   2.433973   0.000000
     5  C    2.432624   2.814831   1.408257   1.414674   0.000000
     6  C    2.408601   1.389491   1.393592   2.810428   2.435979
     7  C    5.718103   6.359657   4.658868   4.409833   3.723083
     8  C    6.594646   7.198614   5.627927   5.409749   4.823052
     9  C    3.839122   4.324171   2.507330   2.564830   1.510664
    10  C    2.509506   3.806239   3.841270   1.512086   2.565748
    11  N    4.471427   5.013110   3.334208   3.232738   2.437052
    12  N    3.377461   4.589282   4.488437   2.464714   3.242676
    13  O    6.316758   7.024326   5.264873   4.931347   4.257701
    14  Cl   3.993713   2.697181   2.700432   4.531520   4.016350
    15  H    1.090413   2.143761   3.874110   2.172836   3.426531
    16  H    2.152223   1.087616   3.402990   3.420805   3.902406
    17  H    3.873082   3.395192   1.089263   3.423305   2.167138
    18  H    7.373159   8.094550   6.596581   6.144154   5.677960
    19  H    7.170214   7.597120   5.827594   6.036473   5.250880
    20  H    6.170173   6.786530   5.503545   5.121117   4.719310
    21  H    4.157497   4.861696   3.334520   2.796566   2.164874
    22  H    4.581104   4.803308   2.610195   3.444689   2.159204
    23  H    2.614241   4.003325   4.589402   2.163620   3.451104
    24  H    3.339710   4.540176   4.165278   2.169563   2.802601
    25  H    4.364782   4.756329   3.205406   3.341696   2.589627
    26  H    3.228096   4.367458   4.631261   2.695002   3.586947
    27  H    3.798094   4.829861   4.235733   2.693431   3.006801
    28  H    4.239587   5.519841   5.457320   3.359719   4.157897
                    6          7          8          9         10
     6  C    0.000000
     7  C    5.908137   0.000000
     8  C    6.772448   1.504169   0.000000
     9  C    3.800438   2.465508   3.783416   0.000000
    10  C    4.321134   4.248176   5.211852   3.037066   0.000000
    11  N    4.545221   1.373971   2.414040   1.447070   3.429760
    12  N    5.037950   3.765395   4.360535   3.417964   1.460898
    13  O    6.572740   1.228820   2.401961   2.821794   4.608341
    14  Cl   1.721096   7.220370   7.986546   5.199708   6.042048
    15  H    3.388001   6.433969   7.245309   4.731970   2.707196
    16  H    2.157431   7.412495   8.190045   5.411726   4.661465
    17  H    2.148882   4.658855   5.596965   2.695707   4.727666
    18  H    7.748624   2.133606   1.093437   4.565219   5.712184
    19  H    6.996547   2.130402   1.093118   4.196608   6.050267
    20  H    6.490058   2.152027   1.093754   3.985586   4.932437
    21  H    4.529452   2.658993   4.114461   1.094946   2.816579
    22  H    3.995355   2.843555   4.137571   1.096691   4.083207
    23  H    4.805543   5.302679   6.209006   4.088412   1.095577
    24  H    4.864440   3.972374   5.124196   2.819297   1.094001
    25  H    4.266810   2.063953   2.522996   2.124795   3.750822
    26  H    4.953985   4.407850   4.780634   4.038861   2.064419
    27  H    5.003805   2.799912   3.359500   2.843013   2.056095
    28  H    6.025997   4.119841   4.621616   4.143226   2.065378
                   11         12         13         14         15
    11  N    0.000000
    12  N    3.164154   0.000000
    13  O    2.292300   4.338890   0.000000
    14  Cl   5.888990   6.707954   7.907150   0.000000
    15  H    5.273344   3.510880   7.008997   4.840895   0.000000
    16  H    6.064898   5.414075   8.101096   2.855912   2.456053
    17  H    3.451713   5.275997   5.224564   2.837203   4.963145
    18  H    3.291421   4.776852   2.578890   9.024449   7.939623
    19  H    2.893019   5.289869   2.934072   8.022439   7.912287
    20  H    2.547760   3.891390   3.229720   7.720957   6.742154
    21  H    2.095071   3.363363   2.585099   6.005813   4.908492
    22  H    2.058917   4.511002   3.038863   5.122829   5.556806
    23  H    4.519497   2.063497   5.613175   6.494439   2.367285
    24  H    3.382099   2.076598   4.043366   6.562540   3.622416
    25  H    1.017334   3.315230   3.177070   5.503265   5.174744
    26  H    3.687114   1.019287   5.148724   6.551311   3.224491
    27  H    2.267339   1.020143   3.506555   6.611523   4.170526
    28  H    3.823608   1.018940   4.525712   7.709141   4.210918
                   16         17         18         19         20
    16  H    0.000000
    17  H    4.296280   0.000000
    18  H    9.087811   6.600870   0.000000
    19  H    8.579442   5.603047   1.785586   0.000000
    20  H    7.711022   5.611618   1.774889   1.784185   0.000000
    21  H    5.932069   3.609726   4.681381   4.678021   4.422898
    22  H    5.869662   2.357496   4.949723   4.296635   4.514043
    23  H    4.667788   5.560373   6.643738   7.085006   5.863311
    24  H    5.452733   4.908835   5.518326   5.975235   5.066475
    25  H    5.745690   3.327919   3.539977   2.846804   2.310389
    26  H    5.064214   5.477301   5.262889   5.647031   4.105993
    27  H    5.747826   4.856630   3.850534   4.273031   2.938456
    28  H    6.302151   6.220636   4.809906   5.645287   4.198134
                   21         22         23         24         25
    21  H    0.000000
    22  H    1.750336   0.000000
    23  H    3.798732   5.101160   0.000000
    24  H    2.220224   3.792944   1.761199   0.000000
    25  H    2.973605   2.641418   4.788429   3.975539   0.000000
    26  H    4.182582   5.102482   2.388737   2.943432   3.558910
    27  H    2.930587   3.889371   2.929137   2.396361   2.437692
    28  H    3.883309   5.224318   2.359970   2.370246   4.083682
                   26         27         28
    26  H    0.000000
    27  H    1.645207   0.000000
    28  H    1.646752   1.646014   0.000000
 Stoichiometry    C10H14ClN2O(1+)
 Framework group  C1[X(C10H14ClN2O)]
 Deg. of freedom    78
 Full point group                 C1      NOp   1
 Largest Abelian subgroup         C1      NOp   1
 Largest concise Abelian subgroup C1      NOp   1
                         Standard orientation:                         
 ---------------------------------------------------------------------
 Center     Atomic      Atomic             Coordinates (Angstroms)
 Number     Number       Type             X           Y           Z
 ---------------------------------------------------------------------
      1          6           0        1.723060    1.848528    0.090360
      2          6           0        2.805430    0.985497    0.268420
      3          6           0        1.413532   -0.879095   -0.372789
      4          6           0        0.470383    1.364346   -0.331980
      5          6           0        0.313405   -0.021747   -0.567368
      6          6           0        2.646738   -0.375268    0.036430
      7          6           0       -3.226816   -1.013370    0.019884
      8          6           0       -3.939375   -1.303070    1.312501
      9          6           0       -1.006243   -0.629978   -0.980515
     10          6           0       -0.672070    2.345207   -0.470252
     11          7           0       -1.876541   -0.803136    0.162555
     12          7           0       -1.571206    2.303384    0.680412
     13          8           0       -3.804742   -0.982033   -1.064099
     14         17           0        3.976605   -1.444132    0.262603
     15          1           0        1.864279    2.911518    0.288123
     16          1           0        3.763622    1.384566    0.593264
     17          1           0        1.302544   -1.949781   -0.539544
     18          1           0       -4.984597   -0.992990    1.229042
     19          1           0       -3.892297   -2.376008    1.516201
     20          1           0       -3.480635   -0.756443    2.141389
     21          1           0       -1.502400   -0.024551   -1.746148
     22          1           0       -0.855948   -1.619767   -1.428244
     23          1           0       -0.302611    3.373863   -0.545459
     24          1           0       -1.266221    2.150441   -1.367965
     25          1           0       -1.448340   -0.986949    1.066892
     26          1           0       -1.078774    2.520128    1.546137
     27          1           0       -1.981037    1.374924    0.783816
     28          1           0       -2.335962    2.969512    0.582123
 ---------------------------------------------------------------------
 Rotational constants (GHZ):      0.9914088      0.3123553      0.2596795
 Standard basis: 6-31G(d) (6D, 7F)
 There are   242 symmetry adapted basis functions of A   symmetry.
 Integral buffers will be    131072 words long.
 Raffenetti 2 integral format.
 Two-electron integral symmetry is turned on.
   242 basis functions,   472 primitive gaussians,   242 cartesian basis functions
    56 alpha electrons       56 beta electrons
       nuclear repulsion energy       977.2238871941 Hartrees.
 NAtoms=   28 NActive=   28 NUniq=   28 SFac= 1.00D+00 NAtFMM=   60 NAOKFM=F Big=F
 One-electron integrals computed using PRISM.
 NBasis=   242 RedAO= T  NBF=   242
 NBsUse=   242 1.00D-06 NBFU=   242
 Harris functional with IExCor=  402 diagonalized for initial guess.
 ExpMin= 1.43D-01 ExpMax= 2.52D+04 ExpMxC= 3.78D+03 IAcc=3 IRadAn=         5 AccDes= 0.00D+00
 HarFok:  IExCor=  402 AccDes= 0.00D+00 IRadAn=         5 IDoV= 1
 ScaDFX=  1.000000  1.000000  1.000000  1.000000
 FoFCou: FMM=F IPFlag=           0 FMFlag=      100000 FMFlg1=           0
         NFxFlg=           0 DoJE=T BraDBF=F KetDBF=T FulRan=T
         Omega=  0.000000  0.000000  1.000000  0.000000  0.000000 ICntrl=     500 IOpCl=  0
         NMat0=    1 NMatS0=    1 NMatT0=    0 NMatD0=    1 NMtDS0=    0 NMtDT0=    0
         I1Cent=           4 NGrid=           0.
 Petite list used in FoFCou.
 Initial guess orbital symmetries:
       Occupied  (A) (A) (A) (A) (A) (A) (A) (A) (A) (A) (A) (A)
                 (A) (A) (A) (A) (A) (A) (A) (A) (A) (A) (A) (A)
                 (A) (A) (A) (A) (A) (A) (A) (A) (A) (A) (A) (A)
                 (A) (A) (A) (A) (A) (A) (A) (A) (A) (A) (A) (A)
                 (A) (A) (A) (A) (A) (A) (A) (A)
       Virtual   (A) (A) (A) (A) (A) (A) (A) (A) (A) (A) (A) (A)
                 (A) (A) (A) (A) (A) (A) (A) (A) (A) (A) (A) (A)
                 (A) (A) (A) (A) (A) (A) (A) (A) (A) (A) (A) (A)
                 (A) (A) (A) (A) (A) (A) (A) (A) (A) (A) (A) (A)
                 (A) (A) (A) (A) (A) (A) (A) (A) (A) (A) (A) (A)
                 (A) (A) (A) (A) (A) (A) (A) (A) (A) (A) (A) (A)
                 (A) (A) (A) (A) (A) (A) (A) (A) (A) (A) (A) (A)
                 (A) (A) (A) (A) (A) (A) (A) (A) (A) (A) (A) (A)
                 (A) (A) (A) (A) (A) (A) (A) (A) (A) (A) (A) (A)
                 (A) (A) (A) (A) (A) (A) (A) (A) (A) (A) (A) (A)
                 (A) (A) (A) (A) (A) (A) (A) (A) (A) (A) (A) (A)
                 (A) (A) (A) (A) (A) (A) (A) (A) (A) (A) (A) (A)
                 (A) (A) (A) (A) (A) (A) (A) (A) (A) (A) (A) (A)
                 (A) (A) (A) (A) (A) (A) (A) (A) (A) (A) (A) (A)
                 (A) (A) (A) (A) (A) (A) (A) (A) (A) (A) (A) (A)
                 (A) (A) (A) (A) (A) (A)
 The electronic state of the initial guess is 1-A.
 Requested convergence on RMS density matrix=1.00D-08 within 128 cycles.
 Requested convergence on MAX density matrix=1.00D-06.
 Requested convergence on             energy=1.00D-06.
 No special actions if energy rises.
 Integral accuracy reduced to 1.0D-05 until final iterations.
 Initial convergence to 1.0D-05 achieved.  Increase integral accuracy.
 SCF Done:  E(RB3LYP) =  -1034.19407600     A.U. after   15 cycles
             Convg  =    0.4609D-08             -V/T =  2.0066
 Calling FoFJK, ICntrl=      2127 FMM=F ISym2X=0 I1Cent= 0 IOpClX= 0 NMat=1 NMatS=1 NMatT=0.
 ***** Axes restored to original set *****
 -------------------------------------------------------------------
 Center     Atomic                   Forces (Hartrees/Bohr)
 Number     Number              X              Y              Z
 -------------------------------------------------------------------
      1        6          -0.000695183   -0.000015713    0.004261056
      2        6           0.003801563   -0.003553494   -0.010335693
      3        6           0.008134862   -0.004150264    0.003612180
      4        6          -0.005406921   -0.001808665   -0.005228802
      5        6          -0.007881322    0.004786822   -0.000652746
      6        6           0.004514533   -0.002485668    0.000943661
      7        6           0.018706218   -0.000843743    0.021732853
      8        6           0.002240848   -0.006276711   -0.002331608
      9        6          -0.004546027    0.015408009    0.004891127
     10        6           0.004056335    0.040547008   -0.009708778
     11        7           0.004393001   -0.015297177   -0.021339229
     12        7           0.001641797   -0.025576825    0.001578213
     13        8          -0.013192394   -0.000119248   -0.013227073
     14       17          -0.007493490    0.004261258    0.000887695
     15        1           0.000406576    0.001447413    0.001945445
     16        1           0.000343869    0.000496125    0.002358825
     17        1           0.001917617   -0.000130758   -0.002204021
     18        1          -0.001696077    0.001782637    0.002216568
     19        1          -0.001026856   -0.002546173    0.001440572
     20        1          -0.004237854   -0.003022087    0.001404617
     21        1           0.000387435   -0.004230265    0.002955325
     22        1           0.001175431    0.005716573   -0.003584044
     23        1          -0.001506823    0.000664729    0.001373151
     24        1           0.000302572   -0.003279001    0.000990648
     25        1           0.000438669    0.004872115    0.005419853
     26        1          -0.005198466   -0.002795140   -0.004180553
     27        1          -0.006281231    0.001857225    0.015618959
     28        1           0.006701318   -0.005708979   -0.000838201
 -------------------------------------------------------------------
 Cartesian Forces:  Max     0.040547008 RMS     0.008276768

 GradGradGradGradGradGradGradGradGradGradGradGradGradGradGradGradGradGrad
 Berny optimization.
 Internal  Forces:  Max     0.034252260 RMS     0.005495796
 Search for a local minimum.
 Step number   1 out of a maximum of  147
 All quantities printed in internal units (Hartrees-Bohrs-Radians)
 Mixed Optimization -- RFO/linear search
 Second derivative matrix not updated -- first step.
 ITU=  0
     Eigenvalues ---    0.00606   0.00625   0.00711   0.00886   0.01069
     Eigenvalues ---    0.01246   0.01390   0.01435   0.01559   0.01939
     Eigenvalues ---    0.02036   0.02058   0.02065   0.02075   0.02178
     Eigenvalues ---    0.02182   0.02204   0.04425   0.05155   0.05776
     Eigenvalues ---    0.05782   0.05882   0.06559   0.07355   0.07513
     Eigenvalues ---    0.09196   0.09876   0.12786   0.13193   0.15681
     Eigenvalues ---    0.16000   0.16000   0.16000   0.16000   0.16000
     Eigenvalues ---    0.16000   0.16000   0.16000   0.16000   0.21911
     Eigenvalues ---    0.21949   0.22073   0.22367   0.23492   0.24590
     Eigenvalues ---    0.24978   0.24988   0.24998   0.25000   0.25000
     Eigenvalues ---    0.31142   0.31284   0.31944   0.33466   0.34051
     Eigenvalues ---    0.34176   0.34247   0.34354   0.34382   0.34418
     Eigenvalues ---    0.34455   0.34765   0.34898   0.35090   0.36852
     Eigenvalues ---    0.38631   0.40993   0.41197   0.44013   0.44315
     Eigenvalues ---    0.44452   0.44508   0.44766   0.45589   0.45894
     Eigenvalues ---    0.46962   0.50221   0.91580
 RFO step:  Lambda=-1.67095678D-02 EMin= 6.06066865D-03
 Linear search not attempted -- first point.
 Iteration  1 RMS(Cart)=  0.13937990 RMS(Int)=  0.00488805
 Iteration  2 RMS(Cart)=  0.01009171 RMS(Int)=  0.00046054
 Iteration  3 RMS(Cart)=  0.00006207 RMS(Int)=  0.00045954
 Iteration  4 RMS(Cart)=  0.00000003 RMS(Int)=  0.00045954
 Variable       Old X    -DE/DX   Delta X   Delta X   Delta X     New X
                                 (Linear)    (Quad)   (Total)
    R1        2.63754  -0.00324   0.00000  -0.00630  -0.00628   2.63127
    R2        2.66042  -0.00494   0.00000  -0.01150  -0.01147   2.64895
    R3        2.06058  -0.00203   0.00000  -0.00557  -0.00557   2.05501
    R4        2.62576   0.00644   0.00000   0.01429   0.01428   2.64004
    R5        2.05530  -0.00205   0.00000  -0.00557  -0.00557   2.04973
    R6        2.66122  -0.00948   0.00000  -0.02110  -0.02112   2.64010
    R7        2.63351   0.00448   0.00000   0.00999   0.00996   2.64347
    R8        2.05841  -0.00270   0.00000  -0.00737  -0.00737   2.05104
    R9        2.67335  -0.00580   0.00000  -0.01418  -0.01417   2.65918
   R10        2.85743  -0.00369   0.00000  -0.01124  -0.01124   2.84619
   R11        2.85474   0.00184   0.00000   0.00559   0.00559   2.86033
   R12        3.25240   0.00866   0.00000   0.02464   0.02464   3.27704
   R13        2.84247   0.01141   0.00000   0.03394   0.03394   2.87640
   R14        2.59643   0.01320   0.00000   0.02544   0.02544   2.62187
   R15        2.32213  -0.01614   0.00000  -0.01731  -0.01731   2.30482
   R16        2.06630  -0.00163   0.00000  -0.00452  -0.00452   2.06178
   R17        2.06569   0.00149   0.00000   0.00413   0.00413   2.06982
   R18        2.06690   0.00217   0.00000   0.00601   0.00601   2.07291
   R19        2.73457   0.01781   0.00000   0.04418   0.04418   2.77875
   R20        2.06915  -0.00050   0.00000  -0.00140  -0.00140   2.06775
   R21        2.07245   0.00043   0.00000   0.00121   0.00121   2.07366
   R22        2.76070   0.03425   0.00000   0.08891   0.08891   2.84961
   R23        2.07034  -0.00177   0.00000  -0.00495  -0.00495   2.06539
   R24        2.06736  -0.00038   0.00000  -0.00104  -0.00104   2.06632
   R25        1.92248  -0.00365   0.00000  -0.00787  -0.00787   1.91462
   R26        1.92617   0.00722   0.00000   0.01566   0.01566   1.94183
   R27        1.92779   0.01649   0.00000   0.03585   0.03585   1.96364
   R28        1.92552   0.00873   0.00000   0.01890   0.01890   1.94441
    A1        2.11254  -0.00078   0.00000  -0.00344  -0.00350   2.10905
    A2        2.07056   0.00097   0.00000   0.00504   0.00489   2.07545
    A3        2.10008  -0.00019   0.00000  -0.00152  -0.00166   2.09842
    A4        2.08942  -0.00311   0.00000  -0.00930  -0.00930   2.08012
    A5        2.08797   0.00285   0.00000   0.01201   0.01197   2.09995
    A6        2.10577   0.00026   0.00000  -0.00264  -0.00267   2.10310
    A7        2.10803  -0.00136   0.00000  -0.00479  -0.00484   2.10320
    A8        2.09170   0.00010   0.00000  -0.00091  -0.00089   2.09081
    A9        2.08344   0.00127   0.00000   0.00572   0.00574   2.08918
   A10        2.07787   0.00460   0.00000   0.01407   0.01412   2.09199
   A11        2.06760   0.00735   0.00000   0.02927   0.02924   2.09684
   A12        2.13710  -0.01194   0.00000  -0.04312  -0.04316   2.09395
   A13        2.07925   0.00077   0.00000   0.00001  -0.00003   2.07922
   A14        2.06586   0.00869   0.00000   0.03383   0.03377   2.09963
   A15        2.13759  -0.00948   0.00000  -0.03433  -0.03435   2.10324
   A16        2.09919  -0.00012   0.00000   0.00343   0.00340   2.10259
   A17        2.09210   0.00064   0.00000   0.00047   0.00048   2.09258
   A18        2.09188  -0.00052   0.00000  -0.00389  -0.00388   2.08801
   A19        1.98864   0.01006   0.00000   0.03776   0.03774   2.02638
   A20        2.14145   0.00550   0.00000   0.02064   0.02062   2.16207
   A21        2.15304  -0.01555   0.00000  -0.05827  -0.05830   2.09474
   A22        1.90988  -0.00119   0.00000  -0.00639  -0.00657   1.90331
   A23        1.90581   0.00201   0.00000   0.00641   0.00629   1.91210
   A24        1.93511   0.00611   0.00000   0.03928   0.03904   1.97415
   A25        1.91106  -0.00268   0.00000  -0.02470  -0.02475   1.88631
   A26        1.89340  -0.00014   0.00000   0.00902   0.00874   1.90214
   A27        1.90844  -0.00423   0.00000  -0.02439  -0.02456   1.88387
   A28        1.93641  -0.00050   0.00000  -0.00121  -0.00205   1.93436
   A29        1.94384   0.00258   0.00000  -0.00018  -0.00103   1.94281
   A30        1.93405  -0.00268   0.00000  -0.00259  -0.00350   1.93055
   A31        1.92409  -0.00609   0.00000  -0.05683  -0.05674   1.86734
   A32        1.87225   0.00754   0.00000   0.06941   0.06948   1.94173
   A33        1.85007  -0.00074   0.00000  -0.00667  -0.00572   1.84436
   A34        1.95457  -0.00594   0.00000  -0.02866  -0.02905   1.92552
   A35        1.93965   0.00066   0.00000   0.01244   0.01258   1.95222
   A36        1.94969   0.00386   0.00000   0.01091   0.00953   1.95922
   A37        1.86346   0.00506   0.00000   0.03780   0.03817   1.90163
   A38        1.88280  -0.00328   0.00000  -0.04136  -0.04159   1.84121
   A39        1.86918  -0.00019   0.00000   0.01021   0.01056   1.87974
   A40        2.12626  -0.00298   0.00000  -0.01790  -0.02022   2.10604
   A41        2.06952   0.00256   0.00000   0.00372   0.00116   2.07067
   A42        2.06084  -0.00051   0.00000  -0.01276  -0.01502   2.04581
   A43        1.94502  -0.00004   0.00000  -0.00122  -0.00141   1.94361
   A44        1.93173  -0.00533   0.00000  -0.03316  -0.03319   1.89854
   A45        1.94684   0.00311   0.00000   0.02165   0.02170   1.96854
   A46        1.87709   0.00156   0.00000   0.00114   0.00087   1.87796
   A47        1.88127  -0.00073   0.00000   0.00138   0.00127   1.88255
   A48        1.87890   0.00155   0.00000   0.01076   0.01097   1.88986
    D1       -0.00870  -0.00013   0.00000  -0.00246  -0.00241  -0.01110
    D2        3.13918  -0.00059   0.00000  -0.01523  -0.01527   3.12390
    D3        3.12981   0.00091   0.00000   0.02534   0.02550  -3.12787
    D4       -0.00550   0.00045   0.00000   0.01257   0.01264   0.00713
    D5        0.00834   0.00062   0.00000   0.01394   0.01395   0.02229
    D6        3.11328   0.00056   0.00000   0.01972   0.01994   3.13322
    D7       -3.13011  -0.00043   0.00000  -0.01434  -0.01433   3.13874
    D8       -0.02518  -0.00050   0.00000  -0.00856  -0.00834  -0.03352
    D9        0.00039  -0.00019   0.00000  -0.00488  -0.00487  -0.00449
   D10       -3.13610  -0.00020   0.00000  -0.00589  -0.00587   3.14121
   D11        3.13564   0.00028   0.00000   0.00806   0.00807  -3.13948
   D12       -0.00085   0.00027   0.00000   0.00706   0.00707   0.00622
   D13       -0.00839   0.00039   0.00000   0.01075   0.01068   0.00230
   D14       -3.11731   0.00106   0.00000   0.02773   0.02802  -3.08929
   D15        3.12933   0.00050   0.00000   0.01366   0.01353  -3.14033
   D16        0.02040   0.00117   0.00000   0.03064   0.03086   0.05127
   D17        0.00818   0.00006   0.00000   0.00069   0.00069   0.00887
   D18       -3.13852   0.00008   0.00000   0.00171   0.00170  -3.13682
   D19       -3.12955  -0.00004   0.00000  -0.00219  -0.00214  -3.13169
   D20        0.00694  -0.00003   0.00000  -0.00117  -0.00113   0.00581
   D21        0.00018  -0.00071   0.00000  -0.01776  -0.01784  -0.01765
   D22        3.10770  -0.00105   0.00000  -0.03410  -0.03387   3.07383
   D23       -3.10322  -0.00109   0.00000  -0.02543  -0.02541  -3.12863
   D24        0.00430  -0.00142   0.00000  -0.04178  -0.04144  -0.03715
   D25       -1.74681  -0.00491   0.00000  -0.12071  -0.12075  -1.86757
   D26        0.33567  -0.00201   0.00000  -0.08346  -0.08352   0.25215
   D27        2.42215   0.00079   0.00000  -0.05478  -0.05459   2.36756
   D28        1.35681  -0.00459   0.00000  -0.11338  -0.11348   1.24332
   D29       -2.84389  -0.00169   0.00000  -0.07614  -0.07625  -2.92015
   D30       -0.75742   0.00111   0.00000  -0.04745  -0.04732  -0.80474
   D31        1.71486   0.00450   0.00000   0.05132   0.05125   1.76611
   D32       -2.41797  -0.00187   0.00000  -0.02296  -0.02301  -2.44098
   D33       -0.36303  -0.00287   0.00000  -0.03307  -0.03299  -0.39602
   D34       -1.39290   0.00497   0.00000   0.06816   0.06812  -1.32478
   D35        0.75745  -0.00139   0.00000  -0.00612  -0.00614   0.75132
   D36        2.81239  -0.00240   0.00000  -0.01622  -0.01612   2.79627
   D37        2.67291   0.00162   0.00000   0.00968   0.00964   2.68255
   D38       -1.51875  -0.00115   0.00000  -0.02044  -0.02061  -1.53937
   D39        0.58508  -0.00126   0.00000  -0.02186  -0.02202   0.56306
   D40       -0.48037   0.00191   0.00000   0.02168   0.02190  -0.45847
   D41        1.61116  -0.00086   0.00000  -0.00843  -0.00836   1.60280
   D42       -2.56819  -0.00096   0.00000  -0.00985  -0.00977  -2.57796
   D43        3.04302  -0.00406   0.00000  -0.11414  -0.11451   2.92851
   D44        0.15186   0.00027   0.00000   0.01228   0.01226   0.16412
   D45       -0.08680  -0.00452   0.00000  -0.12685  -0.12683  -0.21363
   D46       -2.97796  -0.00019   0.00000  -0.00043  -0.00006  -2.97802
   D47        2.84981  -0.00059   0.00000  -0.02647  -0.02688   2.82293
   D48       -0.54102  -0.00447   0.00000  -0.15001  -0.14966  -0.69068
   D49        0.68813   0.00077   0.00000   0.01488   0.01373   0.70186
   D50       -2.70270  -0.00311   0.00000  -0.10867  -0.10905  -2.81175
   D51       -1.31869   0.00062   0.00000   0.01374   0.01416  -1.30453
   D52        1.57366  -0.00326   0.00000  -0.10980  -0.10862   1.46504
   D53        1.03367  -0.00015   0.00000   0.01285   0.01245   1.04612
   D54       -1.05439   0.00147   0.00000   0.03431   0.03374  -1.02065
   D55        3.13726   0.00103   0.00000   0.02868   0.02832  -3.11760
   D56       -1.09309  -0.00073   0.00000  -0.01023  -0.01028  -1.10337
   D57        3.10204   0.00089   0.00000   0.01124   0.01101   3.11305
   D58        1.01051   0.00046   0.00000   0.00560   0.00559   1.01609
   D59       -3.09710  -0.00144   0.00000  -0.02083  -0.02025  -3.11734
   D60        1.09803   0.00018   0.00000   0.00063   0.00104   1.09907
   D61       -0.99350  -0.00025   0.00000  -0.00500  -0.00438  -0.99788
         Item               Value     Threshold  Converged?
 Maximum Force            0.034252     0.000450     NO 
 RMS     Force            0.005496     0.000300     NO 
 Maximum Displacement     0.677032     0.001800     NO 
 RMS     Displacement     0.145261     0.001200     NO 
 Predicted change in Energy=-9.905224D-03
 GradGradGradGradGradGradGradGradGradGradGradGradGradGradGradGradGradGrad

                          Input orientation:                          
 ---------------------------------------------------------------------
 Center     Atomic      Atomic             Coordinates (Angstroms)
 Number     Number       Type             X           Y           Z
 ---------------------------------------------------------------------
      1          6           0        2.190064   -1.355787   -0.486681
      2          6           0        0.989843   -0.651920   -0.433421
      3          6           0        1.200106   -0.526723    1.981248
      4          6           0        2.910841   -1.636728    0.682294
      5          6           0        2.407245   -1.228247    1.931164
      6          6           0        0.498631   -0.235815    0.806461
      7          6           0        3.729270   -3.671366    4.439975
      8          6           0        3.238820   -5.022215    4.941511
      9          6           0        3.128288   -1.599595    3.209149
     10          6           0        4.201967   -2.408650    0.607538
     11          7           0        2.894302   -3.010612    3.550476
     12          7           0        4.007135   -3.807598    1.135642
     13          8           0        4.787061   -3.164980    4.774968
     14         17           0       -0.994050    0.642493    0.894238
     15          1           0        2.574948   -1.666338   -1.455187
     16          1           0        0.447307   -0.424915   -1.344812
     17          1           0        0.802362   -0.205459    2.938641
     18          1           0        4.099271   -5.632594    5.219789
     19          1           0        2.620478   -4.879367    5.834225
     20          1           0        2.640754   -5.565636    4.199704
     21          1           0        4.210063   -1.470373    3.107426
     22          1           0        2.826375   -0.936513    4.029703
     23          1           0        4.583581   -2.465149   -0.415075
     24          1           0        4.984814   -1.967607    1.230646
     25          1           0        1.961948   -3.376099    3.396689
     26          1           0        3.298397   -4.317042    0.593363
     27          1           0        3.670813   -3.750789    2.117180
     28          1           0        4.873432   -4.362652    1.122911
 ---------------------------------------------------------------------
                    Distance matrix (angstroms):
                    1          2          3          4          5
     1  C    0.000000
     2  C    1.392406   0.000000
     3  C    2.785325   2.427038   0.000000
     4  C    1.401766   2.430000   2.417853   0.000000
     5  C    2.430927   2.816459   1.397079   1.407176   0.000000
     6  C    2.405722   1.397047   1.398864   2.792263   2.427486
     7  C    5.657119   6.353857   4.725547   4.350833   3.743089
     8  C    6.633841   7.283355   5.755776   5.450690   4.914051
     9  C    3.820846   4.328897   2.525210   2.536466   1.513621
    10  C    2.520633   3.806236   3.799987   1.506140   2.523166
    11  N    4.419619   5.006179   3.391532   3.180299   2.456873
    12  N    3.456162   4.639430   4.399842   2.473876   3.137763
    13  O    6.140238   6.918211   5.256569   4.754549   4.183501
    14  Cl   4.004827   2.715514   2.713480   4.526361   4.017921
    15  H    1.087466   2.141403   3.872726   2.163915   3.418688
    16  H    2.154092   1.084671   3.411708   3.412719   3.901118
    17  H    3.870632   3.406652   1.085362   3.403721   2.153312
    18  H    7.382408   8.150732   6.705463   6.161832   5.751198
    19  H    7.249464   7.733930   5.984012   6.094376   5.348835
    20  H    6.315707   6.952407   5.691016   5.280288   4.900382
    21  H    4.124455   4.855644   3.349417   2.756251   2.166188
    22  H    4.580219   4.834596   2.647423   3.420904   2.159779
    23  H    2.639079   4.025306   4.576873   2.165308   3.430919
    24  H    3.336790   4.523267   4.118685   2.170607   2.771505
    25  H    4.383407   4.799571   3.271517   3.360618   2.638053
    26  H    3.341246   4.451609   4.549239   2.709648   3.482028
    27  H    3.835199   4.826609   4.064170   2.665654   2.827442
    28  H    4.339641   5.592313   5.380002   3.387708   4.069379
                    6          7          8          9         10
     6  C    0.000000
     7  C    5.953357   0.000000
     8  C    6.893250   1.522128   0.000000
     9  C    3.814172   2.483615   3.837658   0.000000
    10  C    4.298312   4.062692   5.151864   2.928436   0.000000
    11  N    4.579123   1.387434   2.469861   1.470450   3.276161
    12  N    5.017529   3.318792   4.068199   3.153899   1.507949
    13  O    6.536030   1.219659   2.423656   2.766540   4.275727
    14  Cl   1.734136   7.313780   8.147792   5.232537   6.032435
    15  H    3.387114   6.332893   7.253991   4.697518   2.730028
    16  H    2.160178   7.400979   8.273184   5.413511   4.673794
    17  H    2.153919   4.778421   5.757512   2.725201   4.673907
    18  H    7.846483   2.142761   1.091045   4.609832   5.628252
    19  H    7.165419   2.152353   1.095304   4.231524   5.993648
    20  H    6.671565   2.197921   1.096935   4.116839   5.030667
    21  H    4.537985   2.617483   4.113728   1.094205   2.670181
    22  H    4.037160   2.909118   4.206479   1.097332   3.971229
    23  H    4.811330   5.075068   6.086048   4.000258   1.092958
    24  H    4.827512   3.844343   5.113672   2.737991   1.093450
    25  H    4.325733   2.073416   2.593563   2.133421   3.705808
    26  H    4.953838   3.924153   4.405362   3.775684   2.111540
    27  H    4.912817   2.324887   3.127297   2.472724   2.088656
    28  H    6.022442   3.576296   4.205792   3.877164   2.129460
                   11         12         13         14         15
    11  N    0.000000
    12  N    2.775789   0.000000
    13  O    2.259589   3.777027   0.000000
    14  Cl   5.959871   6.698764   7.935878   0.000000
    15  H    5.192854   3.653567   6.778953   4.856773   0.000000
    16  H    6.052889   5.501598   7.987060   2.868836   2.465800
    17  H    3.552385   5.147502   5.292324   2.850562   4.958019
    18  H    3.333668   4.474300   2.600007   9.166735   7.912652
    19  H    2.963568   5.014797   2.958924   8.243739   7.966252
    20  H    2.648383   3.787634   3.271194   7.916993   6.869255
    21  H    2.073610   3.064593   2.446491   6.036986   4.850716
    22  H    2.129827   4.244162   3.060356   5.188453   5.538942
    23  H    4.344743   2.130536   5.240965   6.517799   2.398862
    24  H    3.292372   2.085773   3.746335   6.532428   3.621039
    25  H    1.013171   3.079175   3.150474   5.581153   5.180710
    26  H    3.258001   1.027575   4.585759   6.566020   3.427268
    27  H    1.790298   1.039114   2.941601   6.523609   4.278747
    28  H    3.411457   1.028940   3.844398   7.715641   4.381750
                   16         17         18         19         20
    16  H    0.000000
    17  H    4.303742   0.000000
    18  H    9.140610   6.747373   0.000000
    19  H    8.723726   5.790973   1.769664   0.000000
    20  H    7.872731   5.805296   1.781104   1.772861   0.000000
    21  H    5.922309   3.638808   4.668879   4.645800   4.519622
    22  H    5.899755   2.412775   5.008967   4.341060   4.635962
    23  H    4.704862   5.536355   6.482203   6.981116   5.889294
    24  H    5.440759   4.849259   5.489042   5.938129   5.220703
    25  H    5.786663   3.406964   3.603278   2.938547   2.428926
    26  H    5.199413   5.351227   4.876054   5.314360   3.872620
    27  H    5.782545   4.633808   3.653894   4.024092   2.948151
    28  H    6.417633   6.095304   4.358496   5.247788   3.987315
                   21         22         23         24         25
    21  H    0.000000
    22  H    1.746481   0.000000
    23  H    3.679281   5.018023   0.000000
    24  H    2.090402   3.681947   1.765484   0.000000
    25  H    2.961332   2.664493   4.715118   3.976596   0.000000
    26  H    3.905787   4.843472   2.469443   2.961415   3.245013
    27  H    2.543949   3.505848   2.983008   2.385850   2.167431
    28  H    3.569822   4.937440   2.459661   2.400053   3.823623
                   26         27         28
    26  H    0.000000
    27  H    1.667740   0.000000
    28  H    1.662298   1.676078   0.000000
 Stoichiometry    C10H14ClN2O(1+)
 Framework group  C1[X(C10H14ClN2O)]
 Deg. of freedom    78
 Full point group                 C1      NOp   1
 Largest Abelian subgroup         C1      NOp   1
 Largest concise Abelian subgroup C1      NOp   1
                         Standard orientation:                         
 ---------------------------------------------------------------------
 Center     Atomic      Atomic             Coordinates (Angstroms)
 Number     Number       Type             X           Y           Z
 ---------------------------------------------------------------------
      1          6           0        1.685048    1.862581    0.178236
      2          6           0        2.799594    1.042580    0.333724
      3          6           0        1.475124   -0.853619   -0.401612
      4          6           0        0.467489    1.340919   -0.280424
      5          6           0        0.356172   -0.032946   -0.563703
      6          6           0        2.690204   -0.318655    0.039085
      7          6           0       -3.231543   -0.930788    0.013263
      8          6           0       -4.016903   -1.355392    1.246062
      9          6           0       -0.973561   -0.627288   -0.975548
     10          6           0       -0.731148    2.240135   -0.432538
     11          7           0       -1.864157   -0.771072    0.185653
     12          7           0       -1.736455    1.961538    0.656337
     13          8           0       -3.736177   -0.731989   -1.079163
     14         17           0        4.066735   -1.356730    0.225611
     15          1           0        1.778516    2.923821    0.396448
     16          1           0        3.742046    1.458248    0.673601
     17          1           0        1.401674   -1.914625   -0.618135
     18          1           0       -5.046669   -1.008100    1.149382
     19          1           0       -4.031737   -2.448563    1.312751
     20          1           0       -3.595099   -0.965603    2.180628
     21          1           0       -1.489467    0.013796   -1.696752
     22          1           0       -0.826121   -1.587883   -1.485114
     23          1           0       -0.454034    3.296815   -0.397994
     24          1           0       -1.262629    2.066353   -1.372197
     25          1           0       -1.445281   -1.077709    1.055729
     26          1           0       -1.333210    2.121413    1.587864
     27          1           0       -2.018818    0.962927    0.603381
     28          1           0       -2.582821    2.541008    0.575121
 ---------------------------------------------------------------------
 Rotational constants (GHZ):      1.1001631      0.3054623      0.2607317
 Standard basis: 6-31G(d) (6D, 7F)
 There are   242 symmetry adapted basis functions of A   symmetry.
 Integral buffers will be    131072 words long.
 Raffenetti 2 integral format.
 Two-electron integral symmetry is turned on.
   242 basis functions,   472 primitive gaussians,   242 cartesian basis functions
    56 alpha electrons       56 beta electrons
       nuclear repulsion energy       983.3467659468 Hartrees.
 NAtoms=   28 NActive=   28 NUniq=   28 SFac= 1.00D+00 NAtFMM=   60 NAOKFM=F Big=F
 One-electron integrals computed using PRISM.
 NBasis=   242 RedAO= T  NBF=   242
 NBsUse=   242 1.00D-06 NBFU=   242
 Initial guess read from the read-write file.
 B after Tr=     0.000000    0.000000    0.000000
         Rot=    1.000000    0.000000    0.000000    0.000000 Ang=   0.00 deg.
 Initial guess orbital symmetries:
       Occupied  (A) (A) (A) (A) (A) (A) (A) (A) (A) (A) (A) (A)
                 (A) (A) (A) (A) (A) (A) (A) (A) (A) (A) (A) (A)
                 (A) (A) (A) (A) (A) (A) (A) (A) (A) (A) (A) (A)
                 (A) (A) (A) (A) (A) (A) (A) (A) (A) (A) (A) (A)
                 (A) (A) (A) (A) (A) (A) (A) (A)
       Virtual   (A) (A) (A) (A) (A) (A) (A) (A) (A) (A) (A) (A)
                 (A) (A) (A) (A) (A) (A) (A) (A) (A) (A) (A) (A)
                 (A) (A) (A) (A) (A) (A) (A) (A) (A) (A) (A) (A)
                 (A) (A) (A) (A) (A) (A) (A) (A) (A) (A) (A) (A)
                 (A) (A) (A) (A) (A) (A) (A) (A) (A) (A) (A) (A)
                 (A) (A) (A) (A) (A) (A) (A) (A) (A) (A) (A) (A)
                 (A) (A) (A) (A) (A) (A) (A) (A) (A) (A) (A) (A)
                 (A) (A) (A) (A) (A) (A) (A) (A) (A) (A) (A) (A)
                 (A) (A) (A) (A) (A) (A) (A) (A) (A) (A) (A) (A)
                 (A) (A) (A) (A) (A) (A) (A) (A) (A) (A) (A) (A)
                 (A) (A) (A) (A) (A) (A) (A) (A) (A) (A) (A) (A)
                 (A) (A) (A) (A) (A) (A) (A) (A) (A) (A) (A) (A)
                 (A) (A) (A) (A) (A) (A) (A) (A) (A) (A) (A) (A)
                 (A) (A) (A) (A) (A) (A) (A) (A) (A) (A) (A) (A)
                 (A) (A) (A) (A) (A) (A) (A) (A) (A) (A) (A) (A)
                 (A) (A) (A) (A) (A) (A)
 Harris functional with IExCor=  402 diagonalized for initial guess.
 ExpMin= 1.43D-01 ExpMax= 2.52D+04 ExpMxC= 3.78D+03 IAcc=3 IRadAn=         5 AccDes= 0.00D+00
 HarFok:  IExCor=  402 AccDes= 0.00D+00 IRadAn=         5 IDoV= 1
 ScaDFX=  1.000000  1.000000  1.000000  1.000000
 FoFCou: FMM=F IPFlag=           0 FMFlag=      100000 FMFlg1=           0
         NFxFlg=           0 DoJE=T BraDBF=F KetDBF=T FulRan=T
         Omega=  0.000000  0.000000  1.000000  0.000000  0.000000 ICntrl=     500 IOpCl=  0
         NMat0=    1 NMatS0=    1 NMatT0=    0 NMatD0=    1 NMtDS0=    0 NMtDT0=    0
         I1Cent=           4 NGrid=           0.
 Petite list used in FoFCou.
 Requested convergence on RMS density matrix=1.00D-08 within 128 cycles.
 Requested convergence on MAX density matrix=1.00D-06.
 Requested convergence on             energy=1.00D-06.
 No special actions if energy rises.
 Integral accuracy reduced to 1.0D-05 until final iterations.
 Initial convergence to 1.0D-05 achieved.  Increase integral accuracy.
 SCF Done:  E(RB3LYP) =  -1034.20179888     A.U. after   13 cycles
             Convg  =    0.4787D-08             -V/T =  2.0066
 Calling FoFJK, ICntrl=      2127 FMM=F ISym2X=0 I1Cent= 0 IOpClX= 0 NMat=1 NMatS=1 NMatT=0.
 ***** Axes restored to original set *****
 -------------------------------------------------------------------
 Center     Atomic                   Forces (Hartrees/Bohr)
 Number     Number              X              Y              Z
 -------------------------------------------------------------------
      1        6           0.001967648    0.001081758    0.001535213
      2        6          -0.000527669    0.000423837   -0.000260467
      3        6           0.000654337   -0.000293695    0.001263466
      4        6           0.000527110   -0.003943830   -0.004226094
      5        6          -0.003208277   -0.000347644    0.001801815
      6        6           0.003230443   -0.001622201   -0.000748613
      7        6           0.008360626   -0.001564545    0.018385230
      8        6           0.000980733    0.000809556   -0.003961708
      9        6          -0.001289028    0.009846966    0.001685979
     10        6           0.002017418    0.012741321   -0.005274088
     11        7          -0.002915086   -0.004157666   -0.011610242
     12        7           0.008748520   -0.014931216   -0.013582379
     13        8          -0.002352106   -0.003583119   -0.002533408
     14       17          -0.001790441    0.001027959    0.000281951
     15        1           0.000360663    0.000035545    0.000329792
     16        1          -0.000510924    0.000236758    0.000596958
     17        1          -0.000407911    0.000653118   -0.000163695
     18        1           0.000567955    0.000771079    0.000765343
     19        1          -0.000189816    0.000648384    0.000353909
     20        1          -0.000811311    0.000896640    0.000656814
     21        1          -0.000661064   -0.000432269    0.002765692
     22        1          -0.001352533   -0.002384902    0.000057615
     23        1          -0.001331793   -0.003284838    0.000612176
     24        1           0.000512343   -0.001017128   -0.000889208
     25        1          -0.004572731    0.002710436    0.005971193
     26        1           0.001106768    0.001035074   -0.000672787
     27        1          -0.006969511    0.003427453    0.008447439
     28        1          -0.000144363    0.001217169   -0.001587897
 -------------------------------------------------------------------
 Cartesian Forces:  Max     0.018385230 RMS     0.004507604

 GradGradGradGradGradGradGradGradGradGradGradGradGradGradGradGradGradGrad
 Berny optimization.
 Using GEDIIS/GDIIS optimizer.
 Internal  Forces:  Max     0.026955305 RMS     0.005593947
 Search for a local minimum.
 Step number   2 out of a maximum of  147
 All quantities printed in internal units (Hartrees-Bohrs-Radians)
 Mixed Optimization -- RFO/linear search
 Update second derivatives using D2CorX and points    1    2
 DE= -7.72D-03 DEPred=-9.91D-03 R= 7.80D-01
 SS=  1.41D+00  RLast= 4.34D-01 DXNew= 5.0454D-01 1.3014D+00
 Trust test= 7.80D-01 RLast= 4.34D-01 DXMaxT set to 5.05D-01
 ITU=  1  0
 Use linear search instead of GDIIS.
     Eigenvalues ---    0.00594   0.00704   0.00714   0.00880   0.01068
     Eigenvalues ---    0.01208   0.01326   0.01401   0.01636   0.01959
     Eigenvalues ---    0.02033   0.02059   0.02072   0.02075   0.02178
     Eigenvalues ---    0.02182   0.02204   0.04703   0.05624   0.05731
     Eigenvalues ---    0.05972   0.06039   0.06586   0.07004   0.07469
     Eigenvalues ---    0.08834   0.09880   0.12739   0.12960   0.14988
     Eigenvalues ---    0.15417   0.15995   0.16000   0.16000   0.16000
     Eigenvalues ---    0.16000   0.16000   0.16000   0.16055   0.20577
     Eigenvalues ---    0.22045   0.22194   0.22334   0.23272   0.23507
     Eigenvalues ---    0.24608   0.24973   0.25000   0.25000   0.29093
     Eigenvalues ---    0.30966   0.31255   0.32411   0.33771   0.34045
     Eigenvalues ---    0.34187   0.34244   0.34353   0.34391   0.34425
     Eigenvalues ---    0.34466   0.34774   0.34912   0.35098   0.37493
     Eigenvalues ---    0.38296   0.41148   0.42881   0.43980   0.44287
     Eigenvalues ---    0.44478   0.44729   0.45491   0.45888   0.46942
     Eigenvalues ---    0.49047   0.62279   0.90740
 RFO step:  Lambda=-1.68678626D-02 EMin= 5.94478964D-03
 Quartic linear search produced a step of -0.15180.
 Iteration  1 RMS(Cart)=  0.26037657 RMS(Int)=  0.01192234
 Iteration  2 RMS(Cart)=  0.02466141 RMS(Int)=  0.00115704
 Iteration  3 RMS(Cart)=  0.00040028 RMS(Int)=  0.00114474
 Iteration  4 RMS(Cart)=  0.00000093 RMS(Int)=  0.00114474
 Variable       Old X    -DE/DX   Delta X   Delta X   Delta X     New X
                                 (Linear)    (Quad)   (Total)
    R1        2.63127  -0.00092   0.00095  -0.00873  -0.00786   2.62340
    R2        2.64895  -0.00046   0.00174  -0.01289  -0.01100   2.63795
    R3        2.05501  -0.00018   0.00085  -0.00649  -0.00564   2.04937
    R4        2.64004  -0.00390  -0.00217   0.00906   0.00665   2.64669
    R5        2.04973  -0.00020   0.00084  -0.00652  -0.00568   2.04405
    R6        2.64010   0.00060   0.00321  -0.02199  -0.01870   2.62140
    R7        2.64347  -0.00217  -0.00151   0.00720   0.00554   2.64901
    R8        2.05104   0.00020   0.00112  -0.00771  -0.00660   2.04444
    R9        2.65918   0.02011   0.00215   0.01838   0.02077   2.67994
   R10        2.84619   0.00444   0.00171  -0.00235  -0.00064   2.84555
   R11        2.86033   0.00769  -0.00085   0.02340   0.02255   2.88288
   R12        3.27704   0.00208  -0.00374   0.03148   0.02774   3.30478
   R13        2.87640  -0.00367  -0.00515   0.02923   0.02408   2.90048
   R14        2.62187   0.01367  -0.00386   0.04764   0.04378   2.66565
   R15        2.30482  -0.00422   0.00263  -0.02262  -0.01999   2.28483
   R16        2.06178   0.00021   0.00069  -0.00454  -0.00386   2.05792
   R17        2.06982   0.00048  -0.00063   0.00553   0.00490   2.07473
   R18        2.07291  -0.00045  -0.00091   0.00570   0.00479   2.07770
   R19        2.77875   0.00534  -0.00671   0.05853   0.05182   2.83057
   R20        2.06775  -0.00096   0.00021  -0.00352  -0.00331   2.06444
   R21        2.07366  -0.00103  -0.00018  -0.00079  -0.00097   2.07268
   R22        2.84961   0.00564  -0.01350   0.10880   0.09530   2.94492
   R23        2.06539  -0.00087   0.00075  -0.00724  -0.00649   2.05891
   R24        2.06632  -0.00055   0.00016  -0.00228  -0.00212   2.06420
   R25        1.91462   0.00232   0.00119  -0.00499  -0.00380   1.91082
   R26        1.94183  -0.00092  -0.00238   0.01583   0.01345   1.95529
   R27        1.96364   0.01042  -0.00544   0.05638   0.05094   2.01458
   R28        1.94441  -0.00076  -0.00287   0.01967   0.01680   1.96121
    A1        2.10905   0.00480   0.00053   0.01059   0.01141   2.12046
    A2        2.07545  -0.00199  -0.00074  -0.00034  -0.00129   2.07415
    A3        2.09842  -0.00281   0.00025  -0.01082  -0.01081   2.08762
    A4        2.08012  -0.00014   0.00141  -0.01399  -0.01272   2.06740
    A5        2.09995   0.00088  -0.00182   0.01822   0.01632   2.11627
    A6        2.10310  -0.00075   0.00041  -0.00440  -0.00405   2.09905
    A7        2.10320   0.00434   0.00073   0.00720   0.00814   2.11133
    A8        2.09081  -0.00149   0.00014  -0.00434  -0.00432   2.08649
    A9        2.08918  -0.00285  -0.00087  -0.00286  -0.00384   2.08534
   A10        2.09199  -0.00501  -0.00214   0.00409   0.00152   2.09351
   A11        2.09684  -0.01913  -0.00444  -0.02141  -0.02724   2.06960
   A12        2.09395   0.02423   0.00655   0.01967   0.02473   2.11867
   A13        2.07922  -0.00512   0.00000  -0.01137  -0.01161   2.06761
   A14        2.09963  -0.02167  -0.00513  -0.02291  -0.02916   2.07048
   A15        2.10324   0.02696   0.00521   0.03752   0.04155   2.14479
   A16        2.10259   0.00114  -0.00052   0.00366   0.00299   2.10558
   A17        2.09258  -0.00028  -0.00007   0.00138   0.00133   2.09391
   A18        2.08801  -0.00086   0.00059  -0.00498  -0.00438   2.08363
   A19        2.02638  -0.00222  -0.00573   0.03509   0.02920   2.05558
   A20        2.16207   0.00007  -0.00313   0.02271   0.01941   2.18148
   A21        2.09474   0.00215   0.00885  -0.05782  -0.04912   2.04562
   A22        1.90331  -0.00067   0.00100  -0.00906  -0.00830   1.89501
   A23        1.91210  -0.00111  -0.00095   0.00058  -0.00042   1.91168
   A24        1.97415   0.00031  -0.00593   0.04374   0.03764   2.01180
   A25        1.88631   0.00028   0.00376  -0.02680  -0.02315   1.86316
   A26        1.90214   0.00124  -0.00133   0.01692   0.01529   1.91744
   A27        1.88387  -0.00003   0.00373  -0.02847  -0.02474   1.85913
   A28        1.93436   0.01581   0.00031   0.04977   0.05007   1.98443
   A29        1.94281  -0.00182   0.00016   0.01810   0.01849   1.96130
   A30        1.93055  -0.00447   0.00053  -0.03225  -0.03160   1.89895
   A31        1.86734  -0.00120   0.00861  -0.03903  -0.03100   1.83635
   A32        1.94173  -0.01076  -0.01055   0.01173   0.00135   1.94308
   A33        1.84436   0.00166   0.00087  -0.01108  -0.01042   1.83394
   A34        1.92552   0.00864   0.00441  -0.00395   0.00053   1.92605
   A35        1.95222  -0.00064  -0.00191   0.00353   0.00149   1.95371
   A36        1.95922  -0.00212  -0.00145   0.02001   0.01875   1.97796
   A37        1.90163  -0.00887  -0.00579  -0.01255  -0.01845   1.88318
   A38        1.84121   0.00111   0.00631  -0.02099  -0.01466   1.82654
   A39        1.87974   0.00155  -0.00160   0.01210   0.01018   1.88992
   A40        2.10604  -0.00216   0.00307  -0.03630  -0.03976   2.06627
   A41        2.07067   0.00118  -0.00018  -0.00767  -0.01565   2.05503
   A42        2.04581  -0.00095   0.00228  -0.03289  -0.03728   2.00853
   A43        1.94361  -0.00115   0.00021  -0.00932  -0.00937   1.93423
   A44        1.89854  -0.00314   0.00504  -0.04788  -0.04303   1.85552
   A45        1.96854  -0.00073  -0.00329   0.02220   0.01903   1.98756
   A46        1.87796   0.00106  -0.00013   0.00129   0.00051   1.87847
   A47        1.88255   0.00076  -0.00019   0.00259   0.00242   1.88497
   A48        1.88986   0.00345  -0.00166   0.03199   0.03055   1.92042
    D1       -0.01110   0.00118   0.00037   0.02290   0.02281   0.01171
    D2        3.12390   0.00041   0.00232  -0.00530  -0.00332   3.12058
    D3       -3.12787   0.00118  -0.00387   0.04943   0.04520  -3.08268
    D4        0.00713   0.00041  -0.00192   0.02123   0.01907   0.02620
    D5        0.02229  -0.00129  -0.00212  -0.01283  -0.01467   0.00762
    D6        3.13322   0.00258  -0.00303   0.07593   0.07203  -3.07794
    D7        3.13874  -0.00128   0.00218  -0.03955  -0.03709   3.10165
    D8       -0.03352   0.00259   0.00127   0.04921   0.04961   0.01609
    D9       -0.00449  -0.00003   0.00074  -0.00509  -0.00436  -0.00885
   D10        3.14121  -0.00086   0.00089  -0.02263  -0.02147   3.11974
   D11       -3.13948   0.00073  -0.00122   0.02308   0.02142  -3.11806
   D12        0.00622  -0.00009  -0.00107   0.00554   0.00431   0.01053
   D13        0.00230   0.00112  -0.00162   0.03265   0.03045   0.03274
   D14       -3.08929  -0.00341  -0.00425  -0.04253  -0.04557  -3.13486
   D15       -3.14033   0.00148  -0.00205   0.04182   0.03913  -3.10121
   D16        0.05127  -0.00304  -0.00468  -0.03336  -0.03689   0.01438
   D17        0.00887  -0.00117  -0.00010  -0.02293  -0.02266  -0.01379
   D18       -3.13682  -0.00034  -0.00026  -0.00542  -0.00564   3.14072
   D19       -3.13169  -0.00153   0.00032  -0.03209  -0.03134   3.12016
   D20        0.00581  -0.00071   0.00017  -0.01458  -0.01432  -0.00851
   D21       -0.01765   0.00017   0.00271  -0.01486  -0.01203  -0.02968
   D22        3.07383   0.00327   0.00514   0.05869   0.06527   3.13909
   D23       -3.12863  -0.00293   0.00386  -0.10275  -0.10029   3.05427
   D24       -0.03715   0.00017   0.00629  -0.02920  -0.02299  -0.06014
   D25       -1.86757   0.00529   0.01833  -0.00821   0.01009  -1.85748
   D26        0.25215  -0.00043   0.01268  -0.02456  -0.01197   0.24018
   D27        2.36756  -0.00040   0.00829   0.00803   0.01630   2.38385
   D28        1.24332   0.00865   0.01723   0.08038   0.09767   1.34099
   D29       -2.92015   0.00293   0.01158   0.06403   0.07560  -2.84454
   D30       -0.80474   0.00296   0.00718   0.09661   0.10388  -0.70086
   D31        1.76611  -0.00634  -0.00778  -0.06390  -0.07183   1.69428
   D32       -2.44098   0.00135   0.00349  -0.06845  -0.06431  -2.50529
   D33       -0.39602  -0.00056   0.00501  -0.09129  -0.08588  -0.48190
   D34       -1.32478  -0.00998  -0.01034  -0.13867  -0.14976  -1.47454
   D35        0.75132  -0.00229   0.00093  -0.14322  -0.14224   0.60908
   D36        2.79627  -0.00419   0.00245  -0.16606  -0.16381   2.63246
   D37        2.68255   0.00008  -0.00146   0.00232   0.00069   2.68324
   D38       -1.53937  -0.00061   0.00313  -0.03509  -0.03214  -1.57151
   D39        0.56306  -0.00123   0.00334  -0.04193  -0.03894   0.52413
   D40       -0.45847   0.00106  -0.00332   0.03827   0.03525  -0.42322
   D41        1.60280   0.00037   0.00127   0.00087   0.00242   1.60522
   D42       -2.57796  -0.00025   0.00148  -0.00597  -0.00437  -2.58233
   D43        2.92851  -0.00388   0.01738  -0.18135  -0.16424   2.76427
   D44        0.16412   0.00205  -0.00186   0.05492   0.05258   0.21670
   D45       -0.21363  -0.00482   0.01925  -0.21580  -0.19606  -0.40969
   D46       -2.97802   0.00111   0.00001   0.02047   0.02076  -2.95726
   D47        2.82293   0.00486   0.00408   0.05211   0.05466   2.87759
   D48       -0.69068  -0.00054   0.02272  -0.17563  -0.15200  -0.84268
   D49        0.70186  -0.00151  -0.00208   0.02525   0.02233   0.72419
   D50       -2.81175  -0.00691   0.01655  -0.20249  -0.18433  -2.99608
   D51       -1.30453   0.00277  -0.00215   0.05467   0.05122  -1.25331
   D52        1.46504  -0.00262   0.01649  -0.17307  -0.15544   1.30960
   D53        1.04612  -0.00090  -0.00189   0.00624   0.00464   1.05075
   D54       -1.02065   0.00046  -0.00512   0.04034   0.03507  -0.98558
   D55       -3.11760  -0.00127  -0.00430   0.01866   0.01451  -3.10309
   D56       -1.10337   0.00018   0.00156   0.01278   0.01457  -1.08880
   D57        3.11305   0.00154  -0.00167   0.04687   0.04500  -3.12514
   D58        1.01609  -0.00019  -0.00085   0.02520   0.02444   1.04054
   D59       -3.11734   0.00199   0.00307   0.01542   0.01855  -3.09880
   D60        1.09907   0.00335  -0.00016   0.04951   0.04898   1.14805
   D61       -0.99788   0.00162   0.00066   0.02784   0.02842  -0.96946
         Item               Value     Threshold  Converged?
 Maximum Force            0.026955     0.000450     NO 
 RMS     Force            0.005594     0.000300     NO 
 Maximum Displacement     1.208852     0.001800     NO 
 RMS     Displacement     0.273287     0.001200     NO 
 Predicted change in Energy=-1.117183D-02
 GradGradGradGradGradGradGradGradGradGradGradGradGradGradGradGradGradGrad

                          Input orientation:                          
 ---------------------------------------------------------------------
 Center     Atomic      Atomic             Coordinates (Angstroms)
 Number     Number       Type             X           Y           Z
 ---------------------------------------------------------------------
      1          6           0        2.205253   -1.241180   -0.530174
      2          6           0        0.992693   -0.571804   -0.436053
      3          6           0        1.189058   -0.666276    1.988891
      4          6           0        2.911528   -1.634209    0.607966
      5          6           0        2.387423   -1.358873    1.896645
      6          6           0        0.488521   -0.280269    0.837685
      7          6           0        3.663794   -3.752143    4.583530
      8          6           0        3.117079   -4.947067    5.376678
      9          6           0        3.100579   -1.760432    3.184077
     10          6           0        4.259360   -2.281978    0.431381
     11          7           0        2.824651   -3.169458    3.610845
     12          7           0        4.168688   -3.810153    0.722952
     13          8           0        4.774782   -3.290378    4.703330
     14         17           0       -1.019214    0.590358    1.002283
     15          1           0        2.628582   -1.421157   -1.512263
     16          1           0        0.458072   -0.252045   -1.320324
     17          1           0        0.792339   -0.413906    2.963247
     18          1           0        3.956532   -5.555236    5.710414
     19          1           0        2.608795   -4.586109    6.280414
     20          1           0        2.391510   -5.574537    4.839401
     21          1           0        4.187457   -1.695461    3.095041
     22          1           0        2.835683   -1.045598    3.972653
     23          1           0        4.641865   -2.156380   -0.581033
     24          1           0        5.012318   -1.911455    1.130631
     25          1           0        1.848604   -3.433616    3.611995
     26          1           0        3.503123   -4.268975    0.077122
     27          1           0        3.777329   -3.903946    1.710141
     28          1           0        5.077665   -4.305992    0.652292
 ---------------------------------------------------------------------
                    Distance matrix (angstroms):
                    1          2          3          4          5
     1  C    0.000000
     2  C    1.388245   0.000000
     3  C    2.776482   2.434715   0.000000
     4  C    1.395944   2.429117   2.410550   0.000000
     5  C    2.436491   2.829529   1.387184   1.418164   0.000000
     6  C    2.396154   1.400568   1.401794   2.785119   2.427058
     7  C    5.880667   6.515025   4.730650   4.566909   3.817880
     8  C    7.032491   7.579168   5.789606   5.810155   5.051550
     9  C    3.855761   4.354465   2.505905   2.586121   1.525556
    10  C    2.495437   3.787909   3.803036   1.505801   2.550151
    11  N    4.609766   5.145994   3.401738   3.373695   2.531376
    12  N    3.467712   4.681575   4.512733   2.515633   3.249498
    13  O    6.179907   6.936000   5.206871   4.794436   4.160249
    14  Cl   4.012498   2.732618   2.725617   4.533753   4.025489
    15  H    1.084480   2.134423   3.860071   2.149609   3.417995
    16  H    2.157630   1.081666   3.414210   3.412935   3.911056
    17  H    3.858069   3.408858   1.081872   3.395210   2.138901
    18  H    7.786077   8.449733   6.738737   6.519314   5.883570
[...]
 2,0.00026193,0.00120582,-0.00050033,0.00009551,-0.00027032,0.00005609,
 -0.00001260,-0.00000470,0.00004599,-0.00002049,-0.00002864,-0.00004171
 ,-0.00015747,0.00006985,0.00000389,-0.00004468,0.00003515,0.00002356,0
 .00013023,0.00000671,-0.00001747,-0.00000699,0.00011148,-0.04700702,0.
 00276246,0.07023077,-0.00031146,0.00057576,-0.00065209,0.00046549,-0.0
 0032076,-0.00051448,0.00035469,0.00009341,-0.00119912,-0.00138128,0.00
 008616,-0.00025413,0.00180615,-0.01365102,-0.01245988,0.00033416,0.000
 05720,0.00083950,-0.00318140,0.00048446,0.00332132,0.00069376,-0.00034
 251,0.00008997,-0.05396666,0.02062758,0.01291027,-0.00068739,-0.000194
 90,0.00010014,0.00069270,-0.01884981,-0.00444589,0.00026468,-0.0001793
 8,0.00001316,0.00130414,0.00151432,-0.00145488,0.00003471,-0.00002466,
 0.00001487,-0.00000794,0.00016805,-0.00012589,0.00001623,0.00006150,0.
 00003008,-0.00038468,0.00008197,0.00026284,-0.00001225,-0.00000471,-0.
 00002119,-0.00008569,-0.00015006,0.00015123,0.00001355,0.00001512,-0.0
 0000776,-0.00023877,0.02784411,0.01638965,0.05310984,0.00058844,-0.000
 49528,0.00031355,-0.00035421,0.00016208,0.00066869,0.00135375,0.000556
 62,0.00116188,-0.00023953,-0.00004465,0.00009339,0.00001022,0.00573592
 ,0.00050971,-0.00053184,0.00035545,-0.00078190,-0.00412719,-0.00013206
 ,0.00287816,0.00084177,-0.00070481,-0.00011234,0.01627231,-0.24047652,
 -0.11641305,0.00029043,-0.00010706,-0.00005399,0.00289347,-0.02981400,
 -0.00852537,-0.00000686,0.00019221,-0.00033583,0.00018162,0.00024405,-
 0.00050339,0.00006432,-0.00001934,0.00002092,-0.00002642,-0.00006667,0
 .00003815,-0.00003998,-0.00003967,0.00001031,-0.00038777,-0.00021707,-
 0.00001836,-0.00004570,-0.00007804,0.00008357,-0.00016719,-0.00023015,
 0.00016086,-0.00003213,0.00005123,0.00000272,0.00117970,-0.00293624,-0
 .00227883,-0.01761559,0.26750922,0.00025226,0.00102649,-0.00072985,-0.
 00007666,-0.00016757,-0.00014355,0.00197158,0.00031166,0.00094046,-0.0
 0294905,-0.00004980,-0.00108135,0.00056280,-0.02125109,-0.01970687,0.0
 0056836,0.00061662,-0.00051661,0.00375652,0.00064260,-0.00286315,-0.00
 085782,0.00061831,-0.00003347,0.01228959,-0.12824737,-0.12121423,-0.00
 064762,0.00003605,0.00002066,-0.00114177,0.02815050,0.00855260,0.00008
 780,-0.00019052,0.00047689,-0.00086137,-0.00015436,0.00137558,-0.00013
 691,0.00000427,0.00005252,-0.00011409,0.00018641,-0.00025443,-0.000050
 46,-0.00011221,0.00004378,-0.00068895,-0.00042287,0.00045746,0.0000335
 5,0.00003324,-0.00003118,0.00013536,0.00021498,-0.00017124,0.00001690,
 -0.00007174,0.00000875,0.00028906,-0.00369629,-0.00208091,-0.01240738,
 0.12232449,0.13646789,0.00131532,0.00006246,0.00235695,-0.00008302,0.0
 0001963,-0.00009986,0.00018813,0.00053702,0.00146626,-0.01059482,-0.00
 391144,0.02932131,-0.00512340,0.00069032,-0.00166175,0.00013210,-0.000
 14730,-0.00015507,-0.00028980,0.00016942,0.00012877,0.00000300,-0.0000
 1235,-0.00003356,-0.00063579,-0.00001385,-0.00068229,-0.07943132,-0.01
 802113,0.07861394,0.00030483,-0.00014554,-0.00000776,0.00174972,0.0012
 1068,-0.00399234,0.00032162,0.00004957,-0.00041756,-0.00008179,0.00001
 807,-0.00007895,-0.00046128,-0.00000144,-0.00133072,0.00001651,-0.0000
 1249,-0.00000468,-0.00039239,0.00020196,-0.00003416,-0.00000163,-0.000
 00382,0.00000073,0.00000244,-0.00000145,0.00000071,0.00000689,0.000003
 79,-0.00001105,0.00041955,-0.00013284,0.00004534,0.00011327,-0.0000160
 7,0.00006546,0.08416259,0.00011496,-0.00053265,-0.00065931,0.00006588,
 0.00011329,0.00001864,0.00038056,-0.00034503,-0.00037487,0.00354629,0.
 00304391,-0.00979318,0.00182138,0.00083339,0.00031502,-0.00021124,0.00
 020511,-0.00021879,0.00087549,-0.00146044,-0.00069784,-0.00014409,0.00
 010527,0.00013312,-0.00015262,-0.00011897,0.00032674,-0.01652031,-0.05
 693723,0.03887155,-0.00006581,0.00074008,-0.00003280,-0.01056036,-0.02
 024197,0.03930503,-0.00139662,0.00058381,0.00257728,0.00019699,-0.0000
 6124,0.00001364,0.00003007,0.00027728,0.00017765,0.00001978,-0.0000453
 3,0.00000300,0.00012471,-0.00024163,0.00001504,0.00000694,0.00001552,-
 0.00000224,-0.00000180,0.00002261,-0.00001441,-0.00003877,-0.00003829,
 0.00005827,0.00023983,-0.00008620,0.00022961,0.00003149,0.00003494,-0.
 00008751,0.01417762,0.07193425,-0.00287853,0.00039142,0.00064115,0.000
 32062,-0.00035516,0.00016990,-0.00009170,0.00010894,-0.00020557,0.0015
 9892,-0.00131449,-0.00239326,0.00004003,0.00047601,0.00049023,-0.00022
 813,0.00002318,0.00021637,-0.00001157,-0.00032207,-0.00002320,-0.00002
 981,0.00003663,0.00000473,-0.00037495,-0.00009436,0.00008747,0.0797223
 8,0.04900827,-0.29327180,0.00018364,0.00013097,-0.00007879,-0.00048071
 ,0.00052053,0.00073095,-0.00004970,0.00016390,0.00022731,0.00005940,0.
 00002836,0.00001562,-0.00004733,0.00027478,0.00054856,0.00001842,0.000
 03798,-0.00001632,0.00004768,-0.00002347,0.00002150,0.00000272,0.00000
 161,-0.00000447,0.00000441,0.00000585,-0.00000627,-0.00000239,-0.00000
 776,0.00000498,0.00038046,-0.00008763,0.00012182,0.00006690,0.00000206
 ,-0.00002957,-0.08476983,-0.05363305,0.30933485,-0.00421665,-0.0000818
 3,0.00262806,-0.00010764,0.00097112,-0.00093792,-0.00042197,0.00059671
 ,-0.00041103,-0.01789235,-0.00959874,-0.02003189,0.00186325,0.00023822
 ,-0.00152458,0.00037886,-0.00020687,0.00014748,-0.00013533,-0.00028246
 ,0.00008983,-0.00001690,0.00003775,-0.00003775,-0.00143925,0.00001859,
 0.00005572,-0.16323418,-0.07570279,-0.11383070,0.00068261,-0.00006362,
 -0.00004930,0.00350849,0.00275224,0.00288299,0.00012888,0.00027846,-0.
 00005046,-0.00037371,0.00004715,0.00009352,0.00000723,-0.00033575,-0.0
 0001316,-0.00030375,0.00019206,0.00007594,-0.00000153,-0.00000748,0.00
 004660,0.00000137,0.00000740,-0.00001057,0.00001030,0.00000804,-0.0000
 0448,0.00000286,0.00000188,-0.00000909,0.00082819,-0.00034313,0.001706
 15,0.00023509,-0.00008201,0.00006299,0.00802236,0.00539290,0.00666623,
 0.17154061,0.00173414,0.00022309,-0.00065302,0.00045380,-0.00087639,-0
 .00004461,0.00009147,-0.00029427,0.00029519,0.00738495,0.00681744,0.00
 796525,-0.00041304,0.00000424,0.00028003,-0.00027269,0.00009285,0.0002
 3981,0.00015471,-0.00068798,-0.00023036,-0.00004470,0.00004429,0.00002
 906,-0.00022097,0.00001972,-0.00011120,-0.06851654,-0.09161392,-0.0678
 4303,-0.00012105,0.00044202,-0.00017382,-0.02288165,-0.02770577,-0.023
 73986,-0.00015162,0.00026515,0.00092524,0.00036575,-0.00002699,-0.0000
 6401,0.00007106,0.00033713,-0.00017793,0.00012167,-0.00009778,-0.00000
 971,0.00000016,0.00000744,-0.00003035,0.00001026,0.00000425,-0.0000104
 1,-0.00000127,0.00000252,-0.00000865,-0.00000889,-0.00000772,0.0000152
 1,0.00030391,0.00049054,0.00006096,0.00026754,-0.00000341,-0.00018971,
 0.00514685,0.00476741,0.00376095,0.07537015,0.11242719,0.00004939,-0.0
 0036936,-0.00026378,0.00011862,-0.00000221,0.00029839,-0.00058582,-0.0
 0027573,0.00001450,0.00222891,0.00453933,0.00558991,0.00007910,0.00039
 030,-0.00053647,0.00021027,-0.00000476,0.00021002,-0.00008554,0.000243
 57,-0.00003882,0.00002089,-0.00002701,0.00002092,0.00128143,-0.0003168
 5,-0.00127361,-0.11345177,-0.07757416,-0.17158519,-0.00027860,0.000056
 61,0.00012314,0.00503191,0.00523120,0.00526560,0.00003692,-0.00010300,
 -0.00009439,-0.00013501,0.00005156,0.00001221,0.00005139,-0.00017376,0
 .00042813,0.00002441,-0.00005075,-0.00000492,-0.00005094,-0.00001471,0
 .00001166,-0.00000242,0.00000015,0.00000193,-0.00000407,-0.00000538,0.
 00000529,0.00000329,-0.00000356,-0.00000472,0.00160764,0.00015532,-0.0
 0222120,0.00020949,-0.00002564,-0.00004230,-0.01939625,-0.01290424,-0.
 01742307,0.12234736,0.08019897,0.18032851,-0.00001602,-0.00004831,0.00
 001702,-0.00001050,0.00002300,-0.00001124,0.00020721,-0.00011506,-0.00
 048297,-0.00035661,-0.00006950,-0.00024837,0.00056967,0.00075875,-0.00
 099954,-0.00016193,-0.00006504,0.00005558,-0.00918996,0.00114985,0.002
 55641,-0.00250515,-0.00138531,-0.00213810,-0.00712423,0.00299178,0.002
 04083,-0.00000422,-0.00017178,0.00011546,-0.15310008,0.06437595,0.2001
 6787,0.00006524,0.00010494,-0.00031169,0.00727564,0.00093220,0.0016777
 2,-0.00007564,0.00000695,0.00002841,-0.00002607,0.00001001,-0.00003147
 ,-0.00001058,0.00002087,0.00002509,-0.00025317,0.00057290,-0.00017818,
 0.00023213,-0.00080327,0.00024998,0.00006458,0.00054379,0.00011023,0.0
 0097204,-0.00046513,0.00030624,-0.00137440,-0.00210101,0.00239712,0.00
 088499,0.00019490,-0.00029167,0.00002816,0.00005669,0.00003774,0.00007
 844,0.00005108,-0.00001776,0.16404720,-0.00009271,0.00017158,0.0000454
 8,0.00006007,-0.00001440,-0.00006632,-0.00022272,0.00008643,0.00030570
 ,0.00039499,0.00000709,0.00046224,-0.00172084,-0.00094892,0.00016563,0
 .00011142,0.00008074,-0.00001033,0.02071224,0.00045627,-0.03156757,0.0
 0030672,-0.00076937,-0.00118087,-0.01618895,0.00816388,0.01930041,0.00
 003449,-0.00040396,0.00002202,0.06309722,-0.09635154,-0.07128633,0.000
 14010,0.00019620,-0.00045129,0.00275870,-0.00808701,-0.00028570,0.0000
 9124,-0.00003747,-0.00000939,0.00003802,-0.00000668,0.00004593,0.00000
 663,-0.00003593,-0.00002010,0.00032203,-0.00020443,0.00023105,-0.00015
 137,0.00026239,0.00036770,-0.00031249,0.00045032,0.00027162,-0.0008767
 9,-0.00121453,0.00181772,-0.00175101,-0.00300961,0.00306664,-0.0001057
 3,0.00063679,0.00020930,0.00003730,0.00011316,0.00006519,0.00017396,0.
 00004341,-0.00009017,-0.06643538,0.10083733,0.00000196,-0.00011227,0.0
 0000230,0.00002691,0.00004386,0.00008445,0.00068355,-0.00038448,-0.000
 44703,-0.00031596,0.00006287,-0.00032910,0.00114615,0.00109731,-0.0011
 6639,-0.00058316,0.00003166,-0.00008133,-0.00189556,-0.00259733,-0.003
 77895,-0.00247178,0.00119029,-0.00076721,0.00447650,-0.00538133,-0.008
 66937,-0.00004665,0.00010682,0.00006144,0.20435254,-0.07577665,-0.2797
 7324,-0.00010969,-0.00006772,0.00011109,0.00144853,0.00138157,0.006033
 05,0.00011647,-0.00005233,0.00000965,-0.00003858,-0.00000842,-0.000022
 12,-0.00001567,0.00003188,0.00003615,-0.00051794,0.00064934,0.00014788
 ,0.00020642,-0.00032122,-0.00007322,0.00020895,0.00059988,-0.00010179,
 0.00040367,0.00122745,0.00022158,-0.00127687,0.00048329,0.00017339,-0.
 00040270,0.00011924,0.00121368,0.00001634,-0.00001490,0.00002683,0.000
 00796,0.00004172,0.00003050,-0.20573360,0.07743937,0.28746716,0.000043
 89,-0.00032804,-0.00050479,-0.00044598,-0.00017548,0.00003349,0.000176
 84,-0.00008488,0.00011428,0.00136677,0.00020151,0.00091185,-0.00044188
 ,-0.00001789,0.00044462,-0.00023002,0.00013711,-0.00021207,0.00047452,
 -0.00066470,-0.00020741,-0.00007174,0.00009045,0.00014788,0.00036269,-
 0.00004854,0.00019056,0.00403445,0.00005579,0.00418321,-0.00025735,0.0
 0033399,-0.00004834,-0.17620356,-0.09015678,-0.12815425,-0.00173271,-0
 .00068811,0.00146521,0.00011768,-0.00002145,-0.00001957,0.00017903,0.0
 0029326,-0.00013551,0.00000228,0.00003787,-0.00001190,-0.00000795,-0.0
 0000528,-0.00000363,0.00000643,-0.00001940,0.00002667,-0.00000344,0.00
 000558,-0.00001164,-0.00002661,-0.00003603,0.00005006,-0.00011831,-0.0
 0000402,-0.00013688,-0.00005112,0.00002820,-0.00005178,-0.00017209,-0.
 00031659,0.00007399,0.00063519,0.00163975,0.00035135,0.00002399,0.0000
 1352,0.00002583,0.17964274,0.00000339,0.00045872,0.00022077,0.00039999
 ,-0.00011279,0.00002683,-0.00057164,0.00005724,-0.00013176,-0.00057984
 ,0.00183286,0.00004901,0.00062079,0.00000211,-0.00075957,0.00041319,-0
 .00014132,0.00043562,0.00000113,0.00010332,-0.00014868,-0.00004011,0.0
 0000713,0.00010590,-0.00008141,0.00025236,-0.00017602,-0.02018764,-0.0
 1800337,-0.02411163,0.00013693,-0.00024278,0.00009286,-0.09581308,-0.1
 3849595,-0.11465159,-0.00102082,-0.00093732,0.00092420,-0.00033597,0.0
 0010124,0.00003140,0.00000967,-0.00020657,0.00030130,-0.00002207,0.000
 00825,-0.00000497,-0.00002689,0.00000590,0.00001468,-0.00003685,0.0000
 0355,0.00003418,-0.00000270,0.00001221,0.00002430,-0.00002055,-0.00004
 212,0.00002258,-0.00001463,-0.00010646,0.00010968,-0.00001470,-0.00002
 945,0.00009393,-0.00042209,0.00148074,0.00041112,0.00142537,-0.0065274
 4,0.00226196,0.00000293,0.00000543,-0.00002487,0.10067808,0.14618803,0
 .00023309,-0.00030700,0.00069112,-0.00024677,-0.00007246,-0.00010846,0
 .00012448,-0.00000443,-0.00006638,0.00064680,-0.00003216,0.00002544,0.
 00005554,-0.00000617,-0.00028045,0.00012435,-0.00003457,-0.00011504,0.
 00082152,-0.00029132,-0.00089868,-0.00006042,-0.00011713,-0.00007643,-
 0.00005454,-0.00021292,0.00006863,0.00576419,0.00301836,0.00688337,-0.
 00020325,0.00050235,0.00013842,-0.13673122,-0.11486781,-0.21560170,0.0
 0138499,0.00136638,0.00059376,-0.00008791,0.00003814,-0.00002000,0.000
 10142,0.00029291,-0.00033023,-0.00003857,0.00003464,0.00001256,-0.0000
 0838,-0.00002382,-0.00000032,0.00000501,0.00001664,0.00000018,-0.00001
 030,0.00001553,-0.00001244,-0.00001261,0.00002309,-0.00000405,0.000002
 80,0.00004505,-0.00003017,0.00001081,0.00001385,-0.00000059,0.00060491
 ,0.00065223,0.00041641,-0.00010413,0.00236388,0.00048182,0.00002433,0.
 00002132,-0.00004494,0.14380924,0.12061124,0.21972590,-0.00050760,0.00
 009373,0.00012583,0.00006204,-0.00000908,0.00015103,-0.00058172,-0.000
 07242,0.00007166,0.00079439,0.00031631,-0.00094815,-0.00049441,0.00011
 326,-0.00049964,-0.00002800,0.00004650,0.00016038,-0.01130530,0.009973
 39,0.01008315,0.00231699,0.00000718,-0.00023518,0.00114884,0.00193287,
 -0.00119026,0.00412324,-0.00454337,-0.00590380,0.00104691,-0.00597131,
 -0.00145561,-0.08789193,-0.01044085,0.04834001,-0.00076929,-0.00353050
 ,-0.01533182,-0.00014012,0.00003679,0.00006708,0.00010461,-0.00005017,
 0.00027472,-0.00005392,0.00000746,0.00000499,-0.00014111,0.00015367,0.
 00001568,0.00016854,0.00004443,-0.00031641,0.00001558,-0.00039568,0.00
 017428,0.00051317,0.00035230,-0.00028557,-0.00010000,-0.00032374,0.000
 02489,-0.00006229,-0.00020137,0.00018474,0.00015512,0.00267298,-0.0001
 2769,-0.00028839,-0.00012973,0.00035305,-0.00024394,-0.00042392,0.0002
 4267,0.00996295,0.00808176,-0.02202335,0.09024657,0.00059432,0.0001510
 8,0.00069748,-0.00056597,0.00012251,0.00032785,0.00016563,-0.00003958,
 0.00001927,-0.00009874,0.00112353,0.00005873,0.00006335,-0.00033461,-0
 .00017215,0.00032417,-0.00011807,-0.00048144,-0.00375904,0.00733002,0.
 00033224,0.00073560,-0.00027846,-0.00037028,0.00162216,0.00126919,-0.0
 0197245,-0.00865509,-0.01146990,0.02924628,0.00186040,-0.00463034,-0.0
 0136131,-0.01477451,-0.07435028,0.04402408,0.00283264,-0.01523174,-0.0
 0027122,-0.00041354,0.00010766,0.00006081,0.00001258,-0.00004654,-0.00
 000363,-0.00005244,-0.00000350,0.00001172,-0.00011793,0.00008618,0.000
 02500,0.00001398,-0.00003692,-0.00012452,0.00006074,-0.00010062,0.0000
 3719,0.00019472,0.00013859,-0.00019155,-0.00079594,-0.00096214,-0.0005
 1621,-0.00036930,-0.00012384,0.00023345,0.00048672,-0.00524640,-0.0003
 0152,-0.00058281,0.00111328,-0.00017694,-0.00014691,-0.00042316,0.0002
 5432,0.00870181,0.00650800,-0.01802361,0.01084231,0.09138361,-0.000135
 07,-0.00027186,-0.00148277,0.00050765,-0.00008050,-0.00087407,0.000504
 95,-0.00007132,-0.00065146,-0.00149478,-0.00068785,0.00006117,0.001144
 37,0.00036737,0.00259218,-0.00058373,0.00017614,0.00030755,0.01975076,
 -0.02918036,-0.01963630,-0.00317763,0.00205379,0.00422535,-0.00028085,
 -0.00443115,0.00427312,-0.00592182,0.01506496,0.00589707,-0.00484902,0
 .01396589,0.00222077,0.05086932,0.03328852,-0.21787838,-0.02024830,0.0
 1480358,0.02097806,0.00082142,-0.00022011,-0.00023436,-0.00023456,0.00
 011314,-0.00055431,0.00015108,-0.00001107,-0.00003029,0.00049856,-0.00
 036575,-0.00003536,-0.00004400,0.00034976,0.00015255,-0.00017386,0.000
 38106,-0.00006449,-0.00087398,-0.00115972,0.00149733,-0.00013186,-0.00
 081980,-0.00024885,-0.00044893,0.00064678,-0.00070394,0.00065877,-0.00
 466251,0.00074940,-0.00001590,-0.00193792,0.00058761,0.00062315,0.0011
 3525,-0.00035340,0.00441063,0.00331054,-0.01644147,-0.04239938,-0.0378
 7766,0.20959285,0.00075841,0.00002386,0.00036960,-0.00012772,0.0000240
 8,0.00019801,-0.00025014,0.00000832,-0.00023032,-0.00081355,0.00096763
 ,0.00021951,0.00060089,-0.00000327,-0.00040957,0.00002836,0.00000632,0
 .00005201,-0.00047297,0.00060529,0.00072339,0.00006941,-0.00000871,-0.
 00009193,-0.00005768,0.00010871,-0.00008261,0.00362177,0.00070214,-0.0
 0048591,0.00011915,-0.00040289,-0.00011523,-0.37154095,0.09465748,0.03
 303572,0.00082511,-0.00011661,-0.00125849,-0.00002242,0.00000597,-0.00
 000159,-0.00003057,0.00001707,-0.00007841,0.00002256,-0.00000920,-0.00
 000400,0.00001333,-0.00000924,-0.00000270,-0.00000470,-0.00001377,-0.0
 0000130,0.00001516,-0.00000279,-0.00000333,0.00002447,0.00001730,-0.00
 004534,0.00007237,0.00004510,0.00011006,0.00004751,-0.00002528,-0.0000
 0142,0.00032572,-0.00034635,-0.00013121,0.00050792,-0.00040512,0.00000
 276,0.00000322,-0.00001673,0.00004368,-0.01726668,0.00741776,0.0058679
 6,-0.00805093,0.00182110,0.00107302,0.39158298,-0.00000319,-0.00036882
 ,-0.00077258,0.00046123,0.00038632,-0.00014923,0.00035705,0.00031694,0
 .00014547,-0.00010470,-0.00683262,0.00142887,-0.00015493,-0.00009201,0
 .00064993,-0.00020902,-0.00002152,0.00005803,0.00059325,-0.00054273,-0
 .00059213,-0.00012769,0.00001267,0.00006995,0.00029302,-0.00030563,0.0
 0013561,0.03228650,-0.00574376,-0.00497035,-0.00016541,0.00025847,0.00
 002475,0.10044956,-0.09256467,-0.01419227,-0.00020273,-0.00058069,0.00
 204897,0.00022240,-0.00010991,-0.00002587,-0.00006628,-0.00023863,0.00
 011256,0.00005761,0.00002785,-0.00000854,0.00004552,0.00002156,-0.0000
 1141,-0.00002666,0.00001230,0.00001353,-0.00000633,0.00002851,0.000018
 75,-0.00002403,-0.00004077,0.00003622,-0.00010492,-0.00001307,-0.00015
 264,-0.00008553,0.00003973,-0.00006126,0.00003038,0.00108460,0.0006917
 6,-0.00022452,0.00073968,-0.00101078,0.00001012,-0.00000404,-0.0000193
 4,-0.01964975,0.00781848,0.00497779,-0.00858278,0.00406245,-0.00387920
 ,-0.10506814,0.09264932,-0.00022199,-0.00007551,0.00008969,0.00020687,
 -0.00009434,-0.00010222,-0.00033783,-0.00004449,-0.00017300,0.00002633
 ,0.00121668,0.00065912,0.00016633,0.00020925,-0.00010525,0.00006228,-0
 .00001023,0.00029990,-0.00006061,0.00015865,-0.00003143,0.00019218,-0.
 00002618,0.00002621,0.00024934,-0.00000422,0.00005064,-0.00561470,0.00
 131792,0.00012175,-0.00017967,0.00006986,-0.00002719,0.04219738,-0.016
 28819,-0.06678385,-0.00123868,0.00122596,-0.00275469,-0.00004923,0.000
 02636,-0.00002006,-0.00005029,0.00000743,-0.00004178,0.00000306,0.0000
 2868,-0.00000383,0.00000087,-0.00003682,-0.00000427,0.00001759,0.00001
 149,-0.00001379,0.00000587,-0.00000756,-0.00000029,0.00002525,0.000033
 72,-0.00000378,0.00003844,-0.00003796,0.00000209,-0.00001592,0.0000003
 6,-0.00000704,-0.00060364,0.00039881,-0.00035578,0.00022012,-0.0009516
 7,0.00007836,0.00001141,-0.00000448,-0.00001106,-0.02674109,0.01092700
 ,0.00499372,0.03044268,-0.01348393,0.00605443,-0.03875235,0.01543342,0
 .05806339\\0.00000176,0.00000360,0.00000277,0.00000080,-0.00000204,0.0
 0000021,0.00000459,-0.00000154,-0.00000113,0.00000637,0.00001013,-0.00
 000456,0.00000377,-0.00000904,-0.00001630,-0.00000816,0.00000196,-0.00
 000073,-0.00000655,0.00000856,0.00000929,-0.00000364,0.00000316,-0.000
 00146,-0.00000620,-0.00003769,0.00002643,0.00000050,0.00000182,0.00000
 743,-0.00001738,0.00003538,0.00000108,-0.00001501,0.00000775,0.0000064
 8,0.00003033,-0.00000831,-0.00000041,0.00000281,-0.00000346,-0.0000002
 4,0.00000010,-0.00000248,0.00000007,-0.00000172,0.00000132,0.00000029,
 -0.00000344,-0.00000242,0.00000029,-0.00000265,0.00000067,0.00000131,0
 .00000335,-0.00000131,-0.00000295,0.00000567,0.00000054,0.00000185,0.0
 0000296,0.00000329,-0.00000469,-0.00000073,0.00000325,-0.00000379,-0.0
 0000118,-0.00000852,-0.00000176,0.00000144,-0.00000073,-0.00000100,0.0
 0000180,-0.00001093,-0.00000072,-0.00000181,-0.00000085,-0.00000079,0.
 00000254,0.00000543,-0.00002153,-0.00000030,0.00000245,0.00000456\\\@


 THERE IS NO CURE FOR BIRTH AND DEATH SAVE TO ENJOY THE INTERVAL.

                               -- GEORGE SANTAYANA
 Job cpu time:  0 days  1 hours 47 minutes  3.5 seconds.
 File lengths (MBytes):  RWF=    215 Int=      0 D2E=      0 Chk=      5 Scr=      1
 Normal termination of Gaussian 09 at Fri Feb 16 22:06:28 2018.
