 Entering Gaussian System, Link 0=g09
 Initial command:
 /home/fb_chem/chemsoft/lx24-amd64/Gaussian_09_C.01_NBO_3.1_64_istanbul-64/g09/l1.exe /local/2397355.1.parallel/Gau-30574.inp -scrdir=/local/2397355.1.parallel/
 Entering Link 1 = /home/fb_chem/chemsoft/lx24-amd64/Gaussian_09_C.01_NBO_3.1_64_istanbul-64/g09/l1.exe PID=     30576.
  
 Copyright (c) 1988,1990,1992,1993,1995,1998,2003,2009,2011,
            Gaussian, Inc.  All Rights Reserved.
  
 This is part of the Gaussian(R) 09 program.  It is based on
 the Gaussian(R) 03 system (copyright 2003, Gaussian, Inc.),
 the Gaussian(R) 98 system (copyright 1998, Gaussian, Inc.),
 the Gaussian(R) 94 system (copyright 1995, Gaussian, Inc.),
 the Gaussian 92(TM) system (copyright 1992, Gaussian, Inc.),
 the Gaussian 90(TM) system (copyright 1990, Gaussian, Inc.),
 the Gaussian 88(TM) system (copyright 1988, Gaussian, Inc.),
 the Gaussian 86(TM) system (copyright 1986, Carnegie Mellon
 University), and the Gaussian 82(TM) system (copyright 1983,
 Carnegie Mellon University). Gaussian is a federally registered
 trademark of Gaussian, Inc.
  
 This software contains proprietary and confidential information,
 including trade secrets, belonging to Gaussian, Inc.
  
 This software is provided under written license and may be
 used, copied, transmitted, or stored only in accord with that
 written license.
  
 The following legend is applicable only to US Government
 contracts under FAR:
  
                    RESTRICTED RIGHTS LEGEND
  
 Use, reproduction and disclosure by the US Government is
 subject to restrictions as set forth in subparagraphs (a)
 and (c) of the Commercial Computer Software - Restricted
 Rights clause in FAR 52.227-19.
  
 Gaussian, Inc.
 340 Quinnipiac St., Bldg. 40, Wallingford CT 06492
  
  
 ---------------------------------------------------------------
 Warning -- This program may not be used in any manner that
 competes with the business of Gaussian, Inc. or will provide
 assistance to any competitor of Gaussian, Inc.  The licensee
 of this program is prohibited from giving any competitor of
 Gaussian, Inc. access to this program.  By using this program,
 the user acknowledges that Gaussian, Inc. is engaged in the
 business of creating and licensing software in the field of
 computational chemistry and represents and warrants to the
 licensee that it is not a competitor of Gaussian, Inc. and that
 it will not use this program in any manner prohibited above.
 ---------------------------------------------------------------
  

 Cite this work as:
 Gaussian 09, Revision C.01,
 M. J. Frisch, G. W. Trucks, H. B. Schlegel, G. E. Scuseria, 
 M. A. Robb, J. R. Cheeseman, G. Scalmani, V. Barone, B. Mennucci, 
 G. A. Petersson, H. Nakatsuji, M. Caricato, X. Li, H. P. Hratchian, 
 A. F. Izmaylov, J. Bloino, G. Zheng, J. L. Sonnenberg, M. Hada, 
 M. Ehara, K. Toyota, R. Fukuda, J. Hasegawa, M. Ishida, T. Nakajima, 
 Y. Honda, O. Kitao, H. Nakai, T. Vreven, J. A. Montgomery, Jr., 
 J. E. Peralta, F. Ogliaro, M. Bearpark, J. J. Heyd, E. Brothers, 
 K. N. Kudin, V. N. Staroverov, T. Keith, R. Kobayashi, J. Normand, 
 K. Raghavachari, A. Rendell, J. C. Burant, S. S. Iyengar, J. Tomasi, 
 M. Cossi, N. Rega, J. M. Millam, M. Klene, J. E. Knox, J. B. Cross, 
 V. Bakken, C. Adamo, J. Jaramillo, R. Gomperts, R. E. Stratmann, 
 O. Yazyev, A. J. Austin, R. Cammi, C. Pomelli, J. W. Ochterski, 
 R. L. Martin, K. Morokuma, V. G. Zakrzewski, G. A. Voth, 
 P. Salvador, J. J. Dannenberg, S. Dapprich, A. D. Daniels, 
 O. Farkas, J. B. Foresman, J. V. Ortiz, J. Cioslowski, 
 and D. J. Fox, Gaussian, Inc., Wallingford CT, 2010.
 
 ******************************************
 Gaussian 09:  AM64L-G09RevC.01 23-Sep-2011
                16-Feb-2018 
 ******************************************
 %nprocs=4
 Will use up to    4 processors via shared memory.
 %chk=frag22-conf0.chk
 ---------------------------------------------------------
 #B3LYP/6-31G* Integral=(Grid=UltraFine) freq Opt pop=none
 ---------------------------------------------------------
 1/14=-1,18=20,19=15,26=3,38=1/1,3;
 2/9=110,12=2,17=6,18=5,40=1/2;
 3/5=1,6=6,7=1,11=2,16=1,25=1,30=1,71=1,74=-5,75=-5/1,2,3;
 4//1;
 5/5=2,38=5/2;
 7//1,2,3,16;
 1/14=-1,18=20,19=15/3(2);
 2/9=110/2;
 99//99;
 2/9=110/2;
 3/5=1,6=6,7=1,11=2,16=1,25=1,30=1,71=1,74=-5,75=-5/1,2,3;
 4/5=5,16=3/1;
 5/5=2,38=5/2;
 7//1,2,3,16;
 1/14=-1,18=20,19=15/3(-5);
 2/9=110/2;
 99/9=1/99;
 -----------------------------
 Optimization for frag22-conf0
 -----------------------------
 Charge =  0 Multiplicity = 1
 Symbolic Z-Matrix:
 C                    -4.80468   3.18981  -3.5237 
 C                    -3.41862   3.06098  -3.58504 
 C                    -5.55675   2.27488  -2.78968 
 C                    -2.78285   2.0162   -2.91284 
 C                    -4.92351   1.22916  -2.11653 
 C                    -3.52938   1.0884   -2.17231 
 C                    -1.0351   -0.69302   2.17077 
 C                    -2.84255  -0.03733  -1.43876 
 N                    -1.69443  -0.89128   0.86365 
 O                    -1.39294   1.53241   0.17703 
 O                    -3.62965   0.7171    1.01411 
 S                    -2.4278    0.51244   0.22322 
 H                    -5.29967   4.00523  -4.04838 
 H                    -2.83074   3.77667  -4.15749 
 H                    -6.63973   2.37623  -2.7406 
 H                    -1.69743   1.93284  -2.96909 
 H                    -5.52763   0.52478  -1.54458 
 H                    -0.21167   0.02045   2.08686 
 H                    -0.62513  -1.65116   2.50356 
 H                    -1.7566   -0.35604   2.91993 
 H                    -1.9158   -0.32921  -1.94209 
 H                    -3.49733  -0.91015  -1.35568 
 H                    -2.41042  -1.6272    0.93103 
 

 GradGradGradGradGradGradGradGradGradGradGradGradGradGradGradGradGradGrad
 Berny optimization.
 Initialization pass.
                           ----------------------------
                           !    Initial Parameters    !
                           ! (Angstroms and Degrees)  !
 --------------------------                            --------------------------
 ! Name  Definition              Value          Derivative Info.                !
 --------------------------------------------------------------------------------
 ! R1    R(1,2)                  1.3934         estimate D2E/DX2                !
 ! R2    R(1,3)                  1.3934         estimate D2E/DX2                !
 ! R3    R(1,13)                 1.0887         estimate D2E/DX2                !
 ! R4    R(2,4)                  1.3956         estimate D2E/DX2                !
 ! R5    R(2,14)                 1.0888         estimate D2E/DX2                !
 ! R6    R(3,5)                  1.3956         estimate D2E/DX2                !
 ! R7    R(3,15)                 1.0888         estimate D2E/DX2                !
 ! R8    R(4,6)                  1.4023         estimate D2E/DX2                !
 ! R9    R(4,16)                 1.0901         estimate D2E/DX2                !
 ! R10   R(5,6)                  1.4023         estimate D2E/DX2                !
 ! R11   R(5,17)                 1.0901         estimate D2E/DX2                !
 ! R12   R(6,8)                  1.509          estimate D2E/DX2                !
 ! R13   R(7,9)                  1.4774         estimate D2E/DX2                !
 ! R14   R(7,18)                 1.0928         estimate D2E/DX2                !
 ! R15   R(7,19)                 1.094          estimate D2E/DX2                !
 ! R16   R(7,20)                 1.0933         estimate D2E/DX2                !
 ! R17   R(8,12)                 1.799          estimate D2E/DX2                !
 ! R18   R(8,21)                 1.0943         estimate D2E/DX2                !
 ! R19   R(8,22)                 1.0943         estimate D2E/DX2                !
 ! R20   R(9,12)                 1.7083         estimate D2E/DX2                !
 ! R21   R(9,23)                 1.029          estimate D2E/DX2                !
 ! R22   R(10,12)                1.4538         estimate D2E/DX2                !
 ! R23   R(11,12)                1.4532         estimate D2E/DX2                !
 ! A1    A(2,1,3)              119.9597         estimate D2E/DX2                !
 ! A2    A(2,1,13)             120.0212         estimate D2E/DX2                !
 ! A3    A(3,1,13)             120.0191         estimate D2E/DX2                !
 ! A4    A(1,2,4)              120.078          estimate D2E/DX2                !
 ! A5    A(1,2,14)             119.9648         estimate D2E/DX2                !
 ! A6    A(4,2,14)             119.9572         estimate D2E/DX2                !
 ! A7    A(1,3,5)              120.0797         estimate D2E/DX2                !
 ! A8    A(1,3,15)             119.9651         estimate D2E/DX2                !
 ! A9    A(5,3,15)             119.9552         estimate D2E/DX2                !
 ! A10   A(2,4,6)              120.4741         estimate D2E/DX2                !
 ! A11   A(2,4,16)             119.0787         estimate D2E/DX2                !
 ! A12   A(6,4,16)             120.447          estimate D2E/DX2                !
 ! A13   A(3,5,6)              120.4718         estimate D2E/DX2                !
 ! A14   A(3,5,17)             119.0652         estimate D2E/DX2                !
 ! A15   A(6,5,17)             120.4629         estimate D2E/DX2                !
 ! A16   A(4,6,5)              118.9366         estimate D2E/DX2                !
 ! A17   A(4,6,8)              120.5289         estimate D2E/DX2                !
 ! A18   A(5,6,8)              120.5329         estimate D2E/DX2                !
 ! A19   A(9,7,18)             110.8533         estimate D2E/DX2                !
 ! A20   A(9,7,19)             108.5934         estimate D2E/DX2                !
 ! A21   A(9,7,20)             110.6771         estimate D2E/DX2                !
 ! A22   A(18,7,19)            108.2282         estimate D2E/DX2                !
 ! A23   A(18,7,20)            110.4044         estimate D2E/DX2                !
 ! A24   A(19,7,20)            107.9869         estimate D2E/DX2                !
 ! A25   A(6,8,12)             109.0285         estimate D2E/DX2                !
 ! A26   A(6,8,21)             111.1532         estimate D2E/DX2                !
 ! A27   A(6,8,22)             111.0747         estimate D2E/DX2                !
 ! A28   A(12,8,21)            108.1315         estimate D2E/DX2                !
 ! A29   A(12,8,22)            108.1534         estimate D2E/DX2                !
 ! A30   A(21,8,22)            109.2048         estimate D2E/DX2                !
 ! A31   A(7,9,12)             114.3937         estimate D2E/DX2                !
 ! A32   A(7,9,23)             110.4009         estimate D2E/DX2                !
 ! A33   A(12,9,23)            108.2709         estimate D2E/DX2                !
 ! A34   A(8,12,9)             101.1975         estimate D2E/DX2                !
 ! A35   A(8,12,10)            110.4368         estimate D2E/DX2                !
 ! A36   A(8,12,11)            110.8028         estimate D2E/DX2                !
 ! A37   A(9,12,10)            106.4287         estimate D2E/DX2                !
 ! A38   A(9,12,11)            105.4698         estimate D2E/DX2                !
 ! A39   A(10,12,11)           120.4777         estimate D2E/DX2                !
 ! D1    D(3,1,2,4)              0.0391         estimate D2E/DX2                !
 ! D2    D(3,1,2,14)          -179.9173         estimate D2E/DX2                !
 ! D3    D(13,1,2,4)           179.9959         estimate D2E/DX2                !
 ! D4    D(13,1,2,14)            0.0395         estimate D2E/DX2                !
 ! D5    D(2,1,3,5)             -0.0393         estimate D2E/DX2                !
 ! D6    D(2,1,3,15)           179.9191         estimate D2E/DX2                !
 ! D7    D(13,1,3,5)          -179.996          estimate D2E/DX2                !
 ! D8    D(13,1,3,15)           -0.0377         estimate D2E/DX2                !
 ! D9    D(1,2,4,6)              0.0389         estimate D2E/DX2                !
 ! D10   D(1,2,4,16)          -179.7934         estimate D2E/DX2                !
 ! D11   D(14,2,4,6)           179.9953         estimate D2E/DX2                !
 ! D12   D(14,2,4,16)            0.1631         estimate D2E/DX2                !
 ! D13   D(1,3,5,6)             -0.0386         estimate D2E/DX2                !
 ! D14   D(1,3,5,17)           179.802          estimate D2E/DX2                !
 ! D15   D(15,3,5,6)          -179.997          estimate D2E/DX2                !
 ! D16   D(15,3,5,17)           -0.1563         estimate D2E/DX2                !
 ! D17   D(2,4,6,5)             -0.115          estimate D2E/DX2                !
 ! D18   D(2,4,6,8)           -179.6612         estimate D2E/DX2                !
 ! D19   D(16,4,6,5)           179.715          estimate D2E/DX2                !
 ! D20   D(16,4,6,8)             0.1688         estimate D2E/DX2                !
 ! D21   D(3,5,6,4)              0.1149         estimate D2E/DX2                !
 ! D22   D(3,5,6,8)            179.661          estimate D2E/DX2                !
 ! D23   D(17,5,6,4)          -179.7235         estimate D2E/DX2                !
 ! D24   D(17,5,6,8)            -0.1774         estimate D2E/DX2                !
 ! D25   D(4,6,8,12)            89.8108         estimate D2E/DX2                !
 ! D26   D(4,6,8,21)           -29.2946         estimate D2E/DX2                !
 ! D27   D(4,6,8,22)          -151.1046         estimate D2E/DX2                !
 ! D28   D(5,6,8,12)           -89.728          estimate D2E/DX2                !
 ! D29   D(5,6,8,21)           151.1666         estimate D2E/DX2                !
 ! D30   D(5,6,8,22)            29.3565         estimate D2E/DX2                !
 ! D31   D(18,7,9,12)          -62.816          estimate D2E/DX2                !
 ! D32   D(18,7,9,23)          174.7764         estimate D2E/DX2                !
 ! D33   D(19,7,9,12)          178.413          estimate D2E/DX2                !
 ! D34   D(19,7,9,23)           56.0055         estimate D2E/DX2                !
 ! D35   D(20,7,9,12)           60.0405         estimate D2E/DX2                !
 ! D36   D(20,7,9,23)          -62.367          estimate D2E/DX2                !
 ! D37   D(6,8,12,9)           179.3571         estimate D2E/DX2                !
 ! D38   D(6,8,12,10)          -68.2199         estimate D2E/DX2                !
 ! D39   D(6,8,12,11)           67.8832         estimate D2E/DX2                !
 ! D40   D(21,8,12,9)          -59.6721         estimate D2E/DX2                !
 ! D41   D(21,8,12,10)          52.751          estimate D2E/DX2                !
 ! D42   D(21,8,12,11)        -171.146          estimate D2E/DX2                !
 ! D43   D(22,8,12,9)           58.4682         estimate D2E/DX2                !
 ! D44   D(22,8,12,10)         170.8913         estimate D2E/DX2                !
 ! D45   D(22,8,12,11)         -53.0057         estimate D2E/DX2                !
 ! D46   D(7,9,12,8)           170.474          estimate D2E/DX2                !
 ! D47   D(7,9,12,10)           55.0399         estimate D2E/DX2                !
 ! D48   D(7,9,12,11)          -74.0305         estimate D2E/DX2                !
 ! D49   D(23,9,12,8)          -65.9668         estimate D2E/DX2                !
 ! D50   D(23,9,12,10)         178.5992         estimate D2E/DX2                !
 ! D51   D(23,9,12,11)          49.5288         estimate D2E/DX2                !
 --------------------------------------------------------------------------------
 Trust Radius=3.00D-01 FncErr=1.00D-07 GrdErr=1.00D-06
 Number of steps in this run=    123 maximum allowed number of steps=    138.
 GradGradGradGradGradGradGradGradGradGradGradGradGradGradGradGradGradGrad

                          Input orientation:                          
 ---------------------------------------------------------------------
 Center     Atomic      Atomic             Coordinates (Angstroms)
 Number     Number       Type             X           Y           Z
 ---------------------------------------------------------------------
      1          6           0       -4.804677    3.189811   -3.523701
      2          6           0       -3.418622    3.060984   -3.585040
      3          6           0       -5.556750    2.274877   -2.789675
      4          6           0       -2.782853    2.016199   -2.912839
      5          6           0       -4.923515    1.229157   -2.116532
      6          6           0       -3.529381    1.088405   -2.172314
      7          6           0       -1.035098   -0.693020    2.170770
      8          6           0       -2.842548   -0.037334   -1.438760
      9          7           0       -1.694429   -0.891279    0.863648
     10          8           0       -1.392937    1.532415    0.177035
     11          8           0       -3.629648    0.717101    1.014107
     12         16           0       -2.427801    0.512442    0.223218
     13          1           0       -5.299671    4.005229   -4.048379
     14          1           0       -2.830735    3.776668   -4.157491
     15          1           0       -6.639732    2.376232   -2.740602
     16          1           0       -1.697431    1.932839   -2.969094
     17          1           0       -5.527631    0.524781   -1.544584
     18          1           0       -0.211673    0.020451    2.086864
     19          1           0       -0.625129   -1.651158    2.503558
     20          1           0       -1.756604   -0.356039    2.919931
     21          1           0       -1.915796   -0.329206   -1.942091
     22          1           0       -3.497332   -0.910148   -1.355682
     23          1           0       -2.410418   -1.627200    0.931027
 ---------------------------------------------------------------------
                    Distance matrix (angstroms):
                    1          2          3          4          5
     1  C    0.000000
     2  C    1.393380   0.000000
     3  C    1.393382   2.412916   0.000000
     4  C    2.416255   1.395576   2.788654   0.000000
     5  C    2.416281   2.788693   1.395579   2.415776   0.000000
     6  C    2.805091   2.428813   2.428802   1.402314   1.402331
     7  C    7.855769   7.273451   7.338922   6.019768   6.098812
     8  C    4.314092   3.812866   3.812897   2.528531   2.528595
     9  N    6.751131   6.195486   6.187798   4.888757   4.879008
    10  O    5.299280   4.537965   5.166233   3.422460   4.221066
    11  O    5.299688   5.166283   4.539730   4.222040   3.425959
    12  S    5.182398   4.688243   4.687646   3.496027   3.495239
    13  H    1.088675   2.155140   2.155120   3.402949   3.402955
    14  H    2.154654   1.088813   3.399625   2.156548   3.877505
    15  H    2.154666   3.399635   1.088821   3.877474   2.156536
    16  H    3.397432   2.148162   3.878598   1.090071   3.410227
    17  H    3.397345   3.878622   2.148008   3.410316   1.090058
    18  H    7.913214   7.190261   7.578451   5.965820   6.428916
    19  H    8.788143   8.190172   8.231219   6.887862   6.936683
    20  H    7.961419   7.533459   7.345913   6.379805   6.156958
    21  H    4.819814   4.056002   4.555897   2.682362   3.391946
    22  H    4.818622   4.554791   4.054864   3.390977   2.681327
    23  H    6.984316   6.587140   6.242535   5.309272   4.874633
                    6          7          8          9         10
     6  C    0.000000
     7  C    5.315760   0.000000
     8  C    1.509015   4.089684   0.000000
     9  N    4.062420   1.477361   2.710809   0.000000
    10  O    3.206396   3.009251   2.678857   2.537051   0.000000
    11  O    3.209548   3.171436   2.684261   2.520833   2.523550
    12  S    2.698849   2.680619   1.799011   1.708338   1.453761
    13  H    3.893766   8.884703   5.402765   7.816749   6.263506
    14  H    3.414058   7.952943   4.683828   6.949298   5.088423
    15  H    3.414050   8.059393   4.683876   6.937093   6.062466
    16  H    2.168863   5.809649   2.744958   4.760836   3.186091
    17  H    2.169037   5.955649   2.745331   4.743232   4.590751
    18  H    5.503481   1.092753   4.399417   2.127457   2.707188
    19  H    6.148468   1.094007   4.802421   2.100030   4.017135
    20  H    5.582124   1.093329   4.503225   2.125712   3.349924
    21  H    2.160157   4.221803   1.094258   2.870034   2.868746
    22  H    2.159196   4.306461   1.094279   2.859413   3.569847
    23  H    4.272858   2.073924   2.886227   1.028960   3.403959
                   11         12         13         14         15
    11  O    0.000000
    12  S    1.453213   0.000000
    13  H    6.263348   6.220429   0.000000
    14  H    6.061735   5.477968   2.481892   0.000000
    15  H    5.090300   5.477071   2.481870   4.298517   0.000000
    16  H    4.591010   3.569569   4.293692   2.469083   4.967409
    17  H    3.191587   3.568504   4.293539   4.967423   2.468825
    18  H    3.649477   2.937082   8.911082   7.743424   8.376996
    19  H    4.105393   3.623637   9.837375   8.871052   8.938486
    20  H    2.879599   2.911533   8.951610   8.265768   7.959389
    21  H    3.573675   2.378883   5.888496   4.754293   5.502053
    22  H    2.877733   2.379198   5.887272   5.500974   4.753206
    23  H    2.643704   2.253744   8.053976   7.434478   6.884434
                   16         17         18         19         20
    16  H    0.000000
    17  H    4.322301   0.000000
    18  H    5.606015   6.457644   0.000000
    19  H    6.629086   6.719873   1.771682   0.000000
    20  H    6.318471   5.910024   1.795148   1.769445   0.000000
    21  H    2.493845   3.732648   4.388481   4.814268   4.864701
    22  H    3.731663   2.493355   4.848988   4.867482   4.649520
    23  H    5.328524   4.525118   2.980803   2.379219   2.449298
                   21         22         23
    21  H    0.000000
    22  H    1.783991   0.000000
    23  H    3.191277   2.631461   0.000000
 Stoichiometry    C8H11NO2S
 Framework group  C1[X(C8H11NO2S)]
 Deg. of freedom    63
 Full point group                 C1      NOp   1
 Largest Abelian subgroup         C1      NOp   1
 Largest concise Abelian subgroup C1      NOp   1
                         Standard orientation:                         
 ---------------------------------------------------------------------
 Center     Atomic      Atomic             Coordinates (Angstroms)
 Number     Number       Type             X           Y           Z
 ---------------------------------------------------------------------
      1          6           0        3.802620    0.042483   -0.450840
      2          6           0        3.146499    1.232995   -0.144745
      3          6           0        3.169441   -1.178404   -0.227160
      4          6           0        1.856256    1.203977    0.386351
      5          6           0        1.879224   -1.210280    0.303842
      6          6           0        1.209585   -0.018706    0.617320
      7          6           0       -4.046777    0.156080   -0.155599
      8          6           0       -0.188432   -0.051330    1.184426
      9          7           0       -2.851889   -0.079244    0.680737
     10          8           0       -1.337384    1.271125   -0.842222
     11          8           0       -1.313865   -1.250534   -0.937027
     12         16           0       -1.371824   -0.017501   -0.170152
     13          1           0        4.809089    0.066200   -0.865169
     14          1           0        3.640679    2.187101   -0.320758
     15          1           0        3.681560   -2.108715   -0.467549
     16          1           0        1.356854    2.145151    0.616661
     17          1           0        1.398245   -2.174431    0.469067
     18          1           0       -4.029979    1.161253   -0.583914
     19          1           0       -4.936623    0.067470    0.474619
     20          1           0       -4.117725   -0.594521   -0.947390
     21          1           0       -0.376152    0.817677    1.822384
     22          1           0       -0.357499   -0.965198    1.762101
     23          1           0       -2.916545   -0.992867    1.149644
 ---------------------------------------------------------------------
 Rotational constants (GHZ):      2.3418261      0.4456666      0.4188324
 Standard basis: 6-31G(d) (6D, 7F)
 There are   206 symmetry adapted basis functions of A   symmetry.
 Integral buffers will be    131072 words long.
 Raffenetti 2 integral format.
 Two-electron integral symmetry is turned on.
   206 basis functions,   404 primitive gaussians,   206 cartesian basis functions
    49 alpha electrons       49 beta electrons
       nuclear repulsion energy       829.7149568714 Hartrees.
 NAtoms=   23 NActive=   23 NUniq=   23 SFac= 1.00D+00 NAtFMM=   60 NAOKFM=F Big=F
 One-electron integrals computed using PRISM.
 NBasis=   206 RedAO= T  NBF=   206
 NBsUse=   206 1.00D-06 NBFU=   206
 Harris functional with IExCor=  402 diagonalized for initial guess.
 ExpMin= 1.17D-01 ExpMax= 2.19D+04 ExpMxC= 3.30D+03 IAcc=3 IRadAn=         5 AccDes= 0.00D+00
 HarFok:  IExCor=  402 AccDes= 0.00D+00 IRadAn=         5 IDoV= 1
 ScaDFX=  1.000000  1.000000  1.000000  1.000000
 FoFCou: FMM=F IPFlag=           0 FMFlag=      100000 FMFlg1=           0
         NFxFlg=           0 DoJE=T BraDBF=F KetDBF=T FulRan=T
         Omega=  0.000000  0.000000  1.000000  0.000000  0.000000 ICntrl=     500 IOpCl=  0
         NMat0=    1 NMatS0=    1 NMatT0=    0 NMatD0=    1 NMtDS0=    0 NMtDT0=    0
         I1Cent=           4 NGrid=           0.
 Petite list used in FoFCou.
 Initial guess orbital symmetries:
       Occupied  (A) (A) (A) (A) (A) (A) (A) (A) (A) (A) (A) (A)
                 (A) (A) (A) (A) (A) (A) (A) (A) (A) (A) (A) (A)
                 (A) (A) (A) (A) (A) (A) (A) (A) (A) (A) (A) (A)
                 (A) (A) (A) (A) (A) (A) (A) (A) (A) (A) (A) (A)
                 (A)
       Virtual   (A) (A) (A) (A) (A) (A) (A) (A) (A) (A) (A) (A)
                 (A) (A) (A) (A) (A) (A) (A) (A) (A) (A) (A) (A)
                 (A) (A) (A) (A) (A) (A) (A) (A) (A) (A) (A) (A)
                 (A) (A) (A) (A) (A) (A) (A) (A) (A) (A) (A) (A)
                 (A) (A) (A) (A) (A) (A) (A) (A) (A) (A) (A) (A)
                 (A) (A) (A) (A) (A) (A) (A) (A) (A) (A) (A) (A)
                 (A) (A) (A) (A) (A) (A) (A) (A) (A) (A) (A) (A)
                 (A) (A) (A) (A) (A) (A) (A) (A) (A) (A) (A) (A)
                 (A) (A) (A) (A) (A) (A) (A) (A) (A) (A) (A) (A)
                 (A) (A) (A) (A) (A) (A) (A) (A) (A) (A) (A) (A)
                 (A) (A) (A) (A) (A) (A) (A) (A) (A) (A) (A) (A)
                 (A) (A) (A) (A) (A) (A) (A) (A) (A) (A) (A) (A)
                 (A) (A) (A) (A) (A) (A) (A) (A) (A) (A) (A) (A)
                 (A)
 The electronic state of the initial guess is 1-A.
 Requested convergence on RMS density matrix=1.00D-08 within 128 cycles.
 Requested convergence on MAX density matrix=1.00D-06.
 Requested convergence on             energy=1.00D-06.
 No special actions if energy rises.
 Integral accuracy reduced to 1.0D-05 until final iterations.
 Initial convergence to 1.0D-05 achieved.  Increase integral accuracy.
 SCF Done:  E(RB3LYP) =  -914.789785607     A.U. after   15 cycles
             Convg  =    0.5018D-08             -V/T =  2.0070
 Calling FoFJK, ICntrl=      2127 FMM=F ISym2X=0 I1Cent= 0 IOpClX= 0 NMat=1 NMatS=1 NMatT=0.
 ***** Axes restored to original set *****
 -------------------------------------------------------------------
 Center     Atomic                   Forces (Hartrees/Bohr)
 Number     Number              X              Y              Z
 -------------------------------------------------------------------
      1        6          -0.001739995    0.003064686   -0.001741125
      2        6           0.001973984    0.000051116   -0.000282957
      3        6          -0.001486856   -0.001276888    0.001017015
      4        6           0.002109578    0.001049049   -0.000615365
      5        6          -0.002109099   -0.000027730    0.000603126
      6        6          -0.002975579    0.000763784   -0.004494033
      7        6          -0.004449785   -0.001487315    0.000093599
      8        6          -0.004336003    0.002166663   -0.013200432
      9        7           0.008279973   -0.011653043   -0.009615231
     10        8           0.007036205    0.009968309   -0.005379081
     11        8          -0.024945744    0.011489480    0.000591306
     12       16           0.016023502   -0.020721956    0.023772560
     13        1           0.000564089   -0.000993064    0.000551727
     14        1          -0.000346593   -0.001430579    0.000988944
     15        1           0.001580986   -0.000685067    0.000237548
     16        1          -0.002306786   -0.001237674    0.001561202
     17        1           0.002849147    0.000706026   -0.000380059
     18        1          -0.002791069    0.000534611   -0.002543301
     19        1           0.000101126   -0.000824077   -0.002946140
     20        1           0.001475011    0.003625130    0.004370803
     21        1           0.000732727   -0.000133167    0.004311522
     22        1           0.000982761   -0.000257700    0.002523710
     23        1           0.003778419    0.007309404    0.000574659
 -------------------------------------------------------------------
 Cartesian Forces:  Max     0.024945744 RMS     0.006531687

 GradGradGradGradGradGradGradGradGradGradGradGradGradGradGradGradGradGrad
 Berny optimization.
 Internal  Forces:  Max     0.022570715 RMS     0.004184368
 Search for a local minimum.
 Step number   1 out of a maximum of  123
 All quantities printed in internal units (Hartrees-Bohrs-Radians)
 Mixed Optimization -- RFO/linear search
 Second derivative matrix not updated -- first step.
 ITU=  0
     Eigenvalues ---    0.00383   0.00647   0.00668   0.01186   0.01490
     Eigenvalues ---    0.02070   0.02099   0.02106   0.02135   0.02160
     Eigenvalues ---    0.02162   0.02169   0.02176   0.02719   0.04589
     Eigenvalues ---    0.05673   0.07168   0.07557   0.07759   0.08634
     Eigenvalues ---    0.09171   0.11406   0.12387   0.12673   0.16000
     Eigenvalues ---    0.16000   0.16000   0.16000   0.16000   0.16000
     Eigenvalues ---    0.16000   0.16000   0.17601   0.21966   0.22000
     Eigenvalues ---    0.22000   0.23349   0.23475   0.24999   0.25000
     Eigenvalues ---    0.26195   0.31450   0.34323   0.34325   0.34354
     Eigenvalues ---    0.34431   0.34496   0.34804   0.34806   0.34874
     Eigenvalues ---    0.34905   0.34949   0.34950   0.34966   0.41855
     Eigenvalues ---    0.41857   0.42939   0.45485   0.46095   0.46361
     Eigenvalues ---    0.46668   0.94279   0.94519
 RFO step:  Lambda=-9.60960959D-03 EMin= 3.83380345D-03
 Linear search not attempted -- first point.
 Iteration  1 RMS(Cart)=  0.06005179 RMS(Int)=  0.00203143
 Iteration  2 RMS(Cart)=  0.00279463 RMS(Int)=  0.00091709
 Iteration  3 RMS(Cart)=  0.00000401 RMS(Int)=  0.00091709
 Iteration  4 RMS(Cart)=  0.00000000 RMS(Int)=  0.00091709
 Variable       Old X    -DE/DX   Delta X   Delta X   Delta X     New X
                                 (Linear)    (Quad)   (Total)
    R1        2.63311   0.00221   0.00000   0.00502   0.00502   2.63812
    R2        2.63311   0.00220   0.00000   0.00500   0.00500   2.63811
    R3        2.05730  -0.00127   0.00000  -0.00352  -0.00352   2.05377
    R4        2.63726  -0.00075   0.00000  -0.00159  -0.00159   2.63566
    R5        2.05756  -0.00165   0.00000  -0.00459  -0.00459   2.05297
    R6        2.63726  -0.00082   0.00000  -0.00172  -0.00172   2.63554
    R7        2.05757  -0.00163   0.00000  -0.00453  -0.00453   2.05305
    R8        2.64999  -0.00198   0.00000  -0.00468  -0.00468   2.64531
    R9        2.05994  -0.00228   0.00000  -0.00638  -0.00638   2.05355
   R10        2.65002  -0.00178   0.00000  -0.00425  -0.00425   2.64577
   R11        2.05991  -0.00223   0.00000  -0.00625  -0.00625   2.05366
   R12        2.85163   0.00209   0.00000   0.00644   0.00644   2.85807
   R13        2.79181  -0.00319   0.00000  -0.00889  -0.00889   2.78292
   R14        2.06500  -0.00156   0.00000  -0.00440  -0.00440   2.06061
   R15        2.06737  -0.00014   0.00000  -0.00039  -0.00039   2.06699
   R16        2.06609   0.00314   0.00000   0.00887   0.00887   2.07496
   R17        3.39964   0.00874   0.00000   0.03219   0.03219   3.43183
   R18        2.06785  -0.00133   0.00000  -0.00376  -0.00376   2.06409
   R19        2.06789  -0.00019   0.00000  -0.00054  -0.00054   2.06735
   R20        3.22829   0.00102   0.00000   0.00285   0.00285   3.23114
   R21        1.94445  -0.00782   0.00000  -0.01781  -0.01781   1.92664
   R22        2.74721   0.01217   0.00000   0.01278   0.01278   2.75999
   R23        2.74617   0.02257   0.00000   0.02364   0.02364   2.76981
    A1        2.09369  -0.00107   0.00000  -0.00293  -0.00294   2.09075
    A2        2.09476   0.00054   0.00000   0.00150   0.00151   2.09627
    A3        2.09473   0.00053   0.00000   0.00143   0.00143   2.09616
    A4        2.09576  -0.00011   0.00000   0.00043   0.00042   2.09618
    A5        2.09378   0.00073   0.00000   0.00375   0.00375   2.09753
    A6        2.09365  -0.00062   0.00000  -0.00418  -0.00418   2.08947
    A7        2.09579  -0.00024   0.00000  -0.00013  -0.00013   2.09566
    A8        2.09379   0.00075   0.00000   0.00380   0.00380   2.09759
    A9        2.09361  -0.00051   0.00000  -0.00368  -0.00367   2.08994
   A10        2.10267  -0.00007   0.00000  -0.00102  -0.00102   2.10165
   A11        2.07832   0.00208   0.00000   0.01258   0.01258   2.09089
   A12        2.10220  -0.00201   0.00000  -0.01157  -0.01157   2.09063
   A13        2.10263   0.00005   0.00000  -0.00050  -0.00050   2.10213
   A14        2.07808   0.00194   0.00000   0.01183   0.01183   2.08990
   A15        2.10247  -0.00199   0.00000  -0.01133  -0.01133   2.09114
   A16        2.07584   0.00143   0.00000   0.00413   0.00411   2.07994
   A17        2.10363  -0.00130   0.00000  -0.00434  -0.00437   2.09926
   A18        2.10370  -0.00014   0.00000   0.00012   0.00010   2.10380
   A19        1.93476  -0.00601   0.00000  -0.04213  -0.04224   1.89252
   A20        1.89531  -0.00381   0.00000  -0.02024  -0.02073   1.87459
   A21        1.93168   0.00800   0.00000   0.05154   0.05168   1.98336
   A22        1.88894   0.00287   0.00000   0.00776   0.00693   1.89587
   A23        1.92692  -0.00195   0.00000  -0.01562  -0.01515   1.91177
   A24        1.88473   0.00093   0.00000   0.01923   0.01903   1.90376
   A25        1.90291   0.00693   0.00000   0.03142   0.03155   1.93445
   A26        1.93999   0.00060   0.00000   0.01775   0.01810   1.95809
   A27        1.93862  -0.00060   0.00000   0.00953   0.00975   1.94837
   A28        1.88725  -0.00506   0.00000  -0.03669  -0.03712   1.85013
   A29        1.88763  -0.00354   0.00000  -0.02469  -0.02512   1.86252
   A30        1.90598   0.00143   0.00000   0.00024  -0.00070   1.90529
   A31        1.99655  -0.00315   0.00000  -0.01595  -0.01605   1.98050
   A32        1.92686   0.00177   0.00000   0.00484   0.00460   1.93146
   A33        1.88968  -0.00039   0.00000  -0.01340  -0.01346   1.87622
   A34        1.76623  -0.00985   0.00000  -0.02975  -0.02850   1.73773
   A35        1.92749  -0.00228   0.00000  -0.04545  -0.04655   1.88094
   A36        1.93387  -0.00810   0.00000  -0.05684  -0.05709   1.87678
   A37        1.85753   0.00314   0.00000   0.02136   0.01885   1.87638
   A38        1.84079   0.01671   0.00000   0.12319   0.12196   1.96276
   A39        2.10273   0.00042   0.00000  -0.00110  -0.00866   2.09408
    D1        0.00068   0.00005   0.00000   0.00196   0.00196   0.00265
    D2       -3.14015   0.00008   0.00000   0.00284   0.00284  -3.13731
    D3        3.14152   0.00002   0.00000   0.00069   0.00069  -3.14098
    D4        0.00069   0.00005   0.00000   0.00157   0.00157   0.00225
    D5       -0.00069  -0.00005   0.00000  -0.00171  -0.00171  -0.00240
    D6        3.14018  -0.00008   0.00000  -0.00281  -0.00282   3.13736
    D7       -3.14152  -0.00002   0.00000  -0.00044  -0.00044   3.14123
    D8       -0.00066  -0.00005   0.00000  -0.00154  -0.00154  -0.00220
    D9        0.00068   0.00009   0.00000   0.00340   0.00339   0.00407
   D10       -3.13799   0.00017   0.00000   0.00579   0.00579  -3.13219
   D11        3.14151   0.00007   0.00000   0.00253   0.00252  -3.13915
   D12        0.00285   0.00015   0.00000   0.00492   0.00492   0.00777
   D13       -0.00067  -0.00010   0.00000  -0.00391  -0.00390  -0.00457
   D14        3.13814  -0.00018   0.00000  -0.00609  -0.00610   3.13204
   D15       -3.14154  -0.00008   0.00000  -0.00281  -0.00280   3.13884
   D16       -0.00273  -0.00015   0.00000  -0.00499  -0.00500  -0.00773
   D17       -0.00201  -0.00024   0.00000  -0.00889  -0.00890  -0.01091
   D18       -3.13568   0.00007   0.00000   0.00364   0.00362  -3.13206
   D19        3.13662  -0.00031   0.00000  -0.01127  -0.01126   3.12536
   D20        0.00295   0.00000   0.00000   0.00126   0.00126   0.00421
   D21        0.00200   0.00025   0.00000   0.00914   0.00916   0.01116
   D22        3.13568  -0.00007   0.00000  -0.00341  -0.00342   3.13225
   D23       -3.13677   0.00032   0.00000   0.01132   0.01132  -3.12544
   D24       -0.00310   0.00000   0.00000  -0.00123  -0.00125  -0.00435
   D25        1.56749  -0.00054   0.00000  -0.01028  -0.01023   1.55727
   D26       -0.51129   0.00094   0.00000   0.00421   0.00411  -0.50718
   D27       -2.63727  -0.00089   0.00000  -0.01503  -0.01493  -2.65221
   D28       -1.56605  -0.00024   0.00000   0.00243   0.00245  -1.56360
   D29        2.63835   0.00124   0.00000   0.01692   0.01679   2.65514
   D30        0.51237  -0.00058   0.00000  -0.00232  -0.00225   0.51012
   D31       -1.09635  -0.00108   0.00000  -0.01240  -0.01189  -1.10823
   D32        3.05042   0.00037   0.00000   0.01313   0.01369   3.06412
   D33        3.11389   0.00133   0.00000   0.01562   0.01531   3.12921
   D34        0.97748   0.00278   0.00000   0.04114   0.04089   1.01837
   D35        1.04790  -0.00216   0.00000  -0.02568  -0.02597   1.02193
   D36       -1.08851  -0.00072   0.00000  -0.00016  -0.00039  -1.08890
   D37        3.13037   0.00422   0.00000   0.03536   0.03512  -3.11769
   D38       -1.19066   0.00215   0.00000   0.02833   0.02750  -1.16316
   D39        1.18479  -0.00693   0.00000  -0.06872  -0.06750   1.11728
   D40       -1.04147   0.00599   0.00000   0.05338   0.05268  -0.98879
   D41        0.92068   0.00392   0.00000   0.04635   0.04506   0.96573
   D42       -2.98706  -0.00516   0.00000  -0.05070  -0.04995  -3.03701
   D43        1.02046   0.00298   0.00000   0.02010   0.02018   1.04064
   D44        2.98262   0.00091   0.00000   0.01307   0.01255   2.99517
   D45       -0.92512  -0.00817   0.00000  -0.08398  -0.08245  -1.00757
   D46        2.97533  -0.00047   0.00000  -0.04920  -0.04906   2.92627
   D47        0.96063   0.00505   0.00000   0.00575   0.00755   0.96818
   D48       -1.29208  -0.00742   0.00000  -0.08012  -0.08231  -1.37438
   D49       -1.15134  -0.00067   0.00000  -0.06425  -0.06394  -1.21528
   D50        3.11714   0.00486   0.00000  -0.00929  -0.00734   3.10981
   D51        0.86444  -0.00762   0.00000  -0.09517  -0.09719   0.76725
         Item               Value     Threshold  Converged?
 Maximum Force            0.022571     0.000450     NO 
 RMS     Force            0.004184     0.000300     NO 
 Maximum Displacement     0.224033     0.001800     NO 
 RMS     Displacement     0.059300     0.001200     NO 
 Predicted change in Energy=-5.201517D-03
 GradGradGradGradGradGradGradGradGradGradGradGradGradGradGradGradGradGrad

                          Input orientation:                          
 ---------------------------------------------------------------------
 Center     Atomic      Atomic             Coordinates (Angstroms)
 Number     Number       Type             X           Y           Z
 ---------------------------------------------------------------------
      1          6           0       -4.795118    3.183600   -3.557984
      2          6           0       -3.404693    3.060412   -3.579282
      3          6           0       -5.561486    2.268692   -2.833750
      4          6           0       -2.783431    2.024656   -2.881770
      5          6           0       -4.939496    1.233431   -2.136283
      6          6           0       -3.546093    1.098910   -2.160047
      7          6           0       -0.992425   -0.721357    2.139572
      8          6           0       -2.868477   -0.015766   -1.394697
      9          7           0       -1.704035   -0.908196    0.863870
     10          8           0       -1.451215    1.555030    0.209712
     11          8           0       -3.735112    0.778943    0.985937
     12         16           0       -2.469495    0.511632    0.296662
     13          1           0       -5.279345    3.990316   -4.101941
     14          1           0       -2.801924    3.771211   -4.137553
     15          1           0       -6.643722    2.360896   -2.809590
     16          1           0       -1.700229    1.938563   -2.894532
     17          1           0       -5.540646    0.529499   -1.566960
     18          1           0       -0.185753   -0.004637    1.982650
     19          1           0       -0.554685   -1.685366    2.414295
     20          1           0       -1.638050   -0.374335    2.957127
     21          1           0       -1.920436   -0.311454   -1.849491
     22          1           0       -3.513928   -0.894621   -1.306224
     23          1           0       -2.420616   -1.627849    0.953655
 ---------------------------------------------------------------------
                    Distance matrix (angstroms):
                    1          2          3          4          5
     1  C    0.000000
     2  C    1.396034   0.000000
     3  C    1.396027   2.415449   0.000000
     4  C    2.418120   1.394733   2.789166   0.000000
     5  C    2.417692   2.788499   1.394667   2.414623   0.000000
     6  C    2.803609   2.425224   2.425710   1.399837   1.400083
     7  C    7.884879   7.268157   7.385840   5.996846   6.138689
     8  C    4.315981   3.810880   3.813386   2.526250   2.529735
     9  N    6.771291   6.195457   6.216505   4.878170   4.904660
    10  O    5.294285   4.520921   5.163942   3.398913   4.216067
    11  O    5.249115   5.114245   4.488318   4.173327   3.377182
    12  S    5.235096   4.732211   4.737841   3.534151   3.541344
    13  H    1.086810   2.156899   2.156827   3.403267   3.402899
    14  H    2.157315   1.086385   3.401860   2.151229   3.874870
    15  H    2.157376   3.401919   1.086426   3.875579   2.151490
    16  H    3.401268   2.152354   3.875821   1.086693   3.400736
    17  H    3.400623   3.875210   2.151739   3.400949   1.086752
    18  H    7.880973   7.119775   7.567314   5.876100   6.410655
    19  H    8.795239   8.158917   8.261029   6.839582   6.960870
    20  H    8.066762   7.592310   7.477512   6.415589   6.279115
    21  H    4.837163   4.069973   4.569809   2.695880   3.403475
    22  H    4.831538   4.563005   4.066002   3.396785   2.692554
    23  H    7.010220   6.595128   6.276346   5.308758   4.907076
                    6          7          8          9         10
     6  C    0.000000
     7  C    5.321778   0.000000
     8  C    1.512424   4.063064   0.000000
     9  N    4.070102   1.472655   2.693229   0.000000
    10  O    3.195672   3.019402   2.655213   2.561118   0.000000
    11  O    3.167858   3.332282   2.655190   2.643220   2.533973
    12  S    2.745793   2.664267   1.816048   1.709844   1.460525
    13  H    3.890417   8.918185   5.402790   7.838210   6.259037
    14  H    3.406686   7.928414   4.676417   6.936602   5.063061
    15  H    3.407319   8.119831   4.680056   6.970064   6.060341
    16  H    2.156781   5.737453   2.726483   4.714832   3.137744
    17  H    2.157365   5.999112   2.732669   4.763979   4.575120
    18  H    5.447169   1.090427   4.313190   2.091236   2.679043
    19  H    6.133949   1.093802   4.759162   2.080581   4.020463
    20  H    5.656550   1.098022   4.536617   2.161270   3.362387
    21  H    2.174473   4.116048   1.092268   2.786622   2.818554
    22  H    2.168920   4.273348   1.093993   2.825810   3.543110
    23  H    4.289179   2.065880   2.883427   1.019534   3.409385
                   11         12         13         14         15
    11  O    0.000000
    12  S    1.465722   0.000000
    13  H    6.211608   6.272496   0.000000
    14  H    6.006218   5.513404   2.487346   0.000000
    15  H    5.036727   5.522024   2.487308   4.302544   0.000000
    16  H    4.532495   3.579333   4.298558   2.473344   4.962228
    17  H    3.136791   3.592406   4.297866   4.961576   2.472836
    18  H    3.769003   2.885233   8.884064   7.652338   8.382523
    19  H    4.269443   3.602453   9.848711   8.817655   8.985410
    20  H    3.100534   2.924776   9.063093   8.299075   8.111305
    21  H    3.538596   2.363241   5.904322   4.762394   5.511141
    22  H    2.846706   2.374369   5.898757   5.503940   4.759634
    23  H    2.742551   2.238617   8.080542   7.430723   6.921469
                   16         17         18         19         20
    16  H    0.000000
    17  H    4.300781   0.000000
    18  H    5.464117   6.446699   0.000000
    19  H    6.529072   6.753950   1.774057   0.000000
    20  H    6.292478   6.042726   1.787582   1.785259   0.000000
    21  H    2.490618   3.727324   4.217650   4.683245   4.815317
    22  H    3.720102   2.490721   4.762931   4.819196   4.686765
    23  H    5.295923   4.554365   2.947586   2.370333   2.489499
                   21         22         23
    21  H    0.000000
    22  H    1.781695   0.000000
    23  H    3.136990   2.615340   0.000000
 Stoichiometry    C8H11NO2S
 Framework group  C1[X(C8H11NO2S)]
 Deg. of freedom    63
 Full point group                 C1      NOp   1
 Largest Abelian subgroup         C1      NOp   1
 Largest concise Abelian subgroup C1      NOp   1
                         Standard orientation:                         
 ---------------------------------------------------------------------
 Center     Atomic      Atomic             Coordinates (Angstroms)
 Number     Number       Type             X           Y           Z
 ---------------------------------------------------------------------
      1          6           0        3.817361    0.077481   -0.413286
      2          6           0        3.131970    1.260616   -0.131609
      3          6           0        3.198029   -1.153263   -0.188364
      4          6           0        1.833718    1.213108    0.375901
      5          6           0        1.899707   -1.199939    0.318861
      6          6           0        1.209472   -0.017489    0.611468
      7          6           0       -4.060012    0.211675   -0.096586
      8          6           0       -0.202920   -0.065340    1.150248
      9          7           0       -2.859108   -0.077413    0.705268
     10          8           0       -1.327939    1.237400   -0.871474
     11          8           0       -1.218788   -1.292138   -0.974138
     12         16           0       -1.411796   -0.059471   -0.204970
     13          1           0        4.829203    0.114396   -0.808212
     14          1           0        3.606418    2.221875   -0.307991
     15          1           0        3.724074   -2.077873   -0.409029
     16          1           0        1.301524    2.137165    0.585160
     17          1           0        1.419423   -2.160797    0.483509
     18          1           0       -3.978949    1.227326   -0.485061
     19          1           0       -4.921732    0.162384    0.575286
     20          1           0       -4.213014   -0.488503   -0.928448
     21          1           0       -0.438568    0.804245    1.767777
     22          1           0       -0.383251   -0.976164    1.728781
     23          1           0       -2.932766   -0.993820    1.145974
 ---------------------------------------------------------------------
 Rotational constants (GHZ):      2.3278876      0.4438576      0.4170896
 Standard basis: 6-31G(d) (6D, 7F)
 There are   206 symmetry adapted basis functions of A   symmetry.
 Integral buffers will be    131072 words long.
 Raffenetti 2 integral format.
 Two-electron integral symmetry is turned on.
   206 basis functions,   404 primitive gaussians,   206 cartesian basis functions
    49 alpha electrons       49 beta electrons
       nuclear repulsion energy       827.7393672661 Hartrees.
 NAtoms=   23 NActive=   23 NUniq=   23 SFac= 1.00D+00 NAtFMM=   60 NAOKFM=F Big=F
 One-electron integrals computed using PRISM.
 NBasis=   206 RedAO= T  NBF=   206
 NBsUse=   206 1.00D-06 NBFU=   206
 Initial guess read from the read-write file.
 B after Tr=     0.000000    0.000000    0.000000
         Rot=    1.000000    0.000000    0.000000    0.000000 Ang=   0.00 deg.
 Initial guess orbital symmetries:
       Occupied  (A) (A) (A) (A) (A) (A) (A) (A) (A) (A) (A) (A)
                 (A) (A) (A) (A) (A) (A) (A) (A) (A) (A) (A) (A)
                 (A) (A) (A) (A) (A) (A) (A) (A) (A) (A) (A) (A)
                 (A) (A) (A) (A) (A) (A) (A) (A) (A) (A) (A) (A)
                 (A)
       Virtual   (A) (A) (A) (A) (A) (A) (A) (A) (A) (A) (A) (A)
                 (A) (A) (A) (A) (A) (A) (A) (A) (A) (A) (A) (A)
                 (A) (A) (A) (A) (A) (A) (A) (A) (A) (A) (A) (A)
                 (A) (A) (A) (A) (A) (A) (A) (A) (A) (A) (A) (A)
                 (A) (A) (A) (A) (A) (A) (A) (A) (A) (A) (A) (A)
                 (A) (A) (A) (A) (A) (A) (A) (A) (A) (A) (A) (A)
                 (A) (A) (A) (A) (A) (A) (A) (A) (A) (A) (A) (A)
                 (A) (A) (A) (A) (A) (A) (A) (A) (A) (A) (A) (A)
                 (A) (A) (A) (A) (A) (A) (A) (A) (A) (A) (A) (A)
                 (A) (A) (A) (A) (A) (A) (A) (A) (A) (A) (A) (A)
                 (A) (A) (A) (A) (A) (A) (A) (A) (A) (A) (A) (A)
                 (A) (A) (A) (A) (A) (A) (A) (A) (A) (A) (A) (A)
                 (A) (A) (A) (A) (A) (A) (A) (A) (A) (A) (A) (A)
                 (A)
 Harris functional with IExCor=  402 diagonalized for initial guess.
 ExpMin= 1.17D-01 ExpMax= 2.19D+04 ExpMxC= 3.30D+03 IAcc=3 IRadAn=         5 AccDes= 0.00D+00
 HarFok:  IExCor=  402 AccDes= 0.00D+00 IRadAn=         5 IDoV= 1
 ScaDFX=  1.000000  1.000000  1.000000  1.000000
 FoFCou: FMM=F IPFlag=           0 FMFlag=      100000 FMFlg1=           0
         NFxFlg=           0 DoJE=T BraDBF=F KetDBF=T FulRan=T
         Omega=  0.000000  0.000000  1.000000  0.000000  0.000000 ICntrl=     500 IOpCl=  0
         NMat0=    1 NMatS0=    1 NMatT0=    0 NMatD0=    1 NMtDS0=    0 NMtDT0=    0
         I1Cent=           4 NGrid=           0.
 Petite list used in FoFCou.
 Requested convergence on RMS density matrix=1.00D-08 within 128 cycles.
 Requested convergence on MAX density matrix=1.00D-06.
 Requested convergence on             energy=1.00D-06.
 No special actions if energy rises.
 Integral accuracy reduced to 1.0D-05 until final iterations.
 Initial convergence to 1.0D-05 achieved.  Increase integral accuracy.
 SCF Done:  E(RB3LYP) =  -914.793557846     A.U. after   13 cycles
             Convg  =    0.4111D-08             -V/T =  2.0070
 Calling FoFJK, ICntrl=      2127 FMM=F ISym2X=0 I1Cent= 0 IOpClX= 0 NMat=1 NMatS=1 NMatT=0.
 ***** Axes restored to original set *****
 -------------------------------------------------------------------
 Center     Atomic                   Forces (Hartrees/Bohr)
 Number     Number              X              Y              Z
 -------------------------------------------------------------------
      1        6           0.000037641    0.000192771    0.000001806
      2        6          -0.000232394   -0.000229989    0.000130171
      3        6           0.000355084   -0.000165060    0.000031937
      4        6           0.000666183    0.000667643   -0.000510649
      5        6          -0.000896161    0.000132707   -0.000123860
      6        6           0.000943508   -0.002770046    0.001265352
      7        6           0.002583762   -0.001233536    0.001334523
      8        6          -0.002435247   -0.000087205   -0.005863966
      9        7          -0.001392318    0.001951790    0.000342693
     10        8           0.006918319    0.002200609    0.005493972
     11        8          -0.003462179   -0.001860323    0.006538880
     12       16          -0.002203605    0.001179289   -0.010306069
     13        1           0.000039570   -0.000096195   -0.000007910
     14        1           0.000044634    0.000045352   -0.000044389
     15        1          -0.000061895   -0.000010654   -0.000000436
     16        1          -0.000115065   -0.000285936    0.000394188
     17        1           0.000412617   -0.000086091    0.000200372
     18        1           0.000057366    0.000845402    0.000424255
     19        1           0.000141711    0.000393377    0.000013694
     20        1           0.000258471    0.000100324   -0.000292715
     21        1           0.000182728   -0.000186657    0.000415980
     22        1          -0.000114425   -0.000502142   -0.000138859
     23        1          -0.001728304   -0.000195432    0.000701028
 -------------------------------------------------------------------
 Cartesian Forces:  Max     0.010306069 RMS     0.002180142

 GradGradGradGradGradGradGradGradGradGradGradGradGradGradGradGradGradGrad
 Berny optimization.
 Using GEDIIS/GDIIS optimizer.
 Internal  Forces:  Max     0.006068575 RMS     0.001618528
 Search for a local minimum.
 Step number   2 out of a maximum of  123
 All quantities printed in internal units (Hartrees-Bohrs-Radians)
 Mixed Optimization -- RFO/linear search
 Update second derivatives using D2CorX and points    1    2
 DE= -3.77D-03 DEPred=-5.20D-03 R= 7.25D-01
 SS=  1.41D+00  RLast= 2.87D-01 DXNew= 5.0454D-01 8.6111D-01
 Trust test= 7.25D-01 RLast= 2.87D-01 DXMaxT set to 5.05D-01
 ITU=  1  0
 Use linear search instead of GDIIS.
     Eigenvalues ---    0.00383   0.00647   0.00668   0.01154   0.01493
     Eigenvalues ---    0.02069   0.02099   0.02107   0.02135   0.02160
     Eigenvalues ---    0.02162   0.02169   0.02176   0.02844   0.04428
     Eigenvalues ---    0.05666   0.06985   0.07736   0.08673   0.09045
     Eigenvalues ---    0.09413   0.11170   0.12534   0.14996   0.15922
     Eigenvalues ---    0.16000   0.16000   0.16000   0.16000   0.16000
     Eigenvalues ---    0.16000   0.16828   0.17451   0.21634   0.22000
     Eigenvalues ---    0.22000   0.23463   0.23554   0.24904   0.25021
     Eigenvalues ---    0.26107   0.31728   0.34318   0.34328   0.34353
     Eigenvalues ---    0.34430   0.34508   0.34772   0.34805   0.34903
     Eigenvalues ---    0.34934   0.34950   0.34964   0.35277   0.41829
     Eigenvalues ---    0.41861   0.43095   0.45484   0.46090   0.46355
     Eigenvalues ---    0.46668   0.90027   0.94461
 RFO step:  Lambda=-1.28660260D-03 EMin= 3.83380780D-03
 Quartic linear search produced a step of -0.16590.
 Iteration  1 RMS(Cart)=  0.03830154 RMS(Int)=  0.00064476
 Iteration  2 RMS(Cart)=  0.00086788 RMS(Int)=  0.00006780
 Iteration  3 RMS(Cart)=  0.00000026 RMS(Int)=  0.00006780
 Variable       Old X    -DE/DX   Delta X   Delta X   Delta X     New X
                                 (Linear)    (Quad)   (Total)
    R1        2.63812   0.00003  -0.00083   0.00150   0.00067   2.63879
    R2        2.63811   0.00017  -0.00083   0.00174   0.00091   2.63902
    R3        2.05377  -0.00009   0.00058  -0.00123  -0.00064   2.05313
    R4        2.63566  -0.00013   0.00026  -0.00068  -0.00042   2.63524
    R5        2.05297   0.00008   0.00076  -0.00115  -0.00039   2.05258
    R6        2.63554  -0.00021   0.00029  -0.00088  -0.00059   2.63495
    R7        2.05305   0.00006   0.00075  -0.00117  -0.00042   2.05262
    R8        2.64531   0.00028   0.00078  -0.00083  -0.00005   2.64526
    R9        2.05355  -0.00010   0.00106  -0.00209  -0.00103   2.05252
   R10        2.64577   0.00008   0.00070  -0.00107  -0.00037   2.64540
   R11        2.05366  -0.00007   0.00104  -0.00198  -0.00094   2.05272
   R12        2.85807  -0.00313  -0.00107  -0.00636  -0.00743   2.85063
   R13        2.78292   0.00277   0.00148   0.00398   0.00545   2.78837
   R14        2.06061   0.00054   0.00073   0.00001   0.00074   2.06135
   R15        2.06699  -0.00029   0.00006  -0.00080  -0.00074   2.06625
   R16        2.07496  -0.00034  -0.00147   0.00177   0.00030   2.07526
   R17        3.43183   0.00520  -0.00534   0.02578   0.02044   3.45227
   R18        2.06409   0.00004   0.00062  -0.00101  -0.00038   2.06370
   R19        2.06735   0.00046   0.00009   0.00095   0.00104   2.06839
   R20        3.23114  -0.00075  -0.00047  -0.00094  -0.00141   3.22973
   R21        1.92664   0.00141   0.00296  -0.00246   0.00050   1.92714
   R22        2.75999   0.00607  -0.00212   0.00906   0.00694   2.76693
   R23        2.76981   0.00573  -0.00392   0.01191   0.00799   2.77780
    A1        2.09075   0.00009   0.00049  -0.00057  -0.00008   2.09067
    A2        2.09627  -0.00005  -0.00025   0.00026   0.00001   2.09628
    A3        2.09616  -0.00004  -0.00024   0.00030   0.00007   2.09623
    A4        2.09618   0.00000  -0.00007   0.00013   0.00006   2.09624
    A5        2.09753   0.00000  -0.00062   0.00110   0.00048   2.09801
    A6        2.08947   0.00000   0.00069  -0.00123  -0.00054   2.08893
    A7        2.09566   0.00007   0.00002   0.00018   0.00020   2.09586
    A8        2.09759  -0.00002  -0.00063   0.00106   0.00043   2.09802
    A9        2.08994  -0.00005   0.00061  -0.00124  -0.00063   2.08931
   A10        2.10165  -0.00022   0.00017  -0.00104  -0.00087   2.10078
   A11        2.09089   0.00059  -0.00209   0.00651   0.00442   2.09531
   A12        2.09063  -0.00037   0.00192  -0.00547  -0.00355   2.08707
   A13        2.10213  -0.00024   0.00008  -0.00100  -0.00091   2.10121
   A14        2.08990   0.00057  -0.00196   0.00619   0.00423   2.09413
   A15        2.09114  -0.00033   0.00188  -0.00520  -0.00332   2.08782
   A16        2.07994   0.00030  -0.00068   0.00225   0.00157   2.08151
   A17        2.09926  -0.00039   0.00072  -0.00261  -0.00188   2.09738
   A18        2.10380   0.00009  -0.00002   0.00029   0.00027   2.10407
   A19        1.89252   0.00040   0.00701  -0.01079  -0.00376   1.88875
   A20        1.87459   0.00044   0.00344  -0.00257   0.00094   1.87553
   A21        1.98336  -0.00022  -0.00857   0.01318   0.00457   1.98794
   A22        1.89587  -0.00008  -0.00115   0.00299   0.00198   1.89785
   A23        1.91177  -0.00051   0.00251  -0.00919  -0.00675   1.90501
   A24        1.90376   0.00000  -0.00316   0.00624   0.00310   1.90686
   A25        1.93445   0.00111  -0.00523   0.01378   0.00852   1.94297
   A26        1.95809   0.00005  -0.00300   0.00593   0.00289   1.96098
   A27        1.94837  -0.00035  -0.00162   0.00271   0.00105   1.94942
   A28        1.85013  -0.00081   0.00616  -0.01579  -0.00958   1.84055
   A29        1.86252  -0.00007   0.00417  -0.00593  -0.00172   1.86080
   A30        1.90529   0.00004   0.00012  -0.00225  -0.00201   1.90328
   A31        1.98050   0.00165   0.00266   0.00253   0.00520   1.98570
   A32        1.93146   0.00027  -0.00076   0.00800   0.00727   1.93873
   A33        1.87622  -0.00098   0.00223  -0.00593  -0.00373   1.87250
   A34        1.73773   0.00034   0.00473  -0.01037  -0.00563   1.73210
   A35        1.88094   0.00515   0.00772   0.02279   0.03041   1.91135
   A36        1.87678   0.00313   0.00947   0.00812   0.01733   1.89411
   A37        1.87638  -0.00420  -0.00313  -0.02687  -0.02960   1.84678
   A38        1.96276  -0.00367  -0.02023   0.00381  -0.01631   1.94645
   A39        2.09408  -0.00005   0.00144   0.00219   0.00369   2.09776
    D1        0.00265   0.00001  -0.00033   0.00108   0.00076   0.00340
    D2       -3.13731   0.00002  -0.00047   0.00156   0.00109  -3.13622
    D3       -3.14098   0.00003  -0.00011   0.00110   0.00098  -3.13999
    D4        0.00225   0.00003  -0.00026   0.00158   0.00132   0.00357
    D5       -0.00240  -0.00001   0.00028  -0.00090  -0.00062  -0.00302
    D6        3.13736  -0.00002   0.00047  -0.00147  -0.00100   3.13636
    D7        3.14123  -0.00002   0.00007  -0.00092  -0.00085   3.14038
    D8       -0.00220  -0.00003   0.00026  -0.00149  -0.00123  -0.00343
    D9        0.00407   0.00002  -0.00056   0.00183   0.00127   0.00534
   D10       -3.13219   0.00005  -0.00096   0.00361   0.00264  -3.12955
   D11       -3.13915   0.00002  -0.00042   0.00135   0.00093  -3.13822
   D12        0.00777   0.00005  -0.00082   0.00313   0.00231   0.01008
   D13       -0.00457  -0.00003   0.00065  -0.00219  -0.00154  -0.00611
   D14        3.13204  -0.00005   0.00101  -0.00365  -0.00264   3.12940
   D15        3.13884  -0.00002   0.00046  -0.00162  -0.00116   3.13769
   D16       -0.00773  -0.00005   0.00083  -0.00309  -0.00226  -0.00999
   D17       -0.01091  -0.00006   0.00148  -0.00488  -0.00340  -0.01431
   D18       -3.13206  -0.00005  -0.00060  -0.00067  -0.00127  -3.13333
   D19        3.12536  -0.00009   0.00187  -0.00662  -0.00475   3.12060
   D20        0.00421  -0.00008  -0.00021  -0.00241  -0.00262   0.00159
   D21        0.01116   0.00006  -0.00152   0.00506   0.00354   0.01470
   D22        3.13225   0.00005   0.00057   0.00080   0.00137   3.13363
   D23       -3.12544   0.00009  -0.00188   0.00649   0.00461  -3.12083
   D24       -0.00435   0.00007   0.00021   0.00224   0.00245  -0.00190
   D25        1.55727  -0.00027   0.00170  -0.01069  -0.00900   1.54827
   D26       -0.50718  -0.00002  -0.00068  -0.00383  -0.00450  -0.51168
   D27       -2.65221   0.00014   0.00248  -0.00726  -0.00479  -2.65700
   D28       -1.56360  -0.00026  -0.00041  -0.00644  -0.00685  -1.57044
   D29        2.65514  -0.00001  -0.00278   0.00042  -0.00235   2.65279
   D30        0.51012   0.00015   0.00037  -0.00301  -0.00264   0.50747
   D31       -1.10823   0.00055   0.00197   0.02737   0.02927  -1.07896
   D32        3.06412   0.00048  -0.00227   0.02743   0.02505   3.08917
   D33        3.12921   0.00020  -0.00254   0.03088   0.02840  -3.12557
   D34        1.01837   0.00013  -0.00678   0.03094   0.02419   1.04256
   D35        1.02193   0.00003   0.00431   0.01658   0.02095   1.04288
   D36       -1.08890  -0.00004   0.00007   0.01664   0.01673  -1.07218
   D37       -3.11769   0.00001  -0.00583   0.00939   0.00364  -3.11405
   D38       -1.16316  -0.00285  -0.00456  -0.01724  -0.02192  -1.18509
   D39        1.11728   0.00282   0.01120   0.00691   0.01816   1.13545
   D40       -0.98879   0.00020  -0.00874   0.01461   0.00600  -0.98280
   D41        0.96573  -0.00266  -0.00747  -0.01202  -0.01957   0.94617
   D42       -3.03701   0.00301   0.00829   0.01213   0.02052  -3.01649
   D43        1.04064  -0.00017  -0.00335   0.00173  -0.00160   1.03904
   D44        2.99517  -0.00303  -0.00208  -0.02490  -0.02716   2.96801
   D45       -1.00757   0.00263   0.01368  -0.00075   0.01293  -0.99465
   D46        2.92627  -0.00054   0.00814  -0.07010  -0.06198   2.86429
   D47        0.96818  -0.00500  -0.00125  -0.08243  -0.08379   0.88439
   D48       -1.37438   0.00188   0.01365  -0.06489  -0.05105  -1.42543
   D49       -1.21528   0.00017   0.01061  -0.06255  -0.05200  -1.26728
   D50        3.10981  -0.00429   0.00122  -0.07488  -0.07381   3.03600
   D51        0.76725   0.00259   0.01612  -0.05734  -0.04107   0.72618
         Item               Value     Threshold  Converged?
 Maximum Force            0.006069     0.000450     NO 
 RMS     Force            0.001619     0.000300     NO 
 Maximum Displacement     0.155451     0.001800     NO 
 RMS     Displacement     0.038316     0.001200     NO 
 Predicted change in Energy=-8.405184D-04
 GradGradGradGradGradGradGradGradGradGradGradGradGradGradGradGradGradGrad

                          Input orientation:                          
 ---------------------------------------------------------------------
 Center     Atomic      Atomic             Coordinates (Angstroms)
 Number     Number       Type             X           Y           Z
 ---------------------------------------------------------------------
      1          6           0       -4.788520    3.181892   -3.578526
      2          6           0       -3.397117    3.064051   -3.575580
      3          6           0       -5.563968    2.264344   -2.866474
      4          6           0       -2.784114    2.031044   -2.867213
      5          6           0       -4.950497    1.231914   -2.157979
      6          6           0       -3.556638    1.102161   -2.160209
      7          6           0       -0.958795   -0.725623    2.115402
      8          6           0       -2.888511   -0.007256   -1.386683
      9          7           0       -1.737158   -0.911357    0.875696
     10          8           0       -1.453589    1.539574    0.291553
     11          8           0       -3.760208    0.764367    1.031847
     12         16           0       -2.498567    0.514351    0.320156
     13          1           0       -5.266227    3.985818   -4.131622
     14          1           0       -2.787145    3.776860   -4.122955
     15          1           0       -6.646572    2.352455   -2.860093
     16          1           0       -1.701293    1.946790   -2.856318
     17          1           0       -5.554577    0.525840   -1.595401
     18          1           0       -0.163116   -0.007122    1.914072
     19          1           0       -0.506825   -1.689079    2.366446
     20          1           0       -1.555789   -0.372798    2.966936
     21          1           0       -1.933473   -0.303164   -1.825939
     22          1           0       -3.532593   -0.888477   -1.305233
     23          1           0       -2.465119   -1.614375    1.001489
 ---------------------------------------------------------------------
                    Distance matrix (angstroms):
                    1          2          3          4          5
     1  C    0.000000
     2  C    1.396388   0.000000
     3  C    1.396507   2.416114   0.000000
     4  C    2.418277   1.394511   2.789627   0.000000
     5  C    2.417976   2.789141   1.394354   2.415541   0.000000
     6  C    2.802577   2.424404   2.424635   1.399811   1.399887
     7  C    7.896600   7.259085   7.413947   5.979753   6.166638
     8  C    4.311018   3.805637   3.808939   2.521415   2.526307
     9  N    6.775367   6.194610   6.223615   4.874752   4.911450
    10  O    5.366236   4.588687   5.233894   3.462607   4.280564
    11  O    5.306354   5.162244   4.549768   4.214250   3.436623
    12  S    5.249703   4.741847   4.755394   3.541357   3.559215
    13  H    1.086470   2.156945   2.157018   3.403052   3.402785
    14  H    2.157751   1.086177   3.402528   2.150528   3.875303
    15  H    2.157885   3.402536   1.086202   3.875814   2.150638
    16  H    3.402651   2.154397   3.875720   1.086148   3.399419
    17  H    3.402094   3.875340   2.153627   3.399796   1.086253
    18  H    7.857023   7.072986   7.561903   5.821033   6.405921
    19  H    8.797839   8.139638   8.281769   6.812969   6.982037
    20  H    8.119695   7.616228   7.553058   6.428416   6.353258
    21  H    4.834095   4.067141   4.566761   2.693765   3.401346
    22  H    4.828366   4.560187   4.062541   3.394643   2.689551
    23  H    7.027013   6.611040   6.293526   5.325194   4.925515
                    6          7          8          9         10
     6  C    0.000000
     7  C    5.326390   0.000000
     8  C    1.508490   4.062567   0.000000
     9  N    4.072037   1.475540   2.694693   0.000000
    10  O    3.259645   2.949976   2.695953   2.535488   0.000000
    11  O    3.216328   3.352921   2.684129   2.631572   2.543516
    12  S    2.759935   2.670457   1.826863   1.709098   1.464199
    13  H    3.889041   8.931795   5.397487   7.842824   6.331256
    14  H    3.405657   7.907737   4.670866   6.933135   5.125593
    15  H    3.405989   8.159713   4.675702   6.979321   6.128680
    16  H    2.154128   5.693074   2.718015   4.700874   3.183752
    17  H    2.154743   6.037999   2.726842   4.769124   4.626701
    18  H    5.417219   1.090818   4.280509   2.091286   2.586533
    19  H    6.130496   1.093411   4.752571   2.083484   3.952941
    20  H    5.697939   1.098180   4.567687   2.167078   3.290180
    21  H    2.172865   4.081989   1.092065   2.776197   2.847762
    22  H    2.166611   4.283888   1.094544   2.824988   3.573152
    23  H    4.308981   2.073571   2.909546   1.019797   3.387418
                   11         12         13         14         15
    11  O    0.000000
    12  S    1.469950   0.000000
    13  H    6.269550   6.287237   0.000000
    14  H    6.049293   5.519825   2.487887   0.000000
    15  H    5.099050   5.540627   2.487975   4.303362   0.000000
    16  H    4.555775   3.574564   4.300325   2.476409   4.961891
    17  H    3.190468   3.606756   4.299653   4.961485   2.475564
    18  H    3.783199   2.875210   8.862038   7.592742   8.390199
    19  H    4.287780   3.606861   9.852982   8.785708   9.019268
    20  H    3.145978   2.946406   9.118904   8.306771   8.203495
    21  H    3.555774   2.365034   5.900745   4.759373   5.507730
    22  H    2.871523   2.383070   5.895143   5.500965   4.755848
    23  H    2.708615   2.235355   8.096740   7.445068   6.937730
                   16         17         18         19         20
    16  H    0.000000
    17  H    4.296139   0.000000
    18  H    5.379626   6.455099   0.000000
    19  H    6.474840   6.788365   1.775320   0.000000
    20  H    6.269924   6.132925   1.783755   1.787040   0.000000
    21  H    2.485534   3.721935   4.148432   4.640278   4.808237
    22  H    3.714601   2.484534   4.742793   4.824672   4.735515
    23  H    5.305469   4.568272   2.952167   2.388222   2.496273
                   21         22         23
    21  H    0.000000
    22  H    1.780705   0.000000
    23  H    3.161688   2.643368   0.000000
 Stoichiometry    C8H11NO2S
 Framework group  C1[X(C8H11NO2S)]
 Deg. of freedom    63
 Full point group                 C1      NOp   1
 Largest Abelian subgroup         C1      NOp   1
 Largest concise Abelian subgroup C1      NOp   1
                         Standard orientation:                         
 ---------------------------------------------------------------------
 Center     Atomic      Atomic             Coordinates (Angstroms)
 Number     Number       Type             X           Y           Z
 ---------------------------------------------------------------------
      1          6           0        3.831686    0.101384   -0.406810
      2          6           0        3.132016    1.277271   -0.128154
      3          6           0        3.224382   -1.136412   -0.184824
      4          6           0        1.832519    1.215701    0.374019
      5          6           0        1.924842   -1.197399    0.316873
      6          6           0        1.222383   -0.022142    0.608434
      7          6           0       -4.055296    0.261872   -0.051771
      8          6           0       -0.187378   -0.083634    1.141665
      9          7           0       -2.847477   -0.105931    0.711848
     10          8           0       -1.393871    1.225370   -0.882945
     11          8           0       -1.249060   -1.311501   -0.996026
     12         16           0       -1.411451   -0.077195   -0.214444
     13          1           0        4.844673    0.149297   -0.796654
     14          1           0        3.595950    2.243703   -0.302954
     15          1           0        3.760559   -2.055327   -0.403784
     16          1           0        1.285010    2.130886    0.579899
     17          1           0        1.449863   -2.160884    0.478236
     18          1           0       -3.935473    1.286307   -0.406818
     19          1           0       -4.903017    0.226021    0.637888
     20          1           0       -4.257289   -0.394960   -0.908374
     21          1           0       -0.435120    0.780713    1.761450
     22          1           0       -0.362716   -0.997970    1.717227
     23          1           0       -2.934362   -1.041938    1.107230
 ---------------------------------------------------------------------
 Rotational constants (GHZ):      2.3104266      0.4406860      0.4141073
 Standard basis: 6-31G(d) (6D, 7F)
 There are   206 symmetry adapted basis functions of A   symmetry.
 Integral buffers will be    131072 words long.
 Raffenetti 2 integral format.
 Two-electron integral symmetry is turned on.
   206 basis functions,   404 primitive gaussians,   206 cartesian basis functions
    49 alpha electrons       49 beta electrons
       nuclear repulsion energy       825.8631378055 Hartrees.
 NAtoms=   23 NActive=   23 NUniq=   23 SFac= 1.00D+00 NAtFMM=   60 NAOKFM=F Big=F
 One-electron integrals computed using PRISM.
 NBasis=   206 RedAO= T  NBF=   206
 NBsUse=   206 1.00D-06 NBFU=   206
 Initial guess read from the read-write file.
 B after Tr=     0.000000    0.000000    0.000000
         Rot=    1.000000    0.000000    0.000000    0.000000 Ang=   0.00 deg.
 Initial guess orbital symmetries:
       Occupied  (A) (A) (A) (A) (A) (A) (A) (A) (A) (A) (A) (A)
                 (A) (A) (A) (A) (A) (A) (A) (A) (A) (A) (A) (A)
                 (A) (A) (A) (A) (A) (A) (A) (A) (A) (A) (A) (A)
                 (A) (A) (A) (A) (A) (A) (A) (A) (A) (A) (A) (A)
                 (A)
       Virtual   (A) (A) (A) (A) (A) (A) (A) (A) (A) (A) (A) (A)
                 (A) (A) (A) (A) (A) (A) (A) (A) (A) (A) (A) (A)
                 (A) (A) (A) (A) (A) (A) (A) (A) (A) (A) (A) (A)
                 (A) (A) (A) (A) (A) (A) (A) (A) (A) (A) (A) (A)
                 (A) (A) (A) (A) (A) (A) (A) (A) (A) (A) (A) (A)
                 (A) (A) (A) (A) (A) (A) (A) (A) (A) (A) (A) (A)
                 (A) (A) (A) (A) (A) (A) (A) (A) (A) (A) (A) (A)
                 (A) (A) (A) (A) (A) (A) (A) (A) (A) (A) (A) (A)
                 (A) (A) (A) (A) (A) (A) (A) (A) (A) (A) (A) (A)
                 (A) (A) (A) (A) (A) (A) (A) (A) (A) (A) (A) (A)
                 (A) (A) (A) (A) (A) (A) (A) (A) (A) (A) (A) (A)
                 (A) (A) (A) (A) (A) (A) (A) (A) (A) (A) (A) (A)
                 (A) (A) (A) (A) (A) (A) (A) (A) (A) (A) (A) (A)
                 (A)
 Harris functional with IExCor=  402 diagonalized for initial guess.
 ExpMin= 1.17D-01 ExpMax= 2.19D+04 ExpMxC= 3.30D+03 IAcc=3 IRadAn=         5 AccDes= 0.00D+00
 HarFok:  IExCor=  402 AccDes= 0.00D+00 IRadAn=         5 IDoV= 1
 ScaDFX=  1.000000  1.000000  1.000000  1.000000
 FoFCou: FMM=F IPFlag=           0 FMFlag=      100000 FMFlg1=           0
         NFxFlg=           0 DoJE=T BraDBF=F KetDBF=T FulRan=T
         Omega=  0.000000  0.000000  1.000000  0.000000  0.000000 ICntrl=     500 IOpCl=  0
         NMat0=    1 NMatS0=    1 NMatT0=    0 NMatD0=    1 NMtDS0=    0 NMtDT0=    0
         I1Cent=           4 NGrid=           0.
 Petite list used in FoFCou.
 Requested convergence on RMS density matrix=1.00D-08 within 128 cycles.
 Requested convergence on MAX density matrix=1.00D-06.
 Requested convergence on             energy=1.00D-06.
 No special actions if energy rises.
 Integral accuracy reduced to 1.0D-05 until final iterations.
 Initial convergence to 1.0D-05 achieved.  Increase integral accuracy.
 SCF Done:  E(RB3LYP) =  -914.794505896     A.U. after   12 cycles
             Convg  =    0.5170D-08             -V/T =  2.0070
 Calling FoFJK, ICntrl=      2127 FMM=F ISym2X=0 I1Cent= 0 IOpClX= 0 NMat=1 NMatS=1 NMatT=0.
 ***** Axes restored to original set *****
 -------------------------------------------------------------------
 Center     Atomic                   Forces (Hartrees/Bohr)
 Number     Number              X              Y              Z
 -------------------------------------------------------------------
      1        6           0.000224055   -0.000364449    0.000253441
      2        6          -0.000247554   -0.000085398    0.000112691
      3        6           0.000296105    0.000107017   -0.000067244
      4        6           0.000014479    0.000529616   -0.000287679
      5        6          -0.000315399    0.000231281   -0.000208534
      6        6           0.000737418   -0.001505522    0.001172933
      7        6           0.001949071   -0.000135403   -0.000549550
      8        6          -0.001416916    0.001505581   -0.003359248
      9        7          -0.002151404   -0.000030552    0.000515642
     10        8           0.000804361    0.001814883   -0.000007256
     11        8          -0.000834069   -0.001039424   -0.000234981
     12       16           0.001467998   -0.000429284    0.000255343
     13        1          -0.000048823    0.000057519   -0.000077966
     14        1           0.000036497    0.000200330   -0.000137432
     15        1          -0.000205743    0.000103733   -0.000051142
     16        1           0.000321014   -0.000013379   -0.000029063
     17        1          -0.000197379   -0.000204204    0.000150908
     18        1          -0.000015870    0.000179427    0.000366062
     19        1          -0.000076417    0.000055579    0.000006977
     20        1          -0.000278755   -0.000361657   -0.000646842
     21        1           0.000347556   -0.000056677    0.000488508
     22        1           0.000288210    0.000002402    0.000933996
     23        1          -0.000698435   -0.000561419    0.001400436
 -------------------------------------------------------------------
 Cartesian Forces:  Max     0.003359248 RMS     0.000790784

 GradGradGradGradGradGradGradGradGradGradGradGradGradGradGradGradGradGrad
 Berny optimization.
 Using GEDIIS/GDIIS optimizer.
 Internal  Forces:  Max     0.001844999 RMS     0.000459188
 Search for a local minimum.
 Step number   3 out of a maximum of  123
 All quantities printed in internal units (Hartrees-Bohrs-Radians)
 Mixed Optimization -- En-DIIS/RFO-DIIS
 Update second derivatives using D2CorX and points    1    2    3
 DE= -9.48D-04 DEPred=-8.41D-04 R= 1.13D+00
 SS=  1.41D+00  RLast= 1.82D-01 DXNew= 8.4853D-01 5.4708D-01
 Trust test= 1.13D+00 RLast= 1.82D-01 DXMaxT set to 5.47D-01
 ITU=  1  1  0
 Use linear search instead of GDIIS.
     Eigenvalues ---    0.00383   0.00622   0.00649   0.00830   0.01494
     Eigenvalues ---    0.02071   0.02100   0.02108   0.02135   0.02160
     Eigenvalues ---    0.02162   0.02169   0.02176   0.02793   0.04382
     Eigenvalues ---    0.05670   0.07024   0.07784   0.08458   0.08936
     Eigenvalues ---    0.09981   0.11341   0.12626   0.15885   0.15943
     Eigenvalues ---    0.16000   0.16000   0.16000   0.16000   0.16000
     Eigenvalues ---    0.16239   0.17058   0.19446   0.21369   0.22000
     Eigenvalues ---    0.22008   0.23354   0.23487   0.24993   0.25391
     Eigenvalues ---    0.25593   0.31347   0.34326   0.34333   0.34352
     Eigenvalues ---    0.34455   0.34505   0.34805   0.34825   0.34889
     Eigenvalues ---    0.34950   0.34961   0.34977   0.35436   0.41863
     Eigenvalues ---    0.41985   0.43079   0.45483   0.46082   0.46356
     Eigenvalues ---    0.46668   0.89115   0.94524
 RFO step:  Lambda=-5.41764173D-04 EMin= 3.83004044D-03
 Quartic linear search produced a step of  0.21488.
 Iteration  1 RMS(Cart)=  0.04619818 RMS(Int)=  0.00120308
 Iteration  2 RMS(Cart)=  0.00205914 RMS(Int)=  0.00003692
 Iteration  3 RMS(Cart)=  0.00000316 RMS(Int)=  0.00003689
 Iteration  4 RMS(Cart)=  0.00000000 RMS(Int)=  0.00003689
 Variable       Old X    -DE/DX   Delta X   Delta X   Delta X     New X
                                 (Linear)    (Quad)   (Total)
    R1        2.63879  -0.00024   0.00014  -0.00035  -0.00020   2.63859
[...]
 43,-0.00078373,-0.11617684,-0.18883194,0.09122491,0.00016138,0.0031836
 2,0.00260634,-0.01528546,-0.01244150,0.00814839,0.00073703,0.00000807,
 -0.00011918,0.00279243,0.00068591,0.00515517,-0.00008480,-0.00001450,0
 .00001209,-0.00097129,-0.00031618,0.00030876,0.00009099,-0.00008563,0.
 00019899,0.00011644,0.00014030,0.00013747,-0.00004552,0.00002609,0.000
 15912,-0.00006849,-0.00022632,-0.00062515,-0.00000645,-0.00070204,-0.0
 0220164,0.12571472,0.19552666,-0.00357899,-0.00426683,0.00502111,0.064
 51855,0.09110623,-0.09060370,-0.00178873,0.00278856,0.00474969,0.01201
 521,0.01163255,-0.00415944,-0.00065380,-0.00010526,-0.00032708,-0.0028
 5483,0.00479603,0.00339393,0.00005600,0.00001049,-0.00000223,0.0006233
 0,0.00068694,-0.00004909,-0.00006862,0.00000054,-0.00010544,-0.0001037
 6,-0.00016734,-0.00012609,0.00002618,-0.00005721,-0.00012987,0.0001230
 4,0.00028174,0.00049669,0.00067831,-0.00214285,-0.00227969,-0.06915653
 ,-0.10168950,0.08710470,-0.01397237,0.00265676,-0.00402006,0.00012132,
 -0.00342182,0.00154601,-0.33351140,0.00404826,-0.04211175,0.00070934,-
 0.00012696,0.00020777,-0.00884032,-0.00140483,-0.00040780,0.00145982,0
 .00149094,-0.00187710,0.00005756,0.00000906,0.00000386,-0.00042807,-0.
 00031928,0.00012250,-0.00002728,0.00009268,-0.00016379,-0.00002230,-0.
 00007402,-0.00016668,0.00014473,-0.00001140,-0.00018167,-0.00011789,0.
 00008350,0.00060704,0.00085848,0.00009841,0.00053970,-0.00080481,0.000
 15654,-0.00026320,0.35376603,-0.02313867,0.00458621,-0.00451683,-0.002
 37736,-0.00091189,0.00516456,0.00408465,-0.05248927,0.01224322,-0.0000
 6916,-0.00098631,0.00047885,0.02433912,0.00327846,0.00252688,0.0004438
 2,-0.00073039,0.00589574,-0.00003361,-0.00000518,0.00000212,0.00108688
 ,0.00041153,0.00007071,0.00001435,-0.00005211,0.00012139,0.00002069,0.
 00005184,0.00007099,-0.00010957,-0.00000948,0.00007517,0.00009049,-0.0
 0012469,-0.00040470,0.00070536,-0.00057363,-0.00220630,-0.00126190,0.0
 0019840,-0.00009651,-0.00398709,0.04844940,0.01399401,-0.00114474,0.00
 518758,0.00077837,0.00504737,0.00347157,-0.04186434,0.01233660,-0.0499
 8870,0.00022581,0.00054770,-0.00062698,-0.01847922,-0.00093188,0.00058
 861,-0.00113029,0.00571251,0.00301729,0.00002165,-0.00000101,0.0000091
 6,-0.00094992,0.00005628,0.00014800,0.00003394,0.00001154,-0.00009008,
 0.00000805,-0.00007334,-0.00009566,0.00013544,-0.00003133,-0.00013071,
 -0.00018452,0.00014315,0.00044539,0.00013563,-0.00230164,-0.00222501,0
 .00074380,0.00010056,0.00035245,0.04600864,-0.01659234,0.04320086,0.00
 130835,0.00160940,-0.00207525,-0.00852708,-0.00177585,-0.00074099,0.00
 064784,-0.00011292,0.00020320,-0.33116601,0.00228563,-0.04455269,0.000
 33476,-0.00337380,0.00153413,-0.01539996,0.00254594,-0.00443141,-0.000
 01787,-0.00001544,0.00003464,0.00063859,0.00162296,-0.00014196,0.00006
 449,0.00012444,0.00016643,0.00053926,0.00068164,-0.00055778,0.00033229
 ,0.00012300,0.00002502,-0.00086794,-0.00125265,0.00005598,-0.00053880,
 -0.00012387,0.00002218,0.00083311,0.00055282,0.00038646,-0.00009668,0.
 00011663,0.00009019,0.35186364,0.00066195,-0.00105676,0.00588577,0.024
 33058,0.00385223,0.00285831,-0.00008336,-0.00093108,0.00041515,0.00234
 532,-0.05289426,0.01187239,-0.00248087,-0.00126285,0.00485120,-0.02213
 867,0.00321594,-0.00345378,0.00001950,0.00002174,0.00002828,-0.0014468
 0,0.00020458,-0.00266753,-0.00001695,-0.00001068,-0.00020271,-0.000069
 39,-0.00038021,-0.00011593,0.00019513,-0.00010566,-0.00021116,-0.00012
 600,0.00064049,0.00070220,0.00129990,0.00008395,0.00022135,-0.00001217
 ,-0.00060050,-0.00234656,0.00011288,-0.00025545,-0.00067108,-0.0022105
 1,0.04952340,-0.00113216,0.00586947,0.00282473,-0.01828993,-0.00090500
 ,0.00052861,0.00017257,0.00030409,-0.00044485,-0.04614200,0.01221905,-
 0.05025799,0.00071217,0.00476571,0.00278756,0.01356910,-0.00091076,0.0
 0521093,-0.00001030,0.00002652,-0.00004560,0.00032209,-0.00197293,-0.0
 0241912,-0.00004557,-0.00020591,-0.00015335,-0.00058198,-0.00071670,0.
 00032521,-0.00024689,-0.00024524,-0.00008256,0.00104329,0.00166086,-0.
 00016697,-0.00094250,0.00008452,0.00008548,0.00067903,-0.00226346,-0.0
 0221645,0.00007688,-0.00066815,-0.00075021,0.04996303,-0.01721344,0.04
 380863,-0.00047851,0.00186057,-0.00226422,-0.00053073,0.00071488,-0.00
 051355,0.01190947,0.01053744,-0.00622172,-0.00521501,0.00139352,-0.002
 45755,-0.15623016,-0.11411271,0.06653402,-0.01421182,-0.02305851,0.014
 05966,-0.00008450,-0.00003281,0.00001211,0.00116014,-0.00144238,0.0011
 1025,0.00027257,-0.00005261,-0.00004181,0.00035011,0.00028674,-0.00001
 091,0.00079486,0.00016360,0.00048143,-0.00164823,-0.00025332,-0.000255
 02,0.00047296,0.00061227,-0.00037171,0.00011155,-0.00003074,0.00019167
 ,0.00083248,-0.00004904,0.00059908,-0.00079705,-0.00129203,0.00071584,
 0.16320318,0.00279028,0.00032413,0.00533718,0.00074687,-0.00001322,-0.
 00011158,-0.01534141,-0.01162594,0.00863357,0.00049532,0.00308112,0.00
 224588,-0.11451072,-0.18644678,0.09211281,0.00205364,0.00269155,0.0004
 2651,0.00000635,-0.00001654,-0.00001858,0.00114397,-0.00007109,-0.0024
 0544,0.00017334,-0.00003881,-0.00031187,0.00019305,-0.00007321,-0.0002
 1522,0.00110343,-0.00016228,0.00021084,-0.00164114,0.00055016,0.000735
 74,-0.00082020,-0.00070407,0.00046601,-0.00002900,-0.00041829,-0.00059
 008,0.00049299,-0.00064476,-0.00235864,0.00003102,0.00042813,0.0002061
 6,0.12344597,0.19310223,-0.00297536,0.00487044,0.00324575,-0.00039997,
 -0.00018205,-0.00019720,0.01159765,0.01137244,-0.00407897,-0.00179502,
 0.00255834,0.00400146,0.06765299,0.09362953,-0.09321239,-0.00317437,-0
 .00394962,0.00505240,-0.00005445,0.00000912,-0.00001665,0.00012007,-0.
 00141698,-0.00259088,0.00021589,-0.00011564,-0.00017116,0.00027062,-0.
 00004411,-0.00015952,0.00087438,0.00004071,-0.00016927,-0.00184318,0.0
 0029269,0.00037965,0.00055834,0.00066604,-0.00013028,0.00019787,-0.000
 57482,-0.00078668,0.00028629,-0.00233397,-0.00219410,-0.00029686,-0.00
 002101,0.00048661,-0.07130300,-0.10426296,0.09003208,0.00000617,-0.000
 00642,0.00000688,0.00001647,0.00001620,-0.00000215,0.00002590,0.000011
 20,0.00001208,-0.00004839,-0.00000370,0.00001740,-0.00000290,-0.000085
 14,0.00004325,0.00016309,0.00002444,-0.00021166,-0.12022987,-0.0210054
 0,0.11305778,-0.00042878,0.00016279,0.00022767,-0.02683130,-0.00961249
 ,0.02564935,0.00107738,0.00080799,-0.00071987,-0.00020136,0.00095258,-
 0.00119220,-0.00134508,-0.00302348,0.00408895,0.00000575,-0.00000500,0
 .00000139,-0.00000139,-0.00000505,0.00000419,0.00000923,-0.00000673,0.
 00000835,0.00001805,0.00002102,-0.00002492,0.00000390,0.00000807,0.000
 00397,0.14259331,-0.00000129,0.00000915,-0.00000827,-0.00003142,-0.000
 00888,0.00000516,0.00000386,0.00000784,0.00000656,0.00003948,-0.000006
 47,-0.00001562,0.00001191,0.00000510,-0.00001548,0.00000456,-0.0000704
 8,-0.00007491,-0.02440529,-0.05753541,0.03520518,-0.00016371,0.0001199
 5,0.00006307,-0.00060217,-0.00062513,0.00278149,-0.00056938,-0.0002849
 4,0.00025951,-0.00020031,-0.00007882,0.00006860,0.00150528,0.00048872,
 -0.00062774,-0.00000544,0.00000393,-0.00000457,0.00000332,0.00000494,0
 .00000181,-0.00000752,0.00000259,-0.00000065,-0.00001418,-0.00000369,0
 .00002844,-0.00000067,-0.00000128,0.00000286,0.02778136,0.05518558,0.0
 0000350,-0.00000234,0.00000192,-0.00000982,-0.00000991,-0.00000566,0.0
 0001731,-0.00000581,-0.00001317,0.00005133,-0.00002468,0.00000743,-0.0
 0000642,-0.00005949,0.00004366,0.00008814,0.00018689,0.00003038,0.1209
 8513,0.03656099,-0.24424265,0.00009095,-0.00060522,0.00035080,-0.00590
 064,-0.00363930,0.01361475,-0.00127732,-0.00004514,0.00006586,0.000051
 59,-0.00036143,-0.00004482,0.00006895,0.00249882,0.00015285,-0.0000003
 6,0.00000012,0.00000455,0.00000137,-0.00000869,0.00000635,0.00000393,-
 0.00000723,0.00000339,-0.00000751,0.00001233,0.00001514,-0.00000318,0.
 00000511,0.00000367,-0.12682530,-0.04003268,0.25646475,-0.00002014,0.0
 0001255,-0.00001464,-0.00000786,0.00001582,0.00002119,0.00003667,0.000
 03859,0.00000100,-0.00011289,0.00000747,-0.00002198,0.00002882,0.00000
 509,0.00000573,0.00011205,-0.00019003,-0.00020477,-0.06440150,0.057909
 47,-0.02342598,0.00004433,0.00061588,-0.00000848,-0.01832336,0.0306128
 5,-0.02021004,0.00207635,0.00073305,0.00013409,-0.00260079,0.00173153,
 -0.00034803,-0.00482185,-0.00434247,0.00141649,-0.00000126,0.00000521,
 -0.00001053,0.00000233,0.00001563,-0.00000951,-0.00001112,0.00000602,-
 0.00000095,0.00000991,-0.00000737,-0.00001362,0.00002536,0.00000749,0.
 00001076,0.00648885,-0.01651634,0.00548781,0.07844984,0.00000439,0.000
 00008,0.00000117,0.00000925,0.00001363,0.00000273,-0.00000132,-0.00000
 466,0.00000863,-0.00000730,0.00001482,0.00001612,-0.00002019,-0.000002
 11,0.00002462,0.00002705,-0.00004646,-0.00006899,0.06321928,-0.2642880
 4,0.09180176,0.00000858,0.00029325,-0.00006542,-0.00008950,0.00543149,
 -0.00184719,0.00151182,0.00031906,0.00064822,-0.00011106,0.00046522,-0
 .00009820,-0.00287007,-0.00018769,-0.00129631,0.00000376,-0.00000538,0
 .00000227,-0.00000208,-0.00000485,-0.00000034,0.00000660,-0.00000271,0
 .00000143,0.00001094,0.00000117,-0.00002080,-0.00000552,-0.00000038,-0
 .00000672,0.00033480,-0.00315555,0.00068345,-0.06801177,0.27998179,-0.
 00000767,0.00001169,-0.00001197,-0.00001685,-0.00000248,0.00000769,0.0
 0000907,0.00000378,-0.00000644,-0.00001292,0.00000792,-0.00002354,0.00
 000652,0.00002726,-0.00001769,0.00002474,-0.00005814,-0.00000897,-0.02
 747025,0.08934223,-0.09038513,0.00016309,0.00012192,-0.00017877,-0.004
 16351,0.00771849,-0.00461933,0.00011731,0.00035345,0.00044505,-0.00047
 910,0.00040006,0.00003568,-0.00002275,-0.00237555,0.00079723,-0.000004
 36,0.00000624,-0.00000415,0.00000248,0.00001015,-0.00000475,-0.0000091
 7,0.00000434,-0.00000264,-0.00000611,-0.00001276,0.00001635,0.00000834
 ,0.00000163,0.00000862,-0.00842918,0.02415008,-0.00943028,0.03351354,-
 0.10020558,0.09216528,-0.00000980,0.00001792,-0.00001779,0.00001046,0.
 00002697,0.00000930,0.00001890,0.00001699,0.00001084,-0.00014414,0.000
 05162,-0.00004848,0.00001489,0.00003953,-0.00001613,0.00021994,-0.0001
 1305,-0.00026508,-0.05520319,-0.02679556,-0.02231510,-0.00044671,0.000
 95879,-0.00017234,-0.02228814,-0.02041127,-0.02759097,0.00119586,0.001
 84140,0.00085852,-0.00025309,0.00085234,-0.00001098,0.00134806,-0.0100
 0057,0.00143911,-0.00000224,0.00000688,-0.00000898,0.00000009,0.000019
 94,-0.00001358,-0.00001334,0.00000610,-0.00000592,0.00001568,-0.000006
 56,-0.00000738,0.00002166,-0.00001209,0.00001058,0.00423809,0.01348220
 ,0.01046706,0.00218308,0.00535165,0.00679707,0.06822838,-0.00000744,0.
 00000563,-0.00000435,-0.00000429,-0.00000970,0.00000229,0.00001212,0.0
 0001028,-0.00000104,-0.00003604,-0.00000685,-0.00001557,0.00002083,0.0
 0000807,-0.00001527,0.00002756,-0.00005416,0.00001466,-0.02939017,-0.1
 9608319,-0.12746416,-0.00011156,-0.00017302,0.00014307,-0.00416435,0.0
 0463826,0.00111166,0.00071005,0.00014926,-0.00021107,-0.00049200,0.000
 12305,-0.00014739,0.00109012,-0.00009752,0.00212522,-0.00000324,0.0000
 0603,-0.00000525,0.00000215,0.00000848,-0.00000519,-0.00000828,0.00000
 346,-0.00000230,-0.00000716,-0.00000020,0.00001366,0.00001140,0.000002
 12,0.00000831,0.00167983,0.00520475,0.00495125,-0.00329469,-0.01905722
 ,-0.01940573,0.03460823,0.20575927,-0.00000713,0.00000928,-0.00000929,
 0.00000460,0.00001442,0.00000768,0.00000424,0.00000455,-0.00000391,-0.
 00005677,0.00002848,-0.00002007,-0.00000323,0.00003162,-0.00001360,0.0
 0004109,-0.00002772,-0.00006498,-0.02316474,-0.12476824,-0.16603007,0.
 00006588,0.00042959,-0.00010448,-0.00987226,-0.00117593,-0.00229807,0.
 00210015,0.00116137,0.00093812,0.00008360,0.00084123,-0.00029002,-0.00
 096859,-0.00629366,0.00067428,-0.00000091,0.00000313,-0.00000371,0.,0.
 00000885,-0.00001130,-0.00000487,0.00000331,-0.00000394,0.00001079,-0.
 00001973,-0.00001422,0.00001319,-0.00000266,0.00000486,-0.00320964,-0.
 02121479,-0.01729338,0.00322020,0.01027073,0.01060687,0.03180001,0.139
 65614,0.17316835,0.00036369,0.00004796,-0.00000415,-0.00013977,0.00010
 160,-0.00072278,-0.00044988,-0.00059860,-0.00007371,0.00086619,-0.0023
 1753,0.00091893,0.00013158,0.00262399,-0.00094611,-0.01138628,0.001650
 70,0.00129912,0.00032440,0.00007121,0.00003032,-0.29692816,0.04338414,
 0.06241623,0.00043313,-0.00042676,0.00001844,0.00108211,0.00024707,-0.
 00062875,0.00173952,0.00025804,-0.00074970,-0.00186184,-0.00102819,-0.
 00000122,0.00003108,0.00012527,0.00008534,0.00000118,0.00004935,0.0000
 1394,-0.00009206,0.00015269,-0.00014442,0.00054385,0.00071047,0.000222
 01,0.00030686,0.00003706,0.00017295,0.00008664,0.00006967,0.00002555,0
 .00000148,0.00002231,-0.00004975,-0.00000291,-0.00002014,0.00001723,0.
 31837881,-0.00013850,-0.00018030,-0.00003224,0.00003955,0.00002635,-0.
 00000898,0.00077386,0.00084163,0.00015217,0.00120993,0.00140629,-0.000
 32152,0.00025448,-0.00308927,0.00230391,0.02201239,-0.00328786,-0.0051
 9828,-0.00000859,0.00005690,0.00006232,0.04307427,-0.05818134,-0.00936
 777,-0.00057433,-0.00048937,0.00019831,-0.00117271,0.00018710,0.000577
 06,0.00081689,0.00087362,-0.00156969,0.00842066,-0.00243128,-0.0041785
 0,-0.00006789,0.00001513,0.00001241,-0.00002734,0.00003111,-0.00002592
 ,0.00010541,-0.00020161,0.00018694,-0.00079723,-0.00045391,0.00015113,
 0.00021639,-0.00002468,-0.00020574,-0.00000792,0.00017266,0.00000463,-
 0.00003776,-0.00002534,0.00005559,0.00003349,-0.00000494,-0.00004909,-
 0.04871117,0.05788011,-0.00032077,-0.00006187,0.00012230,0.00005360,-0
 .00019861,0.00002152,-0.00077604,-0.00002094,-0.00074806,-0.00086003,-
 0.00091127,0.00012155,-0.00026923,0.00347253,-0.00121589,-0.02069355,0
 .00456798,0.00487228,0.00028101,0.00037488,-0.00087732,0.06395159,-0.0
 1222028,-0.05868543,-0.00305675,0.00038976,0.00139323,-0.00352921,0.00
 085545,0.00123352,0.00188051,-0.00173305,-0.00859790,0.03226819,-0.004
 83197,-0.00780406,0.00002650,0.00004786,0.00000676,0.00002646,0.000001
 50,-0.00002986,-0.00013345,0.00014266,-0.00029431,0.00045912,0.0001153
 8,0.00020582,0.00012100,0.00011013,0.00014199,-0.00052023,0.00002507,-
 0.00011102,-0.00025963,-0.00002318,0.00006807,-0.00007353,-0.00006035,
 0.00011574,-0.06583778,0.00908897,0.06831395,0.00014997,0.00027637,-0.
 00001228,0.00033896,0.00016307,-0.00041730,0.00017881,-0.00019246,0.00
 049741,-0.00122465,0.00092805,-0.00103790,0.00074819,0.00122186,-0.000
 69851,0.00810074,0.01240384,0.00142615,-0.00036464,0.00001250,-0.00001
 343,-0.12543784,-0.12175692,-0.00683434,-0.00001534,0.00102816,0.00042
 215,0.00168129,0.00040587,-0.00029139,0.00039342,0.00040522,0.00010359
 ,-0.00137696,-0.00019731,0.00208234,0.00001772,-0.00009047,-0.00006549
 ,-0.00005695,0.00007249,-0.00013150,0.00001469,-0.00005362,-0.00000067
 ,0.00025169,0.00023266,-0.00002924,-0.00024813,-0.00032647,-0.00010690
 ,0.00010871,-0.00007441,-0.00005412,0.00000159,0.00000304,-0.00006716,
 0.00009563,0.00004476,-0.00001260,-0.01336510,-0.02554331,-0.00319525,
 0.13003845,0.00035548,0.00013125,-0.00012812,-0.00103022,0.00019445,0.
 00042707,0.00006733,-0.00008851,0.00057582,0.00290809,-0.00210008,0.00
 125885,-0.00200630,0.00157322,-0.00035129,-0.01098633,-0.01714816,0.00
 062625,-0.00022197,0.00020406,0.00014863,-0.12133177,-0.24944809,-0.01
 007214,0.00119657,0.00062286,0.00030556,-0.00003329,0.00034374,-0.0016
 2200,0.00129982,0.00164732,0.00084057,-0.00640192,-0.00922132,-0.00173
 637,0.00007514,-0.00001656,-0.00008115,0.00012122,-0.00019236,0.000192
 16,0.00001308,-0.00000125,-0.00003415,-0.00001657,-0.00002489,-0.00024
 963,0.00106198,0.00000540,-0.00040198,-0.00002304,-0.00001742,0.000030
 51,0.00002112,0.00001220,0.00003988,0.00015828,0.00000336,0.00012246,0
 .00374184,0.00693258,0.00109893,0.13107205,0.26645437,0.00021426,0.000
 15269,0.00001895,0.00027028,0.00031547,-0.00101892,0.00010505,-0.00012
 175,-0.00023045,-0.00264290,0.00231113,-0.00071996,0.00129472,-0.00057
 286,0.00004479,0.01009947,0.01875708,0.00027789,-0.00000757,-0.0000787
 0,0.00034542,-0.00460356,-0.01114330,-0.04237841,0.00179512,0.00173304
 ,0.00015930,-0.00183219,-0.00422056,-0.00807509,0.00149228,0.00313369,
 0.00086519,-0.01809907,-0.02765836,-0.00299253,-0.00006195,0.00005028,
 0.00005175,-0.00008780,0.00016819,-0.00028411,-0.00003959,0.00000004,-
 0.00000768,-0.00017151,0.00000865,0.00028869,-0.00035676,-0.00015467,0
 .00040985,0.00002341,-0.00005417,-0.00004881,0.00003644,0.00004543,0.0
 0003685,0.00028503,-0.00011199,0.00016494,0.00392499,0.00814995,0.0011
 1509,0.00854003,0.00910696,0.05203490,0.00002202,0.00007432,-0.0000703
 9,-0.00009761,0.00006004,0.00003354,-0.00000928,0.00001417,0.00009696,
 -0.00020488,-0.00004497,0.00000041,0.00013082,0.00024269,-0.00022204,0
 .00003429,-0.00066913,-0.00106679,-0.01789821,-0.00832844,0.02759898,-
 0.00241216,0.00292914,-0.00103785,-0.17952613,-0.05706132,0.16030920,0
 .00003864,0.00273376,0.00064356,-0.00237215,-0.00158118,0.00059370,0.0
 1290766,0.00277821,-0.01293621,-0.00000807,0.00000637,-0.00001630,0.00
 000089,0.00003465,-0.00001381,-0.00003603,0.00001994,-0.00002271,0.000
 00989,-0.00003872,-0.00000952,-0.00002096,-0.00004783,-0.00002325,-0.0
 0575247,-0.00030953,-0.00325794,0.00084011,0.00060532,0.00009662,0.000
 77284,-0.00066767,-0.00006025,-0.00006452,0.00012942,0.00045746,-0.000
 03024,-0.00004058,-0.00017816,0.19367555,-0.00003217,-0.00000904,0.000
 01255,0.00005915,-0.00004441,0.00002139,0.00000548,-0.00005469,-0.0000
 4142,0.00003088,0.00003237,-0.00007202,-0.00002502,0.00001667,0.000006
 63,-0.00014323,0.00005742,0.00018948,-0.00231423,-0.00060077,-0.001490
 61,0.00183779,-0.00038386,-0.00062559,-0.04597716,-0.04601134,0.083649
 78,0.00146408,-0.00658281,-0.00124626,-0.00167194,0.00293816,-0.005083
 05,-0.01469699,-0.01582911,0.03138330,-0.00000396,0.00001157,0.0000058
 7,0.00000298,0.00000109,-0.00000347,-0.00000591,0.00000680,-0.00000098
 ,-0.00000424,0.00000852,0.00004241,0.00002559,0.00005652,0.00006513,0.
 00198406,0.00058286,-0.00013218,0.00066266,0.00024769,-0.00019447,-0.0
 0013323,-0.00043522,0.00096667,-0.00019097,-0.00005358,-0.00022956,-0.
 00003494,0.00013383,0.00018376,0.05916134,0.06591133,-0.00001351,0.000
 02751,-0.00004621,-0.00003924,0.00006732,0.00006716,-0.00006291,0.0000
 6389,0.00007759,-0.00017070,0.00000826,-0.00004963,0.00014008,0.000241
 98,-0.00018141,-0.00002416,-0.00079356,-0.00103904,-0.01101094,-0.0072
 7775,0.00896185,-0.00203768,0.00428762,-0.00072796,0.17703258,0.119597
 99,-0.26634428,-0.00041897,-0.00291895,0.00099657,-0.00021447,-0.00302
 016,0.00223811,0.01033173,-0.00174515,-0.01325499,-0.00000300,-0.00000
 631,-0.00001487,-0.00000373,0.00002568,-0.00000910,-0.00002349,0.00002
 603,-0.00001430,0.00003089,-0.00003530,-0.00003245,-0.00004715,-0.0000
 5989,-0.00005982,-0.00200951,-0.00054897,0.00042430,0.00068090,0.00012
 617,0.00050595,-0.00113124,-0.00057658,0.00048019,0.00001334,0.0000143
 4,0.00063204,-0.00010360,-0.00009682,-0.00005764,-0.17091522,-0.107407
 36,0.26744796\\0.00000054,-0.00000057,-0.00000002,-0.00000054,0.000000
 15,-0.00000061,0.00000027,0.00000098,0.00000002,0.00000181,-0.00000016
 ,-0.00000104,-0.00000056,0.00000048,-0.00000100,-0.00000518,0.00000397
 ,-0.00000026,-0.00001016,-0.00000262,-0.00000684,0.00000191,-0.0000049
 1,0.00000872,0.00000500,0.00001120,0.00000604,0.00000322,0.00000405,0.
 00000108,0.00001027,0.00000281,-0.00000390,-0.00000765,-0.00001299,-0.
 00000153,0.00000003,0.00000041,-0.00000009,0.00000012,-0.00000021,-0.0
 0000021,0.00000004,0.00000107,0.,-0.00000037,-0.00000122,-0.00000027,0
 .00000003,0.00000085,-0.00000036,-0.00000058,-0.00000096,-0.00000042,-
 0.00000107,0.00000017,0.00000175,0.00000145,0.00000017,0.00000208,-0.0
 0000095,0.00000189,0.00000018,0.00000024,-0.00000048,-0.00000149,0.000
 00213,-0.00000408,-0.00000182\\\@


 FORGIVE MY NONSENSE AS I ALSO FORGIVE THOSE WHO THINK THEY TALK SENSE

                                                       -- ROBERT FROST
 Job cpu time:  0 days  1 hours 14 minutes 10.7 seconds.
 File lengths (MBytes):  RWF=    137 Int=      0 D2E=      0 Chk=      4 Scr=      1
 Normal termination of Gaussian 09 at Fri Feb 16 19:47:09 2018.
