 Entering Gaussian System, Link 0=g09
 Initial command:
 /home/fb_chem/chemsoft/lx24-amd64/Gaussian_09_C.01_NBO_3.1_64_istanbul-64/g09/l1.exe /local/2426261.1.parallel_long/Gau-21784.inp -scrdir=/local/2426261.1.parallel_long/
 Entering Link 1 = /home/fb_chem/chemsoft/lx24-amd64/Gaussian_09_C.01_NBO_3.1_64_istanbul-64/g09/l1.exe PID=     21785.
  
 Copyright (c) 1988,1990,1992,1993,1995,1998,2003,2009,2011,
            Gaussian, Inc.  All Rights Reserved.
  
 This is part of the Gaussian(R) 09 program.  It is based on
 the Gaussian(R) 03 system (copyright 2003, Gaussian, Inc.),
 the Gaussian(R) 98 system (copyright 1998, Gaussian, Inc.),
 the Gaussian(R) 94 system (copyright 1995, Gaussian, Inc.),
 the Gaussian 92(TM) system (copyright 1992, Gaussian, Inc.),
 the Gaussian 90(TM) system (copyright 1990, Gaussian, Inc.),
 the Gaussian 88(TM) system (copyright 1988, Gaussian, Inc.),
 the Gaussian 86(TM) system (copyright 1986, Carnegie Mellon
 University), and the Gaussian 82(TM) system (copyright 1983,
 Carnegie Mellon University). Gaussian is a federally registered
 trademark of Gaussian, Inc.
  
 This software contains proprietary and confidential information,
 including trade secrets, belonging to Gaussian, Inc.
  
 This software is provided under written license and may be
 used, copied, transmitted, or stored only in accord with that
 written license.
  
 The following legend is applicable only to US Government
 contracts under FAR:
  
                    RESTRICTED RIGHTS LEGEND
  
 Use, reproduction and disclosure by the US Government is
 subject to restrictions as set forth in subparagraphs (a)
 and (c) of the Commercial Computer Software - Restricted
 Rights clause in FAR 52.227-19.
  
 Gaussian, Inc.
 340 Quinnipiac St., Bldg. 40, Wallingford CT 06492
  
  
 ---------------------------------------------------------------
 Warning -- This program may not be used in any manner that
 competes with the business of Gaussian, Inc. or will provide
 assistance to any competitor of Gaussian, Inc.  The licensee
 of this program is prohibited from giving any competitor of
 Gaussian, Inc. access to this program.  By using this program,
 the user acknowledges that Gaussian, Inc. is engaged in the
 business of creating and licensing software in the field of
 computational chemistry and represents and warrants to the
 licensee that it is not a competitor of Gaussian, Inc. and that
 it will not use this program in any manner prohibited above.
 ---------------------------------------------------------------
  

 Cite this work as:
 Gaussian 09, Revision C.01,
 M. J. Frisch, G. W. Trucks, H. B. Schlegel, G. E. Scuseria, 
 M. A. Robb, J. R. Cheeseman, G. Scalmani, V. Barone, B. Mennucci, 
 G. A. Petersson, H. Nakatsuji, M. Caricato, X. Li, H. P. Hratchian, 
 A. F. Izmaylov, J. Bloino, G. Zheng, J. L. Sonnenberg, M. Hada, 
 M. Ehara, K. Toyota, R. Fukuda, J. Hasegawa, M. Ishida, T. Nakajima, 
 Y. Honda, O. Kitao, H. Nakai, T. Vreven, J. A. Montgomery, Jr., 
 J. E. Peralta, F. Ogliaro, M. Bearpark, J. J. Heyd, E. Brothers, 
 K. N. Kudin, V. N. Staroverov, T. Keith, R. Kobayashi, J. Normand, 
 K. Raghavachari, A. Rendell, J. C. Burant, S. S. Iyengar, J. Tomasi, 
 M. Cossi, N. Rega, J. M. Millam, M. Klene, J. E. Knox, J. B. Cross, 
 V. Bakken, C. Adamo, J. Jaramillo, R. Gomperts, R. E. Stratmann, 
 O. Yazyev, A. J. Austin, R. Cammi, C. Pomelli, J. W. Ochterski, 
 R. L. Martin, K. Morokuma, V. G. Zakrzewski, G. A. Voth, 
 P. Salvador, J. J. Dannenberg, S. Dapprich, A. D. Daniels, 
 O. Farkas, J. B. Foresman, J. V. Ortiz, J. Cioslowski, 
 and D. J. Fox, Gaussian, Inc., Wallingford CT, 2010.
 
 ******************************************
 Gaussian 09:  AM64L-G09RevC.01 23-Sep-2011
                26-Feb-2018 
 ******************************************
 %nprocs=4
 Will use up to    4 processors via shared memory.
 %chk=frag0-conf1.chk
 ----------------------------------------------------------------------
 #HF/6-31G* Geom=AllCheck Guess=Read Pop=(MK,ReadRadii) Integral=(Grid=
 UltraFine) iop(6/33=2)
 ----------------------------------------------------------------------
 1/29=7,38=1/1;
 2/12=2,40=1/2;
 3/5=1,6=6,7=1,11=9,14=-4,16=1,25=1,30=1,75=-5,116=-2/1,2,3;
 4/5=1/1;
 5/5=2,38=6/2;
 6/7=2,8=2,9=2,10=2,15=8,20=101,28=1,33=2/1,2;
 99/5=1,9=1/99;
 Structure from the checkpoint file:  frag0-conf1.chk
 ----------------------------
 Optimization for frag0-conf1
 ----------------------------
 Charge =  0 Multiplicity = 1
 Redundant internal coordinates found in file.
 C,0,0.5164308968,-0.9098269143,0.1025548295
 C,0,-2.4823622203,0.6469743885,1.5470898682
 C,0,1.4744780285,-0.3407715126,-0.9335726806
 C,0,-2.5024994566,-1.7818311562,0.7941443499
 C,0,-4.1332634557,1.6468293383,3.0931953897
 C,0,-1.6295678828,-0.6005564995,1.262868147
 N,0,-3.2274150911,0.5869788641,2.6830923726
 N,0,-0.6477324252,-0.2219802416,0.26662967
 O,0,0.7763257296,-1.9251208492,0.7433206613
 O,0,-2.4939459723,1.6059216608,0.7784012012
 H,0,2.4310044556,-0.1241959179,-0.4477202326
 H,0,1.6626339714,-1.1023686592,-1.696750108
 H,0,1.1067758843,0.5677792628,-1.4201461575
 H,0,-3.060693725,-1.5103777976,-0.107852714
 H,0,-1.8526694033,-2.631564055,0.5712833612
 H,0,-3.2177243904,-2.083860813,1.5679151454
 H,0,-3.8355792206,2.0677739013,4.060458739
 H,0,-5.163135132,1.2790125854,3.1679672392
 H,0,-4.0858689694,2.428451608,2.3342495623
 H,0,-1.095404216,-0.9041998862,2.1723972253
 H,0,-3.1369895285,-0.2276583942,3.27362356
 H,0,-0.8322488059,0.6555001224,-0.2057666769
 Recover connectivity data from disk.
                          Input orientation:                          
 ---------------------------------------------------------------------
 Center     Atomic      Atomic             Coordinates (Angstroms)
 Number     Number       Type             X           Y           Z
 ---------------------------------------------------------------------
      1          6           0        0.516431   -0.909827    0.102555
      2          6           0       -2.482362    0.646974    1.547090
      3          6           0        1.474478   -0.340772   -0.933573
      4          6           0       -2.502499   -1.781831    0.794144
      5          6           0       -4.133263    1.646829    3.093195
      6          6           0       -1.629568   -0.600556    1.262868
      7          7           0       -3.227415    0.586979    2.683092
      8          7           0       -0.647732   -0.221980    0.266630
      9          8           0        0.776326   -1.925121    0.743321
     10          8           0       -2.493946    1.605922    0.778401
     11          1           0        2.431004   -0.124196   -0.447720
     12          1           0        1.662634   -1.102369   -1.696750
     13          1           0        1.106776    0.567779   -1.420146
     14          1           0       -3.060694   -1.510378   -0.107853
     15          1           0       -1.852669   -2.631564    0.571283
     16          1           0       -3.217724   -2.083861    1.567915
     17          1           0       -3.835579    2.067774    4.060459
     18          1           0       -5.163135    1.279013    3.167967
     19          1           0       -4.085869    2.428452    2.334250
     20          1           0       -1.095404   -0.904200    2.172397
     21          1           0       -3.136990   -0.227658    3.273624
     22          1           0       -0.832249    0.655500   -0.205767
 ---------------------------------------------------------------------
                    Distance matrix (angstroms):
                    1          2          3          4          5
     1  C    0.000000
     2  C    3.674653   0.000000
     3  C    1.521591   4.773459   0.000000
     4  C    3.217550   2.542917   4.569246   0.000000
     5  C    6.090983   2.472979   7.184162   4.438552   0.000000
     6  C    2.459123   1.537652   3.811423   1.541792   3.830056
     7  N    4.787064   1.359855   6.004064   3.115267   1.453282
     8  N    1.362105   2.400110   2.440978   2.480235   4.861157
     9  O    1.228392   4.228565   2.410301   3.282348   6.510361
    10  O    3.980971   1.229063   4.740133   3.387800   2.836778
    11  H    2.141404   5.358651   1.094486   5.350649   7.665783
    12  H    2.142044   5.546503   1.094474   4.900465   8.005879
    13  H    2.202373   4.657539   1.094268   4.842584   6.999472
    14  H    3.633284   2.779833   4.755794   1.094928   4.622237
    15  H    2.965927   3.478150   4.310711   1.092699   5.464961
    16  H    4.179659   2.828189   5.595763   1.096125   4.133127
    17  H    6.593262   3.188556   7.677119   5.221625   1.096088
    18  H    6.815075   3.195819   7.968955   4.699232   1.096137
    19  H    6.107842   2.522799   7.018883   4.754520   1.090495
    20  H    2.623412   2.172741   4.070479   2.156324   4.072371
    21  H    4.885541   2.043144   6.243311   2.994303   2.130451
    22  H    2.089078   2.407375   2.615960   3.119318   4.771015
                    6          7          8          9         10
     6  C    0.000000
     7  N    2.445484   0.000000
     8  N    1.449073   3.626082   0.000000
     9  O    2.795125   5.109139   2.270653   0.000000
    10  O    2.418761   2.281243   2.647950   4.812917   0.000000
    11  H    4.431848   6.505803   3.162037   2.720270   5.362072
    12  H    4.455306   6.778606   3.157172   2.723308   5.544219
    13  H    4.006389   5.968429   2.558756   3.317279   4.344715
    14  H    2.180544   3.495150   2.760903   3.952117   3.289068
    15  H    2.157094   4.087625   2.711232   2.727687   4.290736
    16  H    2.194422   2.894322   3.429986   4.081371   3.842093
    17  H    4.451178   2.111813   5.458798   6.943794   3.575638
    18  H    4.432638   2.112114   5.573114   7.170954   3.597425
    19  H    4.044275   2.061469   4.808391   6.717558   2.373065
    20  H    1.097622   2.651395   2.073110   2.566693   3.193721
    21  H    2.540573   1.010217   3.903645   4.959622   3.162539
    22  H    2.090522   3.753268   1.013497   3.185574   2.152470
                   11         12         13         14         15
    11  H    0.000000
    12  H    1.762751   0.000000
    13  H    1.782701   1.781820   0.000000
    14  H    5.674131   5.000089   4.838249   0.000000
    15  H    5.067063   4.454186   4.791650   1.782584   0.000000
    16  H    6.309613   5.953089   5.887360   1.778128   1.776690
    17  H    8.024866   8.568874   7.530862   5.547832   6.179810
    18  H    8.527200   8.713643   7.801822   4.788732   5.744089
    19  H    7.531600   7.858813   6.672417   4.746496   5.805083
    20  H    4.461948   4.755665   4.463484   3.070725   2.474026
    21  H    6.697885   6.964633   6.377597   3.617399   3.838083
    22  H    3.363821   3.396701   2.289591   3.109113   3.528435
                   16         17         18         19         20
    16  H    0.000000
    17  H    4.881658   0.000000
    18  H    4.201631   1.783561   0.000000
    19  H    4.658531   1.781160   1.782357   0.000000
    20  H    2.502247   4.461610   4.722712   4.480585   0.000000
    21  H    2.522191   2.525103   2.527150   2.972830   2.416294
    22  H    4.042343   5.405108   5.525163   4.492336   2.856147
                   21         22
    21  H    0.000000
    22  H    4.265906   0.000000
 Stoichiometry    C6H12N2O2
 Framework group  C1[X(C6H12N2O2)]
 Deg. of freedom    60
 Full point group                 C1      NOp   1
 Largest Abelian subgroup         C1      NOp   1
 Largest concise Abelian subgroup C1      NOp   1
                         Standard orientation:                         
 ---------------------------------------------------------------------
 Center     Atomic      Atomic             Coordinates (Angstroms)
 Number     Number       Type             X           Y           Z
 ---------------------------------------------------------------------
      1          6           0        2.319201   -0.066191   -0.235613
      2          6           0       -1.336191   -0.297688    0.060344
      3          6           0        3.361835   -1.142366    0.028963
      4          6           0       -0.076010    1.720906    0.956810
      5          6           0       -3.763240   -0.335789   -0.412524
      6          6           0       -0.054586    0.545854   -0.041146
      7          7           0       -2.449751    0.284330   -0.459697
      8          7           0        1.059410   -0.349493    0.197971
      9          8           0        2.599187    0.989070   -0.798623
     10          8           0       -1.336814   -1.402987    0.597847
     11          1           0        3.804344   -1.446408   -0.924790
     12          1           0        4.164368   -0.714686    0.637982
     13          1           0        2.962526   -2.026178    0.535769
     14          1           0       -0.186698    1.350468    1.981208
     15          1           0        0.865620    2.269013    0.873730
     16          1           0       -0.900726    2.411410    0.745770
     17          1           0       -4.150867   -0.515802   -1.421855
     18          1           0       -4.476396    0.291204    0.135021
     19          1           0       -3.655091   -1.290335    0.103542
     20          1           0        0.045565    0.954344   -1.054989
     21          1           0       -2.355365    1.184068   -0.909253
     22          1           0        0.810064   -1.247968    0.595144
 ---------------------------------------------------------------------
 Rotational constants (GHZ):      2.8581900      0.6543877      0.5870942
 Standard basis: 6-31G(d) (6D, 7F)
 There are   174 symmetry adapted basis functions of A   symmetry.
 Integral buffers will be    131072 words long.
 Raffenetti 1 integral format.
 Two-electron integral symmetry is turned on.
   174 basis functions,   328 primitive gaussians,   174 cartesian basis functions
    39 alpha electrons       39 beta electrons
       nuclear repulsion energy       548.7145173307 Hartrees.
 NAtoms=   22 NActive=   22 NUniq=   22 SFac= 1.00D+00 NAtFMM=   60 NAOKFM=F Big=F
 One-electron integrals computed using PRISM.
 NBasis=   174 RedAO= T  NBF=   174
 NBsUse=   174 1.00D-06 NBFU=   174
 Initial guess read from the checkpoint file:  frag0-conf1.chk
 B after Tr=     0.000000    0.000000    0.000000
         Rot=    1.000000    0.000000    0.000000    0.000000 Ang=   0.00 deg.
 Initial guess orbital symmetries:
       Occupied  (A) (A) (A) (A) (A) (A) (A) (A) (A) (A) (A) (A)
                 (A) (A) (A) (A) (A) (A) (A) (A) (A) (A) (A) (A)
                 (A) (A) (A) (A) (A) (A) (A) (A) (A) (A) (A) (A)
                 (A) (A) (A)
       Virtual   (A) (A) (A) (A) (A) (A) (A) (A) (A) (A) (A) (A)
                 (A) (A) (A) (A) (A) (A) (A) (A) (A) (A) (A) (A)
                 (A) (A) (A) (A) (A) (A) (A) (A) (A) (A) (A) (A)
                 (A) (A) (A) (A) (A) (A) (A) (A) (A) (A) (A) (A)
                 (A) (A) (A) (A) (A) (A) (A) (A) (A) (A) (A) (A)
                 (A) (A) (A) (A) (A) (A) (A) (A) (A) (A) (A) (A)
                 (A) (A) (A) (A) (A) (A) (A) (A) (A) (A) (A) (A)
                 (A) (A) (A) (A) (A) (A) (A) (A) (A) (A) (A) (A)
                 (A) (A) (A) (A) (A) (A) (A) (A) (A) (A) (A) (A)
                 (A) (A) (A) (A) (A) (A) (A) (A) (A) (A) (A) (A)
                 (A) (A) (A) (A) (A) (A) (A) (A) (A) (A) (A) (A)
                 (A) (A) (A)
 Requested convergence on RMS density matrix=1.00D-08 within 128 cycles.
 Requested convergence on MAX density matrix=1.00D-06.
 Requested convergence on             energy=1.00D-06.
 No special actions if energy rises.
 SCF Done:  E(RHF) =  -492.856068807     A.U. after   13 cycles
             Convg  =    0.9324D-08             -V/T =  2.0027

 **********************************************************************

            Population analysis using the SCF density.

 **********************************************************************

 Orbital symmetries:
 BldTbl:  Degeneracy threshold= 1.00D-02
       Occupied  (A) (A) (A) (A) (A) (A) (A) (A) (A) (A) (A) (A)
                 (A) (A) (A) (A) (A) (A) (A) (A) (A) (A) (A) (A)
                 (A) (A) (A) (A) (A) (A) (A) (A) (A) (A) (A) (A)
                 (A) (A) (A)
       Virtual   (A) (A) (A) (A) (A) (A) (A) (A) (A) (A) (A) (A)
                 (A) (A) (A) (A) (A) (A) (A) (A) (A) (A) (A) (A)
                 (A) (A) (A) (A) (A) (A) (A) (A) (A) (A) (A) (A)
                 (A) (A) (A) (A) (A) (A) (A) (A) (A) (A) (A) (A)
                 (A) (A) (A) (A) (A) (A) (A) (A) (A) (A) (A) (A)
                 (A) (A) (A) (A) (A) (A) (A) (A) (A) (A) (A) (A)
                 (A) (A) (A) (A) (A) (A) (A) (A) (A) (A) (A) (A)
                 (A) (A) (A) (A) (A) (A) (A) (A) (A) (A) (A) (A)
                 (A) (A) (A) (A) (A) (A) (A) (A) (A) (A) (A) (A)
                 (A) (A) (A) (A) (A) (A) (A) (A) (A) (A) (A) (A)
                 (A) (A) (A) (A) (A) (A) (A) (A) (A) (A) (A) (A)
                 (A) (A) (A)
 The electronic state is 1-A.
 Alpha  occ. eigenvalues --  -20.53847 -20.51629 -15.60351 -15.58278 -11.36518
 Alpha  occ. eigenvalues --  -11.35045 -11.28736 -11.26995 -11.23453 -11.22955
 Alpha  occ. eigenvalues --   -1.39067  -1.36735  -1.23972  -1.22751  -1.05208
 Alpha  occ. eigenvalues --   -0.98765  -0.95991  -0.88221  -0.80197  -0.77917
 Alpha  occ. eigenvalues --   -0.72711  -0.67097  -0.65427  -0.64033  -0.62993
 Alpha  occ. eigenvalues --   -0.61408  -0.59768  -0.58326  -0.56493  -0.56216
 Alpha  occ. eigenvalues --   -0.55558  -0.54210  -0.52643  -0.52081  -0.48863
 Alpha  occ. eigenvalues --   -0.43102  -0.41288  -0.40213  -0.38148
 Alpha virt. eigenvalues --    0.18009   0.20266   0.21069   0.23920   0.26005
 Alpha virt. eigenvalues --    0.27785   0.28869   0.29793   0.30916   0.31311
 Alpha virt. eigenvalues --    0.32397   0.32944   0.33768   0.34391   0.36121
 Alpha virt. eigenvalues --    0.39625   0.40244   0.42066   0.46954   0.51467
 Alpha virt. eigenvalues --    0.52681   0.58236   0.63878   0.70274   0.72376
 Alpha virt. eigenvalues --    0.73128   0.74640   0.75393   0.76274   0.77144
 Alpha virt. eigenvalues --    0.78629   0.82300   0.85168   0.86725   0.89547
 Alpha virt. eigenvalues --    0.92267   0.94101   0.95139   0.97999   0.98505
 Alpha virt. eigenvalues --    1.01280   1.01402   1.03681   1.05927   1.07881
 Alpha virt. eigenvalues --    1.09915   1.10387   1.12515   1.14503   1.15306
 Alpha virt. eigenvalues --    1.15951   1.17077   1.18034   1.19394   1.19792
 Alpha virt. eigenvalues --    1.19984   1.20927   1.21881   1.23747   1.23838
 Alpha virt. eigenvalues --    1.31565   1.33968   1.36249   1.37293   1.41157
 Alpha virt. eigenvalues --    1.44099   1.49411   1.56099   1.57566   1.60305
 Alpha virt. eigenvalues --    1.61590   1.63896   1.67304   1.73949   1.76682
 Alpha virt. eigenvalues --    1.77165   1.79991   1.90245   1.95487   1.99180
 Alpha virt. eigenvalues --    2.00556   2.04328   2.06473   2.09864   2.11788
 Alpha virt. eigenvalues --    2.12343   2.13060   2.16224   2.17099   2.19353
 Alpha virt. eigenvalues --    2.21681   2.22206   2.26911   2.29736   2.33817
 Alpha virt. eigenvalues --    2.34995   2.37215   2.41265   2.45087   2.49100
 Alpha virt. eigenvalues --    2.55021   2.55821   2.58725   2.59966   2.61114
 Alpha virt. eigenvalues --    2.63482   2.64629   2.68214   2.71092   2.74480
 Alpha virt. eigenvalues --    2.76934   2.79339   2.86772   2.94033   2.95018
 Alpha virt. eigenvalues --    3.00885   3.04377   3.06017   3.12132   3.22391
 Alpha virt. eigenvalues --    3.28664   3.34528   3.36976   3.49921   3.56467
 Alpha virt. eigenvalues --    4.37510   4.41252   4.48642   4.51502   4.60963
 Alpha virt. eigenvalues --    4.64897   4.69043   4.84066   4.91141   5.03366
          Condensed to atoms (all electrons):
              1          2          3          4          5          6
     1  C    4.152929   0.003548   0.361854  -0.002074   0.000001  -0.030716
     2  C    0.003548   4.164184  -0.000020  -0.050432  -0.023781   0.363923
     3  C    0.361854  -0.000020   5.240543  -0.000354   0.000000   0.005343
     4  C   -0.002074  -0.050432  -0.000354   5.153137  -0.000252   0.332723
     5  C    0.000001  -0.023781   0.000000  -0.000252   4.948660   0.003632
     6  C   -0.030716   0.363923   0.005343   0.332723   0.003632   5.054279
     7  N   -0.000095   0.292379   0.000000   0.002128   0.187294  -0.109175
     8  N    0.273804  -0.042612  -0.101857  -0.062394  -0.000067   0.199867
     9  O    0.576976   0.000440  -0.068204  -0.004979   0.000000   0.010051
    10  O    0.000278   0.578366  -0.000039  -0.000574  -0.003669  -0.072944
    11  H   -0.027970   0.000002   0.380374  -0.000003   0.000000  -0.000133
    12  H   -0.028002   0.000000   0.380595   0.000028   0.000000  -0.000102
    13  H   -0.038980  -0.000035   0.375946   0.000008   0.000000   0.000091
    14  H    0.000210  -0.003243  -0.000001   0.386469   0.000002  -0.038187
    15  H    0.002131   0.003720   0.000104   0.389865   0.000003  -0.028624
    16  H    0.000018  -0.002947   0.000004   0.379093  -0.000003  -0.037748
    17  H    0.000000   0.000413   0.000000  -0.000002   0.401014  -0.000089
    18  H    0.000000   0.001092   0.000000   0.000028   0.400388  -0.000046
    19  H    0.000000  -0.001893   0.000000  -0.000031   0.397541   0.000563
    20  H   -0.000524  -0.039042   0.000165  -0.042356  -0.000088   0.407857
    21  H    0.000000  -0.022229   0.000000   0.000347  -0.021540   0.001278
    22  H   -0.010832  -0.007549  -0.000392   0.002660  -0.000013  -0.030206
              7          8          9         10         11         12
     1  C   -0.000095   0.273804   0.576976   0.000278  -0.027970  -0.028002
     2  C    0.292379  -0.042612   0.000440   0.578366   0.000002   0.000000
     3  C    0.000000  -0.101857  -0.068204  -0.000039   0.380374   0.380595
     4  C    0.002128  -0.062394  -0.004979  -0.000574  -0.000003   0.000028
     5  C    0.187294  -0.000067   0.000000  -0.003669   0.000000   0.000000
     6  C   -0.109175   0.199867   0.010051  -0.072944  -0.000133  -0.000102
     7  N    7.310456   0.002506  -0.000001  -0.091197   0.000000   0.000000
     8  N    0.002506   7.404083  -0.100399  -0.010729   0.001487   0.001614
     9  O   -0.000001  -0.100399   8.208180  -0.000004   0.000803   0.000666
    10  O   -0.091197  -0.010729  -0.000004   8.209841   0.000000   0.000000
    11  H    0.000000   0.001487   0.000803   0.000000   0.482909  -0.020248
    12  H    0.000000   0.001614   0.000666   0.000000  -0.020248   0.482766
    13  H    0.000000   0.006017   0.002455  -0.000024  -0.022569  -0.022753
    14  H    0.000330   0.000686  -0.000004   0.001044   0.000000  -0.000002
    15  H   -0.000028  -0.005779   0.005768  -0.000061   0.000000  -0.000003
    16  H    0.001803   0.004439   0.000022   0.000020   0.000000   0.000000
    17  H   -0.044314   0.000002   0.000000   0.000269   0.000000   0.000000
    18  H   -0.044941   0.000000   0.000000   0.000287   0.000000   0.000000
    19  H   -0.034900  -0.000002   0.000000   0.009864   0.000000   0.000000
    20  H    0.002845  -0.043874   0.006100   0.001442   0.000020  -0.000012
    21  H    0.324520   0.000021   0.000000   0.002206   0.000000   0.000000
    22  H    0.000984   0.303354   0.001720   0.025781  -0.000009   0.000006
             13         14         15         16         17         18
     1  C   -0.038980   0.000210   0.002131   0.000018   0.000000   0.000000
     2  C   -0.000035  -0.003243   0.003720  -0.002947   0.000413   0.001092
     3  C    0.375946  -0.000001   0.000104   0.000004   0.000000   0.000000
     4  C    0.000008   0.386469   0.389865   0.379093  -0.000002   0.000028
     5  C    0.000000   0.000002   0.000003  -0.000003   0.401014   0.400388
     6  C    0.000091  -0.038187  -0.028624  -0.037748  -0.000089  -0.000046
     7  N    0.000000   0.000330  -0.000028   0.001803  -0.044314  -0.044941
     8  N    0.006017   0.000686  -0.005779   0.004439   0.000002   0.000000
     9  O    0.002455  -0.000004   0.005768   0.000022   0.000000   0.000000
    10  O   -0.000024   0.001044  -0.000061   0.000020   0.000269   0.000287
    11  H   -0.022569   0.000000   0.000000   0.000000   0.000000   0.000000
    12  H   -0.022753  -0.000002  -0.000003   0.000000   0.000000   0.000000
    13  H    0.523356   0.000000  -0.000008   0.000000   0.000000   0.000000
    14  H    0.000000   0.518601  -0.022267  -0.024935   0.000000  -0.000001
    15  H   -0.000008  -0.022267   0.464986  -0.022816   0.000000  -0.000001
    16  H    0.000000  -0.024935  -0.022816   0.550352   0.000003  -0.000012
    17  H    0.000000   0.000000   0.000000   0.000003   0.529580  -0.037184
    18  H    0.000000  -0.000001  -0.000001  -0.000012  -0.037184   0.530757
    19  H    0.000000  -0.000002   0.000000  -0.000002  -0.022784  -0.022770
    20  H   -0.000013   0.003858  -0.003597   0.000168  -0.000001  -0.000002
    21  H    0.000000  -0.000006  -0.000034   0.001001  -0.001085  -0.000948
    22  H    0.001327   0.000364  -0.000153  -0.000065   0.000000   0.000000
             19         20         21         22
     1  C    0.000000  -0.000524   0.000000  -0.010832
     2  C   -0.001893  -0.039042  -0.022229  -0.007549
     3  C    0.000000   0.000165   0.000000  -0.000392
     4  C   -0.000031  -0.042356   0.000347   0.002660
     5  C    0.397541  -0.000088  -0.021540  -0.000013
     6  C    0.000563   0.407857   0.001278  -0.030206
     7  N   -0.034900   0.002845   0.324520   0.000984
     8  N   -0.000002  -0.043874   0.000021   0.303354
     9  O    0.000000   0.006100   0.000000   0.001720
    10  O    0.009864   0.001442   0.002206   0.025781
    11  H    0.000000   0.000020   0.000000  -0.000009
    12  H    0.000000  -0.000012   0.000000   0.000006
    13  H    0.000000  -0.000013   0.000000   0.001327
    14  H   -0.000002   0.003858  -0.000006   0.000364
    15  H    0.000000  -0.003597  -0.000034  -0.000153
    16  H   -0.000002   0.000168   0.001001  -0.000065
    17  H   -0.022784  -0.000001  -0.001085   0.000000
    18  H   -0.022770  -0.000002  -0.000948   0.000000
    19  H    0.439661  -0.000017   0.002491  -0.000014
    20  H   -0.000017   0.487864   0.000917   0.002593
    21  H    0.002491   0.000917   0.322504  -0.000031
    22  H   -0.000014   0.002593  -0.000031   0.282822
 Mulliken atomic charges:
              1
     1  C    0.767443
     2  C    0.785715
     3  C   -0.574062
     4  C   -0.483034
     5  C   -0.289124
     6  C   -0.031636
     7  N   -0.800594
     8  N   -0.830167
     9  O   -0.639590
    10  O   -0.650156
    11  H    0.205334
    12  H    0.205448
    13  H    0.175182
    14  H    0.177085
    15  H    0.216792
    16  H    0.151605
    17  H    0.174177
    18  H    0.173352
    19  H    0.232296
    20  H    0.215693
    21  H    0.390589
    22  H    0.427650
 Sum of Mulliken atomic charges =   0.00000
 Mulliken charges with hydrogens summed into heavy atoms:
              1
     1  C    0.767443
     2  C    0.785715
     3  C    0.011903
     4  C    0.062449
     5  C    0.290702
     6  C    0.184057
     7  N   -0.410005
     8  N   -0.402517
     9  O   -0.639590
    10  O   -0.650156
 Sum of Mulliken charges with hydrogens summed into heavy atoms =   0.00000
 DipInt: DoE/N= T F RetVal/Mat= T F Init=T NMatP=  1 IDeriv=0 Min/MaxMlt=  0  4
 Entering OneElI...
 OneElI was handed    33474183 working-precision words.
 Multipole integrals L=0 to 4 MinM= 0 MaxM= 0.
 Requested accuracy = 0.1000D-12
 PrsmSu:  NPrtUS=   1 ThrOK=F IAlg=1 NPAlg=1 LenDen=           0.
 Prism:   IPart=     0 DynPar=F LinDyn=F Incr=          18.
 PRISM was handed    33312227 working-precision words and  1878 shell-pairs
 IPart=  0 NShTot=        1878 NBatch=          51 AvBLen=        36.8
 PrSmSu:  NxtVal=             19.
 Electronic moments (au):
        -78.00000000         -1.07788760          0.07240187         -0.02262187
      -1516.22263576       -329.10856712       -144.96477302         -9.69216660
          6.07506890          1.86660972        444.51354311       -148.55693933
        -41.16458747       -219.32185993        852.53547282        772.64061738
         10.55437754       -117.27656057       -215.05965335         84.55529014
     -59842.07509954      -3613.38801227       -899.33208327       1727.45280397
      -1790.14920641        223.99401181       -394.45680400        -11.77270825
       -209.98605515      -4982.85306610      -2603.08477787       -880.07176095
        563.89901257        331.38194609       -164.48813174
 Electronic spatial extent (au):  <R**2>=           1990.2960
 DipInt: DoE/N= F T RetVal/Mat= T F Init=T NMatP=  1 IDeriv=0 Min/MaxMlt=  0  4
 Nuclear    moments (au):
         78.00000000          0.00000000          0.00000000          0.00000000
       1475.02597681        282.10248858         99.05450992          0.00000000
          0.00000000          0.00000000       -498.60731353        151.93850451
         38.20087367        216.26981088       -881.35636173       -767.55613989
        -15.45346823        116.43083439        212.64448833        -75.42367072
      54971.17413092       2493.21912607        423.82580025      -1871.54015675
       1927.78966927       -257.98563432        377.03985239         11.90590253
        196.64437623       3899.42763651       1637.72216738        611.46550849
       -518.81018345       -294.86401136        143.57832776
 Total      moments (au):
          0.00000000         -1.07788760          0.07240187         -0.02262187
        -41.19665895        -47.00607854        -45.91026311         -9.69216660
          6.07506890          1.86660972        -54.09377042          3.38156519
         -2.96371380         -3.05204906        -28.82088891          5.08447749
         -4.89909070         -0.84572618         -2.41516502          9.13161943
      -4870.90096862      -1120.16888620       -475.50628302       -144.08735278
        137.64046286        -33.99162251        -17.41695161          0.13319429
        -13.34167892      -1083.42542959       -965.36261050       -268.60625246
         45.08882912         36.51793473        -20.90980397
 Traceless Quadrup. (au):
          3.50767458         -2.30174501         -1.20592957         -9.69216660
          6.07506890          1.86660972
 Charge=              0.0000 electrons
 Dipole moment (field-independent basis, Debye):
    X=             -2.7397    Y=              0.1840    Z=             -0.0575  Tot=              2.7465
 Quadrupole moment (field-independent basis, Debye-Ang):
   XX=            -55.4109   YY=            -63.2248   ZZ=            -61.7509
   XY=            -13.0363   XZ=              8.1712   YZ=              2.5107
 Traceless Quadrupole moment (field-independent basis, Debye-Ang):
   XX=              4.7179   YY=             -3.0959   ZZ=             -1.6220
   XY=            -13.0363   XZ=              8.1712   YZ=              2.5107
 Octapole moment (field-independent basis, Debye-Ang**2):
  XXX=            -38.5019  YYY=              2.4069  ZZZ=             -2.1095  XYY=             -2.1723
  XXY=            -20.5136  XXZ=              3.6189  XZZ=             -3.4870  YZZ=             -0.6020
  YYZ=             -1.7190  XYZ=              6.4995
 Hexadecapole moment (field-independent basis, Debye-Ang**3):
 XXXX=          -1834.6148 YYYY=           -421.9093 ZZZZ=           -179.0985 XXXY=            -54.2702
 XXXZ=             51.8420 YYYX=            -12.8029 YYYZ=             -6.5601 ZZZX=              0.0502
 ZZZY=             -5.0251 XXYY=           -408.0699 XXZZ=           -363.6018 YYZZ=           -101.1700
 XXYZ=             16.9826 YYXZ=             13.7544 ZZXY=             -7.8756
 N-N= 5.487145173307D+02 E-N=-2.252325257370D+03  KE= 4.915282355508D+02
 Entering OneElI...
 OneElI was handed    33412907 working-precision words.
 Calculate electrostatic properties
    NBasis =   174  MinDer = 0  MaxDer = 0
    NGrid  =    22  NMatD  =   1
 Requested accuracy = 0.1000D-12
 PrsmSu:  NPrtUS=   4 ThrOK=T IAlg=1 NPAlg=1 LenDen=           0.
 Prism:   IPart=     0 DynPar=F LinDyn=F Incr=          96.
 PRISM was handed     8274055 working-precision words and  1747 shell-pairs
 PRISM was handed     8274055 working-precision words and  1747 shell-pairs
 PRISM was handed     8274055 working-precision words and  1747 shell-pairs
 PRISM was handed     8274055 working-precision words and  1747 shell-pairs
 IPart=  2 NShTot=        9482 NBatch=         431 AvBLen=        22.0
 IPart=  1 NShTot=        9768 NBatch=         444 AvBLen=        22.0
 IPart=  0 NShTot=        9900 NBatch=         450 AvBLen=        22.0
 IPart=  3 NShTot=        9284 NBatch=         422 AvBLen=        22.0
 PrSmSu:  NxtVal=            385.
 --------------------------------------------------------
       Center         ----      EFG at Nuclei      ----
                      3XX-RR        3YY-RR        3ZZ-RR
 --------------------------------------------------------
     1   Atom        0.161295      0.220456     -0.381750
     2   Atom        0.221915      0.172969     -0.394884
     3   Atom       -0.005175     -0.025655      0.030830
     4   Atom        0.051962     -0.031972     -0.019990
     5   Atom       -0.229323      0.093504      0.135820
     6   Atom       -0.153463      0.002620      0.150843
     7   Atom       -0.467604     -0.184982      0.652586
     8   Atom       -0.487200     -0.211620      0.698820
     9   Atom        1.399222     -0.686588     -0.712634
    10   Atom        1.497340     -0.889734     -0.607606
    11   Atom        0.076128      0.113484     -0.189612
    12   Atom       -0.090882      0.077721      0.013161
    13   Atom        0.078824     -0.138971      0.060147
    14   Atom        0.148476      0.091897     -0.240373
    15   Atom       -0.177170      0.031317      0.145853
    16   Atom       -0.101609     -0.026433      0.128042
    17   Atom        0.084462      0.139841     -0.224303
    18   Atom       -0.044980     -0.000039      0.045019
    19   Atom        0.134040     -0.189499      0.055459
    20   Atom        0.132558      0.083803     -0.216362
    21   Atom        0.153710     -0.265234      0.111524
    22   Atom        0.130627     -0.261710      0.131083
 --------------------------------------------------------
                        XY            XZ            YZ
 --------------------------------------------------------
     1   Atom       -0.108640     -0.106064     -0.340275
     2   Atom        0.152516      0.096372     -0.332019
     3   Atom        0.044979     -0.011539      0.018835
     4   Atom        0.024996     -0.015393     -0.061022
     5   Atom       -0.184806      0.024016     -0.026456
     6   Atom        0.122043     -0.054252      0.020369
     7   Atom       -0.128017     -0.244452      0.599873
     8   Atom        0.168534      0.209832      0.490719
     9   Atom       -0.725099     -0.153919      0.199986
    10   Atom        0.236820      0.344561      0.188130
    11   Atom        0.055929      0.154754     -0.107175
    12   Atom       -0.122696     -0.184501     -0.097814
    13   Atom       -0.128241      0.077945      0.168599
    14   Atom       -0.016200      0.042609      0.137823
    15   Atom       -0.191636      0.026672      0.012131
    16   Atom        0.210757     -0.071049      0.048652
    17   Atom       -0.032888     -0.139385     -0.063137
    18   Atom        0.155854      0.142210     -0.128279
    19   Atom        0.022764     -0.016096      0.182259
    20   Atom       -0.003696      0.026236      0.145799
    21   Atom       -0.053649      0.009712      0.252453
    22   Atom       -0.091251      0.054690      0.210703
 --------------------------------------------------------


 ---------------------------------------------------------------------------------
              Nuclear Quadrupole in Principal Axis System
 ---------------------------------------------------------------------------------

       Atom             a.u.   MegaHertz   Gauss  10(-4) cm-1        Axes

              Baa    -0.5627   -75.512   -26.945   -25.188  0.1924  0.4134  0.8900
     1 C(13)  Bbb     0.1740    23.354     8.333     7.790  0.9462  0.1623 -0.2799
              Bcc     0.3887    52.158    18.611    17.398 -0.2602  0.8960 -0.3599
 
              Baa    -0.5769   -77.412   -27.623   -25.822 -0.1885  0.4294  0.8832
     2 C(13)  Bbb     0.1848    24.801     8.850     8.273  0.8092 -0.4417  0.3875
              Bcc     0.3921    52.611    18.773    17.549  0.5565  0.7877 -0.2642
 
              Baa    -0.0665    -8.922    -3.184    -2.976 -0.6036  0.7664 -0.2199
     3 C(13)  Bbb     0.0296     3.969     1.416     1.324  0.7757  0.5008 -0.3839
              Bcc     0.0369     4.953     1.767     1.652  0.1841  0.4023  0.8968
 
              Baa    -0.0878   -11.782    -4.204    -3.930 -0.0612  0.7488  0.6600
     4 C(13)  Bbb     0.0145     1.944     0.694     0.649  0.5938 -0.5041  0.6271
              Bcc     0.0733     9.837     3.510     3.281  0.8022  0.4303 -0.4138
 
              Baa    -0.3135   -42.075   -15.013   -14.035  0.9109  0.4120 -0.0244
     5 C(13)  Bbb     0.1170    15.696     5.601     5.235 -0.1826  0.4553  0.8714
              Bcc     0.1966    26.380     9.413     8.799 -0.3701  0.7893 -0.4899
 
              Baa    -0.2290   -30.723   -10.963   -10.248  0.8692 -0.4712  0.1494
     6 C(13)  Bbb     0.0687     9.222     3.291     3.076  0.4632  0.8820  0.0872
              Bcc     0.1602    21.501     7.672     7.172 -0.1729 -0.0066  0.9849
 
              Baa    -0.5189   -20.013    -7.141    -6.676  0.9829  0.1045  0.1516
     7 N(14)  Bbb    -0.4978   -19.198    -6.850    -6.404 -0.0221  0.8845 -0.4660
              Bcc     1.0167    39.212    13.992    13.080 -0.1828  0.4546  0.8717
 
              Baa    -0.5678   -21.899    -7.814    -7.305  0.8848 -0.4648  0.0335
     8 N(14)  Bbb    -0.3919   -15.114    -5.393    -5.042  0.4311  0.7889 -0.4379
              Bcc     0.9597    37.013    13.207    12.346  0.1771  0.4019  0.8984
 
              Baa    -0.9932    71.868    25.644    23.973  0.2260  0.8476 -0.4801
     9 O(17)  Bbb    -0.6515    47.142    16.821    15.725  0.2196  0.4359  0.8728
              Bcc     1.6447  -119.010   -42.466   -39.697  0.9490 -0.3027 -0.0876
 
              Baa    -0.9854    71.302    25.442    23.784 -0.0272  0.9045 -0.4256
    10 O(17)  Bbb    -0.5951    43.064    15.366    14.365 -0.1933  0.4130  0.8900
              Bcc     1.5805  -114.366   -40.809   -38.148  0.9808  0.1065  0.1636
 
              Baa    -0.2963  -158.087   -56.410   -52.732 -0.4040  0.2827  0.8700
    11 H(1)   Bbb     0.1422    75.895    27.081    25.316 -0.6125  0.6228 -0.4868
              Bcc     0.1540    82.193    29.328    27.417  0.6794  0.7295  0.0784
 
              Baa    -0.2963  -158.114   -56.419   -52.741  0.7332  0.3868  0.5593
    12 H(1)   Bbb     0.1423    75.904    27.085    25.319 -0.4882  0.8720  0.0370
              Bcc     0.1541    82.210    29.335    27.422 -0.4734 -0.3001  0.8281
 
              Baa    -0.2954  -157.590   -56.232   -52.566  0.3721  0.8044 -0.4631
    13 H(1)   Bbb     0.1382    73.719    26.305    24.590  0.9082 -0.4186  0.0027
              Bcc     0.1572    83.872    29.927    27.977  0.1917  0.4215  0.8863
 
              Baa    -0.2948  -157.283   -56.123   -52.464 -0.1023 -0.3378  0.9357
    14 H(1)   Bbb     0.1416    75.536    26.953    25.196  0.0662  0.9362  0.3452
              Bcc     0.1532    81.748    29.170    27.268  0.9925 -0.0973  0.0734
 
              Baa    -0.2930  -156.338   -55.785   -52.149  0.8580  0.5094 -0.0662
    15 H(1)   Bbb     0.1431    76.334    27.238    25.462 -0.3909  0.7311  0.5592
              Bcc     0.1499    80.004    28.548    26.687  0.3333 -0.4538  0.8264
 
              Baa    -0.2955  -157.641   -56.250   -52.583  0.7538 -0.6264  0.1984
    16 H(1)   Bbb     0.1392    74.296    26.511    24.782  0.2631  0.5645  0.7824
              Bcc     0.1562    83.345    29.740    27.801  0.6021  0.5376 -0.5903
 
              Baa    -0.2896  -154.502   -55.130   -51.536  0.3571  0.1626  0.9198
    17 H(1)   Bbb     0.1344    71.713    25.589    23.921  0.8212  0.4146 -0.3921
              Bcc     0.1552    82.790    29.541    27.616 -0.4451  0.8954  0.0145
 
              Baa    -0.2896  -154.500   -55.129   -51.536  0.6531 -0.5716 -0.4967
    18 H(1)   Bbb     0.1344    71.715    25.590    23.922  0.7102  0.6900  0.1397
              Bcc     0.1552    82.785    29.540    27.614  0.2629 -0.4440  0.8566
 
              Baa    -0.2884  -153.887   -54.911   -51.331 -0.0653  0.8804 -0.4697
    19 H(1)   Bbb     0.1351    72.110    25.731    24.053  0.9784  0.1491  0.1434
              Bcc     0.1533    81.778    29.180    27.278 -0.1963  0.4502  0.8711
 
              Baa    -0.2771  -147.865   -52.762   -49.323 -0.0626 -0.3744  0.9252
    20 H(1)   Bbb     0.1308    69.778    24.899    23.275  0.8827 -0.4534 -0.1237
              Bcc     0.1464    78.087    27.863    26.047  0.4657  0.8089  0.3588
 
              Baa    -0.3968  -211.724   -75.548   -70.624  0.0947  0.8909 -0.4442
    21 H(1)   Bbb     0.1558    83.147    29.669    27.735  0.9787 -0.0016  0.2053
              Bcc     0.2410   128.577    45.880    42.889 -0.1822  0.4542  0.8721
 
              Baa    -0.3754  -200.275   -71.463   -66.805  0.2042  0.8958 -0.3947
    22 H(1)   Bbb     0.1501    80.099    28.581    26.718  0.9623 -0.2576 -0.0868
              Bcc     0.2252   120.176    42.882    40.086  0.1794  0.3622  0.9147
 

 ---------------------------------------------------------------------------------

 No NMR shielding tensors so no spin-rotation constants.
 Leave Link  601 at Mon Feb 26 23:17:10 2018, MaxMem=   33554432 cpu:       1.1
 Merz-Kollman atomic radii used.
 Read replacement radii for each type of atom:
 Atom Element Radius
    1     6    1.50
    2     6    1.50
    3     6    1.50
    4     6    1.50
    5     6    1.50
    6     6    1.50
    7     7    1.50
    8     7    1.50
    9     8    1.40
   10     8    1.40
   11     1    1.20
   12     1    1.20
   13     1    1.20
   14     1    1.20
   15     1    1.20
   16     1    1.20
   17     1    1.20
   18     1    1.20
   19     1    1.20
   20     1    1.20
   21     1    1.20
   22     1    1.20
 Generate VDW surfaces: Layer= 4 Dens= 1 Start= 1.400 Inc= 0.200

 **********************************************************************

            Electrostatic Properties Using The SCF Density

 **********************************************************************

       Atomic Center    1 is at   2.319201 -0.066191 -0.235613
       Atomic Center    2 is at  -1.336191 -0.297688  0.060344
       Atomic Center    3 is at   3.361835 -1.142366  0.028963
       Atomic Center    4 is at  -0.076010  1.720906  0.956810
       Atomic Center    5 is at  -3.763240 -0.335789 -0.412524
       Atomic Center    6 is at  -0.054586  0.545854 -0.041146
       Atomic Center    7 is at  -2.449751  0.284330 -0.459697
       Atomic Center    8 is at   1.059410 -0.349493  0.197971
       Atomic Center    9 is at   2.599187  0.989070 -0.798623
       Atomic Center   10 is at  -1.336814 -1.402987  0.597847
       Atomic Center   11 is at   3.804344 -1.446408 -0.924790
       Atomic Center   12 is at   4.164368 -0.714686  0.637982
       Atomic Center   13 is at   2.962526 -2.026178  0.535769
       Atomic Center   14 is at  -0.186698  1.350468  1.981208
       Atomic Center   15 is at   0.865620  2.269013  0.873730
       Atomic Center   16 is at  -0.900726  2.411410  0.745770
       Atomic Center   17 is at  -4.150867 -0.515802 -1.421855
       Atomic Center   18 is at  -4.476396  0.291204  0.135021
       Atomic Center   19 is at  -3.655091 -1.290335  0.103542
       Atomic Center   20 is at   0.045565  0.954344 -1.054989
       Atomic Center   21 is at  -2.355365  1.184068 -0.909253
       Atomic Center   22 is at   0.810064 -1.247968  0.595144
      ESP Fit Center   23 is at   2.319201 -0.066191  1.864387
      ESP Fit Center   24 is at   2.844201  0.843135  1.583040
      ESP Fit Center   25 is at   1.269201 -0.066191 -2.054266
      ESP Fit Center   26 is at   1.794201 -0.975518 -2.054266
      ESP Fit Center   27 is at  -1.861191  0.611639  1.878997
      ESP Fit Center   28 is at  -2.386191 -0.297688  1.878997
      ESP Fit Center   29 is at  -0.811191 -1.207015 -1.758309
      ESP Fit Center   30 is at   3.361835 -1.142366  2.128963
      ESP Fit Center   31 is at   2.836835 -0.233040  1.847616
      ESP Fit Center   32 is at   2.311835 -1.142366  1.847616
      ESP Fit Center   33 is at   4.554771 -2.870632  0.028963
      ESP Fit Center   34 is at   5.221293 -2.118285  0.028963
      ESP Fit Center   35 is at   4.891784 -0.159128 -1.021037
      ESP Fit Center   36 is at   2.170871 -2.516813 -1.021037
      ESP Fit Center   37 is at  -0.334831  3.521048  2.006810
      ESP Fit Center   38 is at   1.453939  0.737668  2.006810
      ESP Fit Center   39 is at   0.177117  3.805595  0.956810
      ESP Fit Center   40 is at   0.448990  2.630233 -0.861843
      ESP Fit Center   41 is at  -3.763240 -0.335789  1.687476
      ESP Fit Center   42 is at  -5.802218 -0.838352 -0.412524
      ESP Fit Center   43 is at  -5.335113 -1.728347 -0.412524
      ESP Fit Center   44 is at  -4.022062  1.464353 -1.462524
      ESP Fit Center   45 is at  -4.954205  1.038657 -1.462524
      ESP Fit Center   46 is at  -3.007745 -1.990094 -1.462524
      ESP Fit Center   47 is at  -2.974751  1.193657  1.358956
      ESP Fit Center   48 is at  -2.708572  2.084472  0.590303
      ESP Fit Center   49 is at  -1.399751  0.284330 -2.278351
      ESP Fit Center   50 is at  -1.924751 -0.624996 -2.278351
      ESP Fit Center   51 is at  -2.449751  0.284330 -2.559697
      ESP Fit Center   52 is at   1.059410 -0.349493  2.297971
      ESP Fit Center   53 is at   2.109410 -0.349493  2.016625
      ESP Fit Center   54 is at   1.584410  0.559834  2.016625
      ESP Fit Center   55 is at   0.009410 -0.349493  2.016625
      ESP Fit Center   56 is at   0.800589 -2.149635 -0.852029
      ESP Fit Center   57 is at   0.534410 -1.258820 -1.620682
      ESP Fit Center   58 is at   1.059410 -0.349493 -1.902029
      ESP Fit Center   59 is at   3.089187  1.837774  0.898787
      ESP Fit Center   60 is at   4.296597  0.989070  0.181377
      ESP Fit Center   61 is at   3.972420  1.986782  0.181377
      ESP Fit Center   62 is at   3.123715  2.603402  0.181377
      ESP Fit Center   63 is at   4.559187  0.989070 -0.798623
      ESP Fit Center   64 is at   4.296597  1.969070 -0.798623
      ESP Fit Center   65 is at   3.579187  2.686479 -0.798623
      ESP Fit Center   66 is at   2.599187  2.949070 -0.798623
      ESP Fit Center   67 is at   1.619187  2.686479 -0.798623
      ESP Fit Center   68 is at   4.296597  0.989070 -1.778623
      ESP Fit Center   69 is at   3.972420  1.986782 -1.778623
      ESP Fit Center   70 is at   3.123715  2.603402 -1.778623
      ESP Fit Center   71 is at   2.074658  2.603402 -1.778623
      ESP Fit Center   72 is at   1.225954  1.986782 -1.778623
      ESP Fit Center   73 is at   3.972420 -0.008643 -1.778623
      ESP Fit Center   74 is at   3.579187  0.989070 -2.496033
      ESP Fit Center   75 is at   3.089187  1.837774 -2.496033
      ESP Fit Center   76 is at   2.109187  1.837774 -2.496033
      ESP Fit Center   77 is at   1.619187  0.989070 -2.496033
      ESP Fit Center   78 is at   2.109187  0.140365 -2.496033
      ESP Fit Center   79 is at   3.089187  0.140365 -2.496033
      ESP Fit Center   80 is at   2.599187  0.989070 -2.758623
      ESP Fit Center   81 is at  -1.336814 -1.402987  2.557847
      ESP Fit Center   82 is at  -0.356814 -1.402987  2.295257
      ESP Fit Center   83 is at  -0.846814 -0.554282  2.295257
      ESP Fit Center   84 is at  -1.826814 -0.554282  2.295257
      ESP Fit Center   85 is at  -2.316814 -1.402987  2.295257
      ESP Fit Center   86 is at  -1.826814 -2.251692  2.295257
      ESP Fit Center   87 is at  -0.846814 -2.251692  2.295257
      ESP Fit Center   88 is at  -2.710047 -2.400700  1.577847
      ESP Fit Center   89 is at  -1.861342 -3.017320  1.577847
      ESP Fit Center   90 is at  -0.812286 -3.017320  1.577847
      ESP Fit Center   91 is at   0.036419 -2.400700  1.577847
      ESP Fit Center   92 is at  -2.316814 -3.100397  0.597847
      ESP Fit Center   93 is at  -1.336814 -3.362987  0.597847
      ESP Fit Center   94 is at  -0.356814 -3.100397  0.597847
      ESP Fit Center   95 is at  -1.861342 -3.017320 -0.382153
      ESP Fit Center   96 is at  -0.812286 -3.017320 -0.382153
      ESP Fit Center   97 is at   0.036419 -2.400700 -0.382153
      ESP Fit Center   98 is at  -1.826814 -2.251692 -1.099562
      ESP Fit Center   99 is at  -0.846814 -2.251692 -1.099562
      ESP Fit Center  100 is at   5.402119 -1.446408 -0.405642
      ESP Fit Center  101 is at   5.028311 -2.473438 -0.405642
      ESP Fit Center  102 is at   5.402119 -1.446408 -1.443939
      ESP Fit Center  103 is at   5.028311 -0.419378 -1.443939
      ESP Fit Center  104 is at   3.005457 -2.830121 -1.443939
      ESP Fit Center  105 is at   4.081795 -3.019909 -1.443939
      ESP Fit Center  106 is at   5.028311 -2.473438 -1.443939
      ESP Fit Center  107 is at   4.791823 -1.446408 -2.283939
      ESP Fit Center  108 is at   4.109492 -0.507259 -2.283939
      ESP Fit Center  109 is at   3.005457 -0.865982 -2.283939
      ESP Fit Center  110 is at   3.005457 -2.026833 -2.283939
      ESP Fit Center  111 is at   4.109492 -2.385556 -2.283939
      ESP Fit Center  112 is at   3.804344 -1.446408 -2.604790
      ESP Fit Center  113 is at   4.164368 -0.714686  2.317982
      ESP Fit Center  114 is at   5.151847 -0.714686  1.997131
      ESP Fit Center  115 is at   4.469515  0.224462  1.997131
      ESP Fit Center  116 is at   3.365480 -0.134260  1.997131
      ESP Fit Center  117 is at   4.469515 -1.653835  1.997131
      ESP Fit Center  118 is at   5.762142 -0.714686  1.157131
      ESP Fit Center  119 is at   5.388334  0.312344  1.157131
      ESP Fit Center  120 is at   4.441818  0.858815  1.157131
      ESP Fit Center  121 is at   5.388334 -1.741716  1.157131
      ESP Fit Center  122 is at   5.762142 -0.714686  0.118834
      ESP Fit Center  123 is at   5.388334  0.312344  0.118834
      ESP Fit Center  124 is at   4.441818  0.858815  0.118834
      ESP Fit Center  125 is at   5.388334 -1.741716  0.118834
      ESP Fit Center  126 is at   2.962526 -2.026178  2.215769
      ESP Fit Center  127 is at   3.950006 -2.026178  1.894917
      ESP Fit Center  128 is at   2.163639 -1.445753  1.894917
      ESP Fit Center  129 is at   2.163639 -2.606604  1.894917
      ESP Fit Center  130 is at   3.267674 -2.965327  1.894917
      ESP Fit Center  131 is at   2.163639 -3.409892  1.054917
      ESP Fit Center  132 is at   3.239977 -3.599680  1.054917
      ESP Fit Center  133 is at   4.186493 -3.053208  1.054917
      ESP Fit Center  134 is at   2.163639 -3.409892  0.016620
      ESP Fit Center  135 is at   3.239977 -3.599680  0.016620
      ESP Fit Center  136 is at  -0.186698  1.350468  3.661208
      ESP Fit Center  137 is at   0.800781  1.350468  3.340357
      ESP Fit Center  138 is at   0.118450  2.289617  3.340357
      ESP Fit Center  139 is at  -0.985586  1.930894  3.340357
      ESP Fit Center  140 is at  -0.985586  0.770043  3.340357
      ESP Fit Center  141 is at   0.118450  0.411320  3.340357
      ESP Fit Center  142 is at   1.411077  1.350468  2.500357
      ESP Fit Center  143 is at  -1.688115  1.896940  2.500357
      ESP Fit Center  144 is at  -1.688115  0.803997  2.500357
      ESP Fit Center  145 is at  -0.985586 -0.033245  2.500357
      ESP Fit Center  146 is at   0.090753 -0.223033  2.500357
      ESP Fit Center  147 is at   1.037268  0.323438  2.500357
      ESP Fit Center  148 is at   1.853100  2.269013  2.232878
      ESP Fit Center  149 is at   1.170768  3.208162  2.232878
      ESP Fit Center  150 is at   2.463395  2.269013  1.392878
      ESP Fit Center  151 is at   2.089587  3.296043  1.392878
      ESP Fit Center  152 is at   1.143071  3.842515  1.392878
      ESP Fit Center  153 is at   2.089587  1.241984  1.392878
      ESP Fit Center  154 is at   2.089587  3.296043  0.354581
      ESP Fit Center  155 is at   1.143071  3.842515  0.354581
      ESP Fit Center  156 is at   1.170768  3.208162 -0.485419
      ESP Fit Center  157 is at  -1.699613  2.991836  2.104919
      ESP Fit Center  158 is at  -0.623275  3.984911  1.264919
      ESP Fit Center  159 is at  -1.699613  3.795124  1.264919
      ESP Fit Center  160 is at  -2.402143  2.957881  1.264919
      ESP Fit Center  161 is at  -2.402143  1.864939  1.264919
      ESP Fit Center  162 is at  -0.623275  3.984911  0.226622
      ESP Fit Center  163 is at  -1.699613  3.795124  0.226622
      ESP Fit Center  164 is at  -2.402143  2.957881  0.226622
      ESP Fit Center  165 is at  -0.595578  3.350559 -0.613378
      ESP Fit Center  166 is at  -1.699613  2.991836 -0.613378
      ESP Fit Center  167 is at  -0.900726  2.411410 -0.934230
      ESP Fit Center  168 is at  -4.949754  0.867912 -1.941004
      ESP Fit Center  169 is at  -5.652284  0.030669 -1.941004
      ESP Fit Center  170 is at  -5.652284 -1.062273 -1.941004
      ESP Fit Center  171 is at  -4.949754 -1.899516 -1.941004
      ESP Fit Center  172 is at  -3.873416 -2.089303 -1.941004
      ESP Fit Center  173 is at  -2.926900 -1.542832 -1.941004
      ESP Fit Center  174 is at  -3.163388 -0.515802 -2.781004
      ESP Fit Center  175 is at  -3.845719  0.423346 -2.781004
      ESP Fit Center  176 is at  -4.949754  0.064624 -2.781004
      ESP Fit Center  177 is at  -4.949754 -1.096228 -2.781004
      ESP Fit Center  178 is at  -3.845719 -1.454951 -2.781004
      ESP Fit Center  179 is at  -4.150867 -0.515802 -3.101855
      ESP Fit Center  180 is at  -4.476396  0.291204  1.815021
      ESP Fit Center  181 is at  -4.171248  1.230352  1.494169
      ESP Fit Center  182 is at  -5.275283  0.871630  1.494169
      ESP Fit Center  183 is at  -5.275283 -0.289222  1.494169
      ESP Fit Center  184 is at  -4.198945  1.864705  0.654169
      ESP Fit Center  185 is at  -5.275283  1.674918  0.654169
      ESP Fit Center  186 is at  -5.977813  0.837675  0.654169
      ESP Fit Center  187 is at  -5.977813 -0.255267  0.654169
      ESP Fit Center  188 is at  -4.198945  1.864705 -0.384128
      ESP Fit Center  189 is at  -5.275283  1.674918 -0.384128
      ESP Fit Center  190 is at  -5.977813  0.837675 -0.384128
      ESP Fit Center  191 is at  -5.977813 -0.255267 -0.384128
      ESP Fit Center  192 is at  -3.655091 -1.290335  1.783542
      ESP Fit Center  193 is at  -4.453979 -1.870761  1.462691
      ESP Fit Center  194 is at  -3.349944 -2.229484  1.462691
      ESP Fit Center  195 is at  -5.156509 -1.836806  0.622691
      ESP Fit Center  196 is at  -4.453979 -2.674049  0.622691
      ESP Fit Center  197 is at  -3.377641 -2.863836  0.622691
      ESP Fit Center  198 is at  -4.453979 -2.674049 -0.415606
      ESP Fit Center  199 is at  -3.377641 -2.863836 -0.415606
      ESP Fit Center  200 is at  -3.349944 -2.229484 -1.255606
      ESP Fit Center  201 is at   0.323016  2.527846 -1.574138
      ESP Fit Center  202 is at  -0.753322  2.338058 -1.574138
      ESP Fit Center  203 is at   1.033045  0.954344 -2.414138
      ESP Fit Center  204 is at   0.350713  1.893493 -2.414138
      ESP Fit Center  205 is at  -0.753322  1.534770 -2.414138
      ESP Fit Center  206 is at  -0.753322  0.373919 -2.414138
      ESP Fit Center  207 is at   0.350713  0.015196 -2.414138
      ESP Fit Center  208 is at   0.045565  0.954344 -2.734989
      ESP Fit Center  209 is at  -3.154252  2.567782 -0.390105
      ESP Fit Center  210 is at  -1.131398  2.211098 -1.428402
      ESP Fit Center  211 is at  -2.077914  2.757569 -1.428402
      ESP Fit Center  212 is at  -3.154252  2.567782 -1.428402
      ESP Fit Center  213 is at  -3.856782  1.730539 -1.428402
      ESP Fit Center  214 is at  -1.367886  1.184068 -2.268402
      ESP Fit Center  215 is at  -2.050217  2.123217 -2.268402
      ESP Fit Center  216 is at  -3.154252  1.764494 -2.268402
      ESP Fit Center  217 is at  -2.355365  1.184068 -2.589253
      ESP Fit Center  218 is at   0.810064 -1.247968  2.275144
      ESP Fit Center  219 is at   1.797544 -1.247968  1.954293
      ESP Fit Center  220 is at   1.115212 -2.187117  1.954293
      ESP Fit Center  221 is at   1.087515 -2.821469  1.114293
      ESP Fit Center  222 is at   1.087515 -2.821469  0.075995
      ESP Fit Center  223 is at   2.839862  0.835619  1.926712
      ESP Fit Center  224 is at   1.277880 -0.066191 -2.397938
      ESP Fit Center  225 is at   1.798541 -0.968002 -2.397938
      ESP Fit Center  226 is at  -0.556708 -2.004518 -1.436031
      ESP Fit Center  227 is at  -0.815530 -1.199499 -2.101981
      ESP Fit Center  228 is at   3.361835 -1.142366  2.428963
      ESP Fit Center  229 is at   2.841175 -0.240556  2.191288
      ESP Fit Center  230 is at   2.320514 -1.142366  2.191288
      ESP Fit Center  231 is at   4.820694 -2.971717  0.563013
      ESP Fit Center  232 is at   5.469947 -2.157579  0.563013
      ESP Fit Center  233 is at   5.701662 -1.142366 -0.505087
      ESP Fit Center  234 is at   4.820694  0.686984 -0.505087
      ESP Fit Center  235 is at   3.882496 -3.423529 -0.505087
      ESP Fit Center  236 is at   2.133058 -2.560452 -1.467412
      ESP Fit Center  237 is at   0.703473  3.427735  2.453186
      ESP Fit Center  238 is at  -0.343049  3.578202  2.453186
      ESP Fit Center  239 is at  -1.876398  2.249548  2.453186
      ESP Fit Center  240 is at  -3.763240 -0.335789  1.987476
      ESP Fit Center  241 is at  -5.871352 -1.351002  0.121526
      ESP Fit Center  242 is at  -4.283901  1.945373 -0.946574
      ESP Fit Center  243 is at  -6.103067 -0.335789 -0.946574
      ESP Fit Center  244 is at  -5.871352 -1.351002 -0.946574
      ESP Fit Center  245 is at  -5.222099 -2.165140 -0.946574
      ESP Fit Center  246 is at  -4.030279  1.521507 -1.908899
      ESP Fit Center  247 is at  -2.983758 -2.042619 -1.908899
      ESP Fit Center  248 is at  -2.970411  1.186141  1.702628
      ESP Fit Center  249 is at  -1.408430  0.284330 -2.622022
      ESP Fit Center  250 is at  -1.929090 -0.617480 -2.622022
      ESP Fit Center  251 is at  -2.449751  0.284330 -2.859697
      ESP Fit Center  252 is at   1.059410 -0.349493  2.597971
      ESP Fit Center  253 is at   2.100731 -0.349493  2.360297
      ESP Fit Center  254 is at   1.580070  0.552317  2.360297
      ESP Fit Center  255 is at   1.580070 -1.251304  2.360297
      ESP Fit Center  256 is at   0.792371 -2.206790 -1.298404
      ESP Fit Center  257 is at   0.538749 -1.251304 -1.964354
      ESP Fit Center  258 is at   3.085137  1.830759  1.219547
      ESP Fit Center  259 is at   4.016020  2.018459  0.597994
      ESP Fit Center  260 is at   3.140369  2.654657  0.597994
      ESP Fit Center  261 is at   4.783025  0.989070 -0.300176
      ESP Fit Center  262 is at   4.532880  2.003950 -0.300176
      ESP Fit Center  263 is at   3.839749  2.786333 -0.300176
      ESP Fit Center  264 is at   2.862420  3.156985 -0.300176
      ESP Fit Center  265 is at   4.783025  0.989070 -1.297070
      ESP Fit Center  266 is at   4.532880  2.003950 -1.297070
      ESP Fit Center  267 is at   3.839749  2.786333 -1.297070
      ESP Fit Center  268 is at   2.862420  3.156985 -1.297070
      ESP Fit Center  269 is at   1.824787  3.030994 -1.297070
      ESP Fit Center  270 is at   4.350489  0.989070 -2.195240
      ESP Fit Center  271 is at   4.016020  2.018459 -2.195240
      ESP Fit Center  272 is at   3.140369  2.654657 -2.195240
      ESP Fit Center  273 is at   2.058005  2.654657 -2.195240
      ESP Fit Center  274 is at   1.182353  2.018459 -2.195240
      ESP Fit Center  275 is at   3.571086  0.989070 -2.816793
      ESP Fit Center  276 is at   3.085137  1.830759 -2.816793
      ESP Fit Center  277 is at   2.113237  1.830759 -2.816793
      ESP Fit Center  278 is at   1.627287  0.989070 -2.816793
      ESP Fit Center  279 is at   2.113237  0.147380 -2.816793
      ESP Fit Center  280 is at   3.085137  0.147380 -2.816793
      ESP Fit Center  281 is at   2.599187  0.989070 -3.038623
      ESP Fit Center  282 is at  -1.336814 -1.402987  2.837847
      ESP Fit Center  283 is at  -0.364914 -1.402987  2.616018
      ESP Fit Center  284 is at  -0.850864 -0.561298  2.616018
      ESP Fit Center  285 is at  -1.822764 -0.561298  2.616018
      ESP Fit Center  286 is at  -2.308714 -1.402987  2.616018
      ESP Fit Center  287 is at  -1.822764 -2.244677  2.616018
      ESP Fit Center  288 is at  -0.850864 -2.244677  2.616018
      ESP Fit Center  289 is at  -3.088116 -1.402987  1.994465
      ESP Fit Center  290 is at  -2.753647 -2.432377  1.994465
      ESP Fit Center  291 is at  -1.877996 -3.068575  1.994465
      ESP Fit Center  292 is at  -0.795632 -3.068575  1.994465
      ESP Fit Center  293 is at   0.080020 -2.432377  1.994465
      ESP Fit Center  294 is at  -2.971441 -2.851140  1.096294
      ESP Fit Center  295 is at  -2.111214 -3.444912  1.096294
      ESP Fit Center  296 is at  -1.073581 -3.570903  1.096294
      ESP Fit Center  297 is at  -0.096252 -3.200251  1.096294
      ESP Fit Center  298 is at  -2.111214 -3.444912  0.099400
      ESP Fit Center  299 is at  -1.073581 -3.570903  0.099400
      ESP Fit Center  300 is at  -0.096252 -3.200251  0.099400
      ESP Fit Center  301 is at  -1.877996 -3.068575 -0.798770
      ESP Fit Center  302 is at  -0.795632 -3.068575 -0.798770
      ESP Fit Center  303 is at   0.080020 -2.432377 -0.798770
      ESP Fit Center  304 is at  -1.822764 -2.244677 -1.420323
      ESP Fit Center  305 is at  -0.850864 -2.244677 -1.420323
      ESP Fit Center  306 is at   5.724344 -1.446408 -0.924790
      ESP Fit Center  307 is at   5.467113 -0.486408 -0.924790
      ESP Fit Center  308 is at   3.804344 -3.366408 -0.924790
      ESP Fit Center  309 is at   4.764344 -3.109176 -0.924790
      ESP Fit Center  310 is at   5.467113 -2.406408 -0.924790
      ESP Fit Center  311 is at   5.467113 -1.446408 -1.884790
      ESP Fit Center  312 is at   5.149552 -0.469057 -1.884790
      ESP Fit Center  313 is at   2.459136 -2.423759 -1.884790
      ESP Fit Center  314 is at   3.290520 -3.027795 -1.884790
      ESP Fit Center  315 is at   4.318168 -3.027795 -1.884790
      ESP Fit Center  316 is at   5.149552 -2.423759 -1.884790
      ESP Fit Center  317 is at   4.764344 -1.446408 -2.587559
      ESP Fit Center  318 is at   4.284344 -0.615023 -2.587559
      ESP Fit Center  319 is at   3.324344 -0.615023 -2.587559
      ESP Fit Center  320 is at   2.844344 -1.446408 -2.587559
      ESP Fit Center  321 is at   3.324344 -2.277792 -2.587559
      ESP Fit Center  322 is at   4.284344 -2.277792 -2.587559
      ESP Fit Center  323 is at   3.804344 -1.446408 -2.844790
      ESP Fit Center  324 is at   4.164368 -0.714686  2.557982
      ESP Fit Center  325 is at   5.124368 -0.714686  2.300751
      ESP Fit Center  326 is at   4.644368  0.116698  2.300751
      ESP Fit Center  327 is at   3.684368  0.116698  2.300751
      ESP Fit Center  328 is at   4.644368 -1.546070  2.300751
      ESP Fit Center  329 is at   5.827136 -0.714686  1.597982
      ESP Fit Center  330 is at   5.509576  0.262665  1.597982
      ESP Fit Center  331 is at   4.678191  0.866701  1.597982
      ESP Fit Center  332 is at   3.650544  0.866701  1.597982
      ESP Fit Center  333 is at   5.509576 -1.692037  1.597982
      ESP Fit Center  334 is at   6.084368 -0.714686  0.637982
      ESP Fit Center  335 is at   5.827136  0.245314  0.637982
      ESP Fit Center  336 is at   5.124368  0.948083  0.637982
      ESP Fit Center  337 is at   5.827136 -1.674686  0.637982
      ESP Fit Center  338 is at   5.827136 -0.714686 -0.322018
      ESP Fit Center  339 is at   5.509576  0.262665 -0.322018
      ESP Fit Center  340 is at   2.962526 -2.026178  2.455769
      ESP Fit Center  341 is at   3.922526 -2.026178  2.198537
      ESP Fit Center  342 is at   2.002526 -2.026178  2.198537
      ESP Fit Center  343 is at   2.482526 -2.857563  2.198537
      ESP Fit Center  344 is at   3.442526 -2.857563  2.198537
      ESP Fit Center  345 is at   1.617318 -3.003529  1.495769
      ESP Fit Center  346 is at   2.448703 -3.607565  1.495769
      ESP Fit Center  347 is at   3.476350 -3.607565  1.495769
      ESP Fit Center  348 is at   4.307735 -3.003529  1.495769
      ESP Fit Center  349 is at   2.002526 -3.688947  0.535769
      ESP Fit Center  350 is at   2.962526 -3.946178  0.535769
      ESP Fit Center  351 is at   3.922526 -3.688947  0.535769
      ESP Fit Center  352 is at   1.617318 -3.003529 -0.424231
      ESP Fit Center  353 is at   2.448703 -3.607565 -0.424231
      ESP Fit Center  354 is at   3.476350 -3.607565 -0.424231
      ESP Fit Center  355 is at  -0.186698  1.350468  3.901208
      ESP Fit Center  356 is at   0.773302  1.350468  3.643977
      ESP Fit Center  357 is at   0.293302  2.181853  3.643977
      ESP Fit Center  358 is at  -0.666698  2.181853  3.643977
      ESP Fit Center  359 is at  -1.146698  1.350468  3.643977
      ESP Fit Center  360 is at  -0.666698  0.519084  3.643977
      ESP Fit Center  361 is at   0.293302  0.519084  3.643977
      ESP Fit Center  362 is at   1.476071  1.350468  2.941208
      ESP Fit Center  363 is at   1.158510  2.327819  2.941208
      ESP Fit Center  364 is at  -0.700522  2.931855  2.941208
      ESP Fit Center  365 is at  -1.531906  2.327819  2.941208
      ESP Fit Center  366 is at  -1.849467  1.350468  2.941208
      ESP Fit Center  367 is at  -1.531906  0.373117  2.941208
      ESP Fit Center  368 is at  -0.700522 -0.230919  2.941208
      ESP Fit Center  369 is at   0.327126 -0.230919  2.941208
      ESP Fit Center  370 is at   1.158510  0.373117  2.941208
      ESP Fit Center  371 is at   1.825620  2.269013  2.536499
      ESP Fit Center  372 is at   1.345620  3.100398  2.536499
      ESP Fit Center  373 is at   2.528389  2.269013  1.833730
      ESP Fit Center  374 is at   2.210829  3.246364  1.833730
      ESP Fit Center  375 is at   1.379444  3.850401  1.833730
      ESP Fit Center  376 is at   2.210829  1.291663  1.833730
      ESP Fit Center  377 is at   2.528389  3.229013  0.873730
      ESP Fit Center  378 is at   1.825620  3.931782  0.873730
      ESP Fit Center  379 is at   0.865620  4.189013  0.873730
      ESP Fit Center  380 is at   2.210829  3.246364 -0.086270
      ESP Fit Center  381 is at   1.379444  3.850401 -0.086270
      ESP Fit Center  382 is at   0.351797  3.850401 -0.086270
      ESP Fit Center  383 is at   1.345620  3.100398 -0.789039
      ESP Fit Center  384 is at  -1.380726  3.242795  2.408539
      ESP Fit Center  385 is at  -1.860726  2.411410  2.408539
      ESP Fit Center  386 is at  -0.386902  3.992797  1.705770
      ESP Fit Center  387 is at  -1.414549  3.992797  1.705770
      ESP Fit Center  388 is at  -2.245934  3.388761  1.705770
      ESP Fit Center  389 is at  -2.563494  2.411410  1.705770
      ESP Fit Center  390 is at  -0.900726  4.331410  0.745770
      ESP Fit Center  391 is at  -1.860726  4.074179  0.745770
      ESP Fit Center  392 is at  -2.563494  3.371410  0.745770
      ESP Fit Center  393 is at  -2.820726  2.411410  0.745770
      ESP Fit Center  394 is at  -0.386902  3.992797 -0.214230
      ESP Fit Center  395 is at  -1.414549  3.992797 -0.214230
      ESP Fit Center  396 is at  -2.245934  3.388761 -0.214230
      ESP Fit Center  397 is at  -0.420726  3.242795 -0.916999
      ESP Fit Center  398 is at  -1.380726  3.242795 -0.916999
      ESP Fit Center  399 is at  -5.813635  0.444198 -1.421855
      ESP Fit Center  400 is at  -6.070867 -0.515802 -1.421855
      ESP Fit Center  401 is at  -5.813635 -1.475802 -1.421855
      ESP Fit Center  402 is at  -5.110867 -2.178571 -1.421855
      ESP Fit Center  403 is at  -4.664691  1.065585 -2.381855
      ESP Fit Center  404 is at  -5.496075  0.461549 -2.381855
      ESP Fit Center  405 is at  -5.813635 -0.515802 -2.381855
      ESP Fit Center  406 is at  -5.496075 -1.493153 -2.381855
      ESP Fit Center  407 is at  -4.664691 -2.097189 -2.381855
      ESP Fit Center  408 is at  -3.637043 -2.097189 -2.381855
      ESP Fit Center  409 is at  -2.805659 -1.493153 -2.381855
      ESP Fit Center  410 is at  -3.190867 -0.515802 -3.084624
      ESP Fit Center  411 is at  -3.670867  0.315582 -3.084624
      ESP Fit Center  412 is at  -4.630867  0.315582 -3.084624
      ESP Fit Center  413 is at  -5.110867 -0.515802 -3.084624
      ESP Fit Center  414 is at  -4.630867 -1.347187 -3.084624
      ESP Fit Center  415 is at  -3.670867 -1.347187 -3.084624
      ESP Fit Center  416 is at  -4.150867 -0.515802 -3.341855
      ESP Fit Center  417 is at  -4.476396  0.291204  2.055021
      ESP Fit Center  418 is at  -3.996396  1.122588  1.797789
      ESP Fit Center  419 is at  -4.956396  1.122588  1.797789
      ESP Fit Center  420 is at  -5.436396  0.291204  1.797789
      ESP Fit Center  421 is at  -4.956396 -0.540181  1.797789
      ESP Fit Center  422 is at  -3.962572  1.872591  1.095021
      ESP Fit Center  423 is at  -4.990220  1.872591  1.095021
      ESP Fit Center  424 is at  -5.821604  1.268555  1.095021
      ESP Fit Center  425 is at  -6.139165  0.291204  1.095021
      ESP Fit Center  426 is at  -5.821604 -0.686147  1.095021
      ESP Fit Center  427 is at  -4.476396  2.211204  0.135021
      ESP Fit Center  428 is at  -5.436396  1.953973  0.135021
      ESP Fit Center  429 is at  -6.139165  1.251204  0.135021
      ESP Fit Center  430 is at  -6.396396  0.291204  0.135021
      ESP Fit Center  431 is at  -6.139165 -0.668796  0.135021
      ESP Fit Center  432 is at  -4.990220  1.872591 -0.824979
      ESP Fit Center  433 is at  -5.821604  1.268555 -0.824979
      ESP Fit Center  434 is at  -6.139165  0.291204 -0.824979
      ESP Fit Center  435 is at  -3.655091 -1.290335  2.023542
      ESP Fit Center  436 is at  -4.615091 -1.290335  1.766311
      ESP Fit Center  437 is at  -4.135091 -2.121720  1.766311
      ESP Fit Center  438 is at  -3.175091 -2.121720  1.766311
      ESP Fit Center  439 is at  -5.000300 -2.267686  1.063542
      ESP Fit Center  440 is at  -4.168915 -2.871722  1.063542
      ESP Fit Center  441 is at  -3.141268 -2.871722  1.063542
      ESP Fit Center  442 is at  -5.317860 -2.250335  0.103542
      ESP Fit Center  443 is at  -4.615091 -2.953104  0.103542
      ESP Fit Center  444 is at  -3.655091 -3.210335  0.103542
      ESP Fit Center  445 is at  -4.168915 -2.871722 -0.856458
      ESP Fit Center  446 is at  -3.141268 -2.871722 -0.856458
      ESP Fit Center  447 is at   1.005565  2.617113 -1.054989
      ESP Fit Center  448 is at   0.559389  2.535731 -2.014989
      ESP Fit Center  449 is at  -0.468258  2.535731 -2.014989
      ESP Fit Center  450 is at   1.005565  0.954344 -2.717758
      ESP Fit Center  451 is at   0.525565  1.785729 -2.717758
      ESP Fit Center  452 is at  -0.434435  1.785729 -2.717758
      ESP Fit Center  453 is at  -0.914435  0.954344 -2.717758
      ESP Fit Center  454 is at  -0.434435  0.122960 -2.717758
      ESP Fit Center  455 is at   0.525565  0.122960 -2.717758
      ESP Fit Center  456 is at   0.045565  0.954344 -2.974989
      ESP Fit Center  457 is at  -2.869189  2.765455  0.050747
      ESP Fit Center  458 is at  -2.355365  3.104068 -0.909253
      ESP Fit Center  459 is at  -3.315365  2.846837 -0.909253
      ESP Fit Center  460 is at  -4.018134  2.144068 -0.909253
      ESP Fit Center  461 is at  -1.841541  2.765455 -1.869253
      ESP Fit Center  462 is at  -2.869189  2.765455 -1.869253
      ESP Fit Center  463 is at  -3.700573  2.161419 -1.869253
      ESP Fit Center  464 is at  -1.395365  1.184068 -2.572022
      ESP Fit Center  465 is at  -1.875365  2.015453 -2.572022
      ESP Fit Center  466 is at  -2.835365  2.015453 -2.572022
      ESP Fit Center  467 is at  -3.315365  1.184068 -2.572022
      ESP Fit Center  468 is at  -2.355365  1.184068 -2.829253
      ESP Fit Center  469 is at   0.810064 -1.247968  2.515144
      ESP Fit Center  470 is at   0.330064 -2.079352  2.257913
      ESP Fit Center  471 is at   1.290064 -2.079352  2.257913
      ESP Fit Center  472 is at   0.296241 -2.829355  1.555144
      ESP Fit Center  473 is at   1.323888 -2.829355  1.555144
      ESP Fit Center  474 is at   0.810064 -3.167968  0.595144
      ESP Fit Center  475 is at   0.296241 -2.829355 -0.364856
      ESP Fit Center  476 is at   1.323888 -2.829355 -0.364856
      ESP Fit Center  477 is at   2.835824  0.828625  2.258862
      ESP Fit Center  478 is at   3.112307  1.670467  1.673575
      ESP Fit Center  479 is at   1.285956 -0.066191 -2.730088
      ESP Fit Center  480 is at   1.802579 -0.961008 -2.730088
      ESP Fit Center  481 is at  -1.607896 -2.187444 -1.848844
      ESP Fit Center  482 is at  -0.543085 -2.034347 -1.848844
      ESP Fit Center  483 is at  -0.819568 -1.192505 -2.434131
      ESP Fit Center  484 is at   3.361835 -1.142366  2.728963
      ESP Fit Center  485 is at   2.845213 -0.247550  2.523438
      ESP Fit Center  486 is at   2.328590 -1.142366  2.523438
      ESP Fit Center  487 is at   3.878458 -2.037183  2.523438
      ESP Fit Center  488 is at   4.917115 -3.092625  1.062208
      ESP Fit Center  489 is at   4.395081 -3.636841  0.028963
      ESP Fit Center  490 is at   5.271024 -3.051555  0.028963
      ESP Fit Center  491 is at   5.856310 -2.175612  0.028963
      ESP Fit Center  492 is at   5.609279 -0.060054 -1.004282
      ESP Fit Center  493 is at   1.806556 -3.092625 -1.004282
      ESP Fit Center  494 is at   2.806762 -3.574299 -1.004282
      ESP Fit Center  495 is at   2.111583 -2.585235 -1.880225
      ESP Fit Center  496 is at   1.833178  1.720906  2.865999
      ESP Fit Center  497 is at   0.717096  3.457565  2.865999
      ESP Fit Center  498 is at  -0.347716  3.610661  2.865999
      ESP Fit Center  499 is at  -1.326262  3.163774  2.865999
      ESP Fit Center  500 is at   0.479063  4.152839  1.990056
      ESP Fit Center  501 is at  -2.570485  1.720906  1.990056
      ESP Fit Center  502 is at  -0.076010  4.420906  0.956810
      ESP Fit Center  503 is at   0.717096  3.457565 -0.952378
      ESP Fit Center  504 is at  -3.763240 -0.335789  2.287476
      ESP Fit Center  505 is at  -6.010685 -1.418101  0.620721
      ESP Fit Center  506 is at  -6.257715 -1.369034 -0.412524
      ESP Fit Center  507 is at  -5.672429 -2.244977 -0.412524
      ESP Fit Center  508 is at  -4.318313  2.096144 -1.445769
      ESP Fit Center  509 is at  -5.318520  1.614470 -1.445769
      ESP Fit Center  510 is at  -6.010685  0.746523 -1.445769
      ESP Fit Center  511 is at  -4.318313 -2.767722 -1.445769
      ESP Fit Center  512 is at  -3.208168 -2.767722 -1.445769
      ESP Fit Center  513 is at  -4.034946  1.553966 -2.321712
      ESP Fit Center  514 is at  -2.966373  1.179147  2.034778
      ESP Fit Center  515 is at  -1.656645 -1.452328 -2.368885
      ESP Fit Center  516 is at  -1.416506  0.284330 -2.954172
      ESP Fit Center  517 is at  -1.933128 -0.610486 -2.954172
      ESP Fit Center  518 is at  -2.449751  0.284330 -3.159697
      ESP Fit Center  519 is at   1.059410 -0.349493  2.897971
      ESP Fit Center  520 is at   2.092655 -0.349493  2.692446
      ESP Fit Center  521 is at   1.576033 -1.244310  2.692446
      ESP Fit Center  522 is at   0.787704 -2.239249 -1.711217
      ESP Fit Center  523 is at   0.542787 -1.244310 -2.296503
      ESP Fit Center  524 is at   3.145880  1.935970  1.471818
      ESP Fit Center  525 is at   4.256638  2.054248  0.772571
      ESP Fit Center  526 is at   3.417644  2.781240  0.772571
      ESP Fit Center  527 is at   4.812704  2.055043 -0.237870
      ESP Fit Center  528 is at   4.130988  2.909887 -0.237870
      ESP Fit Center  529 is at   3.145880  3.384290 -0.237870
      ESP Fit Center  530 is at   5.056005  0.989070 -1.359376
      ESP Fit Center  531 is at   4.812704  2.055043 -1.359376
      ESP Fit Center  532 is at   4.130988  2.909887 -1.359376
      ESP Fit Center  533 is at   3.145880  3.384290 -1.359376
      ESP Fit Center  534 is at   2.052493  3.384290 -1.359376
      ESP Fit Center  535 is at   1.067386  2.909887 -1.359376
      ESP Fit Center  536 is at   4.569402  0.989070 -2.369818
      ESP Fit Center  537 is at   4.256638  2.054248 -2.369818
      ESP Fit Center  538 is at   3.417644  2.781240 -2.369818
      ESP Fit Center  539 is at   2.318796  2.939231 -2.369818
      ESP Fit Center  540 is at   1.308970  2.478059 -2.369818
      ESP Fit Center  541 is at   3.692574  0.989070 -3.069065
      ESP Fit Center  542 is at   3.145880  1.935970 -3.069065
      ESP Fit Center  543 is at   2.052493  1.935970 -3.069065
      ESP Fit Center  544 is at   1.505800  0.989070 -3.069065
      ESP Fit Center  545 is at   2.052493  0.042169 -3.069065
      ESP Fit Center  546 is at   3.145880  0.042169 -3.069065
      ESP Fit Center  547 is at   2.599187  0.989070 -3.318623
      ESP Fit Center  548 is at  -1.336814 -1.402987  3.117847
      ESP Fit Center  549 is at  -0.243427 -1.402987  2.868289
      ESP Fit Center  550 is at  -1.883507 -0.456086  2.868289
      ESP Fit Center  551 is at  -2.430201 -1.402987  2.868289
      ESP Fit Center  552 is at  -1.883507 -2.349888  2.868289
      ESP Fit Center  553 is at  -0.790120 -2.349888  2.868289
      ESP Fit Center  554 is at  -3.227222 -1.958061  2.169042
      ESP Fit Center  555 is at  -2.627031 -2.891977  2.169042
      ESP Fit Center  556 is at  -1.617205 -3.353149  2.169042
      ESP Fit Center  557 is at  -0.518357 -3.195158  2.169042
      ESP Fit Center  558 is at  -2.868615 -3.323805  1.158600
      ESP Fit Center  559 is at  -1.883507 -3.798208  1.158600
      ESP Fit Center  560 is at  -0.790120 -3.798208  1.158600
      ESP Fit Center  561 is at   0.194987 -3.323805  1.158600
      ESP Fit Center  562 is at  -2.868615 -3.323805  0.037095
      ESP Fit Center  563 is at  -1.883507 -3.798208  0.037095
      ESP Fit Center  564 is at  -0.790120 -3.798208  0.037095
      ESP Fit Center  565 is at   0.194987 -3.323805  0.037095
      ESP Fit Center  566 is at  -2.627031 -2.891977 -0.973347
      ESP Fit Center  567 is at  -1.617205 -3.353149 -0.973347
      ESP Fit Center  568 is at  -0.518357 -3.195158 -0.973347
      ESP Fit Center  569 is at  -1.883507 -2.349888 -1.672594
      ESP Fit Center  570 is at  -0.790120 -2.349888 -1.672594
      ESP Fit Center  571 is at   5.964344 -1.446408 -0.924790
      ESP Fit Center  572 is at   4.064703 -3.590659 -0.924790
      ESP Fit Center  573 is at   5.031364 -3.224053 -0.924790
      ESP Fit Center  574 is at   5.716929 -2.450210 -0.924790
      ESP Fit Center  575 is at   5.674959 -1.446408 -2.004790
      ESP Fit Center  576 is at   5.378006 -0.435077 -2.004790
      ESP Fit Center  577 is at   2.579352 -2.860124 -2.004790
      ESP Fit Center  578 is at   3.538128 -3.297982 -2.004790
      ESP Fit Center  579 is at   4.581426 -3.147979 -2.004790
      ESP Fit Center  580 is at   5.378006 -2.457738 -2.004790
      ESP Fit Center  581 is at   4.884344 -1.446408 -2.795405
      ESP Fit Center  582 is at   4.344344 -0.511100 -2.795405
      ESP Fit Center  583 is at   3.264344 -0.511100 -2.795405
      ESP Fit Center  584 is at   2.724344 -1.446408 -2.795405
      ESP Fit Center  585 is at   3.264344 -2.381715 -2.795405
      ESP Fit Center  586 is at   4.344344 -2.381715 -2.795405
      ESP Fit Center  587 is at   3.804344 -1.446408 -3.084790
      ESP Fit Center  588 is at   4.164368 -0.714686  2.797982
      ESP Fit Center  589 is at   5.244368 -0.714686  2.508597
      ESP Fit Center  590 is at   4.704368  0.220621  2.508597
      ESP Fit Center  591 is at   3.624368  0.220621  2.508597
      ESP Fit Center  592 is at   4.704368 -1.649994  2.508597
[...]
  282 Fit      -0.028309
  283 Fit      -0.021803
  284 Fit      -0.014901
  285 Fit      -0.018565
  286 Fit      -0.028595
  287 Fit      -0.034476
  288 Fit      -0.031175
  289 Fit      -0.021669
  290 Fit      -0.032495
  291 Fit      -0.036914
  292 Fit      -0.032747
  293 Fit      -0.016550
  294 Fit      -0.028516
  295 Fit      -0.036550
  296 Fit      -0.034587
  297 Fit      -0.022341
  298 Fit      -0.033858
  299 Fit      -0.032789
  300 Fit      -0.021219
  301 Fit      -0.028424
  302 Fit      -0.026319
  303 Fit      -0.013021
  304 Fit      -0.016086
  305 Fit      -0.015221
  306 Fit       0.002057
  307 Fit      -0.005472
  308 Fit       0.007523
  309 Fit       0.007179
  310 Fit       0.005693
  311 Fit       0.002077
  312 Fit      -0.008122
  313 Fit       0.006738
  314 Fit       0.007152
  315 Fit       0.007719
  316 Fit       0.006514
  317 Fit       0.001826
  318 Fit      -0.008869
  319 Fit      -0.011915
  320 Fit       0.001421
  321 Fit       0.005694
  322 Fit       0.006160
  323 Fit       0.000915
  324 Fit       0.006987
  325 Fit       0.007585
  326 Fit       0.005507
  327 Fit       0.005114
  328 Fit       0.007629
  329 Fit       0.006740
  330 Fit       0.003729
  331 Fit      -0.001503
  332 Fit      -0.002234
  333 Fit       0.007365
  334 Fit       0.003821
  335 Fit      -0.000630
  336 Fit      -0.009981
  337 Fit       0.005548
  338 Fit      -0.000544
  339 Fit      -0.009799
  340 Fit       0.009253
  341 Fit       0.008018
  342 Fit       0.013819
  343 Fit       0.011723
  344 Fit       0.009634
  345 Fit       0.015950
  346 Fit       0.011861
  347 Fit       0.010219
  348 Fit       0.008327
  349 Fit       0.011402
  350 Fit       0.010115
  351 Fit       0.008718
  352 Fit       0.011294
  353 Fit       0.008818
  354 Fit       0.007976
  355 Fit       0.004765
  356 Fit       0.002721
  357 Fit       0.003333
  358 Fit       0.004962
  359 Fit       0.005096
  360 Fit       0.003086
  361 Fit       0.002948
  362 Fit      -0.001263
  363 Fit      -0.000532
  364 Fit       0.004130
  365 Fit       0.005525
  366 Fit       0.004954
  367 Fit       0.000485
  368 Fit      -0.004477
  369 Fit      -0.001154
  370 Fit      -0.000919
  371 Fit      -0.002792
  372 Fit      -0.000711
  373 Fit      -0.008588
  374 Fit      -0.004680
  375 Fit      -0.000730
  376 Fit      -0.006098
  377 Fit      -0.016167
  378 Fit      -0.006048
  379 Fit      -0.000813
  380 Fit      -0.029229
  381 Fit      -0.009626
  382 Fit      -0.000200
  383 Fit      -0.024133
  384 Fit       0.006555
  385 Fit       0.006811
  386 Fit       0.004400
  387 Fit       0.009202
  388 Fit       0.012414
  389 Fit       0.011459
  390 Fit       0.008882
  391 Fit       0.015068
  392 Fit       0.020021
  393 Fit       0.020668
  394 Fit       0.007106
  395 Fit       0.016878
  396 Fit       0.028245
  397 Fit       0.012809
  398 Fit       0.027706
  399 Fit       0.017367
  400 Fit       0.015922
  401 Fit       0.014068
  402 Fit       0.010823
  403 Fit       0.022253
  404 Fit       0.017828
  405 Fit       0.016099
  406 Fit       0.014046
  407 Fit       0.010654
  408 Fit       0.006578
  409 Fit       0.004673
  410 Fit       0.013216
  411 Fit       0.019366
  412 Fit       0.018654
  413 Fit       0.016472
  414 Fit       0.013874
  415 Fit       0.011379
  416 Fit       0.015763
  417 Fit       0.007694
  418 Fit       0.009793
  419 Fit       0.013014
  420 Fit       0.011707
  421 Fit       0.007511
  422 Fit       0.015694
  423 Fit       0.016945
  424 Fit       0.016135
  425 Fit       0.014336
  426 Fit       0.011920
  427 Fit       0.022627
  428 Fit       0.019141
  429 Fit       0.017226
  430 Fit       0.015676
  431 Fit       0.014752
  432 Fit       0.022768
  433 Fit       0.018082
  434 Fit       0.016623
  435 Fit      -0.007423
  436 Fit       0.003887
  437 Fit      -0.002445
  438 Fit      -0.023391
  439 Fit       0.006520
  440 Fit      -0.001200
  441 Fit      -0.022339
  442 Fit       0.010187
  443 Fit       0.004858
  444 Fit      -0.005497
  445 Fit       0.003424
  446 Fit      -0.008255
  447 Fit      -0.022547
  448 Fit      -0.005674
  449 Fit       0.018247
  450 Fit      -0.014015
  451 Fit      -0.003116
  452 Fit       0.015628
  453 Fit       0.020516
  454 Fit       0.011512
  455 Fit       0.000363
  456 Fit       0.006710
  457 Fit       0.031642
  458 Fit       0.037792
  459 Fit       0.036643
  460 Fit       0.035187
  461 Fit       0.037491
  462 Fit       0.038373
  463 Fit       0.037025
  464 Fit       0.028465
  465 Fit       0.034102
  466 Fit       0.035294
  467 Fit       0.031242
  468 Fit       0.027828
  469 Fit       0.000400
  470 Fit      -0.007144
  471 Fit       0.010688
  472 Fit      -0.008531
  473 Fit       0.015712
  474 Fit       0.005962
  475 Fit      -0.008345
  476 Fit       0.011920
  477 Fit      -0.001489
  478 Fit      -0.012212
  479 Fit      -0.011156
  480 Fit      -0.004738
  481 Fit      -0.008406
  482 Fit      -0.005450
  483 Fit       0.004108
  484 Fit       0.005746
  485 Fit       0.003679
  486 Fit       0.006146
  487 Fit       0.006799
  488 Fit       0.006116
  489 Fit       0.006462
  490 Fit       0.005180
  491 Fit       0.003890
  492 Fit      -0.010322
  493 Fit       0.006418
  494 Fit       0.006363
  495 Fit       0.004844
  496 Fit      -0.002521
  497 Fit       0.000405
  498 Fit       0.002760
  499 Fit       0.004989
  500 Fit       0.000965
  501 Fit       0.006984
  502 Fit       0.002974
  503 Fit      -0.007654
  504 Fit      -0.000914
  505 Fit       0.010289
  506 Fit       0.011930
  507 Fit       0.009564
  508 Fit       0.029410
  509 Fit       0.019457
  510 Fit       0.016019
  511 Fit       0.004510
  512 Fit      -0.003582
  513 Fit       0.028589
  514 Fit       0.004669
  515 Fit       0.000923
  516 Fit       0.013424
  517 Fit       0.006567
  518 Fit       0.014511
  519 Fit      -0.002002
  520 Fit       0.000323
  521 Fit       0.003594
  522 Fit      -0.001679
  523 Fit      -0.000547
  524 Fit      -0.017191
  525 Fit      -0.027299
  526 Fit      -0.028737
  527 Fit      -0.034881
  528 Fit      -0.037404
  529 Fit      -0.034761
  530 Fit      -0.032778
  531 Fit      -0.039834
  532 Fit      -0.041152
  533 Fit      -0.038821
  534 Fit      -0.033040
  535 Fit      -0.021045
  536 Fit      -0.035677
  537 Fit      -0.041037
  538 Fit      -0.040613
  539 Fit      -0.036132
  540 Fit      -0.025769
  541 Fit      -0.035097
  542 Fit      -0.038049
  543 Fit      -0.032372
  544 Fit      -0.022858
  545 Fit      -0.020179
  546 Fit      -0.024762
  547 Fit      -0.031409
  548 Fit      -0.021363
  549 Fit      -0.015498
  550 Fit      -0.013101
  551 Fit      -0.021540
  552 Fit      -0.026852
  553 Fit      -0.023767
  554 Fit      -0.019333
  555 Fit      -0.027134
  556 Fit      -0.028849
  557 Fit      -0.023427
  558 Fit      -0.024906
  559 Fit      -0.028865
  560 Fit      -0.025541
  561 Fit      -0.012179
  562 Fit      -0.020702
  563 Fit      -0.026658
  564 Fit      -0.023991
  565 Fit      -0.011627
  566 Fit      -0.015914
  567 Fit      -0.021927
  568 Fit      -0.018187
  569 Fit      -0.011260
  570 Fit      -0.010846
  571 Fit       0.000972
  572 Fit       0.006375
  573 Fit       0.005725
  574 Fit       0.004187
  575 Fit       0.000318
  576 Fit      -0.008460
  577 Fit       0.005170
  578 Fit       0.005755
  579 Fit       0.005804
  580 Fit       0.004341
  581 Fit      -0.000289
  582 Fit      -0.011039
  583 Fit      -0.014749
  584 Fit      -0.000741
  585 Fit       0.003711
  586 Fit       0.003992
  587 Fit      -0.001239
  588 Fit       0.005425
  589 Fit       0.005626
  590 Fit       0.003470
  591 Fit       0.003238
  592 Fit       0.006287
  593 Fit       0.004712
  594 Fit       0.001934
  595 Fit      -0.002703
  596 Fit      -0.005809
  597 Fit       0.005781
  598 Fit       0.002148
  599 Fit      -0.002028
  600 Fit      -0.010202
  601 Fit       0.004176
  602 Fit      -0.001563
  603 Fit      -0.010033
  604 Fit       0.007444
  605 Fit       0.010445
  606 Fit       0.008992
  607 Fit       0.007789
  608 Fit       0.009738
  609 Fit       0.008797
  610 Fit       0.007945
  611 Fit       0.006921
  612 Fit       0.009358
  613 Fit       0.008132
  614 Fit       0.007799
  615 Fit       0.007033
  616 Fit       0.007087
  617 Fit       0.006815
  618 Fit       0.003303
  619 Fit       0.001666
  620 Fit       0.002391
  621 Fit       0.003932
  622 Fit       0.003689
  623 Fit       0.001253
  624 Fit       0.001499
  625 Fit      -0.001568
  626 Fit       0.004907
  627 Fit       0.004948
  628 Fit       0.002110
  629 Fit      -0.005012
  630 Fit      -0.006840
  631 Fit      -0.001778
  632 Fit      -0.001224
  633 Fit      -0.002873
  634 Fit      -0.001057
  635 Fit      -0.009059
  636 Fit      -0.006125
  637 Fit      -0.002167
  638 Fit      -0.018571
  639 Fit      -0.008398
  640 Fit      -0.002423
  641 Fit      -0.012873
  642 Fit      -0.002497
  643 Fit      -0.024919
  644 Fit       0.006811
  645 Fit       0.010202
  646 Fit       0.011395
  647 Fit       0.008254
  648 Fit       0.006134
  649 Fit       0.011587
  650 Fit       0.016487
  651 Fit       0.020060
  652 Fit       0.003953
  653 Fit       0.012459
  654 Fit       0.021695
  655 Fit       0.025873
  656 Fit       0.014998
  657 Fit       0.013365
  658 Fit       0.011175
  659 Fit       0.023158
  660 Fit       0.017306
  661 Fit       0.014899
  662 Fit       0.013228
  663 Fit       0.010961
  664 Fit       0.007733
  665 Fit       0.004298
  666 Fit       0.011650
  667 Fit       0.017711
  668 Fit       0.016665
  669 Fit       0.014246
  670 Fit       0.011701
  671 Fit       0.009488
  672 Fit       0.013650
  673 Fit       0.006070
  674 Fit       0.008397
  675 Fit       0.011077
  676 Fit       0.009797
  677 Fit       0.005914
  678 Fit       0.015089
  679 Fit       0.014350
  680 Fit       0.013086
  681 Fit       0.011330
  682 Fit       0.022635
  683 Fit       0.018080
  684 Fit       0.015822
  685 Fit       0.014339
  686 Fit       0.013211
  687 Fit       0.024092
  688 Fit       0.017734
  689 Fit       0.015472
  690 Fit      -0.008002
  691 Fit       0.002949
  692 Fit      -0.003735
  693 Fit       0.007299
  694 Fit       0.002775
  695 Fit      -0.006449
  696 Fit       0.006711
  697 Fit       0.000870
  698 Fit      -0.010506
  699 Fit      -0.000106
  700 Fit      -0.011701
  701 Fit      -0.012933
  702 Fit       0.009942
  703 Fit      -0.015806
  704 Fit      -0.005181
  705 Fit       0.013168
  706 Fit       0.017979
  707 Fit       0.009134
  708 Fit      -0.001391
  709 Fit       0.004492
  710 Fit       0.031428
  711 Fit       0.031187
  712 Fit       0.030397
  713 Fit       0.030068
  714 Fit       0.031841
  715 Fit       0.031754
  716 Fit       0.023289
  717 Fit       0.027891
  718 Fit       0.029499
  719 Fit       0.023364
  720 Fit      -0.001191
  721 Fit      -0.009450
  722 Fit       0.007286
  723 Fit      -0.003164
  724 Fit       0.006934
  725 Fit      -0.003447
  726 Fit      -0.001395
  727 Fit      -0.008017
  728 Fit      -0.010184
  729 Fit      -0.005638
  730 Fit      -0.004411
  731 Fit      -0.002992
  732 Fit       0.003450
  733 Fit       0.004584
  734 Fit       0.002561
  735 Fit       0.004372
  736 Fit       0.005624
  737 Fit       0.005269
  738 Fit       0.005572
  739 Fit       0.004407
  740 Fit       0.003613
  741 Fit      -0.000272
  742 Fit       0.005122
  743 Fit       0.004287
  744 Fit       0.002659
  745 Fit      -0.010530
  746 Fit       0.004108
  747 Fit       0.004965
  748 Fit       0.003134
  749 Fit      -0.001611
  750 Fit      -0.001175
  751 Fit       0.000431
  752 Fit       0.002473
  753 Fit       0.004290
  754 Fit       0.000258
  755 Fit       0.002824
  756 Fit       0.007059
  757 Fit       0.003992
  758 Fit       0.001501
  759 Fit       0.001200
  760 Fit      -0.008259
  761 Fit       0.008272
  762 Fit      -0.001497
  763 Fit       0.007038
  764 Fit       0.010974
  765 Fit       0.008865
  766 Fit       0.023925
  767 Fit       0.013290
  768 Fit       0.011717
  769 Fit       0.009868
  770 Fit       0.007231
  771 Fit       0.019900
  772 Fit       0.015750
  773 Fit       0.002847
  774 Fit      -0.003035
  775 Fit       0.024140
  776 Fit       0.004234
  777 Fit       0.015825
  778 Fit       0.001963
  779 Fit       0.011541
  780 Fit       0.019042
  781 Fit       0.020766
  782 Fit       0.007008
  783 Fit       0.013192
  784 Fit      -0.001249
  785 Fit       0.000472
  786 Fit      -0.004132
  787 Fit       0.001917
  788 Fit      -0.001492
  789 Fit      -0.001322
  790 Fit      -0.000468
  791 Fit      -0.018798
  792 Fit      -0.021127
  793 Fit      -0.025241
  794 Fit      -0.028470
  795 Fit      -0.026856
  796 Fit      -0.023425
  797 Fit      -0.030148
  798 Fit      -0.032751
  799 Fit      -0.032246
  800 Fit      -0.029067
  801 Fit      -0.027689
  802 Fit      -0.033153
  803 Fit      -0.034602
  804 Fit      -0.033143
  805 Fit      -0.028978
  806 Fit      -0.020720
  807 Fit      -0.029106
  808 Fit      -0.033343
  809 Fit      -0.033581
  810 Fit      -0.030609
  811 Fit      -0.023941
  812 Fit      -0.020086
  813 Fit      -0.028337
  814 Fit      -0.030686
  815 Fit      -0.025840
  816 Fit      -0.018476
  817 Fit      -0.016947
  818 Fit      -0.020658
  819 Fit      -0.025228
  820 Fit      -0.016425
  821 Fit      -0.012287
  822 Fit      -0.010467
  823 Fit      -0.016763
  824 Fit      -0.020875
  825 Fit      -0.018481
  826 Fit      -0.007481
  827 Fit      -0.012809
  828 Fit      -0.018645
  829 Fit      -0.022558
  830 Fit      -0.022320
  831 Fit      -0.017214
  832 Fit      -0.022078
  833 Fit      -0.023104
  834 Fit      -0.019020
  835 Fit      -0.017830
  836 Fit      -0.022106
  837 Fit      -0.021030
  838 Fit      -0.014510
  839 Fit      -0.017014
  840 Fit      -0.019801
  841 Fit      -0.016645
  842 Fit      -0.012939
  843 Fit      -0.015345
  844 Fit      -0.011821
  845 Fit      -0.000347
  846 Fit      -0.006665
  847 Fit       0.005053
  848 Fit       0.004437
  849 Fit       0.002852
  850 Fit      -0.001037
  851 Fit      -0.008846
  852 Fit       0.003535
  853 Fit       0.004247
  854 Fit       0.004171
  855 Fit       0.002699
  856 Fit      -0.001793
  857 Fit      -0.010559
  858 Fit      -0.013282
  859 Fit      -0.002420
  860 Fit       0.001883
  861 Fit       0.002046
  862 Fit      -0.002605
  863 Fit       0.004294
  864 Fit       0.004297
  865 Fit       0.002537
  866 Fit       0.002386
  867 Fit       0.005207
  868 Fit       0.003718
  869 Fit       0.001451
  870 Fit      -0.001838
  871 Fit      -0.003633
  872 Fit       0.004831
  873 Fit       0.002174
  874 Fit      -0.000831
  875 Fit      -0.006024
  876 Fit      -0.013849
  877 Fit       0.003795
  878 Fit      -0.000316
  879 Fit      -0.005091
  880 Fit      -0.014182
  881 Fit       0.006021
  882 Fit       0.007083
  883 Fit       0.006788
  884 Fit       0.006360
  885 Fit       0.006836
  886 Fit       0.006868
  887 Fit       0.006557
  888 Fit       0.006025
  889 Fit       0.005887
  890 Fit       0.006484
  891 Fit       0.006507
  892 Fit       0.006039
  893 Fit       0.005041
  894 Fit       0.005801
  895 Fit       0.005964
  896 Fit       0.002344
  897 Fit       0.001280
  898 Fit       0.001965
  899 Fit       0.003156
  900 Fit       0.002726
  901 Fit       0.000650
  902 Fit       0.000899
  903 Fit      -0.000742
  904 Fit       0.004214
  905 Fit       0.004078
  906 Fit       0.001332
  907 Fit      -0.004054
  908 Fit      -0.005240
  909 Fit      -0.001430
  910 Fit      -0.000346
  911 Fit      -0.006338
  912 Fit      -0.004871
  913 Fit      -0.001990
  914 Fit      -0.013281
  915 Fit      -0.007081
  916 Fit      -0.002551
  917 Fit      -0.013823
  918 Fit      -0.005585
  919 Fit      -0.015497
  920 Fit       0.005479
  921 Fit       0.008040
  922 Fit       0.008923
  923 Fit       0.003818
  924 Fit       0.007807
  925 Fit       0.011388
  926 Fit       0.014068
  927 Fit       0.004544
  928 Fit       0.010126
  929 Fit       0.015662
  930 Fit       0.021855
  931 Fit       0.012366
  932 Fit       0.022188
  933 Fit       0.014182
  934 Fit       0.012573
  935 Fit       0.010967
  936 Fit       0.008806
  937 Fit       0.005714
  938 Fit       0.019996
  939 Fit       0.015658
  940 Fit       0.013397
  941 Fit       0.011738
  942 Fit       0.009749
  943 Fit       0.007183
  944 Fit       0.004706
  945 Fit       0.004368
  946 Fit       0.010796
  947 Fit       0.015376
  948 Fit       0.014696
  949 Fit       0.012536
  950 Fit       0.010332
  951 Fit       0.008725
  952 Fit       0.012043
  953 Fit       0.004869
  954 Fit       0.006959
  955 Fit       0.009064
  956 Fit       0.007955
  957 Fit       0.012415
  958 Fit       0.011947
  959 Fit       0.010879
  960 Fit       0.009284
  961 Fit       0.015848
  962 Fit       0.014076
  963 Fit       0.012796
  964 Fit       0.011629
  965 Fit       0.010543
  966 Fit       0.019325
  967 Fit       0.015666
  968 Fit       0.013848
  969 Fit       0.012803
  970 Fit      -0.007944
  971 Fit      -0.004931
  972 Fit       0.005090
  973 Fit       0.000670
  974 Fit      -0.007870
  975 Fit       0.002892
  976 Fit      -0.003638
  977 Fit      -0.016641
  978 Fit       0.004607
  979 Fit      -0.001203
  980 Fit      -0.011337
  981 Fit      -0.006014
  982 Fit      -0.011216
  983 Fit       0.007570
  984 Fit      -0.012633
  985 Fit      -0.004727
  986 Fit       0.009984
  987 Fit       0.014088
  988 Fit       0.007087
  989 Fit      -0.001892
  990 Fit       0.003007
  991 Fit       0.025898
  992 Fit       0.025164
  993 Fit       0.025839
  994 Fit       0.027086
  995 Fit       0.027141
  996 Fit       0.024393
  997 Fit       0.026488
  998 Fit       0.026873
  999 Fit       0.022732
 1000 Fit       0.024510
 1001 Fit      -0.008669
 1002 Fit       0.003905
 1003 Fit      -0.004562
 1004 Fit      -0.004061
 -----------------------------------------------------------------
 Leave Link  602 at Mon Feb 26 23:17:10 2018, MaxMem=   33554432 cpu:       0.6

 Test job not archived.
 1\1\GINC-NODE019\SP\RHF\6-31G(d)\C6H12N2O2\WULSDORT\26-Feb-2018\0\\#HF
 /6-31G* Geom=AllCheck Guess=Read Pop=(MK,ReadRadii) Integral=(Grid=Ult
 raFine) iop(6/33=2)\\Optimization for frag0-conf1\\0,1\C,0,0.516430896
 8,-0.9098269143,0.1025548295\C,0,-2.4823622203,0.6469743885,1.54708986
 82\C,0,1.4744780285,-0.3407715126,-0.9335726806\C,0,-2.5024994566,-1.7
 818311562,0.7941443499\C,0,-4.1332634557,1.6468293383,3.0931953897\C,0
 ,-1.6295678828,-0.6005564995,1.262868147\N,0,-3.2274150911,0.586978864
 1,2.6830923726\N,0,-0.6477324252,-0.2219802416,0.26662967\O,0,0.776325
 7296,-1.9251208492,0.7433206613\O,0,-2.4939459723,1.6059216608,0.77840
 12012\H,0,2.4310044556,-0.1241959179,-0.4477202326\H,0,1.6626339714,-1
 .1023686592,-1.696750108\H,0,1.1067758843,0.5677792628,-1.4201461575\H
 ,0,-3.060693725,-1.5103777976,-0.107852714\H,0,-1.8526694033,-2.631564
 055,0.5712833612\H,0,-3.2177243904,-2.083860813,1.5679151454\H,0,-3.83
 55792206,2.0677739013,4.060458739\H,0,-5.163135132,1.2790125854,3.1679
 672392\H,0,-4.0858689694,2.428451608,2.3342495623\H,0,-1.095404216,-0.
 9041998862,2.1723972253\H,0,-3.1369895285,-0.2276583942,3.27362356\H,0
 ,-0.8322488059,0.6555001224,-0.2057666769\\Version=AM64L-G09RevC.01\St
 ate=1-A\HF=-492.8560688\RMSD=9.324e-09\Dipole=-0.8599212,0.3415513,0.5
 580983\Quadrupole=0.8648953,-7.3109311,6.4460357,6.1971345,-7.4382381,
 1.5001324\PG=C01 [X(C6H12N2O2)]\\@


 I KNOW YOU BELIEVE YOU UNDERSTAND WHAT YOU THINK I SAID,
 BUT I AM NOT SURE YOU REALIZE THAT WHAT YOU HEARD IS NOT WHAT I MEANT.
 Job cpu time:  0 days  0 hours  1 minutes 35.0 seconds.
 File lengths (MBytes):  RWF=     19 Int=      0 D2E=      0 Chk=      4 Scr=      1
 Normal termination of Gaussian 09 at Mon Feb 26 23:17:10 2018.
