 Entering Gaussian System, Link 0=g09
 Initial command:
 /home/fb_chem/chemsoft/lx24-amd64/Gaussian_09_C.01_NBO_3.1_64_istanbul-64/g09/l1.exe /local/2426247.1.parallel/Gau-17341.inp -scrdir=/local/2426247.1.parallel/
 Entering Link 1 = /home/fb_chem/chemsoft/lx24-amd64/Gaussian_09_C.01_NBO_3.1_64_istanbul-64/g09/l1.exe PID=     17342.
  
 Copyright (c) 1988,1990,1992,1993,1995,1998,2003,2009,2011,
            Gaussian, Inc.  All Rights Reserved.
  
 This is part of the Gaussian(R) 09 program.  It is based on
 the Gaussian(R) 03 system (copyright 2003, Gaussian, Inc.),
 the Gaussian(R) 98 system (copyright 1998, Gaussian, Inc.),
 the Gaussian(R) 94 system (copyright 1995, Gaussian, Inc.),
 the Gaussian 92(TM) system (copyright 1992, Gaussian, Inc.),
 the Gaussian 90(TM) system (copyright 1990, Gaussian, Inc.),
 the Gaussian 88(TM) system (copyright 1988, Gaussian, Inc.),
 the Gaussian 86(TM) system (copyright 1986, Carnegie Mellon
 University), and the Gaussian 82(TM) system (copyright 1983,
 Carnegie Mellon University). Gaussian is a federally registered
 trademark of Gaussian, Inc.
  
 This software contains proprietary and confidential information,
 including trade secrets, belonging to Gaussian, Inc.
  
 This software is provided under written license and may be
 used, copied, transmitted, or stored only in accord with that
 written license.
  
 The following legend is applicable only to US Government
 contracts under FAR:
  
                    RESTRICTED RIGHTS LEGEND
  
 Use, reproduction and disclosure by the US Government is
 subject to restrictions as set forth in subparagraphs (a)
 and (c) of the Commercial Computer Software - Restricted
 Rights clause in FAR 52.227-19.
  
 Gaussian, Inc.
 340 Quinnipiac St., Bldg. 40, Wallingford CT 06492
  
  
 ---------------------------------------------------------------
 Warning -- This program may not be used in any manner that
 competes with the business of Gaussian, Inc. or will provide
 assistance to any competitor of Gaussian, Inc.  The licensee
 of this program is prohibited from giving any competitor of
 Gaussian, Inc. access to this program.  By using this program,
 the user acknowledges that Gaussian, Inc. is engaged in the
 business of creating and licensing software in the field of
 computational chemistry and represents and warrants to the
 licensee that it is not a competitor of Gaussian, Inc. and that
 it will not use this program in any manner prohibited above.
 ---------------------------------------------------------------
  

 Cite this work as:
 Gaussian 09, Revision C.01,
 M. J. Frisch, G. W. Trucks, H. B. Schlegel, G. E. Scuseria, 
 M. A. Robb, J. R. Cheeseman, G. Scalmani, V. Barone, B. Mennucci, 
 G. A. Petersson, H. Nakatsuji, M. Caricato, X. Li, H. P. Hratchian, 
 A. F. Izmaylov, J. Bloino, G. Zheng, J. L. Sonnenberg, M. Hada, 
 M. Ehara, K. Toyota, R. Fukuda, J. Hasegawa, M. Ishida, T. Nakajima, 
 Y. Honda, O. Kitao, H. Nakai, T. Vreven, J. A. Montgomery, Jr., 
 J. E. Peralta, F. Ogliaro, M. Bearpark, J. J. Heyd, E. Brothers, 
 K. N. Kudin, V. N. Staroverov, T. Keith, R. Kobayashi, J. Normand, 
 K. Raghavachari, A. Rendell, J. C. Burant, S. S. Iyengar, J. Tomasi, 
 M. Cossi, N. Rega, J. M. Millam, M. Klene, J. E. Knox, J. B. Cross, 
 V. Bakken, C. Adamo, J. Jaramillo, R. Gomperts, R. E. Stratmann, 
 O. Yazyev, A. J. Austin, R. Cammi, C. Pomelli, J. W. Ochterski, 
 R. L. Martin, K. Morokuma, V. G. Zakrzewski, G. A. Voth, 
 P. Salvador, J. J. Dannenberg, S. Dapprich, A. D. Daniels, 
 O. Farkas, J. B. Foresman, J. V. Ortiz, J. Cioslowski, 
 and D. J. Fox, Gaussian, Inc., Wallingford CT, 2010.
 
 ******************************************
 Gaussian 09:  AM64L-G09RevC.01 23-Sep-2011
                26-Feb-2018 
 ******************************************
 %nprocs=4
 Will use up to    4 processors via shared memory.
 %chk=frag0-conf1.chk
 ---------------------------------------------------------
 #B3LYP/6-31G* Integral=(Grid=UltraFine) freq Opt pop=none
 ---------------------------------------------------------
 1/14=-1,18=20,19=15,26=3,38=1/1,3;
 2/9=110,12=2,17=6,18=5,40=1/2;
 3/5=1,6=6,7=1,11=2,16=1,25=1,30=1,71=1,74=-5,75=-5/1,2,3;
 4//1;
 5/5=2,38=5/2;
 7//1,2,3,16;
 1/14=-1,18=20,19=15/3(2);
 2/9=110/2;
 99//99;
 2/9=110/2;
 3/5=1,6=6,7=1,11=2,16=1,25=1,30=1,71=1,74=-5,75=-5/1,2,3;
 4/5=5,16=3/1;
 5/5=2,38=5/2;
 7//1,2,3,16;
 1/14=-1,18=20,19=15/3(-5);
 2/9=110/2;
 99/9=1/99;
 ----------------------------
 Optimization for frag0-conf1
 ----------------------------
 Charge =  0 Multiplicity = 1
 Symbolic Z-Matrix:
 C                     0.57197  -0.49293   0.47234 
 C                    -2.39868   0.49095   1.49307 
 C                     1.5141   -0.14786  -0.64851 
 C                    -2.91801  -1.70528   0.39148 
 C                    -3.71212   1.59864   3.26628 
 C                    -1.82134  -0.86255   1.02757 
 N                    -3.08998   0.43605   2.68461 
 N                    -0.73491  -0.62915   0.08006 
 O                     0.9468   -0.61587   1.63651 
 O                    -2.29304   1.53267   0.84158 
 H                     1.55755   0.93883  -0.75898 
 H                     2.51134  -0.53146  -0.4161 
 H                     1.18203  -0.59396  -1.59028 
 H                    -3.36002  -1.19435  -0.47156 
 H                    -2.51928  -2.66395   0.04303 
 H                    -3.72439  -1.90899   1.10368 
 H                    -2.93653   2.32045   3.53559 
 H                    -4.26514   1.29302   4.15719 
 H                    -4.39204   2.04992   2.53873 
 H                    -1.41767  -1.38505   1.9028 
 H                    -3.14145  -0.44811   3.18505 
 H                    -0.98863  -0.3601   -0.86676 
 

 GradGradGradGradGradGradGradGradGradGradGradGradGradGradGradGradGradGrad
 Berny optimization.
 Initialization pass.
                           ----------------------------
                           !    Initial Parameters    !
                           ! (Angstroms and Degrees)  !
 --------------------------                            --------------------------
 ! Name  Definition              Value          Derivative Info.                !
 --------------------------------------------------------------------------------
 ! R1    R(1,3)                  1.5043         estimate D2E/DX2                !
 ! R2    R(1,8)                  1.3713         estimate D2E/DX2                !
 ! R3    R(1,9)                  1.2292         estimate D2E/DX2                !
 ! R4    R(2,6)                  1.5434         estimate D2E/DX2                !
 ! R5    R(2,7)                  1.3786         estimate D2E/DX2                !
 ! R6    R(2,10)                 1.2332         estimate D2E/DX2                !
 ! R7    R(3,11)                 1.0932         estimate D2E/DX2                !
 ! R8    R(3,12)                 1.0935         estimate D2E/DX2                !
 ! R9    R(3,13)                 1.0937         estimate D2E/DX2                !
 ! R10   R(4,6)                  1.5223         estimate D2E/DX2                !
 ! R11   R(4,14)                 1.096          estimate D2E/DX2                !
 ! R12   R(4,15)                 1.0952         estimate D2E/DX2                !
 ! R13   R(4,16)                 1.095          estimate D2E/DX2                !
 ! R14   R(5,7)                  1.4412         estimate D2E/DX2                !
 ! R15   R(5,17)                 1.0932         estimate D2E/DX2                !
 ! R16   R(5,18)                 1.0922         estimate D2E/DX2                !
 ! R17   R(5,19)                 1.0933         estimate D2E/DX2                !
 ! R18   R(6,8)                  1.4603         estimate D2E/DX2                !
 ! R19   R(6,20)                 1.0964         estimate D2E/DX2                !
 ! R20   R(7,21)                 1.0173         estimate D2E/DX2                !
 ! R21   R(8,22)                 1.0165         estimate D2E/DX2                !
 ! A1    A(3,1,8)              113.9864         estimate D2E/DX2                !
 ! A2    A(3,1,9)              122.5226         estimate D2E/DX2                !
 ! A3    A(8,1,9)              123.4787         estimate D2E/DX2                !
 ! A4    A(6,2,7)              114.4145         estimate D2E/DX2                !
 ! A5    A(6,2,10)             123.3276         estimate D2E/DX2                !
 ! A6    A(7,2,10)             122.2207         estimate D2E/DX2                !
 ! A7    A(1,3,11)             109.1602         estimate D2E/DX2                !
 ! A8    A(1,3,12)             109.411          estimate D2E/DX2                !
 ! A9    A(1,3,13)             110.9691         estimate D2E/DX2                !
 ! A10   A(11,3,12)            109.5094         estimate D2E/DX2                !
 ! A11   A(11,3,13)            109.3001         estimate D2E/DX2                !
 ! A12   A(12,3,13)            108.4718         estimate D2E/DX2                !
 ! A13   A(6,4,14)             111.1916         estimate D2E/DX2                !
 ! A14   A(6,4,15)             110.808          estimate D2E/DX2                !
 ! A15   A(6,4,16)             111.2072         estimate D2E/DX2                !
 ! A16   A(14,4,15)            107.7184         estimate D2E/DX2                !
 ! A17   A(14,4,16)            107.5717         estimate D2E/DX2                !
 ! A18   A(15,4,16)            108.1921         estimate D2E/DX2                !
 ! A19   A(7,5,17)             109.0142         estimate D2E/DX2                !
 ! A20   A(7,5,18)             108.7878         estimate D2E/DX2                !
 ! A21   A(7,5,19)             109.4425         estimate D2E/DX2                !
 ! A22   A(17,5,18)            110.0614         estimate D2E/DX2                !
 ! A23   A(17,5,19)            109.4275         estimate D2E/DX2                !
 ! A24   A(18,5,19)            110.0862         estimate D2E/DX2                !
 ! A25   A(2,6,4)              109.9998         estimate D2E/DX2                !
 ! A26   A(2,6,8)              109.5016         estimate D2E/DX2                !
 ! A27   A(2,6,20)             108.3547         estimate D2E/DX2                !
 ! A28   A(4,6,8)              110.69           estimate D2E/DX2                !
 ! A29   A(4,6,20)             109.5719         estimate D2E/DX2                !
 ! A30   A(8,6,20)             108.6762         estimate D2E/DX2                !
 ! A31   A(2,7,5)              122.2198         estimate D2E/DX2                !
 ! A32   A(2,7,21)             119.0233         estimate D2E/DX2                !
 ! A33   A(5,7,21)             118.7335         estimate D2E/DX2                !
 ! A34   A(1,8,6)              122.6354         estimate D2E/DX2                !
 ! A35   A(1,8,22)             118.5583         estimate D2E/DX2                !
 ! A36   A(6,8,22)             117.4503         estimate D2E/DX2                !
 ! D1    D(8,1,3,11)            88.2939         estimate D2E/DX2                !
 ! D2    D(8,1,3,12)          -151.8853         estimate D2E/DX2                !
 ! D3    D(8,1,3,13)           -32.2285         estimate D2E/DX2                !
 ! D4    D(9,1,3,11)           -90.4718         estimate D2E/DX2                !
 ! D5    D(9,1,3,12)            29.349          estimate D2E/DX2                !
 ! D6    D(9,1,3,13)           149.0057         estimate D2E/DX2                !
 ! D7    D(3,1,8,6)           -175.286          estimate D2E/DX2                !
 ! D8    D(3,1,8,22)            -8.9294         estimate D2E/DX2                !
 ! D9    D(9,1,8,6)              3.4663         estimate D2E/DX2                !
 ! D10   D(9,1,8,22)           169.8229         estimate D2E/DX2                !
 ! D11   D(7,2,6,4)             78.9832         estimate D2E/DX2                !
 ! D12   D(7,2,6,8)           -159.1622         estimate D2E/DX2                !
 ! D13   D(7,2,6,20)           -40.7757         estimate D2E/DX2                !
 ! D14   D(10,2,6,4)           -98.8416         estimate D2E/DX2                !
 ! D15   D(10,2,6,8)            23.013          estimate D2E/DX2                !
 ! D16   D(10,2,6,20)          141.3994         estimate D2E/DX2                !
 ! D17   D(6,2,7,5)           -179.2504         estimate D2E/DX2                !
 ! D18   D(6,2,7,21)             2.5306         estimate D2E/DX2                !
 ! D19   D(10,2,7,5)            -1.3987         estimate D2E/DX2                !
 ! D20   D(10,2,7,21)         -179.6176         estimate D2E/DX2                !
 ! D21   D(14,4,6,2)            59.4144         estimate D2E/DX2                !
 ! D22   D(14,4,6,8)           -61.7307         estimate D2E/DX2                !
 ! D23   D(14,4,6,20)          178.4307         estimate D2E/DX2                !
 ! D24   D(15,4,6,2)           179.1848         estimate D2E/DX2                !
 ! D25   D(15,4,6,8)            58.0397         estimate D2E/DX2                !
 ! D26   D(15,4,6,20)          -61.7989         estimate D2E/DX2                !
 ! D27   D(16,4,6,2)           -60.437          estimate D2E/DX2                !
 ! D28   D(16,4,6,8)           178.4179         estimate D2E/DX2                !
 ! D29   D(16,4,6,20)           58.5793         estimate D2E/DX2                !
 ! D30   D(17,5,7,2)           -64.6197         estimate D2E/DX2                !
 ! D31   D(17,5,7,21)          113.6042         estimate D2E/DX2                !
 ! D32   D(18,5,7,2)           175.3489         estimate D2E/DX2                !
 ! D33   D(18,5,7,21)           -6.4272         estimate D2E/DX2                !
 ! D34   D(19,5,7,2)            55.032          estimate D2E/DX2                !
 ! D35   D(19,5,7,21)         -126.7441         estimate D2E/DX2                !
 ! D36   D(2,6,8,1)             90.2221         estimate D2E/DX2                !
 ! D37   D(2,6,8,22)           -76.2768         estimate D2E/DX2                !
 ! D38   D(4,6,8,1)           -148.3385         estimate D2E/DX2                !
 ! D39   D(4,6,8,22)            45.1627         estimate D2E/DX2                !
 ! D40   D(20,6,8,1)           -27.9643         estimate D2E/DX2                !
 ! D41   D(20,6,8,22)          165.5369         estimate D2E/DX2                !
 --------------------------------------------------------------------------------
 Trust Radius=3.00D-01 FncErr=1.00D-07 GrdErr=1.00D-06
 Number of steps in this run=    108 maximum allowed number of steps=    132.
 GradGradGradGradGradGradGradGradGradGradGradGradGradGradGradGradGradGrad

                          Input orientation:                          
 ---------------------------------------------------------------------
 Center     Atomic      Atomic             Coordinates (Angstroms)
 Number     Number       Type             X           Y           Z
 ---------------------------------------------------------------------
      1          6           0        0.571968   -0.492926    0.472336
      2          6           0       -2.398680    0.490945    1.493070
      3          6           0        1.514101   -0.147864   -0.648509
      4          6           0       -2.918012   -1.705277    0.391484
      5          6           0       -3.712121    1.598636    3.266278
      6          6           0       -1.821339   -0.862552    1.027568
      7          7           0       -3.089984    0.436047    2.684605
      8          7           0       -0.734915   -0.629153    0.080057
      9          8           0        0.946805   -0.615871    1.636512
     10          8           0       -2.293040    1.532667    0.841580
     11          1           0        1.557552    0.938834   -0.758976
     12          1           0        2.511341   -0.531457   -0.416098
     13          1           0        1.182027   -0.593960   -1.590280
     14          1           0       -3.360021   -1.194354   -0.471563
     15          1           0       -2.519284   -2.663950    0.043030
     16          1           0       -3.724394   -1.908990    1.103685
     17          1           0       -2.936529    2.320451    3.535594
     18          1           0       -4.265136    1.293016    4.157187
     19          1           0       -4.392041    2.049923    2.538726
     20          1           0       -1.417667   -1.385049    1.902802
     21          1           0       -3.141453   -0.448108    3.185054
     22          1           0       -0.988630   -0.360100   -0.866758
 ---------------------------------------------------------------------
                    Distance matrix (angstroms):
                    1          2          3          4          5
     1  C    0.000000
     2  C    3.291602   0.000000
     3  C    1.504319   4.506028   0.000000
     4  C    3.695441   2.511292   4.811522   0.000000
     5  C    5.525772   2.469084   6.759380   4.450943   0.000000
     6  C    2.484517   1.543363   3.800681   1.522327   3.826790
     7  N    4.378015   1.378649   5.713861   3.142172   1.441184
     8  N    1.371270   2.453434   2.412575   2.453761   4.896816
     9  O    1.229196   3.526738   2.400453   4.204010   5.409785
    10  O    3.528121   1.233201   4.420280   3.328281   2.810214
    11  H    2.130127   4.574285   1.093162   5.324054   6.663892
    12  H    2.133535   5.366427   1.093456   5.613191   7.538480
    13  H    2.153316   4.848250   1.093713   4.687508   7.235076
    14  H    4.104081   2.761194   4.988338   1.096022   4.679340
    15  H    3.801774   3.474266   4.803865   1.095198   5.475566
    16  H    4.567556   2.769265   5.797722   1.094980   4.120729
    17  H    5.441341   2.794330   6.588429   5.108058   1.093202
    18  H    6.337609   3.350298   7.653132   4.998502   1.092221
    19  H    5.947893   2.738119   7.061958   4.570004   1.093290
    20  H    2.607827   2.156298   4.078612   2.153524   4.003244
    21  H    4.598949   2.072762   6.038255   3.071552   2.126364
    22  H    2.060651   2.877726   2.521178   2.667431   5.323161
                    6          7          8          9         10
     6  C    0.000000
     7  N    2.457965   0.000000
     8  N    1.460333   3.669424   0.000000
     9  O    2.845045   4.301244   2.291486   0.000000
    10  O    2.448299   2.287889   2.771486   3.967962   0.000000
    11  H    4.225356   5.806086   2.901372   2.920356   4.212063
    12  H    4.578856   6.474973   3.285406   2.582268   5.378145
    13  H    3.993180   6.130713   2.542820   3.235429   4.744742
    14  H    2.173713   3.562657   2.741336   4.829841   3.209274
    15  H    2.168289   4.112615   2.706612   4.329848   4.277904
    16  H    2.173119   2.898446   3.409221   4.876080   3.736640
    17  H    4.203017   2.073333   5.048564   5.225781   2.879651
    18  H    4.518089   2.069752   5.725398   6.096063   3.865209
    19  H    4.168287   2.078756   5.157235   6.035207   2.748393
    20  H    1.096352   2.593117   2.088044   2.500654   3.225761
    21  H    2.563046   1.017265   3.932582   4.374925   3.183574
    22  H    2.129398   4.202585   1.016474   3.174537   2.863996
                   11         12         13         14         15
    11  H    0.000000
    12  H    1.785787   0.000000
    13  H    1.783688   1.774735   0.000000
    14  H    5.368018   5.908926   4.716164   0.000000
    15  H    5.499442   5.483203   4.544477   1.769564   0.000000
    16  H    6.283197   6.564429   5.749759   1.767733   1.774047
    17  H    6.367806   7.309483   7.192419   5.347009   6.100520
    18  H    7.628748   8.376412   8.140371   5.332126   5.969243
    19  H    6.892533   7.940478   7.423547   4.544473   5.652992
    20  H    4.619244   4.641446   4.425591   3.073551   2.511554
    21  H    6.289644   6.702934   6.443413   3.738382   3.894786
    22  H    2.860400   3.533023   2.299984   2.544731   2.911760
                   16         17         18         19         20
    16  H    0.000000
    17  H    4.941972   0.000000
    18  H    4.457479   1.790865   0.000000
    19  H    4.263577   1.784781   1.791208   0.000000
    20  H    2.496817   4.324775   4.512468   4.588064   0.000000
    21  H    2.608849   2.798177   2.288935   2.867380   2.343814
    22  H    3.710271   5.510024   6.221600   5.384119   2.984134
                   21         22
    21  H    0.000000
    22  H    4.589071   0.000000
 Stoichiometry    C6H12N2O2
 Framework group  C1[X(C6H12N2O2)]
 Deg. of freedom    60
 Full point group                 C1      NOp   1
 Largest Abelian subgroup         C1      NOp   1
 Largest concise Abelian subgroup C1      NOp   1
                         Standard orientation:                         
 ---------------------------------------------------------------------
 Center     Atomic      Atomic             Coordinates (Angstroms)
 Number     Number       Type             X           Y           Z
 ---------------------------------------------------------------------
      1          6           0        2.105448   -0.362675   -0.272772
      2          6           0       -1.128684   -0.087470    0.274310
      3          6           0        3.338311   -0.609492    0.553126
      4          6           0       -0.441360    2.305861   -0.051479
      5          6           0       -3.375817   -1.040433   -0.098020
      6          6           0       -0.059166    0.856117   -0.315388
      7          7           0       -2.264305   -0.214381   -0.497007
      8          7           0        1.240635    0.549450    0.275413
      9          8           0        1.890727   -0.949458   -1.331310
     10          8           0       -1.006868   -0.653205    1.363295
     11          1           0        3.135690   -1.409500    1.270019
     12          1           0        4.161472   -0.906499   -0.102496
     13          1           0        3.634566    0.293910    1.093780
     14          1           0       -0.531922    2.502431    1.022962
     15          1           0        0.316687    2.987192   -0.452241
     16          1           0       -1.402223    2.552834   -0.514865
     17          1           0       -3.052418   -2.084379   -0.071925
     18          1           0       -4.183954   -0.916547   -0.822253
     19          1           0       -3.714063   -0.739541    0.897136
     20          1           0       -0.003343    0.681962   -1.396379
     21          1           0       -2.310557    0.269417   -1.390667
     22          1           0        1.412491    0.873110    1.223532
 ---------------------------------------------------------------------
 Rotational constants (GHZ):      2.1976582      0.7431025      0.6744236
 Standard basis: 6-31G(d) (6D, 7F)
 There are   174 symmetry adapted basis functions of A   symmetry.
 Integral buffers will be    131072 words long.
 Raffenetti 2 integral format.
 Two-electron integral symmetry is turned on.
   174 basis functions,   328 primitive gaussians,   174 cartesian basis functions
    39 alpha electrons       39 beta electrons
       nuclear repulsion energy       552.0397072658 Hartrees.
 NAtoms=   22 NActive=   22 NUniq=   22 SFac= 1.00D+00 NAtFMM=   60 NAOKFM=F Big=F
 One-electron integrals computed using PRISM.
 NBasis=   174 RedAO= T  NBF=   174
 NBsUse=   174 1.00D-06 NBFU=   174
 Harris functional with IExCor=  402 diagonalized for initial guess.
 ExpMin= 1.61D-01 ExpMax= 5.48D+03 ExpMxC= 8.25D+02 IAcc=3 IRadAn=         5 AccDes= 0.00D+00
 HarFok:  IExCor=  402 AccDes= 0.00D+00 IRadAn=         5 IDoV= 1
 ScaDFX=  1.000000  1.000000  1.000000  1.000000
 FoFCou: FMM=F IPFlag=           0 FMFlag=      100000 FMFlg1=           0
         NFxFlg=           0 DoJE=T BraDBF=F KetDBF=T FulRan=T
         Omega=  0.000000  0.000000  1.000000  0.000000  0.000000 ICntrl=     500 IOpCl=  0
         NMat0=    1 NMatS0=    1 NMatT0=    0 NMatD0=    1 NMtDS0=    0 NMtDT0=    0
         I1Cent=           4 NGrid=           0.
 Petite list used in FoFCou.
 Initial guess orbital symmetries:
       Occupied  (A) (A) (A) (A) (A) (A) (A) (A) (A) (A) (A) (A)
                 (A) (A) (A) (A) (A) (A) (A) (A) (A) (A) (A) (A)
                 (A) (A) (A) (A) (A) (A) (A) (A) (A) (A) (A) (A)
                 (A) (A) (A)
       Virtual   (A) (A) (A) (A) (A) (A) (A) (A) (A) (A) (A) (A)
                 (A) (A) (A) (A) (A) (A) (A) (A) (A) (A) (A) (A)
                 (A) (A) (A) (A) (A) (A) (A) (A) (A) (A) (A) (A)
                 (A) (A) (A) (A) (A) (A) (A) (A) (A) (A) (A) (A)
                 (A) (A) (A) (A) (A) (A) (A) (A) (A) (A) (A) (A)
                 (A) (A) (A) (A) (A) (A) (A) (A) (A) (A) (A) (A)
                 (A) (A) (A) (A) (A) (A) (A) (A) (A) (A) (A) (A)
                 (A) (A) (A) (A) (A) (A) (A) (A) (A) (A) (A) (A)
                 (A) (A) (A) (A) (A) (A) (A) (A) (A) (A) (A) (A)
                 (A) (A) (A) (A) (A) (A) (A) (A) (A) (A) (A) (A)
                 (A) (A) (A) (A) (A) (A) (A) (A) (A) (A) (A) (A)
                 (A) (A) (A)
 The electronic state of the initial guess is 1-A.
 Requested convergence on RMS density matrix=1.00D-08 within 128 cycles.
 Requested convergence on MAX density matrix=1.00D-06.
 Requested convergence on             energy=1.00D-06.
 No special actions if energy rises.
 Integral accuracy reduced to 1.0D-05 until final iterations.
 Initial convergence to 1.0D-05 achieved.  Increase integral accuracy.
 SCF Done:  E(RB3LYP) =  -495.845056321     A.U. after   15 cycles
             Convg  =    0.4867D-08             -V/T =  2.0095
 Calling FoFJK, ICntrl=      2127 FMM=F ISym2X=0 I1Cent= 0 IOpClX= 0 NMat=1 NMatS=1 NMatT=0.
 ***** Axes restored to original set *****
 -------------------------------------------------------------------
 Center     Atomic                   Forces (Hartrees/Bohr)
 Number     Number              X              Y              Z
 -------------------------------------------------------------------
      1        6          -0.001654480    0.002084931    0.011588023
      2        6          -0.007908822    0.013307615    0.007872150
      3        6           0.004442439   -0.003898577   -0.005353626
      4        6          -0.004609003   -0.006054091   -0.004734726
      5        6           0.000890457    0.002114695   -0.001166342
      6        6           0.005660964    0.009688441   -0.002780184
      7        7           0.008518411   -0.016807331   -0.011468105
      8        7          -0.003732536   -0.009232161    0.003835367
      9        8          -0.005568918   -0.002164756   -0.005281520
     10        8          -0.000936636   -0.013741547    0.007115259
     11        1           0.001720325    0.001495732   -0.001389448
     12        1          -0.000730546    0.002461101    0.000947261
     13        1           0.000723804    0.002157570   -0.002882811
     14        1          -0.000428075    0.001130946    0.000083474
     15        1           0.000619418    0.000029131    0.000818941
     16        1          -0.000022241    0.000443507   -0.000124961
     17        1          -0.002608760    0.004767123    0.001842703
     18        1          -0.000301474    0.001613776    0.000042804
     19        1          -0.000971614    0.003323656    0.001711603
     20        1           0.004632451    0.001202074   -0.003649127
     21        1           0.002222918    0.005914645   -0.003198123
     22        1           0.000041917    0.000163522    0.006171390
 -------------------------------------------------------------------
 Cartesian Forces:  Max     0.016807331 RMS     0.005276302

 GradGradGradGradGradGradGradGradGradGradGradGradGradGradGradGradGradGrad
 Berny optimization.
 Internal  Forces:  Max     0.015447145 RMS     0.003737103
 Search for a local minimum.
 Step number   1 out of a maximum of  108
 All quantities printed in internal units (Hartrees-Bohrs-Radians)
 Mixed Optimization -- RFO/linear search
 Second derivative matrix not updated -- first step.
 ITU=  0
     Eigenvalues ---    0.00230   0.00471   0.00709   0.00894   0.00921
     Eigenvalues ---    0.01147   0.01262   0.01460   0.01481   0.01974
     Eigenvalues ---    0.02072   0.04709   0.05142   0.05564   0.05597
     Eigenvalues ---    0.06395   0.07345   0.07515   0.07798   0.07846
     Eigenvalues ---    0.15720   0.15995   0.16000   0.16000   0.16000
     Eigenvalues ---    0.16000   0.16000   0.16000   0.16000   0.16000
     Eigenvalues ---    0.16000   0.17224   0.18151   0.22001   0.22067
     Eigenvalues ---    0.24983   0.24994   0.25000   0.25000   0.28223
     Eigenvalues ---    0.30144   0.31928   0.34089   0.34126   0.34219
     Eigenvalues ---    0.34243   0.34387   0.34416   0.34435   0.34445
     Eigenvalues ---    0.34450   0.34557   0.36923   0.39424   0.44777
     Eigenvalues ---    0.44905   0.49350   0.50733   0.89766   0.91422
 RFO step:  Lambda=-5.75660495D-03 EMin= 2.30000000D-03
 Linear search not attempted -- first point.
 Iteration  1 RMS(Cart)=  0.10167147 RMS(Int)=  0.00431076
 Iteration  2 RMS(Cart)=  0.00595349 RMS(Int)=  0.00023089
 Iteration  3 RMS(Cart)=  0.00001954 RMS(Int)=  0.00023059
 Iteration  4 RMS(Cart)=  0.00000000 RMS(Int)=  0.00023059
 Variable       Old X    -DE/DX   Delta X   Delta X   Delta X     New X
                                 (Linear)    (Quad)   (Total)
    R1        2.84275   0.01083   0.00000   0.03332   0.03332   2.87607
    R2        2.59133  -0.00148   0.00000  -0.00289  -0.00289   2.58843
    R3        2.32284  -0.00648   0.00000  -0.00705  -0.00705   2.31580
    R4        2.91653   0.00167   0.00000   0.00580   0.00580   2.92234
    R5        2.60527  -0.01450   0.00000  -0.02904  -0.02904   2.57623
    R6        2.33041  -0.01545   0.00000  -0.01710  -0.01710   2.31331
    R7        2.06578   0.00170   0.00000   0.00484   0.00484   2.07062
    R8        2.06633  -0.00133   0.00000  -0.00380  -0.00380   2.06254
    R9        2.06682   0.00138   0.00000   0.00395   0.00395   2.07077
   R10        2.87678   0.00732   0.00000   0.02381   0.02381   2.90059
   R11        2.07118   0.00063   0.00000   0.00183   0.00183   2.07301
   R12        2.06962  -0.00006   0.00000  -0.00017  -0.00017   2.06945
   R13        2.06921  -0.00015   0.00000  -0.00042  -0.00042   2.06879
   R14        2.72344   0.01181   0.00000   0.02952   0.02952   2.75296
   R15        2.06585   0.00175   0.00000   0.00500   0.00500   2.07085
   R16        2.06400  -0.00026   0.00000  -0.00075  -0.00075   2.06325
   R17        2.06602   0.00084   0.00000   0.00239   0.00239   2.06841
   R18        2.75963  -0.00960   0.00000  -0.02560  -0.02560   2.73403
   R19        2.07181  -0.00178   0.00000  -0.00514  -0.00514   2.06667
   R20        1.92235  -0.00683   0.00000  -0.01505  -0.01505   1.90730
   R21        1.92086  -0.00572   0.00000  -0.01257  -0.01257   1.90829
    A1        1.98944   0.00530   0.00000   0.02093   0.02072   2.01016
    A2        2.13842   0.00219   0.00000   0.00876   0.00855   2.14697
    A3        2.15511  -0.00747   0.00000  -0.02896  -0.02916   2.12595
    A4        1.99691   0.00355   0.00000   0.01391   0.01391   2.01082
    A5        2.15247  -0.00330   0.00000  -0.01290  -0.01290   2.13958
    A6        2.13315  -0.00025   0.00000  -0.00095  -0.00095   2.13221
    A7        1.90521   0.00162   0.00000   0.00541   0.00531   1.91052
    A8        1.90958  -0.00126   0.00000  -0.00778  -0.00789   1.90170
    A9        1.93678   0.00435   0.00000   0.03084   0.03070   1.96747
   A10        1.91130  -0.00202   0.00000  -0.02152  -0.02157   1.88973
   A11        1.90765  -0.00293   0.00000  -0.01714  -0.01727   1.89037
   A12        1.89319   0.00015   0.00000   0.00951   0.00936   1.90255
   A13        1.94066  -0.00066   0.00000  -0.00389  -0.00390   1.93676
   A14        1.93397  -0.00089   0.00000  -0.00402  -0.00402   1.92995
   A15        1.94093  -0.00001   0.00000  -0.00151  -0.00152   1.93941
   A16        1.88004   0.00116   0.00000   0.00970   0.00970   1.88974
   A17        1.87748   0.00004   0.00000  -0.00223  -0.00224   1.87524
   A18        1.88831   0.00045   0.00000   0.00251   0.00251   1.89081
   A19        1.90266   0.00708   0.00000   0.04403   0.04363   1.94628
   A20        1.89871   0.00031   0.00000   0.00087   0.00077   1.89947
   A21        1.91013   0.00393   0.00000   0.02338   0.02305   1.93318
   A22        1.92093  -0.00347   0.00000  -0.02026  -0.02043   1.90051
   A23        1.90987  -0.00500   0.00000  -0.02809  -0.02870   1.88117
   A24        1.92137  -0.00267   0.00000  -0.01879  -0.01881   1.90255
   A25        1.91986  -0.00069   0.00000   0.01038   0.01014   1.93000
   A26        1.91116   0.00163   0.00000   0.01229   0.01225   1.92341
   A27        1.89115   0.00078   0.00000   0.01332   0.01309   1.90424
   A28        1.93190   0.00031   0.00000   0.00270   0.00255   1.93446
   A29        1.91239   0.00179   0.00000   0.01702   0.01663   1.92902
   A30        1.89676  -0.00385   0.00000  -0.05624  -0.05611   1.84065
   A31        2.13314  -0.00270   0.00000  -0.01208  -0.01216   2.12098
   A32        2.07735   0.00047   0.00000   0.00048   0.00041   2.07776
   A33        2.07229   0.00221   0.00000   0.01099   0.01092   2.08321
   A34        2.14039  -0.00373   0.00000  -0.01980  -0.02074   2.11965
   A35        2.06923   0.00319   0.00000   0.01077   0.00972   2.07895
   A36        2.04989   0.00015   0.00000  -0.00697  -0.00785   2.04204
    D1        1.54102   0.00111   0.00000   0.02807   0.02827   1.56929
    D2       -2.65090  -0.00113   0.00000   0.00041   0.00055  -2.65034
    D3       -0.56249   0.00096   0.00000   0.02643   0.02661  -0.53588
    D4       -1.57903   0.00049   0.00000  -0.00825  -0.00840  -1.58743
    D5        0.51224  -0.00175   0.00000  -0.03591  -0.03612   0.47611
    D6        2.60064   0.00034   0.00000  -0.00989  -0.01006   2.59058
    D7       -3.05932   0.00173   0.00000   0.06548   0.06594  -2.99338
    D8       -0.15585  -0.00016   0.00000  -0.01451  -0.01442  -0.17027
    D9        0.06050   0.00249   0.00000   0.10274   0.10265   0.16315
   D10        2.96397   0.00061   0.00000   0.02275   0.02229   2.98626
   D11        1.37852   0.00118   0.00000   0.09806   0.09804   1.47656
   D12       -2.77790   0.00218   0.00000   0.11607   0.11612  -2.66178
   D13       -0.71167  -0.00107   0.00000   0.06311   0.06306  -0.64861
   D14       -1.72511   0.00112   0.00000   0.09604   0.09602  -1.62909
   D15        0.40165   0.00213   0.00000   0.11404   0.11410   0.51576
   D16        2.46789  -0.00113   0.00000   0.06108   0.06105   2.52893
   D17       -3.12851   0.00057   0.00000   0.01885   0.01889  -3.10962
   D18        0.04417   0.00103   0.00000   0.04168   0.04163   0.08580
   D19       -0.02441   0.00056   0.00000   0.02056   0.02060  -0.00381
   D20       -3.13492   0.00101   0.00000   0.04338   0.04335  -3.09157
   D21        1.03698  -0.00018   0.00000  -0.00369  -0.00375   1.03322
   D22       -1.07740  -0.00198   0.00000  -0.02772  -0.02778  -1.10518
   D23        3.11420   0.00145   0.00000   0.02939   0.02952  -3.13946
   D24        3.12736   0.00025   0.00000   0.00328   0.00322   3.13058
   D25        1.01298  -0.00155   0.00000  -0.02074  -0.02081   0.99218
   D26       -1.07859   0.00188   0.00000   0.03637   0.03650  -1.04210
   D27       -1.05483   0.00021   0.00000   0.00274   0.00268  -1.05215
   D28        3.11398  -0.00158   0.00000  -0.02128  -0.02135   3.09263
   D29        1.02240   0.00185   0.00000   0.03583   0.03595   1.05836
   D30       -1.12783   0.00011   0.00000   0.00897   0.00883  -1.11900
   D31        1.98277  -0.00038   0.00000  -0.01397  -0.01416   1.96860
   D32        3.06042  -0.00007   0.00000   0.00694   0.00691   3.06733
   D33       -0.11218  -0.00055   0.00000  -0.01600  -0.01608  -0.12826
   D34        0.96049   0.00063   0.00000   0.01527   0.01553   0.97602
   D35       -2.21210   0.00015   0.00000  -0.00767  -0.00747  -2.21957
   D36        1.57467  -0.00034   0.00000  -0.00495  -0.00476   1.56991
   D37       -1.33128   0.00112   0.00000   0.07190   0.07166  -1.25962
   D38       -2.58900   0.00007   0.00000   0.01786   0.01795  -2.57104
   D39        0.78824   0.00154   0.00000   0.09471   0.09438   0.88261
   D40       -0.48807   0.00002   0.00000   0.00473   0.00509  -0.48298
   D41        2.88916   0.00149   0.00000   0.08158   0.08151   2.97067
         Item               Value     Threshold  Converged?
 Maximum Force            0.015447     0.000450     NO 
 RMS     Force            0.003737     0.000300     NO 
 Maximum Displacement     0.342244     0.001800     NO 
 RMS     Displacement     0.103355     0.001200     NO 
 Predicted change in Energy=-3.225106D-03
 GradGradGradGradGradGradGradGradGradGradGradGradGradGradGradGradGradGrad

                          Input orientation:                          
 ---------------------------------------------------------------------
 Center     Atomic      Atomic             Coordinates (Angstroms)
 Number     Number       Type             X           Y           Z
 ---------------------------------------------------------------------
      1          6           0        0.521631   -0.532439    0.484879
      2          6           0       -2.444037    0.463794    1.457789
      3          6           0        1.517241   -0.102294   -0.582865
      4          6           0       -2.950372   -1.758173    0.352000
      5          6           0       -3.645992    1.635539    3.257766
      6          6           0       -1.857344   -0.887222    0.986615
      7          7           0       -3.016173    0.448515    2.695111
      8          7           0       -0.772564   -0.663448    0.055830
      9          8           0        0.844346   -0.763949    1.644200
     10          8           0       -2.432785    1.467673    0.757326
     11          1           0        1.577295    0.991524   -0.606663
     12          1           0        2.503324   -0.493682   -0.326521
     13          1           0        1.242858   -0.453873   -1.583813
     14          1           0       -3.405734   -1.251860   -0.508044
     15          1           0       -2.532626   -2.710327    0.008269
     16          1           0       -3.750187   -1.971608    1.068402
     17          1           0       -2.918241    2.439088    3.417669
     18          1           0       -4.099356    1.373407    4.215798
     19          1           0       -4.423218    2.016834    2.588001
     20          1           0       -1.407006   -1.399517    1.841476
     21          1           0       -2.960345   -0.392407    3.250466
     22          1           0       -1.020168   -0.334666   -0.866309
 ---------------------------------------------------------------------
                    Distance matrix (angstroms):
                    1          2          3          4          5
     1  C    0.000000
     2  C    3.276312   0.000000
     3  C    1.521952   4.491819   0.000000
     4  C    3.684411   2.533038   4.855457   0.000000
     5  C    5.455099   2.461218   6.665543   4.521576   0.000000
     6  C    2.457057   1.546434   3.803577   1.534928   3.836888
     7  N    4.285260   1.363282   5.621419   3.219313   1.456803
     8  N    1.369740   2.455603   2.442545   2.455400   4.877942
     9  O    1.225466   3.515048   2.418758   4.130151   5.340812
    10  O    3.578163   1.224152   4.456861   3.292153   2.784285
    11  H    2.151361   4.550997   1.095724   5.383274   6.529264
    12  H    2.141723   5.345737   1.091447   5.639337   7.429318
    13  H    2.192219   4.866893   1.095806   4.799140   7.190784
    14  H    4.114324   2.780797   5.055964   1.096988   4.751434
    15  H    3.781380   3.490558   4.853111   1.095106   5.539437
    16  H    4.545342   2.790848   5.828105   1.094756   4.220862
    17  H    5.409616   2.822727   6.491255   5.197727   1.095847
    18  H    6.237430   3.342767   7.533327   5.104498   1.091824
    19  H    5.947558   2.757983   7.059330   4.628138   1.094555
    20  H    2.512334   2.166697   4.013905   2.174661   4.028709
    21  H    4.448847   2.052643   5.901471   3.204142   2.140731
    22  H    2.059604   2.840136   2.563743   2.690044   5.271115
                    6          7          8          9         10
     6  C    0.000000
     7  N    2.458869   0.000000
     8  N    1.446784   3.638138   0.000000
     9  O    2.783297   4.180681   2.268793   0.000000
    10  O    2.435003   2.265841   2.791077   4.062792   0.000000
    11  H    4.226697   5.683003   2.949520   2.947081   4.262386
    12  H    4.571064   6.362613   3.302492   2.590172   5.420960
    13  H    4.050449   6.104329   2.606582   3.267266   4.762733
    14  H    2.182769   3.647361   2.756405   4.788883   3.153356
    15  H    2.176437   4.175071   2.699962   4.227126   4.245791
    16  H    2.182988   3.006985   3.406292   4.785365   3.696075
    17  H    4.254394   2.119920   5.052883   5.249924   2.873454
    18  H    4.534830   2.083555   5.702777   5.968384   3.840231
    19  H    4.193053   2.109709   5.188746   6.030817   2.759487
    20  H    1.093635   2.594867   2.032941   2.347649   3.232396
    21  H    2.566413   1.009300   3.881437   4.146542   3.154990
    22  H    2.107015   4.157057   1.009824   3.156478   2.807153
                   11         12         13         14         15
    11  H    0.000000
    12  H    1.772525   0.000000
    13  H    1.776469   1.780770   0.000000
    14  H    5.465627   5.960264   4.837713   0.000000
    15  H    5.565365   5.512385   4.677669   1.776520   0.000000
    16  H    6.322030   6.575445   5.853910   1.766881   1.775399
    17  H    6.204881   7.212036   7.120308   5.410358   6.187825
    18  H    7.458307   8.228856   8.094053   5.448654   6.069170
    19  H    6.874831   7.923012   7.457402   4.615749   5.707487
    20  H    4.540542   4.561955   4.432677   3.088197   2.519105
    21  H    6.114155   6.531215   6.406320   3.881164   4.008433
    22  H    2.927971   3.568144   2.377037   2.580799   2.948928
                   16         17         18         19         20
    16  H    0.000000
    17  H    5.066106   0.000000
    18  H    4.606207   1.779808   0.000000
    19  H    4.320859   1.769634   1.780058   0.000000
    20  H    2.532870   4.416232   4.535996   4.618039   0.000000
    21  H    2.806979   2.836740   2.312426   2.895393   2.326453
    22  H    3.725008   5.445077   6.182777   5.389115   2.935243
                   21         22
    21  H    0.000000
    22  H    4.551424   0.000000
 Stoichiometry    C6H12N2O2
 Framework group  C1[X(C6H12N2O2)]
 Deg. of freedom    60
 Full point group                 C1      NOp   1
 Largest Abelian subgroup         C1      NOp   1
 Largest concise Abelian subgroup C1      NOp   1
                         Standard orientation:                         
 ---------------------------------------------------------------------
 Center     Atomic      Atomic             Coordinates (Angstroms)
 Number     Number       Type             X           Y           Z
 ---------------------------------------------------------------------
      1          6           0        2.076280   -0.375888   -0.263673
      2          6           0       -1.137311   -0.048723    0.284064
      3          6           0        3.291489   -0.738578    0.577791
      4          6           0       -0.399324    2.346775   -0.080970
      5          6           0       -3.328718   -1.097413   -0.110372
      6          6           0       -0.040673    0.870780   -0.301904
      7          7           0       -2.199167   -0.282953   -0.538211
      8          7           0        1.241982    0.558661    0.290180
      9          8           0        1.857249   -0.864978   -1.365755
     10          8           0       -1.078987   -0.503951    1.418927
     11          1           0        3.041959   -1.577552    1.236934
     12          1           0        4.100418   -1.052407   -0.084327
     13          1           0        3.640837    0.094475    1.198088
     14          1           0       -0.511497    2.567793    0.987651
     15          1           0        0.382662    2.997695   -0.486013
     16          1           0       -1.345643    2.600182   -0.569596
     17          1           0       -3.028163   -2.134345    0.077560
     18          1           0       -4.088389   -1.086135   -0.894497
     19          1           0       -3.763824   -0.702847    0.813236
     20          1           0        0.071495    0.659005   -1.368959
     21          1           0       -2.178774    0.079079   -1.480126
     22          1           0        1.382658    0.834818    1.251269
 ---------------------------------------------------------------------
 Rotational constants (GHZ):      2.1173970      0.7540229      0.6852594
 Standard basis: 6-31G(d) (6D, 7F)
 There are   174 symmetry adapted basis functions of A   symmetry.
 Integral buffers will be    131072 words long.
 Raffenetti 2 integral format.
 Two-electron integral symmetry is turned on.
   174 basis functions,   328 primitive gaussians,   174 cartesian basis functions
    39 alpha electrons       39 beta electrons
       nuclear repulsion energy       552.7075693434 Hartrees.
 NAtoms=   22 NActive=   22 NUniq=   22 SFac= 1.00D+00 NAtFMM=   60 NAOKFM=F Big=F
 One-electron integrals computed using PRISM.
 NBasis=   174 RedAO= T  NBF=   174
 NBsUse=   174 1.00D-06 NBFU=   174
 Initial guess read from the read-write file.
 B after Tr=     0.000000    0.000000    0.000000
         Rot=    1.000000    0.000000    0.000000    0.000000 Ang=   0.00 deg.
 Initial guess orbital symmetries:
       Occupied  (A) (A) (A) (A) (A) (A) (A) (A) (A) (A) (A) (A)
                 (A) (A) (A) (A) (A) (A) (A) (A) (A) (A) (A) (A)
                 (A) (A) (A) (A) (A) (A) (A) (A) (A) (A) (A) (A)
                 (A) (A) (A)
       Virtual   (A) (A) (A) (A) (A) (A) (A) (A) (A) (A) (A) (A)
                 (A) (A) (A) (A) (A) (A) (A) (A) (A) (A) (A) (A)
                 (A) (A) (A) (A) (A) (A) (A) (A) (A) (A) (A) (A)
                 (A) (A) (A) (A) (A) (A) (A) (A) (A) (A) (A) (A)
                 (A) (A) (A) (A) (A) (A) (A) (A) (A) (A) (A) (A)
                 (A) (A) (A) (A) (A) (A) (A) (A) (A) (A) (A) (A)
                 (A) (A) (A) (A) (A) (A) (A) (A) (A) (A) (A) (A)
                 (A) (A) (A) (A) (A) (A) (A) (A) (A) (A) (A) (A)
                 (A) (A) (A) (A) (A) (A) (A) (A) (A) (A) (A) (A)
                 (A) (A) (A) (A) (A) (A) (A) (A) (A) (A) (A) (A)
                 (A) (A) (A) (A) (A) (A) (A) (A) (A) (A) (A) (A)
                 (A) (A) (A)
 Harris functional with IExCor=  402 diagonalized for initial guess.
 ExpMin= 1.61D-01 ExpMax= 5.48D+03 ExpMxC= 8.25D+02 IAcc=3 IRadAn=         5 AccDes= 0.00D+00
 HarFok:  IExCor=  402 AccDes= 0.00D+00 IRadAn=         5 IDoV= 1
 ScaDFX=  1.000000  1.000000  1.000000  1.000000
 FoFCou: FMM=F IPFlag=           0 FMFlag=      100000 FMFlg1=           0
         NFxFlg=           0 DoJE=T BraDBF=F KetDBF=T FulRan=T
         Omega=  0.000000  0.000000  1.000000  0.000000  0.000000 ICntrl=     500 IOpCl=  0
         NMat0=    1 NMatS0=    1 NMatT0=    0 NMatD0=    1 NMtDS0=    0 NMtDT0=    0
         I1Cent=           4 NGrid=           0.
 Petite list used in FoFCou.
 Requested convergence on RMS density matrix=1.00D-08 within 128 cycles.
 Requested convergence on MAX density matrix=1.00D-06.
 Requested convergence on             energy=1.00D-06.
 No special actions if energy rises.
 Integral accuracy reduced to 1.0D-05 until final iterations.
 Initial convergence to 1.0D-05 achieved.  Increase integral accuracy.
 SCF Done:  E(RB3LYP) =  -495.848029790     A.U. after   13 cycles
             Convg  =    0.6459D-08             -V/T =  2.0094
 Calling FoFJK, ICntrl=      2127 FMM=F ISym2X=0 I1Cent= 0 IOpClX= 0 NMat=1 NMatS=1 NMatT=0.
 ***** Axes restored to original set *****
 -------------------------------------------------------------------
 Center     Atomic                   Forces (Hartrees/Bohr)
 Number     Number              X              Y              Z
 -------------------------------------------------------------------
      1        6           0.000227420   -0.002236044    0.001031207
      2        6          -0.002017016    0.001026830    0.003574489
      3        6          -0.000160068   -0.000845074   -0.000022411
      4        6          -0.001046243   -0.000992174   -0.000991680
      5        6           0.000182179   -0.000677710    0.000063327
      6        6          -0.000244994    0.001161883    0.001123759
      7        7          -0.000456915   -0.000420920   -0.001771059
      8        7          -0.000318068   -0.002660876   -0.003116985
      9        8           0.002213242    0.001479570   -0.000149671
     10        8           0.000589659   -0.000040603   -0.003089520
     11        1           0.000049639    0.000411855   -0.000034282
     12        1           0.000059735    0.000185462    0.000806981
     13        1          -0.000687140    0.000561135    0.000395007
     14        1           0.000415173    0.000483079    0.000299402
     15        1           0.000483817    0.000506014    0.000478045
     16        1          -0.000028882    0.000406516    0.000428188
     17        1           0.000642263   -0.000693827   -0.000409537
     18        1          -0.000121956   -0.000353273    0.000323800
     19        1           0.000272075   -0.000560664   -0.000506852
     20        1          -0.000631947   -0.000568640    0.000328991
     21        1           0.000630611    0.000790543    0.001194126
     22        1          -0.000052583    0.003036917    0.000044676
 -------------------------------------------------------------------
 Cartesian Forces:  Max     0.003574489 RMS     0.001143084

 GradGradGradGradGradGradGradGradGradGradGradGradGradGradGradGradGradGrad
 Berny optimization.
 Using GEDIIS/GDIIS optimizer.
 Internal  Forces:  Max     0.003571021 RMS     0.000933872
 Search for a local minimum.
 Step number   2 out of a maximum of  108
 All quantities printed in internal units (Hartrees-Bohrs-Radians)
 Mixed Optimization -- En-DIIS/RFO-DIIS
 Update second derivatives using D2CorX and points    1    2
 DE= -2.97D-03 DEPred=-3.23D-03 R= 9.22D-01
 SS=  1.41D+00  RLast= 3.47D-01 DXNew= 5.0454D-01 1.0416D+00
 Trust test= 9.22D-01 RLast= 3.47D-01 DXMaxT set to 5.05D-01
 ITU=  1  0
 Use linear search instead of GDIIS.
     Eigenvalues ---    0.00228   0.00470   0.00709   0.00855   0.00928
     Eigenvalues ---    0.01147   0.01274   0.01437   0.01496   0.01958
     Eigenvalues ---    0.02105   0.04553   0.05203   0.05602   0.05623
     Eigenvalues ---    0.06643   0.07068   0.07466   0.07520   0.07692
     Eigenvalues ---    0.15485   0.15683   0.15987   0.16000   0.16000
     Eigenvalues ---    0.16000   0.16000   0.16000   0.16000   0.16000
     Eigenvalues ---    0.16748   0.17455   0.18270   0.21883   0.22158
     Eigenvalues ---    0.24454   0.24997   0.25000   0.26576   0.28293
     Eigenvalues ---    0.30241   0.32459   0.34101   0.34132   0.34220
     Eigenvalues ---    0.34245   0.34397   0.34422   0.34424   0.34437
     Eigenvalues ---    0.34469   0.34571   0.37391   0.40939   0.44714
     Eigenvalues ---    0.45243   0.48383   0.51174   0.90528   0.91432
 RFO step:  Lambda=-1.37815523D-03 EMin= 2.28412860D-03
 Quartic linear search produced a step of  0.03053.
 Iteration  1 RMS(Cart)=  0.10513623 RMS(Int)=  0.00547222
 Iteration  2 RMS(Cart)=  0.00720956 RMS(Int)=  0.00018064
 Iteration  3 RMS(Cart)=  0.00003166 RMS(Int)=  0.00017945
 Iteration  4 RMS(Cart)=  0.00000000 RMS(Int)=  0.00017945
 Variable       Old X    -DE/DX   Delta X   Delta X   Delta X     New X
                                 (Linear)    (Quad)   (Total)
    R1        2.87607  -0.00120   0.00102  -0.00010   0.00092   2.87699
    R2        2.58843   0.00220  -0.00009   0.00402   0.00393   2.59236
    R3        2.31580   0.00016  -0.00022  -0.00059  -0.00081   2.31499
    R4        2.92234  -0.00090   0.00018  -0.00254  -0.00236   2.91998
    R5        2.57623  -0.00146  -0.00089  -0.00613  -0.00702   2.56921
    R6        2.31331   0.00174  -0.00052   0.00007  -0.00046   2.31286
    R7        2.07062   0.00042   0.00015   0.00173   0.00188   2.07250
    R8        2.06254   0.00018  -0.00012   0.00010  -0.00002   2.06252
    R9        2.07077  -0.00037   0.00012  -0.00064  -0.00052   2.07026
   R10        2.90059  -0.00019   0.00073   0.00196   0.00269   2.90328
   R11        2.07301  -0.00018   0.00006  -0.00034  -0.00028   2.07272
   R12        2.06945  -0.00041  -0.00001  -0.00120  -0.00121   2.06825
   R13        2.06879   0.00022  -0.00001   0.00060   0.00059   2.06938
   R14        2.75296  -0.00249   0.00090  -0.00308  -0.00218   2.75078
   R15        2.07085  -0.00014   0.00015   0.00013   0.00029   2.07114
   R16        2.06325   0.00042  -0.00002   0.00113   0.00111   2.06435
   R17        2.06841  -0.00008   0.00007   0.00003   0.00011   2.06852
   R18        2.73403   0.00166  -0.00078   0.00170   0.00091   2.73494
   R19        2.06667   0.00026  -0.00016   0.00021   0.00005   2.06672
   R20        1.90730   0.00003  -0.00046  -0.00157  -0.00203   1.90527
   R21        1.90829   0.00096  -0.00038   0.00076   0.00038   1.90867
    A1        2.01016  -0.00143   0.00063  -0.00326  -0.00292   2.00724
    A2        2.14697  -0.00213   0.00026  -0.00738  -0.00741   2.13955
    A3        2.12595   0.00357  -0.00089   0.01125   0.01006   2.13601
    A4        2.01082  -0.00032   0.00042   0.00005   0.00041   2.01123
    A5        2.13958  -0.00279  -0.00039  -0.01273  -0.01318   2.12640
    A6        2.13221   0.00310  -0.00003   0.01202   0.01192   2.14413
    A7        1.91052   0.00008   0.00016  -0.00023  -0.00008   1.91044
    A8        1.90170  -0.00059  -0.00024  -0.00374  -0.00399   1.89771
    A9        1.96747  -0.00046   0.00094   0.00096   0.00189   1.96936
   A10        1.88973   0.00005  -0.00066  -0.00313  -0.00379   1.88594
   A11        1.89037  -0.00004  -0.00053  -0.00352  -0.00405   1.88632
   A12        1.90255   0.00099   0.00029   0.00954   0.00982   1.91237
   A13        1.93676  -0.00071  -0.00012  -0.00503  -0.00516   1.93160
   A14        1.92995  -0.00075  -0.00012  -0.00475  -0.00488   1.92507
   A15        1.93941  -0.00042  -0.00005  -0.00289  -0.00294   1.93647
   A16        1.88974   0.00079   0.00030   0.00622   0.00650   1.89624
   A17        1.87524   0.00052  -0.00007   0.00231   0.00223   1.87747
   A18        1.89081   0.00066   0.00008   0.00478   0.00485   1.89567
   A19        1.94628  -0.00130   0.00133  -0.00387  -0.00255   1.94373
   A20        1.89947   0.00011   0.00002   0.00148   0.00150   1.90097
   A21        1.93318  -0.00088   0.00070  -0.00326  -0.00257   1.93061
   A22        1.90051   0.00068  -0.00062   0.00240   0.00177   1.90227
   A23        1.88117   0.00090  -0.00088   0.00104   0.00014   1.88131
   A24        1.90255   0.00056  -0.00057   0.00242   0.00185   1.90440
   A25        1.93000  -0.00099   0.00031  -0.00797  -0.00768   1.92232
   A26        1.92341  -0.00036   0.00037  -0.00330  -0.00294   1.92047
   A27        1.90424   0.00083   0.00040   0.01036   0.01076   1.91500
   A28        1.93446   0.00076   0.00008   0.00107   0.00111   1.93557
   A29        1.92902  -0.00030   0.00051  -0.00046   0.00005   1.92907
   A30        1.84065   0.00013  -0.00171   0.00095  -0.00076   1.83989
   A31        2.12098  -0.00056  -0.00037  -0.00416  -0.00470   2.11629
   A32        2.07776   0.00116   0.00001   0.00627   0.00612   2.08388
   A33        2.08321  -0.00062   0.00033  -0.00360  -0.00342   2.07979
   A34        2.11965   0.00055  -0.00063  -0.00370  -0.00522   2.11443
   A35        2.07895  -0.00060   0.00030  -0.00908  -0.00971   2.06924
   A36        2.04204  -0.00024  -0.00024  -0.00759  -0.00875   2.03329
    D1        1.56929  -0.00031   0.00086  -0.01530  -0.01434   1.55496
    D2       -2.65034  -0.00055   0.00002  -0.02141  -0.02128  -2.67163
    D3       -0.53588  -0.00002   0.00081  -0.01131  -0.01039  -0.54627
    D4       -1.58743   0.00039  -0.00026   0.03006   0.02970  -1.55774
    D5        0.47611   0.00015  -0.00110   0.02396   0.02275   0.49887
    D6        2.59058   0.00068  -0.00031   0.03406   0.03365   2.62423
    D7       -2.99338   0.00081   0.00201   0.06205   0.06415  -2.92923
    D8       -0.17027  -0.00028  -0.00044  -0.01341  -0.01363  -0.18390
    D9        0.16315   0.00017   0.00313   0.01746   0.02038   0.18352
   D10        2.98626  -0.00091   0.00068  -0.05800  -0.05740   2.92886
   D11        1.47656   0.00029   0.00299   0.14361   0.14665   1.62321
   D12       -2.66178   0.00032   0.00355   0.13727   0.14089  -2.52089
   D13       -0.64861   0.00075   0.00193   0.14249   0.14449  -0.50412
   D14       -1.62909   0.00045   0.00293   0.16365   0.16650  -1.46258
   D15        0.51576   0.00049   0.00348   0.15732   0.16075   0.67650
   D16        2.52893   0.00091   0.00186   0.16254   0.16434   2.69327
   D17       -3.10962   0.00028   0.00058   0.01556   0.01618  -3.09344
   D18        0.08580   0.00080   0.00127   0.04800   0.04941   0.13521
   D19       -0.00381  -0.00002   0.00063  -0.00495  -0.00447  -0.00828
   D20       -3.09157   0.00050   0.00132   0.02749   0.02876  -3.06281
   D21        1.03322  -0.00026  -0.00011   0.00245   0.00233   1.03556
   D22       -1.10518   0.00036  -0.00085   0.01142   0.01057  -1.09461
   D23       -3.13946  -0.00007   0.00090   0.00989   0.01079  -3.12866
   D24        3.13058  -0.00023   0.00010   0.00382   0.00391   3.13450
   D25        0.99218   0.00040  -0.00064   0.01278   0.01215   1.00432
   D26       -1.04210  -0.00004   0.00111   0.01125   0.01237  -1.02972
   D27       -1.05215  -0.00017   0.00008   0.00476   0.00484  -1.04731
   D28        3.09263   0.00046  -0.00065   0.01373   0.01307   3.10571
   D29        1.05836   0.00002   0.00110   0.01220   0.01330   1.07166
   D30       -1.11900   0.00034   0.00027   0.01512   0.01534  -1.10366
   D31        1.96860  -0.00013  -0.00043  -0.01713  -0.01753   1.95107
   D32        3.06733   0.00024   0.00021   0.01358   0.01376   3.08109
   D33       -0.12826  -0.00022  -0.00049  -0.01866  -0.01911  -0.14737
   D34        0.97602   0.00002   0.00047   0.01166   0.01211   0.98812
   D35       -2.21957  -0.00045  -0.00023  -0.02058  -0.02076  -2.24033
   D36        1.56991   0.00068  -0.00015   0.03529   0.03520   1.60511
   D37       -1.25962   0.00181   0.00219   0.10951   0.11164  -1.14798
   D38       -2.57104  -0.00031   0.00055   0.02363   0.02423  -2.54682
   D39        0.88261   0.00082   0.00288   0.09785   0.10066   0.98328
   D40       -0.48298  -0.00019   0.00016   0.02421   0.02443  -0.45856
   D41        2.97067   0.00095   0.00249   0.09843   0.10087   3.07154
         Item               Value     Threshold  Converged?
 Maximum Force            0.003571     0.000450     NO 
 RMS     Force            0.000934     0.000300     NO 
 Maximum Displacement     0.404599     0.001800     NO 
 RMS     Displacement     0.107280     0.001200     NO 
 Predicted change in Energy=-8.208563D-04
 GradGradGradGradGradGradGradGradGradGradGradGradGradGradGradGradGradGrad

                          Input orientation:                          
 ---------------------------------------------------------------------
 Center     Atomic      Atomic             Coordinates (Angstroms)
 Number     Number       Type             X           Y           Z
 ---------------------------------------------------------------------
      1          6           0        0.497169   -0.588758    0.507883
      2          6           0       -2.494980    0.432734    1.414531
      3          6           0        1.501358   -0.065773   -0.509911
      4          6           0       -2.977473   -1.785603    0.305926
      5          6           0       -3.578686    1.656401    3.244609
      6          6           0       -1.893633   -0.916959    0.962527
      7          7           0       -2.934924    0.469662    2.700419
      8          7           0       -0.792576   -0.688878    0.051353
      9          8           0        0.809533   -0.869727    1.658623
     10          8           0       -2.617702    1.375321    0.643539
     11          1           0        1.544313    1.028559   -0.451754
     12          1           0        2.489302   -0.456842   -0.260376
     13          1           0        1.246627   -0.341785   -1.539047
     14          1           0       -3.407555   -1.275695   -0.564750
     15          1           0       -2.552627   -2.739536   -0.021762
     16          1           0       -3.794050   -1.988959    1.006654
     17          1           0       -2.893514    2.511719    3.258077
     18          1           0       -3.904525    1.445790    4.265800
     19          1           0       -4.448511    1.934128    2.640915
     20          1           0       -1.457324   -1.433042    1.822405
     21          1           0       -2.746240   -0.310440    3.310634
     22          1           0       -1.023433   -0.271408   -0.838914
 ---------------------------------------------------------------------
                    Distance matrix (angstroms):
                    1          2          3          4          5
     1  C    0.000000
     2  C    3.289136   0.000000
     3  C    1.522437   4.463486   0.000000
     4  C    3.680538   2.526424   4.866552   0.000000
     5  C    5.398426   2.453766   6.547454   4.565600   0.000000
     6  C    2.455678   1.545185   3.797177   1.536351   3.830077
     7  N    4.207936   1.359567   5.502137   3.289624   1.455652
     8  N    1.371819   2.452437   2.442419   2.457923   4.843514
     9  O    1.225038   3.560308   2.414022   4.124322   5.305953
    10  O    3.684892   1.223911   4.513741   3.199196   2.787124
    11  H    2.152470   4.489312   1.096718   5.379604   6.348418
    12  H    2.139209   5.332891   1.091437   5.654372   7.319234
    13  H    2.193765   4.829402   1.095532   4.830274   7.082355
    14  H    4.107225   2.769310   5.056120   1.096839   4.810166
    15  H    3.769300   3.482751   4.880787   1.094469   5.571915
    16  H    4.541354   2.778226   5.834377   1.095067   4.282929
    17  H    5.354741   2.807075   6.336884   5.214328   1.095998
    18  H    6.134838   3.338089   7.369926   5.194413   1.092410
    19  H    5.947649   2.752178   7.023407   4.631686   1.094612
    20  H    2.502164   2.173525   4.007858   2.175973   4.008429
    21  H    4.295646   2.051985   5.718261   3.355271   2.136771
    22  H    2.055919   2.781956   2.554427   2.724282   5.188538
                    6          7          8          9         10
     6  C    0.000000
     7  N    2.455051   0.000000
     8  N    1.447268   3.598530   0.000000
     9  O    2.791754   4.110992   2.276572   0.000000
    10  O    2.424990   2.269714   2.818277   4.220968   0.000000
    11  H    4.195797   5.505645   2.943427   2.932078   4.317671
    12  H    4.573545   6.248755   3.304806   2.583535   5.500488
    13  H    4.055851   6.009732   2.609252   3.270301   4.758694
    14  H    2.180190   3.732423   2.749919   4.784562   3.018562
    15  H    2.173679   4.225562   2.703390   4.198095   4.168801
    16  H    2.182364   3.106727   3.407587   4.782334   3.582461
    17  H    4.245603   2.117238   4.994080   5.263552   2.864137
    18  H    4.531874   2.084075   5.657084   5.863559   3.844691
    19  H    4.180082   2.106928   5.191517   6.039331   2.766520
    20  H    1.093663   2.564077   2.032805   2.341536   3.259311
    21  H    2.570683   1.008227   3.818760   3.960488   3.157800
    22  H    2.102183   4.090215   1.010025   3.155224   2.729666
                   11         12         13         14         15
    11  H    0.000000
    12  H    1.770888   0.000000
    13  H    1.774448   1.786751   0.000000
    14  H    5.462908   5.961215   4.845911   0.000000
    15  H    5.582862   5.539735   4.741908   1.780047   0.000000
    16  H    6.303213   6.590391   5.882363   1.768455   1.778240
    17  H    5.971341   7.082836   6.949506   5.405807   6.200744
    18  H    7.219365   8.061470   7.964046   5.566658   6.142294
    19  H    6.804307   7.890974   7.422024   4.654335   5.703276
    20  H    4.499012   4.568019   4.449893   3.086531   2.511487
    21  H    5.861512   6.339120   6.281987   4.048167   4.128299
    22  H    2.903985   3.564884   2.376617   2.601499   3.016260
                   16         17         18         19         20
    16  H    0.000000
    17  H    5.112336   0.000000
    18  H    4.736216   1.781532   0.000000
    19  H    4.299969   1.769892   1.781754   0.000000
    20  H    2.536687   4.436771   4.499627   4.577662   0.000000
    21  H    3.037047   2.826488   2.310478   2.895571   2.266355
    22  H    3.745987   5.294179   6.107992   5.357682   2.936030
                   21         22
    21  H    0.000000
    22  H    4.493143   0.000000
 Stoichiometry    C6H12N2O2
 Framework group  C1[X(C6H12N2O2)]
 Deg. of freedom    60
 Full point group                 C1      NOp   1
 Largest Abelian subgroup         C1      NOp   1
 Largest concise Abelian subgroup C1      NOp   1
                         Standard orientation:                         
 ---------------------------------------------------------------------
 Center     Atomic      Atomic             Coordinates (Angstroms)
 Number     Number       Type             X           Y           Z
 ---------------------------------------------------------------------
      1          6           0        2.070790   -0.383566   -0.247966
      2          6           0       -1.150466    0.005691    0.290927
      3          6           0        3.226286   -0.790180    0.656084
      4          6           0       -0.381368    2.360764   -0.203982
      5          6           0       -3.266930   -1.175557   -0.091434
      6          6           0       -0.038695    0.869805   -0.345367
      7          7           0       -2.125281   -0.405370   -0.562998
      8          7           0        1.235609    0.572052    0.272758
      9          8           0        1.880926   -0.893261   -1.345637
     10          8           0       -1.174587   -0.234054    1.490885
     11          1           0        2.910797   -1.618357    1.302133
     12          1           0        4.051154   -1.141822    0.033849
     13          1           0        3.572932    0.027916    1.296978
     14          1           0       -0.487573    2.635160    0.852655
     15          1           0        0.408078    2.975506   -0.647526
     16          1           0       -1.327879    2.594020   -0.702860
     17          1           0       -2.954721   -2.144608    0.314372
     18          1           0       -3.950309   -1.343538   -0.926978
     19          1           0       -3.795281   -0.635749    0.700796
     20          1           0        0.079549    0.601722   -1.399050
     21          1           0       -2.019661   -0.238736   -1.551733
     22          1           0        1.332204    0.818482    1.247484
 ---------------------------------------------------------------------
 Rotational constants (GHZ):      2.0384160      0.7637064      0.6943867
 Standard basis: 6-31G(d) (6D, 7F)
 There are   174 symmetry adapted basis functions of A   symmetry.
 Integral buffers will be    131072 words long.
 Raffenetti 2 integral format.
 Two-electron integral symmetry is turned on.
   174 basis functions,   328 primitive gaussians,   174 cartesian basis functions
    39 alpha electrons       39 beta electrons
       nuclear repulsion energy       552.9146713536 Hartrees.
 NAtoms=   22 NActive=   22 NUniq=   22 SFac= 1.00D+00 NAtFMM=   60 NAOKFM=F Big=F
 One-electron integrals computed using PRISM.
 NBasis=   174 RedAO= T  NBF=   174
 NBsUse=   174 1.00D-06 NBFU=   174
 Initial guess read from the read-write file.
 B after Tr=     0.000000    0.000000    0.000000
         Rot=    1.000000    0.000000    0.000000    0.000000 Ang=   0.00 deg.
 Initial guess orbital symmetries:
       Occupied  (A) (A) (A) (A) (A) (A) (A) (A) (A) (A) (A) (A)
                 (A) (A) (A) (A) (A) (A) (A) (A) (A) (A) (A) (A)
                 (A) (A) (A) (A) (A) (A) (A) (A) (A) (A) (A) (A)
                 (A) (A) (A)
       Virtual   (A) (A) (A) (A) (A) (A) (A) (A) (A) (A) (A) (A)
                 (A) (A) (A) (A) (A) (A) (A) (A) (A) (A) (A) (A)
                 (A) (A) (A) (A) (A) (A) (A) (A) (A) (A) (A) (A)
                 (A) (A) (A) (A) (A) (A) (A) (A) (A) (A) (A) (A)
                 (A) (A) (A) (A) (A) (A) (A) (A) (A) (A) (A) (A)
                 (A) (A) (A) (A) (A) (A) (A) (A) (A) (A) (A) (A)
                 (A) (A) (A) (A) (A) (A) (A) (A) (A) (A) (A) (A)
                 (A) (A) (A) (A) (A) (A) (A) (A) (A) (A) (A) (A)
                 (A) (A) (A) (A) (A) (A) (A) (A) (A) (A) (A) (A)
                 (A) (A) (A) (A) (A) (A) (A) (A) (A) (A) (A) (A)
                 (A) (A) (A) (A) (A) (A) (A) (A) (A) (A) (A) (A)
                 (A) (A) (A)
 Harris functional with IExCor=  402 diagonalized for initial guess.
 ExpMin= 1.61D-01 ExpMax= 5.48D+03 ExpMxC= 8.25D+02 IAcc=3 IRadAn=         5 AccDes= 0.00D+00
 HarFok:  IExCor=  402 AccDes= 0.00D+00 IRadAn=         5 IDoV= 1
 ScaDFX=  1.000000  1.000000  1.000000  1.000000
 FoFCou: FMM=F IPFlag=           0 FMFlag=      100000 FMFlg1=           0
         NFxFlg=           0 DoJE=T BraDBF=F KetDBF=T FulRan=T
         Omega=  0.000000  0.000000  1.000000  0.000000  0.000000 ICntrl=     500 IOpCl=  0
         NMat0=    1 NMatS0=    1 NMatT0=    0 NMatD0=    1 NMtDS0=    0 NMtDT0=    0
         I1Cent=           4 NGrid=           0.
 Petite list used in FoFCou.
 Requested convergence on RMS density matrix=1.00D-08 within 128 cycles.
 Requested convergence on MAX density matrix=1.00D-06.
 Requested convergence on             energy=1.00D-06.
 No special actions if energy rises.
 Integral accuracy reduced to 1.0D-05 until final iterations.
 Initial convergence to 1.0D-05 achieved.  Increase integral accuracy.
 SCF Done:  E(RB3LYP) =  -495.849097759     A.U. after   15 cycles
             Convg  =    0.3366D-08             -V/T =  2.0093
 Calling FoFJK, ICntrl=      2127 FMM=F ISym2X=0 I1Cent= 0 IOpClX= 0 NMat=1 NMatS=1 NMatT=0.
 ***** Axes restored to original set *****
 -------------------------------------------------------------------
 Center     Atomic                   Forces (Hartrees/Bohr)
 Number     Number              X              Y              Z
 -------------------------------------------------------------------
      1        6           0.000109017    0.004154957    0.000449595
      2        6          -0.000993616   -0.004552892    0.001325896
      3        6           0.000062330   -0.001716404   -0.000163971
      4        6          -0.000309290    0.000375268   -0.000274674
      5        6           0.000137347    0.000307766    0.000682816
      6        6          -0.001478427   -0.000118817    0.002189613
      7        7          -0.001553422    0.001916594   -0.000446471
      8        7           0.001919126   -0.002571932   -0.002030497
      9        8           0.001164281   -0.001081898   -0.000073280
     10        8           0.000030820    0.002497278   -0.002967145
     11        1          -0.000418323   -0.000164430    0.000464227
     12        1           0.000219816   -0.000119873   -0.000156620
     13        1          -0.000097036   -0.000035924    0.000297777
     14        1           0.000481137    0.000105131    0.000347804
     15        1           0.000155995    0.000189467    0.000101087
     16        1           0.000075453    0.000157608    0.000374931
     17        1           0.000308123   -0.000492936   -0.000135386
     18        1           0.000005246   -0.000177042   -0.000105310
     19        1           0.000215770   -0.000467606   -0.000241716
     20        1          -0.000660910   -0.000535097   -0.000047624
     21        1           0.001047200   -0.000259869    0.000690766
     22        1          -0.000420635    0.002590651   -0.000281816
 -------------------------------------------------------------------
 Cartesian Forces:  Max     0.004552892 RMS     0.001239257

 GradGradGradGradGradGradGradGradGradGradGradGradGradGradGradGradGradGrad
 Berny optimization.
 Using GEDIIS/GDIIS optimizer.
 Internal  Forces:  Max     0.003789294 RMS     0.000803305
 Search for a local minimum.
 Step number   3 out of a maximum of  108
 All quantities printed in internal units (Hartrees-Bohrs-Radians)
 Mixed Optimization -- En-DIIS/RFO-DIIS
 Swaping is turned off.
 Update second derivatives using D2CorX and points    2    3
 DE= -1.07D-03 DEPred=-8.21D-04 R= 1.30D+00
 SS=  1.41D+00  RLast= 4.44D-01 DXNew= 8.4853D-01 1.3308D+00
 Trust test= 1.30D+00 RLast= 4.44D-01 DXMaxT set to 8.49D-01
 ITU=  1  1  0
     Eigenvalues ---    0.00107   0.00469   0.00602   0.00712   0.00970
     Eigenvalues ---    0.01146   0.01334   0.01521   0.01942   0.02094
     Eigenvalues ---    0.02527   0.04580   0.05197   0.05645   0.05672
     Eigenvalues ---    0.06556   0.07047   0.07500   0.07564   0.07693
     Eigenvalues ---    0.15215   0.15703   0.15970   0.16000   0.16000
     Eigenvalues ---    0.16000   0.16000   0.16000   0.16000   0.16250
     Eigenvalues ---    0.16744   0.17366   0.17971   0.22011   0.22421
     Eigenvalues ---    0.23940   0.24993   0.25105   0.27565   0.28286
     Eigenvalues ---    0.30240   0.32228   0.34111   0.34134   0.34223
     Eigenvalues ---    0.34242   0.34395   0.34421   0.34436   0.34451
     Eigenvalues ---    0.34462   0.34603   0.37520   0.40539   0.44765
     Eigenvalues ---    0.45095   0.48704   0.50762   0.90773   0.91456
 En-DIIS/RFO-DIIS IScMMF=        0 using points:     3    2
 RFO step:  Lambda=-2.63032297D-04.
 DidBck=F Rises=F RFO-DIIS coefs:    2.07142   -1.07142
 Iteration  1 RMS(Cart)=  0.17553705 RMS(Int)=  0.11794887
 Iteration  2 RMS(Cart)=  0.14996255 RMS(Int)=  0.06158438
 Iteration  3 RMS(Cart)=  0.12321858 RMS(Int)=  0.01321326
 Iteration  4 RMS(Cart)=  0.02852432 RMS(Int)=  0.00209902
 Iteration  5 RMS(Cart)=  0.00059262 RMS(Int)=  0.00206742
 Iteration  6 RMS(Cart)=  0.00000038 RMS(Int)=  0.00206742
 Variable       Old X    -DE/DX   Delta X   Delta X   Delta X     New X
                                  (DIIS)     (GDIIS)  (Total)
    R1        2.87699  -0.00115   0.00098  -0.00362  -0.00264   2.87435
    R2        2.59236   0.00133   0.00421   0.01046   0.01467   2.60703
    R3        2.31499   0.00048  -0.00087  -0.00056  -0.00143   2.31356
    R4        2.91998  -0.00111  -0.00253  -0.01087  -0.01340   2.90658
    R5        2.56921   0.00039  -0.00752  -0.01004  -0.01756   2.55165
    R6        2.31286   0.00379  -0.00049   0.00682   0.00633   2.31918
    R7        2.07250  -0.00016   0.00201   0.00196   0.00397   2.07647
    R8        2.06252   0.00021  -0.00002   0.00092   0.00090   2.06342
    R9        2.07026  -0.00025  -0.00055  -0.00188  -0.00243   2.06782
   R10        2.90328  -0.00099   0.00288  -0.00133   0.00155   2.90483
   R11        2.07272  -0.00042  -0.00030  -0.00277  -0.00307   2.06965
   R12        2.06825  -0.00013  -0.00129  -0.00244  -0.00374   2.06451
   R13        2.06938   0.00015   0.00063   0.00169   0.00232   2.07169
   R14        2.75078  -0.00090  -0.00233  -0.00531  -0.00764   2.74314
   R15        2.07114  -0.00019   0.00031  -0.00039  -0.00009   2.07105
   R16        2.06435  -0.00007   0.00119   0.00103   0.00221   2.06657
   R17        2.06852  -0.00016   0.00011  -0.00061  -0.00050   2.06802
   R18        2.73494   0.00304   0.00098   0.01630   0.01728   2.75222
   R19        2.06672  -0.00005   0.00006  -0.00063  -0.00057   2.06615
   R20        1.90527   0.00082  -0.00217  -0.00012  -0.00229   1.90298
   R21        1.90867   0.00142   0.00041   0.00607   0.00647   1.91514
    A1        2.00724  -0.00055  -0.00313  -0.00547  -0.01057   1.99667
    A2        2.13955  -0.00069  -0.00794  -0.01377  -0.02360   2.11595
    A3        2.13601   0.00127   0.01078   0.02321   0.03191   2.16792
    A4        2.01123   0.00136   0.00044   0.01447   0.01449   2.02572
    A5        2.12640  -0.00164  -0.01412  -0.03094  -0.04549   2.08092
    A6        2.14413   0.00030   0.01278   0.02003   0.03239   2.17653
    A7        1.91044  -0.00093  -0.00008  -0.01255  -0.01271   1.89774
    A8        1.89771   0.00043  -0.00428   0.00073  -0.00364   1.89407
    A9        1.96936  -0.00019   0.00203   0.00223   0.00420   1.97356
   A10        1.88594   0.00028  -0.00407  -0.00259  -0.00676   1.87917
   A11        1.88632   0.00044  -0.00434  -0.00310  -0.00747   1.87885
   A12        1.91237  -0.00002   0.01052   0.01501   0.02545   1.93782
   A13        1.93160  -0.00049  -0.00553  -0.01385  -0.01953   1.91207
   A14        1.92507  -0.00015  -0.00523  -0.00868  -0.01400   1.91107
   A15        1.93647  -0.00040  -0.00315  -0.00897  -0.01225   1.92422
   A16        1.89624   0.00031   0.00697   0.01300   0.01984   1.91608
   A17        1.87747   0.00045   0.00239   0.00858   0.01078   1.88825
   A18        1.89567   0.00031   0.00520   0.01123   0.01636   1.91203
   A19        1.94373  -0.00065  -0.00273  -0.00851  -0.01130   1.93243
   A20        1.90097   0.00001   0.00160   0.00263   0.00424   1.90521
   A21        1.93061  -0.00064  -0.00275  -0.01032  -0.01314   1.91747
   A22        1.90227   0.00038   0.00189   0.00623   0.00814   1.91041
   A23        1.88131   0.00060   0.00015   0.00490   0.00492   1.88623
   A24        1.90440   0.00034   0.00198   0.00556   0.00755   1.91196
   A25        1.92232  -0.00104  -0.00823  -0.03071  -0.03920   1.88312
   A26        1.92047  -0.00067  -0.00315  -0.01868  -0.02238   1.89808
   A27        1.91500   0.00107   0.01153   0.04108   0.05282   1.96782
   A28        1.93557   0.00094   0.00119   0.00279   0.00304   1.93861
   A29        1.92907  -0.00039   0.00005  -0.00288  -0.00241   1.92666
   A30        1.83989   0.00016  -0.00081   0.01088   0.01019   1.85008
   A31        2.11629   0.00047  -0.00503  -0.00403  -0.01220   2.10409
   A32        2.08388  -0.00031   0.00656   0.00308   0.00630   2.09018
   A33        2.07979  -0.00019  -0.00366  -0.00711  -0.01380   2.06599
   A34        2.11443   0.00141  -0.00559  -0.00132  -0.01671   2.09772
   A35        2.06924  -0.00061  -0.01041  -0.02706  -0.04885   2.02039
   A36        2.03329  -0.00092  -0.00938  -0.03039  -0.05075   1.98254
    D1        1.55496   0.00059  -0.01536   0.09913   0.08305   1.63800
    D2       -2.67163   0.00064  -0.02280   0.08928   0.06581  -2.60582
    D3       -0.54627   0.00080  -0.01113   0.11032   0.09853  -0.44774
    D4       -1.55774  -0.00065   0.03182  -0.05322  -0.02075  -1.57848
    D5        0.49887  -0.00060   0.02438  -0.06307  -0.03799   0.46088
    D6        2.62423  -0.00044   0.03605  -0.04202  -0.00527   2.61896
    D7       -2.92923  -0.00055   0.06873  -0.00305   0.06346  -2.86578
    D8       -0.18390  -0.00111  -0.01460  -0.17810  -0.19233  -0.37623
    D9        0.18352   0.00065   0.02183   0.14828   0.16973   0.35326
   D10        2.92886   0.00009  -0.06150  -0.02678  -0.08605   2.84280
   D11        1.62321   0.00046   0.15712   0.52008   0.67620   2.29941
   D12       -2.52089   0.00049   0.15096   0.49063   0.64153  -1.87935
   D13       -0.50412   0.00092   0.15481   0.51674   0.67133   0.16721
   D14       -1.46258   0.00001   0.17839   0.44956   0.62780  -0.83479
   D15        0.67650   0.00004   0.17223   0.42011   0.59313   1.26963
   D16        2.69327   0.00046   0.17608   0.44622   0.62292  -2.96699
   D17       -3.09344  -0.00028   0.01734  -0.04304  -0.02672  -3.12016
   D18        0.13521   0.00018   0.05294   0.06557   0.11833   0.25354
   D19       -0.00828   0.00011  -0.00479   0.02646   0.02186   0.01358
   D20       -3.06281   0.00057   0.03082   0.13507   0.16690  -2.89591
[...]
 00016316,0.00002682,0.00003702,-0.00002614,-0.00088728,-0.00034180,0.0
 0017173,-0.00052767,-0.00033938,-0.00091734,0.00004498,0.00011649,-0.0
 0005762,0.00117041,-0.00455553,-0.00371547,-0.03391606,0.19325053,0.00
 323544,-0.01769167,-0.01566335,-0.00005896,0.00023409,0.00003603,0.031
 13145,-0.13120631,-0.17939117,0.00016181,-0.00005222,-0.00021438,-0.00
 003450,0.00003891,-0.00000771,0.00050754,-0.00001028,0.00060492,0.0000
 9856,-0.00009588,-0.00007098,0.00122770,0.00204143,-0.00155034,0.00000
 465,0.00230020,0.00293968,0.00007868,-0.00010373,-0.00000420,0.0027265
 7,-0.01027450,-0.01034324,-0.03647893,0.14370387,0.19091249,0.01126342
 ,-0.01852420,0.00522564,0.00003171,0.00000883,0.00006586,-0.08351345,0
 .07787598,-0.04010160,0.00002283,-0.00001787,-0.00003603,-0.00001622,0
 .00002279,-0.00000375,0.00038991,-0.00011029,-0.00037869,0.00005873,-0
 .00002863,-0.00008479,-0.00066884,0.00085889,-0.00048521,-0.00245287,-
 0.00326517,0.00582476,0.00000698,0.00003479,-0.00009453,-0.00779631,0.
 02507652,-0.01079225,-0.00268681,0.00314423,-0.00256217,0.08613314,0.0
 0861904,-0.01097035,0.00029046,0.00002391,-0.00024436,0.00009324,0.075
 10786,-0.23348355,0.09816358,0.00003123,-0.00003048,0.00001586,0.00001
 131,-0.00001739,0.00000142,-0.00033328,0.00027545,-0.00001656,-0.00001
 774,0.00005986,-0.00002643,-0.00015635,0.00102819,-0.00125811,-0.00305
 827,0.00061535,0.00352743,-0.00004337,0.00016750,-0.00011349,-0.002100
 56,0.00762184,-0.00387132,0.00714893,-0.01703503,0.01104876,-0.0848425
 3,0.25084249,-0.01608355,0.01681472,-0.00741669,0.00000044,0.00029351,
 -0.00014738,-0.03793947,0.09648816,-0.10172815,-0.00002986,0.00001883,
 0.00009256,0.00001049,0.00000271,0.00000577,-0.00009048,-0.00018245,0.
 00013666,-0.00004558,-0.00005833,0.00008152,0.00029928,-0.00158053,0.0
 0087813,0.00562118,0.00377384,-0.00361134,-0.00006412,-0.00027853,0.00
 010493,-0.00359017,0.01192889,-0.00655663,0.00842925,-0.01906554,0.012
 87277,0.04199104,-0.10808881,0.10553837,-0.00096932,0.00112398,-0.0004
 7389,-0.00032986,0.00179221,-0.00000882,-0.00001835,-0.00002423,0.0000
 5144,-0.11798937,0.03615588,-0.10952555,-0.00004747,0.00011058,-0.0000
 8418,-0.00975374,0.00346641,-0.01576624,0.00029417,-0.00029483,0.00006
 312,0.00240874,0.00126875,0.00084468,-0.00026226,-0.00081323,0.0005898
 2,0.00021539,-0.00068970,0.00069378,0.00001668,-0.00000934,0.00002001,
 -0.00005077,-0.00000074,0.00001664,-0.00002472,-0.00004290,0.00001826,
 0.12421916,-0.00007439,-0.00006066,0.00042976,-0.00105757,0.00261764,-
 0.00177358,-0.00006101,0.00002142,-0.00012100,0.03658039,-0.06779039,0
 .05926774,-0.00004613,-0.00006137,-0.00006229,-0.01459589,0.00500576,-
 0.02464807,0.00041104,-0.00009357,0.00032403,0.00247943,0.00160740,0.0
 0017972,0.00045806,0.00032165,0.00001444,0.00032569,0.00000387,0.00100
 167,-0.00001966,-0.00001052,0.00000665,0.00002034,-0.00000124,-0.00000
 556,0.00001110,0.00000948,-0.00001519,-0.03631982,0.07104864,0.0002367
 2,-0.00028512,0.00010468,-0.00116995,0.00156029,-0.00070810,-0.0000504
 0,0.00002722,-0.00001124,-0.11048814,0.05695419,-0.23047335,-0.0001848
 1,-0.00004774,0.00002694,-0.00446432,0.00163947,-0.01002132,0.00060477
 ,-0.00017731,-0.00002168,0.00078289,-0.00009448,0.00177442,0.00014877,
 0.00015781,-0.00002856,0.00052723,-0.00077902,0.00073224,-0.00001483,-
 0.00000606,0.00001320,-0.00001617,-0.00000223,0.00002164,0.00000215,-0
 .00000838,0.00000066,0.12314774,-0.06118083,0.24791523,0.00074550,-0.0
 0291839,0.00123449,-0.00452924,-0.00152839,-0.00091454,-0.00013932,0.0
 0011603,-0.00015880,-0.14791579,0.13111316,0.03505376,0.00018022,0.000
 20891,-0.00002065,0.01125304,-0.01921012,-0.00588436,0.00119282,0.0000
 8611,-0.00031342,0.00051623,0.00196646,-0.00021982,-0.00050470,0.00175
 000,-0.00067887,0.00112521,-0.00100572,0.00089924,-0.00003456,0.000016
 40,-0.00000200,0.00000826,0.00002476,-0.00001992,0.00005847,0.00007052
 ,-0.00011111,-0.00903937,0.01073817,0.00418301,0.15807834,0.00004406,-
 0.00258161,0.00116879,-0.00572668,-0.00055266,-0.00104476,-0.00015713,
 -0.00001982,-0.00022371,0.12830528,-0.21189850,-0.04105180,0.00016700,
 0.00035297,0.00000458,0.01371220,-0.02397680,-0.00735608,0.00088137,-0
 .00017606,-0.00025461,0.00047602,0.00259672,0.00035336,0.00117987,0.00
 193543,-0.00039447,0.00100205,-0.00104627,0.00069992,-0.00003309,0.000
 02404,0.00001755,-0.00001633,0.00002975,-0.00003382,0.00003568,0.00007
 424,-0.00009730,0.00360977,-0.00518491,-0.00133832,-0.13753982,0.23037
 900,0.00095987,-0.00087997,0.00083209,-0.00206546,-0.00023066,-0.00079
 074,-0.00011266,0.00012146,-0.00017886,0.03277821,-0.04108302,-0.06213
 528,-0.00020755,0.00023991,0.00008496,0.00671895,-0.00954472,-0.003089
 18,-0.00001192,-0.00065397,-0.00016528,-0.00063139,0.00145269,0.000041
 49,0.00031252,0.00091592,-0.00087074,0.00052779,-0.00086501,0.00079651
 ,-0.00003774,-0.00001619,0.00001503,0.00004752,0.00001577,-0.00002390,
 0.00003411,0.00002914,-0.00005792,-0.01662755,0.02236125,0.00745067,-0
 .03622867,0.04745850,0.06244230,0.00173379,-0.00122630,0.00015691,-0.0
 0102403,0.00057287,0.00116202,0.00001463,0.00029708,0.00027701,-0.1599
 7080,-0.04626514,0.11992882,0.00033989,0.00004717,-0.00021254,-0.00982
 229,-0.00158631,0.01363027,0.00059789,0.00059210,0.00003284,-0.0029675
 5,-0.00381461,-0.00051762,-0.00059946,0.00047654,-0.00064508,0.0004855
 9,0.00001189,-0.00036483,-0.00001390,-0.00002545,-0.00000285,-0.000100
 39,-0.00001492,0.00007635,0.00001184,-0.00003021,-0.00000029,0.0130030
 6,0.00489199,-0.01199053,-0.01189978,-0.00660320,0.01341287,0.17118839
 ,0.00169600,-0.00296424,0.00048630,-0.00167453,0.00037342,0.00249879,-
 0.00002317,0.00029911,0.00022300,-0.04524054,-0.06792121,0.04883175,0.
 00047193,-0.00028193,-0.00032720,-0.01245459,-0.00540916,0.01923052,0.
 00119831,0.00049460,-0.00049465,-0.00601883,-0.00357510,-0.00062216,-0
 .00003331,0.00157777,-0.00061952,0.00041708,0.00011355,-0.00079180,-0.
 00001710,-0.00000113,-0.00000808,-0.00012979,-0.00001206,0.00007109,0.
 00001277,0.00001091,-0.00002976,-0.00541051,-0.00304038,0.00548020,0.0
 1570823,0.00947431,-0.01925644,0.05248377,0.07047534,-0.00060814,-0.00
 002521,0.00012996,0.00130141,0.00029538,-0.00089667,0.00000395,0.00007
 232,0.00004946,0.12051354,0.05031487,-0.18331519,-0.00007705,-0.000014
 45,0.00004112,-0.00771944,-0.00228781,0.00767772,-0.00089329,-0.000896
 41,-0.00008035,-0.00019128,-0.00195342,0.00122847,0.00012410,0.0000412
 2,0.00007895,-0.00024240,-0.00007590,0.00052081,0.00001546,0.00000551,
 0.00000046,-0.00006208,0.00001183,0.00001761,-0.00000035,0.00000975,-0
 .00002898,0.01862398,0.00606553,-0.01768709,0.00292034,0.00183815,-0.0
 0487235,-0.13384741,-0.05356090,0.19625768,0.00023171,-0.00021138,0.00
 008141,0.00134457,0.00466175,-0.00130606,-0.00004720,0.00002192,-0.000
 00030,-0.00004733,-0.00014250,-0.00004516,-0.07524494,-0.03116438,-0.0
 7319833,-0.00080578,-0.00073940,0.00003916,0.00282152,0.01295227,0.028
 27822,-0.00045144,0.00043306,-0.00000162,-0.00010408,0.00010193,-0.000
 02847,0.00023788,-0.00127112,0.00070587,-0.00001708,-0.00000251,0.0000
 1173,-0.00001110,-0.00000177,0.00000936,0.00000582,-0.00000341,0.00000
 032,0.00001608,0.00000505,0.00003753,0.00000069,0.00001221,0.00003532,
 -0.00002730,-0.00003604,-0.00000514,0.07939772,-0.00035735,0.00031582,
 -0.00007091,-0.00293245,-0.00556100,0.00458878,0.00005338,-0.00002583,
 -0.00000681,0.00011078,0.00015406,0.00000820,-0.03040331,-0.08296481,-
 0.07950368,0.00084561,0.00063414,0.00005952,0.00556319,-0.01416724,-0.
 02826929,0.00048702,-0.00048477,0.00003066,0.00015913,-0.00016530,0.00
 004746,-0.00130843,0.00236073,-0.00168788,0.00001875,0.00000568,-0.000
 01116,0.00001321,-0.00000034,-0.00001353,-0.00000647,0.00000270,0.0000
 0404,-0.00003651,-0.00000817,-0.00001571,0.00000771,-0.00002859,-0.000
 04767,0.00001391,0.00006990,-0.00000818,0.02521990,0.09133050,-0.00037
 920,0.00025014,-0.00002101,-0.00211055,-0.00151395,0.00131393,0.000046
 06,-0.00001273,-0.00000853,0.00011847,-0.00000723,0.00000904,-0.069198
 46,-0.08172414,-0.25409113,-0.00014489,0.00010947,-0.00021824,0.006124
 36,-0.00597441,-0.00531756,0.00048502,-0.00029619,-0.00006217,0.000163
 61,-0.00014612,0.00004691,0.00086968,0.00000940,-0.00039376,0.00002137
 ,0.00000147,-0.00000916,0.00000930,0.00000213,-0.00001079,-0.00000854,
 0.00000166,-0.00000244,-0.00001108,0.00001291,0.00000649,-0.00001010,-
 0.00004722,-0.00003925,0.00002289,0.00008411,-0.00000058,0.07145445,0.
 09644799,0.27332538,0.00047113,-0.00033069,0.00002038,-0.00015120,0.00
 208609,-0.00635525,-0.00006058,0.00000714,0.00000395,-0.00041725,0.000
 13163,0.00009396,-0.27258056,-0.09053274,0.01254847,0.00039396,0.00019
 718,0.00049019,-0.02184058,0.00440416,0.01066753,-0.00044645,0.0004399
 7,0.00023694,-0.00018304,0.00022055,-0.00003943,-0.00006000,-0.0015837
 3,0.00110121,-0.00001826,-0.00000782,0.00000954,-0.00001150,0.00000431
 ,0.00001390,0.00000576,-0.00000523,-0.00000459,0.00002512,-0.00000775,
 0.00004215,0.00010012,0.00011969,0.00007193,-0.00001304,-0.00004212,-0
 .00004100,-0.00809976,-0.00542373,-0.00013141,0.30171425,-0.00022734,0
 .00016981,-0.00005906,0.00146881,-0.00383992,0.00546064,0.00003842,-0.
 00000193,0.00000852,0.00043104,-0.00014699,-0.00014691,-0.09420140,-0.
 08650174,0.00734752,-0.00087319,-0.00052982,-0.00106000,0.03475618,0.0
 0690558,-0.00945149,0.00022318,-0.00020918,-0.00013171,0.00008012,-0.0
 0009672,0.00003688,-0.00042490,0.00292867,-0.00057593,0.00001607,0.000
 00208,-0.00000904,0.00000420,0.00000134,-0.00000540,-0.00000388,0.0000
 0164,-0.00000323,-0.00001418,0.00000864,-0.00000057,-0.00011572,-0.000
 14491,-0.00002700,-0.00002940,-0.00005157,0.00006082,-0.01023258,-0.00
 370449,0.00195941,0.09123366,0.09120376,-0.00020129,0.00012758,-0.0000
 0863,0.00145879,-0.00031620,0.00102821,0.00002948,-0.00000250,0.000000
 32,0.00011336,-0.00000379,0.00000143,0.01122080,0.00508125,-0.05303890
 ,-0.00004363,0.00003081,-0.00025522,0.01265222,0.00212875,-0.00167813,
 0.00022229,-0.00023183,-0.00013337,0.00008253,-0.00009159,0.00001053,0
 .00007063,-0.00064630,-0.00065434,0.00000974,0.00000270,-0.00000630,0.
 00000621,-0.00000128,-0.00000534,-0.00000260,0.00000402,0.00000087,0.0
 0000361,-0.00000800,-0.00005953,-0.00004542,-0.00003715,-0.00002261,0.
 00000930,-0.00001213,0.00003537,-0.02808512,-0.01140124,0.00296419,-0.
 01913362,-0.00185173,0.05093240,-0.00025312,0.00013218,0.00003618,0.00
 143101,0.00358796,-0.00273449,0.00001332,0.00000007,-0.00001129,0.0001
 6319,-0.00004002,-0.00000855,-0.05174887,-0.01532406,0.01252721,0.0001
 8357,-0.00013354,0.00014181,-0.00163184,0.02074827,-0.01692824,0.00012
 934,-0.00032131,0.00010076,0.00011590,-0.00013836,0.00002652,-0.000647
 26,-0.00257886,0.00086492,0.00000376,0.00000400,-0.00000133,0.00000626
 ,-0.00000568,-0.00000535,-0.00000354,0.00000141,0.00000954,-0.00001290
 ,0.00001519,0.00000749,-0.00003488,-0.00004267,-0.00001216,-0.00006703
 ,-0.00006155,0.00001650,0.00027779,0.00840311,-0.00771307,0.00123501,-
 0.02183669,0.02236210,0.05383333,0.00013481,-0.00004470,-0.00000403,-0
 .00082499,-0.00271437,0.00504967,-0.00000371,-0.00000197,0.00000287,-0
 .00008318,-0.00002262,0.00005706,-0.00852292,-0.18957920,0.13348801,0.
 00004916,-0.00012669,0.00019098,0.00372370,-0.02603017,0.01694370,-0.0
 0017602,0.00021271,-0.00005307,-0.00005492,0.00007227,-0.00004037,-0.0
 0232653,0.00296484,-0.00065298,-0.00000366,0.00000061,0.00000010,-0.00
 000112,0.00000036,0.00000135,0.00000362,0.00000177,-0.00000167,0.00000
 716,-0.00002877,-0.00006084,0.00001552,0.00002498,-0.00004146,0.000074
 77,0.00007128,-0.00002083,0.00082860,0.01234610,-0.00918710,-0.0007457
 0,-0.00685392,0.00716740,0.00491965,0.21178840,0.00027198,-0.00012954,
 -0.00002851,0.00120445,-0.00134555,0.00122182,-0.00002350,0.00000085,0
 .00001041,-0.00018498,0.00005668,0.00002759,0.00649596,0.14351465,-0.1
 8889453,-0.00011133,0.00038586,-0.00012235,-0.00177707,-0.00848536,0.0
 0953347,-0.00011948,0.00027859,-0.00013278,-0.00013558,0.00011288,-0.0
 0001547,0.00054211,-0.00030388,-0.00243433,-0.00001206,-0.00000020,0.0
 0000340,-0.00000563,0.00000012,0.00000635,0.00000770,-0.00000044,-0.00
 000126,0.00001501,-0.00002197,-0.00002338,0.00004142,0.00006029,0.0000
 1610,0.00004285,0.00003818,-0.00000935,0.00248731,0.02015820,-0.017521
 88,0.00022534,-0.00201264,0.00083977,-0.01087305,-0.15019018,0.1983348
 8,0.00309985,-0.00377316,0.00266922,-0.00591445,0.00254986,-0.01612393
 ,-0.00047804,-0.00029572,-0.00083415,-0.01040843,0.00294270,-0.0168711
 0,0.00004820,0.00001808,0.00049382,-0.11537433,0.03781907,-0.10862859,
 0.00059290,0.00027241,0.00134173,0.00853122,-0.00947327,0.02592709,-0.
 00084975,0.00174888,-0.00191835,-0.00086243,0.00264174,0.00122714,-0.0
 0022407,0.00004891,0.00007937,0.00009357,-0.00000091,-0.00000807,0.000
 18512,0.00011553,-0.00012972,-0.00118953,-0.00334790,-0.00079618,0.000
 81434,0.00024626,0.00066339,0.00027063,0.00050260,0.00050998,-0.000065
 83,0.00008789,-0.00001491,0.00007003,-0.00006655,-0.00004890,0.0001698
 4,-0.00009890,-0.00012999,0.12479081,0.00114261,0.00053367,-0.00079284
 ,0.01149508,-0.00714549,0.02456404,0.00001407,-0.00026497,0.00036172,-
 0.01574996,0.00569704,-0.02323554,-0.00037162,-0.00032185,-0.00054930,
 0.03719448,-0.06529607,0.05813407,-0.00130776,0.00066881,-0.00114194,0
 .00034798,-0.00388360,0.01053873,-0.00021584,-0.00053318,-0.00003990,0
 .00160188,-0.00488745,-0.00230918,-0.00000476,0.00003108,-0.00000356,-
 0.00000528,0.00002081,-0.00001447,-0.00008631,0.00000468,0.00005603,-0
 .00331059,-0.00429254,-0.00198579,0.00074987,0.00115855,0.00000380,0.0
 0059368,0.00106216,0.00083657,0.00012694,-0.00014439,0.00000127,-0.000
 12270,0.00016260,0.00002610,-0.00017945,0.00008283,0.00014833,-0.03284
 628,0.07686415,-0.00483705,0.00677357,-0.00134015,0.00396122,0.0002049
 3,0.00701188,0.00030050,0.00009078,0.00023808,-0.00811856,0.00158329,-
 0.00887602,-0.00028617,0.00048045,0.00049424,-0.10191723,0.05622696,-0
 .21811646,0.00085922,-0.00073830,-0.00023222,0.00205718,0.01239231,-0.
 02564146,-0.00027419,-0.00327841,0.00327015,-0.00032896,-0.00271234,0.
 00043553,0.00015669,-0.00007577,-0.00004136,-0.00002251,-0.00005047,-0
 .00000076,-0.00007045,-0.00018562,0.00012842,-0.00115587,-0.00184584,0
 .00065066,0.00052599,0.00041651,0.00013264,-0.00032547,-0.00012966,0.0
 0064240,0.00000253,-0.00004533,-0.00004064,0.00008660,-0.00005609,-0.0
 0002425,0.00000955,-0.00009081,0.00007405,0.10877816,-0.06618637,0.244
 94805,-0.00004221,0.00010045,0.00021782,0.00101310,-0.02280035,0.00457
 207,0.00005017,0.00001521,0.00002232,0.00019049,0.00074125,-0.00045233
 ,-0.00074837,0.01470830,-0.01572080,0.00021076,-0.00065191,0.00165501,
 -0.03786727,0.05199325,0.00430196,-0.00034686,0.00032653,-0.00119081,-
 0.00002158,-0.00007956,-0.00023358,0.00157272,0.00223248,0.00813580,0.
 00000157,0.00000649,-0.00000345,0.00000499,-0.00000127,-0.00001040,0.0
 0000762,0.00001373,-0.00000805,-0.00012404,-0.00018110,-0.00015853,-0.
 00021528,-0.00009041,0.00027081,-0.00006217,-0.00055546,0.00022636,0.0
 0053037,-0.00044281,0.00053585,-0.00024153,-0.00018971,-0.00062187,-0.
 00290362,0.00290322,0.00179847,-0.00133310,0.00086356,-0.00042448,0.03
 983019,-0.00017277,0.00021426,-0.00009239,-0.00464493,-0.00062833,-0.0
 0048971,0.00002165,0.00001537,0.00002934,0.00089769,0.00011651,-0.0007
 3674,-0.00207920,-0.01350362,0.01279174,0.00051912,-0.00024055,-0.0010
 4154,0.04963872,-0.30425347,0.19388826,-0.00018558,-0.00064745,-0.0000
 2664,0.00000732,-0.00021846,0.00004354,0.00303725,0.00429553,-0.000771
 88,-0.00000080,0.00000470,-0.00000077,0.00000148,-0.00000748,-0.000003
 18,-0.00000192,-0.00000214,0.00001418,-0.00015748,-0.00003645,0.000199
 58,-0.00017779,-0.00020726,0.00012555,-0.00035175,-0.00072567,-0.00034
 735,-0.00051827,-0.00006073,-0.00000204,0.00004976,0.00069436,-0.00000
 901,0.00265712,-0.00208298,-0.00208132,0.00021977,0.00047025,-0.000467
 25,-0.04857875,0.31647665,0.00046369,-0.00045272,0.00017138,-0.0122711
 4,0.02578933,-0.01400301,-0.00011013,0.00005125,-0.00000321,0.00050447
 ,0.00037087,-0.00071913,-0.00075994,-0.01227247,0.00944081,0.00074169,
 -0.00043763,-0.00089792,0.00679361,0.19123173,-0.18416257,-0.00075595,
 -0.00012276,0.00046755,-0.00022395,0.00009673,-0.00006225,0.00747481,0
 .00028577,-0.00266163,-0.00004083,-0.00000870,0.00002587,-0.00001371,-
 0.00000844,0.00002063,0.00000409,-0.00000749,0.00001591,-0.00007803,0.
 00006184,0.00021116,-0.00028802,-0.00014081,0.00041800,-0.00058785,-0.
 00116213,0.00018667,-0.00042114,-0.00033743,0.00002843,0.00019323,0.00
 051574,0.00001446,0.00204331,-0.00245058,-0.00080245,0.00055586,-0.000
 27323,0.00019389,-0.00277396,-0.20115042,0.19184575,0.00047435,0.02142
 371,-0.02030267,-0.00152198,-0.00701124,0.00956993,-0.00103529,-0.0005
 2143,-0.00133752,-0.00204478,-0.00028920,0.00273101,-0.00028924,0.0004
 6031,0.00008197,0.00746659,-0.02087022,0.00775624,0.00125630,0.0016764
 2,-0.00332475,-0.06357063,0.06585356,-0.00556350,-0.00361029,0.0041266
 5,0.00376745,0.00071939,0.00225002,-0.00607083,0.00004134,-0.00010217,
 0.00029840,0.00067497,-0.00048016,-0.00011034,-0.00101861,-0.00050961,
 0.00171721,-0.00038671,-0.00022521,-0.00038660,0.00023968,0.00041788,0
 .00010178,-0.00107796,-0.00079315,-0.00056803,0.00005766,-0.00007252,-
 0.00012883,0.00010837,-0.00003613,-0.00005861,-0.00025926,0.00018144,0
 .00024007,-0.00196655,0.00007041,0.00102329,0.00049406,-0.00018065,-0.
 00045011,0.06524861,-0.00119805,-0.01199888,0.00236159,0.00187650,0.00
 374771,-0.00391240,-0.00129219,-0.00048621,-0.00075561,0.00015256,-0.0
 0074146,0.00114811,0.00030625,-0.00033001,-0.00001449,-0.00442056,-0.0
 0346714,0.00297611,-0.00098880,-0.00137565,0.00287082,0.06962365,-0.32
 964877,0.17985103,0.00248254,0.00492431,0.00021485,-0.00023191,-0.0046
 4730,0.00051492,-0.00061271,0.00026294,0.00018750,0.00004756,0.0000095
 3,0.00007087,-0.00019793,0.00106718,0.00000642,-0.00041068,-0.00003551
 ,-0.00003637,-0.00007590,-0.00023260,-0.00007788,-0.00010850,-0.000039
 86,-0.00036149,-0.00004027,0.00009603,0.00003118,-0.00009195,0.0000027
 0,0.00004414,0.00019324,-0.00008075,-0.00018355,0.00068900,0.00001293,
 -0.00230655,-0.00033312,0.00032699,0.00042156,-0.06536872,0.34263384,-
 0.00658017,-0.00797317,-0.00011579,0.00186818,0.00531435,-0.00457216,-
 0.00029453,-0.00195515,-0.00174523,0.00008987,-0.00066310,-0.00024895,
 0.00015659,-0.00018825,0.00016170,-0.00554333,0.01593474,-0.01293903,-
 0.00067789,-0.00015002,0.00128161,-0.00511023,0.17180660,-0.11578862,0
 .00490550,-0.00007955,0.00536953,-0.00385587,-0.00184447,0.00143541,-0
 .00052001,0.00042332,0.00006297,0.00054925,0.00004694,-0.00014597,0.00
 146560,0.00039133,-0.00030580,-0.00035687,-0.00004321,0.00012624,0.000
 03744,0.00000238,0.00001631,-0.00025767,0.00007049,0.00002388,-0.00005
 187,0.00007399,0.00004277,-0.00010001,0.00000127,0.00005903,0.00014163
 ,-0.00010722,-0.00008156,0.00325814,0.00186146,-0.00390668,-0.00013822
 ,0.00012805,0.00027166,0.01101446,-0.18305076,0.13099868\\-0.00001729,
 0.00005528,-0.00003207,0.00002894,-0.00003293,-0.00002495,-0.00002657,
 0.00000440,0.00000885,-0.00001488,-0.00001656,-0.00000942,-0.00000334,
 0.00000185,0.00001113,-0.00001334,0.00003964,0.00003151,-0.00001031,0.
 00002123,0.00001201,0.00001223,-0.00002682,-0.00000286,0.00001845,-0.0
 0002884,0.00001354,-0.00000753,0.00001173,-0.00000438,0.00000542,-0.00
 000745,0.00000402,0.00000729,-0.00000326,0.00000230,0.00000914,-0.0000
 0291,-0.00000307,0.00000528,0.00000133,0.00000441,0.00000393,0.0000014
 3,0.00000231,0.00000245,-0.00000209,0.00000064,-0.00000301,0.00000174,
 0.00000218,0.00000028,-0.00000368,0.00000116,0.00000533,-0.00000634,-0
 .00000500,-0.00000262,-0.00000822,-0.00000346,-0.00000273,-0.00001257,
 -0.00000305,0.00000287,0.00001303,-0.00000575\\\@


 VIRTUE IS LEARNED AT YOUR MOTHER'S KNEE,
 VICES ARE PICKED UP AT SOME OTHER JOINT.
 Job cpu time:  0 days  0 hours 50 minutes 31.2 seconds.
 File lengths (MBytes):  RWF=     93 Int=      0 D2E=      0 Chk=      4 Scr=      1
 Normal termination of Gaussian 09 at Mon Feb 26 22:51:53 2018.
