 Entering Gaussian System, Link 0=g09
 Initial command:
 /home/fb_chem/chemsoft/lx24-amd64/Gaussian_09_C.01_NBO_3.1_64_istanbul-64/g09/l1.exe /local/2426246.1.parallel/Gau-26430.inp -scrdir=/local/2426246.1.parallel/
 Entering Link 1 = /home/fb_chem/chemsoft/lx24-amd64/Gaussian_09_C.01_NBO_3.1_64_istanbul-64/g09/l1.exe PID=     26431.
  
 Copyright (c) 1988,1990,1992,1993,1995,1998,2003,2009,2011,
            Gaussian, Inc.  All Rights Reserved.
  
 This is part of the Gaussian(R) 09 program.  It is based on
 the Gaussian(R) 03 system (copyright 2003, Gaussian, Inc.),
 the Gaussian(R) 98 system (copyright 1998, Gaussian, Inc.),
 the Gaussian(R) 94 system (copyright 1995, Gaussian, Inc.),
 the Gaussian 92(TM) system (copyright 1992, Gaussian, Inc.),
 the Gaussian 90(TM) system (copyright 1990, Gaussian, Inc.),
 the Gaussian 88(TM) system (copyright 1988, Gaussian, Inc.),
 the Gaussian 86(TM) system (copyright 1986, Carnegie Mellon
 University), and the Gaussian 82(TM) system (copyright 1983,
 Carnegie Mellon University). Gaussian is a federally registered
 trademark of Gaussian, Inc.
  
 This software contains proprietary and confidential information,
 including trade secrets, belonging to Gaussian, Inc.
  
 This software is provided under written license and may be
 used, copied, transmitted, or stored only in accord with that
 written license.
  
 The following legend is applicable only to US Government
 contracts under FAR:
  
                    RESTRICTED RIGHTS LEGEND
  
 Use, reproduction and disclosure by the US Government is
 subject to restrictions as set forth in subparagraphs (a)
 and (c) of the Commercial Computer Software - Restricted
 Rights clause in FAR 52.227-19.
  
 Gaussian, Inc.
 340 Quinnipiac St., Bldg. 40, Wallingford CT 06492
  
  
 ---------------------------------------------------------------
 Warning -- This program may not be used in any manner that
 competes with the business of Gaussian, Inc. or will provide
 assistance to any competitor of Gaussian, Inc.  The licensee
 of this program is prohibited from giving any competitor of
 Gaussian, Inc. access to this program.  By using this program,
 the user acknowledges that Gaussian, Inc. is engaged in the
 business of creating and licensing software in the field of
 computational chemistry and represents and warrants to the
 licensee that it is not a competitor of Gaussian, Inc. and that
 it will not use this program in any manner prohibited above.
 ---------------------------------------------------------------
  

 Cite this work as:
 Gaussian 09, Revision C.01,
 M. J. Frisch, G. W. Trucks, H. B. Schlegel, G. E. Scuseria, 
 M. A. Robb, J. R. Cheeseman, G. Scalmani, V. Barone, B. Mennucci, 
 G. A. Petersson, H. Nakatsuji, M. Caricato, X. Li, H. P. Hratchian, 
 A. F. Izmaylov, J. Bloino, G. Zheng, J. L. Sonnenberg, M. Hada, 
 M. Ehara, K. Toyota, R. Fukuda, J. Hasegawa, M. Ishida, T. Nakajima, 
 Y. Honda, O. Kitao, H. Nakai, T. Vreven, J. A. Montgomery, Jr., 
 J. E. Peralta, F. Ogliaro, M. Bearpark, J. J. Heyd, E. Brothers, 
 K. N. Kudin, V. N. Staroverov, T. Keith, R. Kobayashi, J. Normand, 
 K. Raghavachari, A. Rendell, J. C. Burant, S. S. Iyengar, J. Tomasi, 
 M. Cossi, N. Rega, J. M. Millam, M. Klene, J. E. Knox, J. B. Cross, 
 V. Bakken, C. Adamo, J. Jaramillo, R. Gomperts, R. E. Stratmann, 
 O. Yazyev, A. J. Austin, R. Cammi, C. Pomelli, J. W. Ochterski, 
 R. L. Martin, K. Morokuma, V. G. Zakrzewski, G. A. Voth, 
 P. Salvador, J. J. Dannenberg, S. Dapprich, A. D. Daniels, 
 O. Farkas, J. B. Foresman, J. V. Ortiz, J. Cioslowski, 
 and D. J. Fox, Gaussian, Inc., Wallingford CT, 2010.
 
 ******************************************
 Gaussian 09:  AM64L-G09RevC.01 23-Sep-2011
                26-Feb-2018 
 ******************************************
 %nprocs=4
 Will use up to    4 processors via shared memory.
 %chk=frag0-conf0.chk
 ---------------------------------------------------------
 #B3LYP/6-31G* Integral=(Grid=UltraFine) freq Opt pop=none
 ---------------------------------------------------------
 1/14=-1,18=20,19=15,26=3,38=1/1,3;
 2/9=110,12=2,17=6,18=5,40=1/2;
 3/5=1,6=6,7=1,11=2,16=1,25=1,30=1,71=1,74=-5,75=-5/1,2,3;
 4//1;
 5/5=2,38=5/2;
 7//1,2,3,16;
 1/14=-1,18=20,19=15/3(2);
 2/9=110/2;
 99//99;
 2/9=110/2;
 3/5=1,6=6,7=1,11=2,16=1,25=1,30=1,71=1,74=-5,75=-5/1,2,3;
 4/5=5,16=3/1;
 5/5=2,38=5/2;
 7//1,2,3,16;
 1/14=-1,18=20,19=15/3(-5);
 2/9=110/2;
 99/9=1/99;
 ----------------------------
 Optimization for frag0-conf0
 ----------------------------
 Charge =  0 Multiplicity = 1
 Symbolic Z-Matrix:
 C                     0.35211  -1.47166  -0.03015 
 C                    -2.38847   0.47472   1.582 
 C                     1.39619  -0.95819  -0.98339 
 C                    -2.82286  -1.73182   0.46252 
 C                    -3.86599   1.54115   3.24712 
 C                    -1.7661   -0.86244   1.13408 
 N                    -3.1968    0.39071   2.69381 
 N                    -0.65783  -0.58294   0.22409 
 O                     0.42224  -2.58223   0.49212 
 O                    -2.19478   1.53536   0.98231 
 H                     2.16719  -0.42694  -0.41919 
 H                     1.84781  -1.80007  -1.51531 
 H                     0.95525  -0.27995  -1.71941 
 H                    -3.2445   -1.23018  -0.41605 
 H                    -2.39838  -2.68436   0.12886 
 H                    -3.64933  -1.95153   1.1463 
 H                    -3.11713   2.22305   3.6585 
 H                    -4.54279   1.20796   4.037 
 H                    -4.42886   2.0507    2.46046 
 H                    -1.36411  -1.37733   2.01454 
 H                    -3.30495  -0.50767   3.15867 
 H                    -0.64119   0.33885  -0.20905 
 

 GradGradGradGradGradGradGradGradGradGradGradGradGradGradGradGradGradGrad
 Berny optimization.
 Initialization pass.
                           ----------------------------
                           !    Initial Parameters    !
                           ! (Angstroms and Degrees)  !
 --------------------------                            --------------------------
 ! Name  Definition              Value          Derivative Info.                !
 --------------------------------------------------------------------------------
 ! R1    R(1,3)                  1.5041         estimate D2E/DX2                !
 ! R2    R(1,8)                  1.3691         estimate D2E/DX2                !
 ! R3    R(1,9)                  1.2292         estimate D2E/DX2                !
 ! R4    R(2,6)                  1.5414         estimate D2E/DX2                !
 ! R5    R(2,7)                  1.3772         estimate D2E/DX2                !
 ! R6    R(2,10)                 1.2337         estimate D2E/DX2                !
 ! R7    R(3,11)                 1.0932         estimate D2E/DX2                !
 ! R8    R(3,12)                 1.0935         estimate D2E/DX2                !
 ! R9    R(3,13)                 1.0937         estimate D2E/DX2                !
 ! R10   R(4,6)                  1.5243         estimate D2E/DX2                !
 ! R11   R(4,14)                 1.096          estimate D2E/DX2                !
 ! R12   R(4,15)                 1.0949         estimate D2E/DX2                !
 ! R13   R(4,16)                 1.0949         estimate D2E/DX2                !
 ! R14   R(5,7)                  1.4413         estimate D2E/DX2                !
 ! R15   R(5,17)                 1.0932         estimate D2E/DX2                !
 ! R16   R(5,18)                 1.0922         estimate D2E/DX2                !
 ! R17   R(5,19)                 1.0933         estimate D2E/DX2                !
 ! R18   R(6,8)                  1.461          estimate D2E/DX2                !
 ! R19   R(6,20)                 1.0963         estimate D2E/DX2                !
 ! R20   R(7,21)                 1.0173         estimate D2E/DX2                !
 ! R21   R(8,22)                 1.0186         estimate D2E/DX2                !
 ! A1    A(3,1,8)              114.0878         estimate D2E/DX2                !
 ! A2    A(3,1,9)              122.5528         estimate D2E/DX2                !
 ! A3    A(8,1,9)              123.3423         estimate D2E/DX2                !
 ! A4    A(6,2,7)              114.7508         estimate D2E/DX2                !
 ! A5    A(6,2,10)             122.7611         estimate D2E/DX2                !
 ! A6    A(7,2,10)             122.4804         estimate D2E/DX2                !
 ! A7    A(1,3,11)             109.1705         estimate D2E/DX2                !
 ! A8    A(1,3,12)             109.399          estimate D2E/DX2                !
 ! A9    A(1,3,13)             110.998          estimate D2E/DX2                !
 ! A10   A(11,3,12)            109.508          estimate D2E/DX2                !
 ! A11   A(11,3,13)            109.288          estimate D2E/DX2                !
 ! A12   A(12,3,13)            108.4576         estimate D2E/DX2                !
 ! A13   A(6,4,14)             111.0269         estimate D2E/DX2                !
 ! A14   A(6,4,15)             111.2022         estimate D2E/DX2                !
 ! A15   A(6,4,16)             111.2601         estimate D2E/DX2                !
 ! A16   A(14,4,15)            107.6398         estimate D2E/DX2                !
 ! A17   A(14,4,16)            107.5811         estimate D2E/DX2                !
 ! A18   A(15,4,16)            107.9611         estimate D2E/DX2                !
 ! A19   A(7,5,17)             108.9231         estimate D2E/DX2                !
 ! A20   A(7,5,18)             108.7734         estimate D2E/DX2                !
 ! A21   A(7,5,19)             109.5608         estimate D2E/DX2                !
 ! A22   A(17,5,18)            110.0367         estimate D2E/DX2                !
 ! A23   A(17,5,19)            109.4346         estimate D2E/DX2                !
 ! A24   A(18,5,19)            110.0907         estimate D2E/DX2                !
 ! A25   A(2,6,4)              110.0517         estimate D2E/DX2                !
 ! A26   A(2,6,8)              108.7433         estimate D2E/DX2                !
 ! A27   A(2,6,20)             108.7897         estimate D2E/DX2                !
 ! A28   A(4,6,8)              111.1372         estimate D2E/DX2                !
 ! A29   A(4,6,20)             109.8865         estimate D2E/DX2                !
 ! A30   A(8,6,20)             108.1747         estimate D2E/DX2                !
 ! A31   A(2,7,5)              122.2587         estimate D2E/DX2                !
 ! A32   A(2,7,21)             119.0245         estimate D2E/DX2                !
 ! A33   A(5,7,21)             118.6913         estimate D2E/DX2                !
 ! A34   A(1,8,6)              123.44           estimate D2E/DX2                !
 ! A35   A(1,8,22)             119.7621         estimate D2E/DX2                !
 ! A36   A(6,8,22)             116.7678         estimate D2E/DX2                !
 ! D1    D(8,1,3,11)            88.3347         estimate D2E/DX2                !
 ! D2    D(8,1,3,12)          -151.8472         estimate D2E/DX2                !
 ! D3    D(8,1,3,13)           -32.1977         estimate D2E/DX2                !
 ! D4    D(9,1,3,11)           -90.2047         estimate D2E/DX2                !
 ! D5    D(9,1,3,12)            29.6134         estimate D2E/DX2                !
 ! D6    D(9,1,3,13)           149.2629         estimate D2E/DX2                !
 ! D7    D(3,1,8,6)           -179.0545         estimate D2E/DX2                !
 ! D8    D(3,1,8,22)            -1.1193         estimate D2E/DX2                !
 ! D9    D(9,1,8,6)             -0.5282         estimate D2E/DX2                !
 ! D10   D(9,1,8,22)           177.407          estimate D2E/DX2                !
 ! D11   D(7,2,6,4)             74.3881         estimate D2E/DX2                !
 ! D12   D(7,2,6,8)           -163.6592         estimate D2E/DX2                !
 ! D13   D(7,2,6,20)           -46.0543         estimate D2E/DX2                !
 ! D14   D(10,2,6,4)          -104.6265         estimate D2E/DX2                !
 ! D15   D(10,2,6,8)            17.3262         estimate D2E/DX2                !
 ! D16   D(10,2,6,20)          134.9311         estimate D2E/DX2                !
 ! D17   D(6,2,7,5)           -179.6699         estimate D2E/DX2                !
 ! D18   D(6,2,7,21)             2.1905         estimate D2E/DX2                !
 ! D19   D(10,2,7,5)            -0.6522         estimate D2E/DX2                !
 ! D20   D(10,2,7,21)         -178.7918         estimate D2E/DX2                !
 ! D21   D(14,4,6,2)            59.6953         estimate D2E/DX2                !
 ! D22   D(14,4,6,8)           -60.8253         estimate D2E/DX2                !
 ! D23   D(14,4,6,20)          179.4739         estimate D2E/DX2                !
 ! D24   D(15,4,6,2)           179.5194         estimate D2E/DX2                !
 ! D25   D(15,4,6,8)            58.9988         estimate D2E/DX2                !
 ! D26   D(15,4,6,20)          -60.702          estimate D2E/DX2                !
 ! D27   D(16,4,6,2)           -60.0931         estimate D2E/DX2                !
 ! D28   D(16,4,6,8)           179.3863         estimate D2E/DX2                !
 ! D29   D(16,4,6,20)           59.6855         estimate D2E/DX2                !
 ! D30   D(17,5,7,2)           -67.2443         estimate D2E/DX2                !
 ! D31   D(17,5,7,21)          110.9013         estimate D2E/DX2                !
 ! D32   D(18,5,7,2)           172.8165         estimate D2E/DX2                !
 ! D33   D(18,5,7,21)           -9.0379         estimate D2E/DX2                !
 ! D34   D(19,5,7,2)            52.4317         estimate D2E/DX2                !
 ! D35   D(19,5,7,21)         -129.4227         estimate D2E/DX2                !
 ! D36   D(2,6,8,1)            159.0236         estimate D2E/DX2                !
 ! D37   D(2,6,8,22)           -18.9689         estimate D2E/DX2                !
 ! D38   D(4,6,8,1)            -79.6861         estimate D2E/DX2                !
 ! D39   D(4,6,8,22)           102.3214         estimate D2E/DX2                !
 ! D40   D(20,6,8,1)            41.0289         estimate D2E/DX2                !
 ! D41   D(20,6,8,22)         -136.9636         estimate D2E/DX2                !
 --------------------------------------------------------------------------------
 Trust Radius=3.00D-01 FncErr=1.00D-07 GrdErr=1.00D-06
 Number of steps in this run=    108 maximum allowed number of steps=    132.
 GradGradGradGradGradGradGradGradGradGradGradGradGradGradGradGradGradGrad

                          Input orientation:                          
 ---------------------------------------------------------------------
 Center     Atomic      Atomic             Coordinates (Angstroms)
 Number     Number       Type             X           Y           Z
 ---------------------------------------------------------------------
      1          6           0        0.352113   -1.471660   -0.030152
      2          6           0       -2.388471    0.474719    1.581997
      3          6           0        1.396192   -0.958186   -0.983390
      4          6           0       -2.822863   -1.731821    0.462522
      5          6           0       -3.865994    1.541149    3.247122
      6          6           0       -1.766101   -0.862437    1.134078
      7          7           0       -3.196803    0.390711    2.693808
      8          7           0       -0.657831   -0.582939    0.224093
      9          8           0        0.422239   -2.582231    0.492118
     10          8           0       -2.194778    1.535359    0.982308
     11          1           0        2.167186   -0.426937   -0.419186
     12          1           0        1.847812   -1.800071   -1.515309
     13          1           0        0.955252   -0.279952   -1.719411
     14          1           0       -3.244504   -1.230182   -0.416054
     15          1           0       -2.398378   -2.684360    0.128860
     16          1           0       -3.649328   -1.951530    1.146302
     17          1           0       -3.117133    2.223052    3.658501
     18          1           0       -4.542791    1.207963    4.036999
     19          1           0       -4.428863    2.050697    2.460457
     20          1           0       -1.364106   -1.377326    2.014535
     21          1           0       -3.304951   -0.507669    3.158673
     22          1           0       -0.641186    0.338849   -0.209051
 ---------------------------------------------------------------------
                    Distance matrix (angstroms):
                    1          2          3          4          5
     1  C    0.000000
     2  C    3.728031   0.000000
     3  C    1.504134   4.791461   0.000000
     4  C    3.223489   2.512119   4.526544   0.000000
     5  C    6.132697   2.468398   7.199619   4.422042   0.000000
     6  C    2.492672   1.541416   3.806959   1.524323   3.827758
     7  N    4.845945   1.377164   6.036299   3.102195   1.441347
     8  N    1.369106   2.440832   2.412019   2.462548   4.893135
     9  O    1.229249   4.293352   2.400673   3.354811   6.556009
    10  O    4.068647   1.233734   4.793412   3.367363   2.814672
    11  H    2.130090   5.056849   1.093153   5.232659   7.329013
    12  H    2.133228   5.719622   1.093467   5.072640   8.154268
    13  H    2.153494   4.759128   1.093688   4.598142   7.157323
    14  H    3.625311   2.762550   4.683152   1.096047   4.635233
    15  H    3.010170   3.477281   4.314572   1.094919   5.452741
    16  H    4.198315   2.768804   5.565932   1.094930   4.081568
    17  H    6.268391   2.810602   7.213704   5.093319   1.093168
    18  H    6.905228   3.347503   8.072672   4.937345   1.092233
    19  H    6.439554   2.723710   7.405722   4.569291   1.093298
    20  H    2.671152   2.160205   4.096642   2.159255   4.036857
    21  H    4.946918   2.071455   6.281751   3.000031   2.126087
    22  H    2.072822   2.505857   2.536298   3.081948   4.877504
                    6          7          8          9         10
     6  C    0.000000
     7  N    2.459684   0.000000
     8  N    1.460977   3.673400   0.000000
     9  O    2.856333   5.175258   2.288134   0.000000
    10  O    2.440537   2.289870   2.724754   4.903429   0.000000
    11  H    4.251239   6.255530   2.901528   2.919008   4.984127
    12  H    4.578076   6.925629   3.284079   2.583369   5.805663
    13  H    3.985906   6.096380   2.543824   3.236580   4.529606
    14  H    2.173435   3.507251   2.742187   4.012209   3.271935
    15  H    2.174774   4.083198   2.730301   2.845745   4.309971
    16  H    2.175504   2.843527   3.416514   4.171738   3.781667
    17  H    4.209304   2.072306   5.071185   6.756026   2.913017
    18  H    4.519239   2.069722   5.730489   7.182150   3.866715
    19  H    4.163644   2.080379   5.114494   6.990821   2.727936
    20  H    1.096320   2.635554   2.082201   2.638291   3.199881
    21  H    2.567665   1.017291   3.952805   5.030534   3.184809
    22  H    2.124269   3.867875   1.018619   3.186726   2.294476
                   11         12         13         14         15
    11  H    0.000000
    12  H    1.785773   0.000000
    13  H    1.783528   1.774565   0.000000
    14  H    5.470978   5.240689   4.498847   0.000000
    15  H    5.122566   4.638468   4.521516   1.768472   0.000000
    16  H    6.213451   6.109474   5.675266   1.767818   1.771188
    17  H    7.181504   8.222196   7.195227   5.342569   6.087501
    18  H    8.219140   8.984220   8.098063   5.240208   5.917959
    19  H    7.611759   8.368500   7.203604   4.521193   5.655084
    20  H    4.392751   4.791131   4.530563   3.076575   2.516710
    21  H    6.538491   7.075830   6.480500   3.647512   3.839222
    22  H    2.918482   3.532195   2.283137   3.046633   3.513076
                   16         17         18         19         20
    16  H    0.000000
    17  H    4.901174   0.000000
    18  H    4.374563   1.790577   0.000000
    19  H    4.283981   1.784839   1.791274   0.000000
    20  H    2.511131   4.328793   4.569258   4.619840   0.000000
    21  H    2.500593   2.782434   2.290655   2.880263   2.415002
    22  H    4.016434   4.963718   5.831537   4.939959   2.900380
                   21         22
    21  H    0.000000
    22  H    4.376505   0.000000
 Stoichiometry    C6H12N2O2
 Framework group  C1[X(C6H12N2O2)]
 Deg. of freedom    60
 Full point group                 C1      NOp   1
 Largest Abelian subgroup         C1      NOp   1
 Largest concise Abelian subgroup C1      NOp   1
                         Standard orientation:                         
 ---------------------------------------------------------------------
 Center     Atomic      Atomic             Coordinates (Angstroms)
 Number     Number       Type             X           Y           Z
 ---------------------------------------------------------------------
      1          6           0        2.354726   -0.048863   -0.247415
      2          6           0       -1.351990   -0.297628    0.063366
      3          6           0        3.368191   -1.120849    0.046108
      4          6           0       -0.078906    1.649861    1.010618
      5          6           0       -3.769502   -0.310727   -0.435083
      6          6           0       -0.058606    0.535736   -0.029514
      7          7           0       -2.473152    0.319230   -0.445618
      8          7           0        1.085963   -0.350129    0.169631
      9          8           0        2.643454    0.991051   -0.835860
     10          8           0       -1.386930   -1.421719    0.570612
     11          1           0        3.391752   -1.829963   -0.785508
     12          1           0        4.354914   -0.664955    0.165312
     13          1           0        3.119227   -1.653629    0.968234
     14          1           0       -0.159486    1.240308    2.024073
     15          1           0        0.836329    2.249252    0.966776
     16          1           0       -0.929960    2.321326    0.856618
     17          1           0       -3.751882   -1.169425   -1.111355
     18          1           0       -4.515160    0.413865   -0.769647
     19          1           0       -4.003410   -0.649960    0.577591
     20          1           0        0.012839    0.965885   -1.035389
     21          1           0       -2.380826    1.239603   -0.869021
     22          1           0        0.900312   -1.245855    0.617731
 ---------------------------------------------------------------------
 Rotational constants (GHZ):      2.8782026      0.6427983      0.5815703
 Standard basis: 6-31G(d) (6D, 7F)
 There are   174 symmetry adapted basis functions of A   symmetry.
 Integral buffers will be    131072 words long.
 Raffenetti 2 integral format.
 Two-electron integral symmetry is turned on.
   174 basis functions,   328 primitive gaussians,   174 cartesian basis functions
    39 alpha electrons       39 beta electrons
       nuclear repulsion energy       546.8619701766 Hartrees.
 NAtoms=   22 NActive=   22 NUniq=   22 SFac= 1.00D+00 NAtFMM=   60 NAOKFM=F Big=F
 One-electron integrals computed using PRISM.
 NBasis=   174 RedAO= T  NBF=   174
 NBsUse=   174 1.00D-06 NBFU=   174
 Harris functional with IExCor=  402 diagonalized for initial guess.
 ExpMin= 1.61D-01 ExpMax= 5.48D+03 ExpMxC= 8.25D+02 IAcc=3 IRadAn=         5 AccDes= 0.00D+00
 HarFok:  IExCor=  402 AccDes= 0.00D+00 IRadAn=         5 IDoV= 1
 ScaDFX=  1.000000  1.000000  1.000000  1.000000
 FoFCou: FMM=F IPFlag=           0 FMFlag=      100000 FMFlg1=           0
         NFxFlg=           0 DoJE=T BraDBF=F KetDBF=T FulRan=T
         Omega=  0.000000  0.000000  1.000000  0.000000  0.000000 ICntrl=     500 IOpCl=  0
         NMat0=    1 NMatS0=    1 NMatT0=    0 NMatD0=    1 NMtDS0=    0 NMtDT0=    0
         I1Cent=           4 NGrid=           0.
 Petite list used in FoFCou.
 Initial guess orbital symmetries:
       Occupied  (A) (A) (A) (A) (A) (A) (A) (A) (A) (A) (A) (A)
                 (A) (A) (A) (A) (A) (A) (A) (A) (A) (A) (A) (A)
                 (A) (A) (A) (A) (A) (A) (A) (A) (A) (A) (A) (A)
                 (A) (A) (A)
       Virtual   (A) (A) (A) (A) (A) (A) (A) (A) (A) (A) (A) (A)
                 (A) (A) (A) (A) (A) (A) (A) (A) (A) (A) (A) (A)
                 (A) (A) (A) (A) (A) (A) (A) (A) (A) (A) (A) (A)
                 (A) (A) (A) (A) (A) (A) (A) (A) (A) (A) (A) (A)
                 (A) (A) (A) (A) (A) (A) (A) (A) (A) (A) (A) (A)
                 (A) (A) (A) (A) (A) (A) (A) (A) (A) (A) (A) (A)
                 (A) (A) (A) (A) (A) (A) (A) (A) (A) (A) (A) (A)
                 (A) (A) (A) (A) (A) (A) (A) (A) (A) (A) (A) (A)
                 (A) (A) (A) (A) (A) (A) (A) (A) (A) (A) (A) (A)
                 (A) (A) (A) (A) (A) (A) (A) (A) (A) (A) (A) (A)
                 (A) (A) (A) (A) (A) (A) (A) (A) (A) (A) (A) (A)
                 (A) (A) (A)
 The electronic state of the initial guess is 1-A.
 Requested convergence on RMS density matrix=1.00D-08 within 128 cycles.
 Requested convergence on MAX density matrix=1.00D-06.
 Requested convergence on             energy=1.00D-06.
 No special actions if energy rises.
 Integral accuracy reduced to 1.0D-05 until final iterations.
 Initial convergence to 1.0D-05 achieved.  Increase integral accuracy.
 SCF Done:  E(RB3LYP) =  -495.849589160     A.U. after   14 cycles
             Convg  =    0.3254D-08             -V/T =  2.0095
 Calling FoFJK, ICntrl=      2127 FMM=F ISym2X=0 I1Cent= 0 IOpClX= 0 NMat=1 NMatS=1 NMatT=0.
 ***** Axes restored to original set *****
 -------------------------------------------------------------------
 Center     Atomic                   Forces (Hartrees/Bohr)
 Number     Number              X              Y              Z
 -------------------------------------------------------------------
      1        6          -0.006937868   -0.005059859    0.007958217
      2        6          -0.003036649    0.007153948    0.006766473
      3        6           0.001680748    0.000671648   -0.007665806
      4        6          -0.008430645   -0.007901550   -0.004476390
      5        6           0.001084168    0.002806647   -0.000755492
      6        6           0.007575680    0.005474134   -0.002921961
      7        7           0.010481719   -0.016397444   -0.012744297
      8        7          -0.001339816    0.003545340    0.001136688
      9        8          -0.003490048    0.003130487    0.000145685
     10        8          -0.001457061   -0.009991598    0.004876916
     11        1           0.002756757    0.000903731   -0.001218267
     12        1           0.001033960    0.000696889    0.002488468
     13        1           0.002372929    0.002724339   -0.000743975
     14        1           0.000825783    0.001667343    0.000818854
     15        1           0.002371999    0.001429258    0.002072982
     16        1          -0.000857739   -0.000697362    0.000769131
     17        1          -0.002908402    0.005204056    0.001992576
     18        1          -0.000198409    0.001594703   -0.000104327
     19        1          -0.000824423    0.002674189    0.001729360
     20        1           0.000610419   -0.001741489   -0.000973528
     21        1           0.002182160    0.005578417   -0.003791871
     22        1          -0.003495262   -0.003465824    0.004640564
 -------------------------------------------------------------------
 Cartesian Forces:  Max     0.016397444 RMS     0.004721626

 GradGradGradGradGradGradGradGradGradGradGradGradGradGradGradGradGradGrad
 Berny optimization.
 Internal  Forces:  Max     0.016890184 RMS     0.003875865
 Search for a local minimum.
 Step number   1 out of a maximum of  108
 All quantities printed in internal units (Hartrees-Bohrs-Radians)
 Mixed Optimization -- RFO/linear search
 Second derivative matrix not updated -- first step.
 ITU=  0
     Eigenvalues ---    0.00230   0.00444   0.00711   0.00885   0.00934
     Eigenvalues ---    0.01145   0.01275   0.01390   0.01487   0.01994
     Eigenvalues ---    0.02100   0.04713   0.05052   0.05525   0.05567
     Eigenvalues ---    0.06476   0.07343   0.07516   0.07785   0.07854
     Eigenvalues ---    0.15994   0.15995   0.16000   0.16000   0.16000
     Eigenvalues ---    0.16000   0.16000   0.16000   0.16000   0.16000
     Eigenvalues ---    0.16000   0.17278   0.18036   0.22001   0.22001
     Eigenvalues ---    0.24992   0.24997   0.25000   0.25000   0.28394
     Eigenvalues ---    0.29954   0.31947   0.34092   0.34123   0.34249
     Eigenvalues ---    0.34250   0.34390   0.34415   0.34434   0.34449
     Eigenvalues ---    0.34451   0.34556   0.36842   0.39401   0.44559
     Eigenvalues ---    0.44773   0.49624   0.51149   0.89548   0.91400
 RFO step:  Lambda=-5.31465862D-03 EMin= 2.30000000D-03
 Linear search not attempted -- first point.
 Iteration  1 RMS(Cart)=  0.06283615 RMS(Int)=  0.00123021
 Iteration  2 RMS(Cart)=  0.00203093 RMS(Int)=  0.00016120
 Iteration  3 RMS(Cart)=  0.00000197 RMS(Int)=  0.00016119
 Iteration  4 RMS(Cart)=  0.00000000 RMS(Int)=  0.00016119
 Variable       Old X    -DE/DX   Delta X   Delta X   Delta X     New X
                                 (Linear)    (Quad)   (Total)
    R1        2.84240   0.01168   0.00000   0.03595   0.03595   2.87835
    R2        2.58724  -0.00408   0.00000  -0.00789  -0.00789   2.57935
    R3        2.32294  -0.00297   0.00000  -0.00323  -0.00323   2.31972
    R4        2.91285  -0.00393   0.00000  -0.01360  -0.01360   2.89925
    R5        2.60246  -0.01689   0.00000  -0.03368  -0.03368   2.56879
    R6        2.33142  -0.01119   0.00000  -0.01242  -0.01242   2.31900
    R7        2.06576   0.00175   0.00000   0.00502   0.00502   2.07078
    R8        2.06635  -0.00132   0.00000  -0.00378  -0.00378   2.06258
    R9        2.06677   0.00123   0.00000   0.00353   0.00353   2.07030
   R10        2.88055   0.00772   0.00000   0.02532   0.02532   2.90588
   R11        2.07123  -0.00021   0.00000  -0.00061  -0.00061   2.07062
   R12        2.06910  -0.00096   0.00000  -0.00275  -0.00275   2.06635
   R13        2.06912   0.00127   0.00000   0.00364   0.00364   2.07276
   R14        2.72375   0.01222   0.00000   0.03061   0.03061   2.75436
   R15        2.06579   0.00200   0.00000   0.00573   0.00573   2.07152
   R16        2.06402  -0.00044   0.00000  -0.00125  -0.00125   2.06277
   R17        2.06603   0.00043   0.00000   0.00122   0.00122   2.06725
   R18        2.76085  -0.00922   0.00000  -0.02468  -0.02468   2.73616
   R19        2.07174   0.00026   0.00000   0.00075   0.00075   2.07249
   R20        1.92240  -0.00689   0.00000  -0.01521  -0.01521   1.90719
   R21        1.92491  -0.00517   0.00000  -0.01146  -0.01146   1.91345
    A1        1.99121   0.00473   0.00000   0.01850   0.01850   2.00971
    A2        2.13895   0.00180   0.00000   0.00704   0.00704   2.14599
    A3        2.15273  -0.00654   0.00000  -0.02565  -0.02565   2.12708
    A4        2.00278   0.00306   0.00000   0.01186   0.01179   2.01457
    A5        2.14259  -0.00238   0.00000  -0.00942  -0.00949   2.13310
    A6        2.13769  -0.00068   0.00000  -0.00278  -0.00286   2.13483
    A7        1.90539   0.00245   0.00000   0.01066   0.01055   1.91593
    A8        1.90937  -0.00144   0.00000  -0.00907  -0.00914   1.90024
    A9        1.93728   0.00423   0.00000   0.03018   0.03002   1.96730
   A10        1.91128  -0.00231   0.00000  -0.02330  -0.02332   1.88796
   A11        1.90744  -0.00323   0.00000  -0.01864  -0.01884   1.88859
   A12        1.89294   0.00020   0.00000   0.00939   0.00929   1.90223
   A13        1.93779  -0.00196   0.00000  -0.01063  -0.01073   1.92706
   A14        1.94084  -0.00439   0.00000  -0.02878  -0.02887   1.91197
   A15        1.94185   0.00150   0.00000   0.01006   0.01010   1.95195
   A16        1.87867   0.00313   0.00000   0.01707   0.01685   1.89552
   A17        1.87764   0.00076   0.00000   0.00873   0.00875   1.88640
   A18        1.88428   0.00126   0.00000   0.00535   0.00539   1.88966
   A19        1.90107   0.00804   0.00000   0.05076   0.05033   1.95140
   A20        1.89845   0.00018   0.00000  -0.00012  -0.00025   1.89821
   A21        1.91220   0.00301   0.00000   0.01736   0.01704   1.92924
   A22        1.92050  -0.00363   0.00000  -0.02018  -0.02041   1.90009
   A23        1.90999  -0.00495   0.00000  -0.02748  -0.02808   1.88192
   A24        1.92145  -0.00247   0.00000  -0.01916  -0.01917   1.90228
   A25        1.92076   0.00367   0.00000   0.02210   0.02221   1.94298
   A26        1.89793  -0.00715   0.00000  -0.04337  -0.04344   1.85449
   A27        1.89874   0.00199   0.00000   0.01869   0.01842   1.91715
   A28        1.93971   0.00403   0.00000   0.01944   0.01969   1.95940
   A29        1.91788  -0.00296   0.00000  -0.01020  -0.01040   1.90748
   A30        1.88800   0.00031   0.00000  -0.00735  -0.00727   1.88073
   A31        2.13382  -0.00270   0.00000  -0.01198  -0.01198   2.12183
   A32        2.07737  -0.00012   0.00000  -0.00292  -0.00292   2.07445
   A33        2.07155   0.00282   0.00000   0.01487   0.01487   2.08642
   A34        2.15443  -0.00418   0.00000  -0.01879  -0.01897   2.13547
   A35        2.09024   0.00627   0.00000   0.03422   0.03402   2.12426
   A36        2.03798  -0.00211   0.00000  -0.01646  -0.01661   2.02137
    D1        1.54173   0.00079   0.00000   0.01094   0.01099   1.55273
    D2       -2.65023  -0.00142   0.00000  -0.01649  -0.01654  -2.66678
    D3       -0.56196   0.00055   0.00000   0.00816   0.00811  -0.55385
    D4       -1.57437   0.00093   0.00000   0.01580   0.01589  -1.55848
    D5        0.51685  -0.00128   0.00000  -0.01163  -0.01165   0.50520
    D6        2.60513   0.00069   0.00000   0.01302   0.01300   2.61813
    D7       -3.12509   0.00105   0.00000   0.04494   0.04522  -3.07988
    D8       -0.01954   0.00026   0.00000   0.00923   0.00890  -0.01063
    D9       -0.00922   0.00105   0.00000   0.04059   0.04091   0.03169
   D10        3.09634   0.00026   0.00000   0.00487   0.00460   3.10094
   D11        1.29832  -0.00094   0.00000   0.01181   0.01208   1.31040
   D12       -2.85639   0.00175   0.00000   0.02186   0.02187  -2.83452
   D13       -0.80380  -0.00078   0.00000  -0.00079  -0.00101  -0.80481
   D14       -1.82608  -0.00063   0.00000   0.03365   0.03389  -1.79219
   D15        0.30240   0.00206   0.00000   0.04371   0.04367   0.34607
   D16        2.35499  -0.00047   0.00000   0.02106   0.02080   2.37579
   D17       -3.13583   0.00068   0.00000   0.03052   0.03055  -3.10528
   D18        0.03823   0.00067   0.00000   0.03168   0.03170   0.06993
   D19       -0.01138   0.00034   0.00000   0.00867   0.00865  -0.00273
   D20       -3.12051   0.00034   0.00000   0.00983   0.00980  -3.11071
   D21        1.04188  -0.00202   0.00000  -0.02000  -0.01994   1.02194
   D22       -1.06160   0.00190   0.00000   0.00707   0.00694  -1.05466
   D23        3.13241   0.00088   0.00000   0.01050   0.01038  -3.14040
   D24        3.13320  -0.00230   0.00000  -0.02470  -0.02451   3.10870
   D25        1.02972   0.00161   0.00000   0.00237   0.00238   1.03210
   D26       -1.05945   0.00059   0.00000   0.00580   0.00581  -1.05364
   D27       -1.04882  -0.00266   0.00000  -0.03061  -0.03049  -1.07931
   D28        3.13088   0.00125   0.00000  -0.00354  -0.00361   3.12727
   D29        1.04171   0.00023   0.00000  -0.00011  -0.00017   1.04154
   D30       -1.17364  -0.00006   0.00000  -0.00159  -0.00173  -1.17537
   D31        1.93559  -0.00011   0.00000  -0.00306  -0.00321   1.93238
   D32        3.01622  -0.00051   0.00000  -0.00702  -0.00711   3.00911
   D33       -0.15774  -0.00056   0.00000  -0.00849  -0.00858  -0.16632
   D34        0.91511   0.00057   0.00000   0.00598   0.00622   0.92132
   D35       -2.25885   0.00052   0.00000   0.00451   0.00474  -2.25411
   D36        2.77549  -0.00136   0.00000  -0.00820  -0.00774   2.76774
   D37       -0.33107  -0.00077   0.00000   0.02555   0.02558  -0.30548
   D38       -1.39079   0.00104   0.00000   0.00302   0.00318  -1.38760
   D39        1.78585   0.00163   0.00000   0.03677   0.03651   1.82235
   D40        0.71609   0.00004   0.00000  -0.00242  -0.00240   0.71369
   D41       -2.39047   0.00064   0.00000   0.03133   0.03092  -2.35954
         Item               Value     Threshold  Converged?
 Maximum Force            0.016890     0.000450     NO 
 RMS     Force            0.003876     0.000300     NO 
 Maximum Displacement     0.175101     0.001800     NO 
 RMS     Displacement     0.062938     0.001200     NO 
 Predicted change in Energy=-2.752523D-03
 GradGradGradGradGradGradGradGradGradGradGradGradGradGradGradGradGradGrad

                          Input orientation:                          
 ---------------------------------------------------------------------
 Center     Atomic      Atomic             Coordinates (Angstroms)
 Number     Number       Type             X           Y           Z
 ---------------------------------------------------------------------
      1          6           0        0.307018   -1.454434   -0.048872
      2          6           0       -2.381485    0.437296    1.580461
      3          6           0        1.406982   -0.914668   -0.953715
      4          6           0       -2.857910   -1.785310    0.454720
      5          6           0       -3.817232    1.567858    3.225882
      6          6           0       -1.790397   -0.902138    1.121817
      7          7           0       -3.153108    0.382548    2.698234
      8          7           0       -0.704555   -0.578486    0.220342
      9          8           0        0.334243   -2.581948    0.435720
     10          8           0       -2.204230    1.478723    0.956014
     11          1           0        2.179607   -0.427759   -0.348103
     12          1           0        1.867284   -1.748880   -1.486177
     13          1           0        1.035342   -0.187293   -1.683821
     14          1           0       -3.295263   -1.270434   -0.407973
     15          1           0       -2.399323   -2.716115    0.109807
     16          1           0       -3.669622   -2.038090    1.147775
     17          1           0       -3.098101    2.299972    3.611255
     18          1           0       -4.482407    1.265779    4.036941
     19          1           0       -4.407105    2.056848    2.445080
     20          1           0       -1.364582   -1.434785    1.980744
     21          1           0       -3.241484   -0.496269    3.186539
     22          1           0       -0.706958    0.362785   -0.152847
 ---------------------------------------------------------------------
                    Distance matrix (angstroms):
                    1          2          3          4          5
     1  C    0.000000
     2  C    3.668981   0.000000
     3  C    1.523157   4.754192   0.000000
     4  C    3.221779   2.536582   4.575043   0.000000
     5  C    6.071877   2.459054   7.136131   4.454589   0.000000
     6  C    2.464689   1.534218   3.811984   1.537724   3.825706
     7  N    4.784722   1.359344   5.984474   3.133704   1.457543
     8  N    1.364932   2.386175   2.439266   2.479576   4.829991
     9  O    1.227542   4.219176   2.420975   3.290112   6.499279
    10  O    3.989934   1.227161   4.734579   3.366378   2.786040
    11  H    2.156429   5.027051   1.095808   5.278641   7.260711
    12  H    2.141722   5.677647   1.091468   5.108412   8.094317
    13  H    2.192980   4.766588   1.095557   4.720638   7.122725
    14  H    3.624809   2.775825   4.747158   1.095725   4.640393
    15  H    2.990201   3.479532   4.343299   1.093465   5.483868
    16  H    4.193600   2.823836   5.608052   1.096859   4.164513
    17  H    6.251954   2.847318   7.174165   5.168262   1.096199
    18  H    6.857989   3.336847   8.021590   4.977996   1.091571
    19  H    6.385283   2.733797   7.361068   4.596054   1.093944
    20  H    2.629444   2.167719   4.069784   2.163711   4.072066
    21  H    4.896716   2.047102   6.238990   3.044929   2.143280
    22  H    2.083565   2.411213   2.596540   3.100007   4.747821
                    6          7          8          9         10
     6  C    0.000000
     7  N    2.447957   0.000000
     8  N    1.447916   3.613717   0.000000
     9  O    2.794027   5.105764   2.267013   0.000000
    10  O    2.422241   2.266562   2.649972   4.817012   0.000000
    11  H    4.259886   6.194725   2.943508   2.942835   4.955141
    12  H    4.571350   6.874345   3.300967   2.595748   5.740988
    13  H    4.045666   6.088534   2.608852   3.273891   4.498796
    14  H    2.177274   3.521517   2.754150   3.950342   3.257097
    15  H    2.164594   4.107293   2.730186   2.756193   4.283783
    16  H    2.196029   2.920650   3.432520   4.102894   3.814724
    17  H    4.261561   2.124417   5.051027   6.760041   2.919548
    18  H    4.521585   2.083091   5.678020   7.139602   3.837649
    19  H    4.165787   2.107101   5.059972   6.930825   2.721066
    20  H    1.096717   2.648833   2.065890   2.566922   3.200565
    21  H    2.556063   1.009242   3.903984   4.970200   3.154637
    22  H    2.097293   3.756688   1.012555   3.178359   2.171799
                   11         12         13         14         15
    11  H    0.000000
    12  H    1.771473   0.000000
    13  H    1.775192   1.780377   0.000000
    14  H    5.539664   5.295595   4.642749   0.000000
    15  H    5.139344   4.656892   4.626982   1.777864   0.000000
    16  H    6.248543   6.138296   5.794831   1.774766   1.775037
    17  H    7.139414   8.187311   7.163077   5.379671   6.157074
    18  H    8.153472   8.939328   8.079857   5.253471   5.968007
    19  H    7.573632   8.325040   7.190564   4.521826   5.680305
    20  H    4.358774   4.750070   4.554658   3.075794   2.492569
    21  H    6.471987   7.035824   6.488999   3.677328   3.886288
    22  H    2.999224   3.586589   2.383711   3.071126   3.523168
                   16         17         18         19         20
    16  H    0.000000
    17  H    5.021369   0.000000
    18  H    4.463569   1.779625   0.000000
    19  H    4.358370   1.769905   1.779180   0.000000
    20  H    2.524088   4.428551   4.608885   4.654466   0.000000
    21  H    2.591731   2.831944   2.316870   2.902901   2.420230
    22  H    4.029044   4.861967   5.711719   4.828059   2.866346
                   21         22
    21  H    0.000000
    22  H    4.279403   0.000000
 Stoichiometry    C6H12N2O2
 Framework group  C1[X(C6H12N2O2)]
 Deg. of freedom    60
 Full point group                 C1      NOp   1
 Largest Abelian subgroup         C1      NOp   1
 Largest concise Abelian subgroup C1      NOp   1
                         Standard orientation:                         
 ---------------------------------------------------------------------
 Center     Atomic      Atomic             Coordinates (Angstroms)
 Number     Number       Type             X           Y           Z
 ---------------------------------------------------------------------
      1          6           0        2.322089   -0.071270   -0.230530
      2          6           0       -1.329595   -0.273695    0.062134
      3          6           0        3.338142   -1.175665    0.030150
      4          6           0       -0.066650    1.737211    0.954030
      5          6           0       -3.739141   -0.378185   -0.417565
      6          6           0       -0.051047    0.567635   -0.044190
      7          7           0       -2.442697    0.284687   -0.482869
      8          7           0        1.052151   -0.340053    0.191434
      9          8           0        2.605833    0.974688   -0.807001
     10          8           0       -1.353785   -1.357252    0.637670
     11          1           0        3.355216   -1.871118   -0.816520
     12          1           0        4.329467   -0.728600    0.123483
     13          1           0        3.117962   -1.747387    0.938390
     14          1           0       -0.167579    1.363448    1.979080
     15          1           0        0.869921    2.296315    0.877194
     16          1           0       -0.896362    2.427962    0.760278
     17          1           0       -3.758124   -1.295542   -1.017354
     18          1           0       -4.502326    0.305494   -0.793943
     19          1           0       -3.980677   -0.647945    0.614715
     20          1           0        0.051688    0.961747   -1.062477
     21          1           0       -2.358087    1.165629   -0.968000
     22          1           0        0.813552   -1.218113    0.635675
 ---------------------------------------------------------------------
 Rotational constants (GHZ):      2.8312497      0.6572712      0.5902225
 Standard basis: 6-31G(d) (6D, 7F)
 There are   174 symmetry adapted basis functions of A   symmetry.
 Integral buffers will be    131072 words long.
 Raffenetti 2 integral format.
 Two-electron integral symmetry is turned on.
   174 basis functions,   328 primitive gaussians,   174 cartesian basis functions
    39 alpha electrons       39 beta electrons
       nuclear repulsion energy       548.9816626170 Hartrees.
 NAtoms=   22 NActive=   22 NUniq=   22 SFac= 1.00D+00 NAtFMM=   60 NAOKFM=F Big=F
 One-electron integrals computed using PRISM.
 NBasis=   174 RedAO= T  NBF=   174
 NBsUse=   174 1.00D-06 NBFU=   174
 Initial guess read from the read-write file.
 B after Tr=     0.000000    0.000000    0.000000
         Rot=    1.000000    0.000000    0.000000    0.000000 Ang=   0.00 deg.
 Initial guess orbital symmetries:
       Occupied  (A) (A) (A) (A) (A) (A) (A) (A) (A) (A) (A) (A)
                 (A) (A) (A) (A) (A) (A) (A) (A) (A) (A) (A) (A)
                 (A) (A) (A) (A) (A) (A) (A) (A) (A) (A) (A) (A)
                 (A) (A) (A)
       Virtual   (A) (A) (A) (A) (A) (A) (A) (A) (A) (A) (A) (A)
                 (A) (A) (A) (A) (A) (A) (A) (A) (A) (A) (A) (A)
                 (A) (A) (A) (A) (A) (A) (A) (A) (A) (A) (A) (A)
                 (A) (A) (A) (A) (A) (A) (A) (A) (A) (A) (A) (A)
                 (A) (A) (A) (A) (A) (A) (A) (A) (A) (A) (A) (A)
                 (A) (A) (A) (A) (A) (A) (A) (A) (A) (A) (A) (A)
                 (A) (A) (A) (A) (A) (A) (A) (A) (A) (A) (A) (A)
                 (A) (A) (A) (A) (A) (A) (A) (A) (A) (A) (A) (A)
                 (A) (A) (A) (A) (A) (A) (A) (A) (A) (A) (A) (A)
                 (A) (A) (A) (A) (A) (A) (A) (A) (A) (A) (A) (A)
                 (A) (A) (A) (A) (A) (A) (A) (A) (A) (A) (A) (A)
                 (A) (A) (A)
 Harris functional with IExCor=  402 diagonalized for initial guess.
 ExpMin= 1.61D-01 ExpMax= 5.48D+03 ExpMxC= 8.25D+02 IAcc=3 IRadAn=         5 AccDes= 0.00D+00
 HarFok:  IExCor=  402 AccDes= 0.00D+00 IRadAn=         5 IDoV= 1
 ScaDFX=  1.000000  1.000000  1.000000  1.000000
 FoFCou: FMM=F IPFlag=           0 FMFlag=      100000 FMFlg1=           0
         NFxFlg=           0 DoJE=T BraDBF=F KetDBF=T FulRan=T
         Omega=  0.000000  0.000000  1.000000  0.000000  0.000000 ICntrl=     500 IOpCl=  0
         NMat0=    1 NMatS0=    1 NMatT0=    0 NMatD0=    1 NMtDS0=    0 NMtDT0=    0
         I1Cent=           4 NGrid=           0.
 Petite list used in FoFCou.
 Requested convergence on RMS density matrix=1.00D-08 within 128 cycles.
 Requested convergence on MAX density matrix=1.00D-06.
 Requested convergence on             energy=1.00D-06.
 No special actions if energy rises.
 Integral accuracy reduced to 1.0D-05 until final iterations.
 Initial convergence to 1.0D-05 achieved.  Increase integral accuracy.
 SCF Done:  E(RB3LYP) =  -495.852067712     A.U. after   12 cycles
             Convg  =    0.8202D-08             -V/T =  2.0094
 Calling FoFJK, ICntrl=      2127 FMM=F ISym2X=0 I1Cent= 0 IOpClX= 0 NMat=1 NMatS=1 NMatT=0.
 ***** Axes restored to original set *****
 -------------------------------------------------------------------
 Center     Atomic                   Forces (Hartrees/Bohr)
 Number     Number              X              Y              Z
 -------------------------------------------------------------------
      1        6          -0.002417073    0.001066271    0.001919627
      2        6          -0.005061302   -0.000652095    0.003272684
      3        6          -0.000774332   -0.000456346   -0.001063547
      4        6          -0.002618530   -0.001963899   -0.001590563
      5        6          -0.000490163   -0.000721603    0.000122196
      6        6           0.003293216    0.002234300   -0.000083848
      7        7           0.000704926    0.001697844   -0.000966047
      8        7           0.003479257   -0.002079118   -0.003956858
      9        8           0.001490968   -0.000959115   -0.000713673
     10        8           0.001523226    0.002069854   -0.001394477
     11        1           0.000241541   -0.000005883    0.000306660
     12        1           0.000223085   -0.000532745    0.000466085
     13        1          -0.000180584    0.000320195    0.000792212
     14        1           0.000322052    0.000387572    0.000433308
     15        1           0.000915603    0.000624994    0.000692291
     16        1           0.000686125    0.000421173    0.000432914
     17        1           0.000760761   -0.000937708   -0.000394240
     18        1          -0.000227727   -0.000325772    0.000347783
     19        1           0.000367563   -0.000551233   -0.000526056
     20        1          -0.000878802   -0.001175838    0.000210365
     21        1          -0.000167177    0.000467330    0.001006098
     22        1          -0.001192634    0.001071821    0.000687088
 -------------------------------------------------------------------
 Cartesian Forces:  Max     0.005061302 RMS     0.001463592

 GradGradGradGradGradGradGradGradGradGradGradGradGradGradGradGradGradGrad
 Berny optimization.
 Using GEDIIS/GDIIS optimizer.
 Internal  Forces:  Max     0.002686094 RMS     0.000821947
 Search for a local minimum.
 Step number   2 out of a maximum of  108
 All quantities printed in internal units (Hartrees-Bohrs-Radians)
 Mixed Optimization -- En-DIIS/RFO-DIIS
 Update second derivatives using D2CorX and points    1    2
 DE= -2.48D-03 DEPred=-2.75D-03 R= 9.00D-01
 SS=  1.41D+00  RLast= 1.91D-01 DXNew= 5.0454D-01 5.7353D-01
 Trust test= 9.00D-01 RLast= 1.91D-01 DXMaxT set to 5.05D-01
 ITU=  1  0
 Use linear search instead of GDIIS.
     Eigenvalues ---    0.00231   0.00444   0.00711   0.00885   0.00950
     Eigenvalues ---    0.01145   0.01262   0.01409   0.01483   0.01984
     Eigenvalues ---    0.02097   0.04685   0.04925   0.05536   0.05750
     Eigenvalues ---    0.06721   0.07063   0.07441   0.07496   0.07723
     Eigenvalues ---    0.14854   0.15985   0.15995   0.16000   0.16000
     Eigenvalues ---    0.16000   0.16000   0.16000   0.16000   0.16000
     Eigenvalues ---    0.16641   0.17683   0.18632   0.21863   0.22004
     Eigenvalues ---    0.24786   0.24988   0.24999   0.25814   0.28712
     Eigenvalues ---    0.29773   0.32287   0.34090   0.34122   0.34238
     Eigenvalues ---    0.34262   0.34395   0.34424   0.34430   0.34435
     Eigenvalues ---    0.34474   0.34577   0.37152   0.40698   0.44646
     Eigenvalues ---    0.44853   0.48746   0.51098   0.90542   0.91538
 RFO step:  Lambda=-3.55902439D-04 EMin= 2.31378598D-03
 Quartic linear search produced a step of -0.06663.
 Iteration  1 RMS(Cart)=  0.01468965 RMS(Int)=  0.00013891
 Iteration  2 RMS(Cart)=  0.00019212 RMS(Int)=  0.00005384
 Iteration  3 RMS(Cart)=  0.00000001 RMS(Int)=  0.00005384
 Variable       Old X    -DE/DX   Delta X   Delta X   Delta X     New X
                                 (Linear)    (Quad)   (Total)
    R1        2.87835  -0.00089  -0.00240   0.00221  -0.00019   2.87816
    R2        2.57935  -0.00102   0.00053  -0.00291  -0.00239   2.57696
    R3        2.31972   0.00063   0.00021   0.00022   0.00043   2.32015
    R4        2.89925   0.00235   0.00091   0.00589   0.00680   2.90605
    R5        2.56879  -0.00086   0.00224  -0.00610  -0.00386   2.56493
    R6        2.31900   0.00269   0.00083   0.00115   0.00198   2.32097
    R7        2.07078   0.00034  -0.00033   0.00158   0.00125   2.07203
    R8        2.06258   0.00027   0.00025   0.00024   0.00049   2.06306
    R9        2.07030  -0.00025  -0.00024  -0.00022  -0.00045   2.06985
   R10        2.90588   0.00080  -0.00169   0.00588   0.00419   2.91007
   R11        2.07062  -0.00029   0.00004  -0.00087  -0.00083   2.06979
   R12        2.06635  -0.00037   0.00018  -0.00136  -0.00118   2.06517
   R13        2.07276  -0.00033  -0.00024  -0.00042  -0.00066   2.07210
   R14        2.75436  -0.00241  -0.00204  -0.00163  -0.00367   2.75069
   R15        2.07152  -0.00027  -0.00038   0.00004  -0.00034   2.07118
   R16        2.06277   0.00049   0.00008   0.00115   0.00123   2.06400
   R17        2.06725  -0.00007  -0.00008  -0.00002  -0.00011   2.06715
   R18        2.73616   0.00127   0.00164  -0.00007   0.00157   2.73774
   R19        2.07249   0.00039  -0.00005   0.00118   0.00113   2.07362
   R20        1.90719   0.00009   0.00101  -0.00183  -0.00082   1.90638
   R21        1.91345   0.00075   0.00076   0.00003   0.00080   1.91425
    A1        2.00971  -0.00066  -0.00123   0.00008  -0.00116   2.00855
    A2        2.14599  -0.00175  -0.00047  -0.00552  -0.00601   2.13998
    A3        2.12708   0.00242   0.00171   0.00567   0.00737   2.13445
    A4        2.01457   0.00047  -0.00079   0.00383   0.00277   2.01734
    A5        2.13310  -0.00111   0.00063  -0.00498  -0.00461   2.12848
    A6        2.13483   0.00066   0.00019   0.00260   0.00252   2.13735
    A7        1.91593  -0.00021  -0.00070  -0.00118  -0.00189   1.91405
    A8        1.90024  -0.00037   0.00061  -0.00268  -0.00207   1.89817
    A9        1.96730  -0.00038  -0.00200   0.00253   0.00054   1.96784
   A10        1.88796   0.00002   0.00155  -0.00450  -0.00296   1.88500
   A11        1.88859   0.00010   0.00126  -0.00325  -0.00198   1.88661
   A12        1.90223   0.00086  -0.00062   0.00886   0.00825   1.91048
   A13        1.92706  -0.00029   0.00071  -0.00218  -0.00146   1.92560
   A14        1.91197  -0.00150   0.00192  -0.01318  -0.01128   1.90070
   A15        1.95195  -0.00085  -0.00067  -0.00403  -0.00472   1.94723
   A16        1.89552   0.00102  -0.00112   0.00907   0.00796   1.90348
   A17        1.88640   0.00071  -0.00058   0.00622   0.00564   1.89203
   A18        1.88966   0.00103  -0.00036   0.00488   0.00447   1.89414
   A19        1.95140  -0.00166  -0.00335  -0.00362  -0.00696   1.94444
   A20        1.89821   0.00026   0.00002   0.00230   0.00233   1.90053
   A21        1.92924  -0.00088  -0.00114  -0.00299  -0.00412   1.92512
   A22        1.90009   0.00073   0.00136   0.00163   0.00301   1.90310
   A23        1.88192   0.00104   0.00187   0.00065   0.00254   1.88445
   A24        1.90228   0.00059   0.00128   0.00221   0.00349   1.90577
   A25        1.94298  -0.00075  -0.00148  -0.00054  -0.00204   1.94094
   A26        1.85449   0.00166   0.00289   0.00805   0.01094   1.86542
   A27        1.91715   0.00010  -0.00123   0.00419   0.00291   1.92006
   A28        1.95940  -0.00070  -0.00131   0.00013  -0.00120   1.95820
   A29        1.90748  -0.00044   0.00069  -0.01456  -0.01386   1.89362
   A30        1.88073   0.00022   0.00048   0.00364   0.00406   1.88480
   A31        2.12183  -0.00010   0.00080  -0.00207  -0.00128   2.12055
   A32        2.07445   0.00099   0.00019   0.00519   0.00537   2.07982
   A33        2.08642  -0.00089  -0.00099  -0.00333  -0.00433   2.08209
   A34        2.13547  -0.00040   0.00126  -0.00443  -0.00320   2.13227
   A35        2.12426   0.00169  -0.00227   0.01375   0.01145   2.13571
   A36        2.02137  -0.00131   0.00111  -0.01049  -0.00941   2.01196
    D1        1.55273   0.00019  -0.00073   0.01868   0.01792   1.57065
    D2       -2.66678  -0.00012   0.00110   0.01095   0.01204  -2.65473
    D3       -0.55385   0.00047  -0.00054   0.02195   0.02140  -0.53245
    D4       -1.55848   0.00003  -0.00106   0.01001   0.00896  -1.54952
    D5        0.50520  -0.00028   0.00078   0.00228   0.00308   0.50828
    D6        2.61813   0.00031  -0.00087   0.01328   0.01243   2.63056
    D7       -3.07988   0.00025  -0.00301   0.01614   0.01314  -3.06673
    D8       -0.01063  -0.00005  -0.00059  -0.00452  -0.00517  -0.01580
    D9        0.03169   0.00033  -0.00273   0.02449   0.02182   0.05351
   D10        3.10094   0.00003  -0.00031   0.00383   0.00350   3.10444
   D11        1.31040  -0.00003  -0.00081   0.01302   0.01215   1.32255
   D12       -2.83452  -0.00026  -0.00146   0.01809   0.01658  -2.81794
   D13       -0.80481   0.00096   0.00007   0.02889   0.02895  -0.77586
   D14       -1.79219  -0.00051  -0.00226  -0.02829  -0.03054  -1.82273
   D15        0.34607  -0.00075  -0.00291  -0.02323  -0.02611   0.31997
   D16        2.37579   0.00047  -0.00139  -0.01243  -0.01374   2.36205
   D17       -3.10528  -0.00006  -0.00204  -0.01047  -0.01258  -3.11786
   D18        0.06993   0.00008  -0.00211  -0.00289  -0.00505   0.06488
   D19       -0.00273   0.00039  -0.00058   0.03071   0.03018   0.02744
   D20       -3.11071   0.00053  -0.00065   0.03829   0.03770  -3.07301
   D21        1.02194   0.00056   0.00133  -0.00167  -0.00036   1.02158
   D22       -1.05466  -0.00056  -0.00046  -0.01164  -0.01208  -1.06674
   D23       -3.14040  -0.00009  -0.00069  -0.00655  -0.00723   3.13556
   D24        3.10870   0.00070   0.00163  -0.00011   0.00148   3.11018
   D25        1.03210  -0.00043  -0.00016  -0.01008  -0.01024   1.02186
   D26       -1.05364   0.00004  -0.00039  -0.00499  -0.00539  -1.05902
   D27       -1.07931   0.00043   0.00203  -0.00538  -0.00335  -1.08267
   D28        3.12727  -0.00070   0.00024  -0.01535  -0.01508   3.11220
   D29        1.04154  -0.00023   0.00001  -0.01026  -0.01023   1.03131
   D30       -1.17537   0.00016   0.00012   0.00234   0.00244  -1.17292
   D31        1.93238   0.00006   0.00021  -0.00513  -0.00491   1.92747
   D32        3.00911   0.00012   0.00047   0.00105   0.00153   3.01064
   D33       -0.16632   0.00002   0.00057  -0.00642  -0.00583  -0.17215
   D34        0.92132  -0.00023  -0.00041  -0.00128  -0.00171   0.91961
   D35       -2.25411  -0.00034  -0.00032  -0.00875  -0.00907  -2.26318
   D36        2.76774   0.00043   0.00052   0.00194   0.00248   2.77023
   D37       -0.30548   0.00059  -0.00170   0.02053   0.01879  -0.28669
   D38       -1.38760   0.00018  -0.00021   0.00671   0.00654  -1.38107
   D39        1.82235   0.00034  -0.00243   0.02529   0.02284   1.84520
   D40        0.71369  -0.00066   0.00016  -0.00888  -0.00870   0.70498
   D41       -2.35954  -0.00049  -0.00206   0.00970   0.00761  -2.35194
         Item               Value     Threshold  Converged?
 Maximum Force            0.002686     0.000450     NO 
 RMS     Force            0.000822     0.000300     NO 
 Maximum Displacement     0.039609     0.001800     NO 
 RMS     Displacement     0.014684     0.001200     NO 
 Predicted change in Energy=-1.923589D-04
 GradGradGradGradGradGradGradGradGradGradGradGradGradGradGradGradGradGrad

                          Input orientation:                          
 ---------------------------------------------------------------------
 Center     Atomic      Atomic             Coordinates (Angstroms)
 Number     Number       Type             X           Y           Z
 ---------------------------------------------------------------------
      1          6           0        0.300828   -1.454435   -0.053503
      2          6           0       -2.402257    0.440858    1.570163
      3          6           0        1.410257   -0.915697   -0.947166
      4          6           0       -2.857330   -1.793060    0.451168
      5          6           0       -3.816110    1.569591    3.229243
      6          6           0       -1.794735   -0.895516    1.112019
      7          7           0       -3.156230    0.386144    2.697463
      8          7           0       -0.708986   -0.575984    0.207628
      9          8           0        0.322601   -2.587860    0.417977
     10          8           0       -2.211222    1.486584    0.954977
     11          1           0        2.187097   -0.448719   -0.330161
     12          1           0        1.863472   -1.750132   -1.485851
     13          1           0        1.051593   -0.169843   -1.664650
     14          1           0       -3.303378   -1.283856   -0.409883
     15          1           0       -2.380078   -2.715892    0.112182
     16          1           0       -3.658686   -2.052750    1.153112
     17          1           0       -3.088497    2.302007    3.597221
     18          1           0       -4.468499    1.270796    4.052688
     19          1           0       -4.416102    2.051250    2.451680
     20          1           0       -1.373022   -1.430774    1.972109
     21          1           0       -3.231632   -0.487304    3.196566
     22          1           0       -0.712372    0.369793   -0.155161
 ---------------------------------------------------------------------
                    Distance matrix (angstroms):
                    1          2          3          4          5
     1  C    0.000000
     2  C    3.679008   0.000000
     3  C    1.523058   4.765758   0.000000
     4  C    3.216104   2.539612   4.575741   0.000000
     5  C    6.072095   2.454702   7.136803   4.465913   0.000000
     6  C    2.462157   1.537815   3.809544   1.539941   3.826924
     7  N    4.786105   1.357304   5.985893   3.143901   1.455603
     8  N    1.363668   2.399508   2.437241   2.481123   4.836101
     9  O    1.227770   4.233854   2.417176   3.277922   6.505117
    10  O    3.997127   1.228207   4.743861   3.380436   2.784751
    11  H    2.155461   5.046260   1.096468   5.278633   7.265082
    12  H    2.140306   5.686484   1.091726   5.102926   8.093844
    13  H    2.193085   4.771379   1.095318   4.731934   7.118311
    14  H    3.625798   2.776191   4.758421   1.095288   4.652772
    15  H    2.967487   3.477251   4.327766   1.092841   5.490321
    16  H    4.182302   2.823230   5.603413   1.096511   4.178093
    17  H    6.239085   2.836153   7.158482   5.169203   1.096021
    18  H    6.858146   3.334828   8.021163   4.995400   1.092223
    19  H    6.388678   2.725070   7.368948   4.605490   1.093888
    20  H    2.627820   2.173452   4.066216   2.155849   4.068324
    21  H    4.896587   2.048055   6.237080   3.063056   2.138574
    22  H    2.089191   2.416093   2.604863   3.105868   4.746251
                    6          7          8          9         10
     6  C    0.000000
     7  N    2.451521   0.000000
     8  N    1.448749   3.621322   0.000000
     9  O    2.798006   5.113025   2.270697   0.000000
    10  O    2.423329   2.267216   2.658841   4.828015   0.000000
    11  H    4.258461   6.197954   2.948339   2.934618   4.974151
    12  H    4.567469   6.874678   3.296063   2.588558   5.747791
    13  H    4.042038   6.086290   2.601925   3.273465   4.500240
    14  H    2.177842   3.530743   2.759216   3.941257   3.275818
    15  H    2.157793   4.112021   2.716775   2.722935   4.289478
    16  H    2.194355   2.930134   3.431546   4.083799   3.829008
    17  H    4.251377   2.117707   5.043238   6.756774   2.901031
    18  H    4.526528   2.083577   5.685861   7.145278   3.838968
    19  H    4.165296   2.102443   5.067627   6.936325   2.724053
    20  H    1.097314   2.647104   2.070025   2.574745   3.201268
    21  H    2.564497   1.008810   3.912206   4.976491   3.156293
    22  H    2.092430   3.756351   1.012977   3.185494   2.173978
                   11         12         13         14         15
    11  H    0.000000
    12  H    1.770319   0.000000
    13  H    1.774261   1.785617   0.000000
    14  H    5.554199   5.298251   4.667037   0.000000
    15  H    5.118088   4.636174   4.627727   1.782067   0.000000
    16  H    6.240688   6.127799   5.802745   1.777750   1.777113
    17  H    7.129005   8.171869   7.137064   5.381586   6.150339
    18  H    8.152487   8.938415   8.076806   5.272408   5.981870
    19  H    7.588855   8.329928   7.195354   4.533169   5.687204
    20  H    4.351933   4.747037   4.549145   3.069486   2.474877
    21  H    6.465439   7.034191   6.486772   3.694065   3.899381
    22  H    3.017864   3.591627   2.383555   3.084275   3.517694
                   16         17         18         19         20
    16  H    0.000000
    17  H    5.026201   0.000000
    18  H    4.484339   1.781923   0.000000
    19  H    4.370672   1.771350   1.781875   0.000000
    20  H    2.506366   4.417862   4.605352   4.649174   0.000000
    21  H    2.609349   2.821571   2.313806   2.898634   2.417408
    22  H    4.032501   4.843531   5.711942   4.831204   2.864224
                   21         22
    21  H    0.000000
    22  H    4.279645   0.000000
 Stoichiometry    C6H12N2O2
 Framework group  C1[X(C6H12N2O2)]
 Deg. of freedom    60
 Full point group                 C1      NOp   1
 Largest Abelian subgroup         C1      NOp   1
 Largest concise Abelian subgroup C1      NOp   1
                         Standard orientation:                         
 ---------------------------------------------------------------------
 Center     Atomic      Atomic             Coordinates (Angstroms)
 Number     Number       Type             X           Y           Z
 ---------------------------------------------------------------------
      1          6           0        2.320990   -0.074061   -0.229980
      2          6           0       -1.340010   -0.266875    0.078244
      3          6           0        3.336834   -1.181235    0.018876
      4          6           0       -0.056249    1.745623    0.945100
      5          6           0       -3.740552   -0.375406   -0.422936
      6          6           0       -0.050012    0.561879   -0.039851
      7          7           0       -2.444817    0.284897   -0.484981
      8          7           0        1.055190   -0.343661    0.199736
      9          8           0        2.611745    0.975598   -0.796636
     10          8           0       -1.362539   -1.357511    0.642599
     11          1           0        3.358533   -1.862074   -0.840328
     12          1           0        4.327195   -0.732927    0.119229
     13          1           0        3.110493   -1.770338    0.914113
     14          1           0       -0.161693    1.384244    1.973663
     15          1           0        0.887844    2.288219    0.852474
     16          1           0       -0.878963    2.439690    0.735943
     17          1           0       -3.746345   -1.301081   -1.009753
     18          1           0       -4.501621    0.301372   -0.817520
     19          1           0       -3.987522   -0.630200    0.611800
     20          1           0        0.050424    0.957165   -1.058556
     21          1           0       -2.357830    1.155098   -0.987855
     22          1           0        0.807213   -1.222070    0.639085
 ---------------------------------------------------------------------
 Rotational constants (GHZ):      2.8270986      0.6564051      0.5889675
 Standard basis: 6-31G(d) (6D, 7F)
 There are   174 symmetry adapted basis functions of A   symmetry.
 Integral buffers will be    131072 words long.
 Raffenetti 2 integral format.
 Two-electron integral symmetry is turned on.
   174 basis functions,   328 primitive gaussians,   174 cartesian basis functions
    39 alpha electrons       39 beta electrons
       nuclear repulsion energy       548.7302612379 Hartrees.
 NAtoms=   22 NActive=   22 NUniq=   22 SFac= 1.00D+00 NAtFMM=   60 NAOKFM=F Big=F
 One-electron integrals computed using PRISM.
 NBasis=   174 RedAO= T  NBF=   174
 NBsUse=   174 1.00D-06 NBFU=   174
 Initial guess read from the read-write file.
 B after Tr=     0.000000    0.000000    0.000000
         Rot=    1.000000    0.000000    0.000000    0.000000 Ang=   0.00 deg.
 Initial guess orbital symmetries:
       Occupied  (A) (A) (A) (A) (A) (A) (A) (A) (A) (A) (A) (A)
                 (A) (A) (A) (A) (A) (A) (A) (A) (A) (A) (A) (A)
                 (A) (A) (A) (A) (A) (A) (A) (A) (A) (A) (A) (A)
                 (A) (A) (A)
       Virtual   (A) (A) (A) (A) (A) (A) (A) (A) (A) (A) (A) (A)
                 (A) (A) (A) (A) (A) (A) (A) (A) (A) (A) (A) (A)
                 (A) (A) (A) (A) (A) (A) (A) (A) (A) (A) (A) (A)
                 (A) (A) (A) (A) (A) (A) (A) (A) (A) (A) (A) (A)
                 (A) (A) (A) (A) (A) (A) (A) (A) (A) (A) (A) (A)
                 (A) (A) (A) (A) (A) (A) (A) (A) (A) (A) (A) (A)
                 (A) (A) (A) (A) (A) (A) (A) (A) (A) (A) (A) (A)
                 (A) (A) (A) (A) (A) (A) (A) (A) (A) (A) (A) (A)
                 (A) (A) (A) (A) (A) (A) (A) (A) (A) (A) (A) (A)
                 (A) (A) (A) (A) (A) (A) (A) (A) (A) (A) (A) (A)
                 (A) (A) (A) (A) (A) (A) (A) (A) (A) (A) (A) (A)
                 (A) (A) (A)
 Harris functional with IExCor=  402 diagonalized for initial guess.
 ExpMin= 1.61D-01 ExpMax= 5.48D+03 ExpMxC= 8.25D+02 IAcc=3 IRadAn=         5 AccDes= 0.00D+00
 HarFok:  IExCor=  402 AccDes= 0.00D+00 IRadAn=         5 IDoV= 1
 ScaDFX=  1.000000  1.000000  1.000000  1.000000
 FoFCou: FMM=F IPFlag=           0 FMFlag=      100000 FMFlg1=           0
         NFxFlg=           0 DoJE=T BraDBF=F KetDBF=T FulRan=T
         Omega=  0.000000  0.000000  1.000000  0.000000  0.000000 ICntrl=     500 IOpCl=  0
         NMat0=    1 NMatS0=    1 NMatT0=    0 NMatD0=    1 NMtDS0=    0 NMtDT0=    0
         I1Cent=           4 NGrid=           0.
 Petite list used in FoFCou.
 Requested convergence on RMS density matrix=1.00D-08 within 128 cycles.
 Requested convergence on MAX density matrix=1.00D-06.
 Requested convergence on             energy=1.00D-06.
 No special actions if energy rises.
 Integral accuracy reduced to 1.0D-05 until final iterations.
 Initial convergence to 1.0D-05 achieved.  Increase integral accuracy.
 SCF Done:  E(RB3LYP) =  -495.852203898     A.U. after   11 cycles
             Convg  =    0.7586D-08             -V/T =  2.0094
 Calling FoFJK, ICntrl=      2127 FMM=F ISym2X=0 I1Cent= 0 IOpClX= 0 NMat=1 NMatS=1 NMatT=0.
 ***** Axes restored to original set *****
 -------------------------------------------------------------------
 Center     Atomic                   Forces (Hartrees/Bohr)
 Number     Number              X              Y              Z
 -------------------------------------------------------------------
      1        6          -0.000617058    0.000766983   -0.000654009
      2        6           0.003422512   -0.000499641    0.003208366
      3        6          -0.000123618   -0.000079149   -0.000087856
      4        6          -0.000771712   -0.000680737   -0.000812398
      5        6          -0.000201710    0.000145308    0.000246879
      6        6          -0.000362715    0.000415518    0.000145871
      7        7          -0.001195254    0.000329630   -0.001066504
      8        7           0.000242114   -0.000962613   -0.000851023
      9        8           0.000411573   -0.000001323    0.000435963
     10        8          -0.000990241    0.000772471   -0.001872436
     11        1          -0.000002611   -0.000120867    0.000164790
     12        1          -0.000054427   -0.000089012   -0.000002656
     13        1          -0.000054168   -0.000019265    0.000300207
     14        1          -0.000005125   -0.000119398    0.000075359
     15        1           0.000042826    0.000082631    0.000037337
     16        1           0.000296351    0.000235360    0.000108971
     17        1           0.000198954   -0.000298023   -0.000127920
     18        1           0.000019273   -0.000136398   -0.000111952
     19        1           0.000105295   -0.000107288   -0.000034272
     20        1          -0.000282214    0.000011873    0.000286706
     21        1          -0.000163048   -0.000330250    0.000336690
     22        1           0.000085003    0.000684189    0.000273887
 -------------------------------------------------------------------
 Cartesian Forces:  Max     0.003422512 RMS     0.000750450

 GradGradGradGradGradGradGradGradGradGradGradGradGradGradGradGradGradGrad
 Berny optimization.
 Using GEDIIS/GDIIS optimizer.
 Internal  Forces:  Max     0.001441466 RMS     0.000337968
 Search for a local minimum.
 Step number   3 out of a maximum of  108
 All quantities printed in internal units (Hartrees-Bohrs-Radians)
 Mixed Optimization -- En-DIIS/RFO-DIIS
 Swaping is turned off.
 Update second derivatives using D2CorX and points    1    2    3
 DE= -1.36D-04 DEPred=-1.92D-04 R= 7.08D-01
 SS=  1.41D+00  RLast= 1.03D-01 DXNew= 8.4853D-01 3.0941D-01
 Trust test= 7.08D-01 RLast= 1.03D-01 DXMaxT set to 5.05D-01
 ITU=  1  1  0
     Eigenvalues ---    0.00231   0.00440   0.00661   0.00865   0.01134
     Eigenvalues ---    0.01221   0.01293   0.01478   0.01635   0.02061
     Eigenvalues ---    0.02436   0.04770   0.05017   0.05563   0.05781
     Eigenvalues ---    0.06384   0.07015   0.07452   0.07531   0.07723
     Eigenvalues ---    0.13168   0.15978   0.15992   0.16000   0.16000
     Eigenvalues ---    0.16000   0.16000   0.16000   0.16000   0.16087
     Eigenvalues ---    0.16573   0.17815   0.18690   0.21871   0.22006
     Eigenvalues ---    0.24235   0.24999   0.25019   0.25547   0.28566
     Eigenvalues ---    0.30046   0.32264   0.34060   0.34115   0.34224
     Eigenvalues ---    0.34259   0.34392   0.34420   0.34428   0.34438
     Eigenvalues ---    0.34469   0.34578   0.37113   0.40268   0.44578
     Eigenvalues ---    0.44963   0.48492   0.50997   0.89947   0.91444
 En-DIIS/RFO-DIIS IScMMF=        0 using points:     3    2
 RFO step:  Lambda=-4.66820671D-05.
 DidBck=T Rises=F RFO-DIIS coefs:    0.77935    0.22065
 Iteration  1 RMS(Cart)=  0.03384512 RMS(Int)=  0.00045810
 Iteration  2 RMS(Cart)=  0.00081080 RMS(Int)=  0.00013307
 Iteration  3 RMS(Cart)=  0.00000018 RMS(Int)=  0.00013307
 Variable       Old X    -DE/DX   Delta X   Delta X   Delta X     New X
                                  (DIIS)     (GDIIS)  (Total)
    R1        2.87816  -0.00050   0.00004   0.00036   0.00040   2.87856
    R2        2.57696  -0.00065   0.00053  -0.00382  -0.00329   2.57367
    R3        2.32015   0.00018  -0.00010   0.00043   0.00034   2.32049
    R4        2.90605  -0.00041  -0.00150   0.00525   0.00375   2.90980
    R5        2.56493   0.00007   0.00085  -0.00550  -0.00465   2.56029
    R6        2.32097   0.00144  -0.00044   0.00266   0.00223   2.32320
    R7        2.07203   0.00004  -0.00028   0.00162   0.00134   2.07337
    R8        2.06306   0.00005  -0.00011   0.00042   0.00032   2.06338
    R9        2.06985  -0.00019   0.00010  -0.00072  -0.00062   2.06923
   R10        2.91007   0.00084  -0.00092   0.00768   0.00676   2.91682
   R11        2.06979  -0.00011   0.00018  -0.00113  -0.00095   2.06884
   R12        2.06517  -0.00006   0.00026  -0.00149  -0.00123   2.06394
   R13        2.07210  -0.00020   0.00015  -0.00095  -0.00081   2.07130
   R14        2.75069  -0.00039   0.00081  -0.00304  -0.00224   2.74846
   R15        2.07118  -0.00011   0.00007  -0.00031  -0.00024   2.07094
   R16        2.06400  -0.00006  -0.00027   0.00108   0.00081   2.06481
   R17        2.06715  -0.00008   0.00002  -0.00023  -0.00020   2.06694
   R18        2.73774   0.00022  -0.00035   0.00088   0.00053   2.73827
   R19        2.07362   0.00011  -0.00025   0.00145   0.00120   2.07482
   R20        1.90638   0.00046   0.00018  -0.00079  -0.00061   1.90577
   R21        1.91425   0.00054  -0.00018   0.00119   0.00101   1.91526
    A1        2.00855   0.00015   0.00026   0.00005   0.00030   2.00885
    A2        2.13998  -0.00026   0.00133  -0.00673  -0.00541   2.13457
    A3        2.13445   0.00011  -0.00163   0.00659   0.00496   2.13941
    A4        2.01734   0.00008  -0.00061   0.00352   0.00219   2.01953
    A5        2.12848  -0.00039   0.00102  -0.00658  -0.00627   2.12221
    A6        2.13735   0.00032  -0.00056   0.00327   0.00198   2.13933
    A7        1.91405  -0.00021   0.00042  -0.00265  -0.00223   1.91181
    A8        1.89817  -0.00004   0.00046  -0.00263  -0.00218   1.89599
    A9        1.96784  -0.00016  -0.00012   0.00129   0.00117   1.96901
   A10        1.88500   0.00009   0.00065  -0.00386  -0.00322   1.88178
   A11        1.88661   0.00015   0.00044  -0.00249  -0.00206   1.88456
   A12        1.91048   0.00018  -0.00182   0.01016   0.00833   1.91881
   A13        1.92560   0.00024   0.00032  -0.00071  -0.00039   1.92521
   A14        1.90070  -0.00005   0.00249  -0.01325  -0.01078   1.88991
   A15        1.94723  -0.00052   0.00104  -0.00714  -0.00612   1.94111
   A16        1.90348  -0.00001  -0.00176   0.00945   0.00770   1.91117
   A17        1.89203   0.00013  -0.00124   0.00673   0.00549   1.89752
   A18        1.89414   0.00022  -0.00099   0.00551   0.00447   1.89861
   A19        1.94444  -0.00048   0.00154  -0.00716  -0.00563   1.93881
   A20        1.90053  -0.00009  -0.00051   0.00202   0.00151   1.90205
   A21        1.92512  -0.00007   0.00091  -0.00375  -0.00285   1.92227
   A22        1.90310   0.00029  -0.00066   0.00343   0.00277   1.90587
   A23        1.88445   0.00025  -0.00056   0.00222   0.00165   1.88611
   A24        1.90577   0.00013  -0.00077   0.00349   0.00272   1.90849
   A25        1.94094   0.00030   0.00045  -0.00064  -0.00019   1.94075
   A26        1.86542  -0.00030  -0.00241   0.00737   0.00495   1.87037
   A27        1.92006  -0.00010  -0.00064   0.00299   0.00232   1.92238
   A28        1.95820  -0.00009   0.00027  -0.00087  -0.00060   1.95760
   A29        1.89362  -0.00015   0.00306  -0.01535  -0.01228   1.88134
   A30        1.88480   0.00034  -0.00090   0.00721   0.00630   1.89110
   A31        2.12055   0.00005   0.00028  -0.00175  -0.00147   2.11908
   A32        2.07982   0.00015  -0.00119   0.00611   0.00492   2.08474
   A33        2.08209  -0.00020   0.00096  -0.00470  -0.00376   2.07833
   A34        2.13227   0.00014   0.00071  -0.00396  -0.00334   2.12893
   A35        2.13571   0.00010  -0.00253   0.01367   0.01105   2.14676
   A36        2.01196  -0.00025   0.00208  -0.01194  -0.00994   2.00202
    D1        1.57065  -0.00002  -0.00395   0.02318   0.01923   1.58988
    D2       -2.65473  -0.00005  -0.00266   0.01546   0.01282  -2.64191
    D3       -0.53245   0.00004  -0.00472   0.02734   0.02263  -0.50982
    D4       -1.54952   0.00020  -0.00198   0.02767   0.02568  -1.52385
    D5        0.50828   0.00017  -0.00068   0.01995   0.01926   0.52754
    D6        2.63056   0.00027  -0.00274   0.03183   0.02907   2.65963
    D7       -3.06673   0.00011  -0.00290   0.02405   0.02124  -3.04549
    D8       -0.01580  -0.00010   0.00114  -0.00751  -0.00643  -0.02223
    D9        0.05351  -0.00011  -0.00481   0.01940   0.01464   0.06815
   D10        3.10444  -0.00032  -0.00077  -0.01216  -0.01303   3.09141
   D11        1.32255  -0.00068  -0.00268  -0.05820  -0.06079   1.26176
   D12       -2.81794  -0.00081  -0.00366  -0.05482  -0.05839  -2.87633
   D13       -0.77586  -0.00063  -0.00639  -0.04053  -0.04683  -0.82268
   D14       -1.82273   0.00062   0.00674   0.00427   0.01092  -1.81181
   D15        0.31997   0.00049   0.00576   0.00766   0.01332   0.33329
   D16        2.36205   0.00067   0.00303   0.02194   0.02488   2.38693
   D17       -3.11786   0.00051   0.00278   0.03559   0.03847  -3.07938
   D18        0.06488   0.00055   0.00111   0.04540   0.04664   0.11152
   D19        0.02744  -0.00080  -0.00666  -0.02721  -0.03399  -0.00655
   D20       -3.07301  -0.00076  -0.00832  -0.01740  -0.02582  -3.09883
   D21        1.02158  -0.00011   0.00008  -0.00249  -0.00242   1.01916
   D22       -1.06674   0.00013   0.00267  -0.01087  -0.00820  -1.07494
   D23        3.13556  -0.00014   0.00160  -0.00924  -0.00764   3.12792
   D24        3.11018  -0.00001  -0.00033   0.00044   0.00010   3.11028
[...]
 4054,-0.00006681,0.00001365,-0.00067686,-0.00026264,-0.00070186,0.0000
 7155,0.00010874,-0.00004895,-0.00009241,-0.00033398,0.00042816,-0.0111
 2026,0.17535142,0.00066889,-0.01589713,-0.01618944,-0.00002791,0.00022
 379,0.00006159,0.01250836,-0.13314463,-0.20202003,0.00014962,-0.000056
 15,-0.00022149,-0.00002829,0.00004480,-0.00000373,0.00046378,-0.000141
 63,0.00059083,0.00008587,-0.00010126,-0.00008242,0.00148808,0.00194879
 ,-0.00138484,0.00027010,0.00198253,0.00305852,0.00006720,-0.00010459,-
 0.00001797,0.00120395,-0.00986912,-0.01136812,-0.01592571,0.14624562,0
 .21575093,0.00927424,-0.02219701,0.00346764,0.00002954,-0.00004183,0.0
 0007606,-0.06338635,0.05253487,-0.01979659,0.00002386,-0.00002348,-0.0
 0003533,-0.00001097,0.00002204,-0.00000166,0.00032153,-0.00008443,-0.0
 0038488,0.00005239,-0.00001968,-0.00008977,-0.00051652,0.00116725,-0.0
 0058626,-0.00345252,-0.00320404,0.00603959,0.00001046,0.00006992,-0.00
 010541,-0.00384234,0.02764990,-0.00893522,-0.00149451,0.00093624,-0.00
 085494,0.06382399,0.00654964,-0.01050129,-0.00074999,-0.00002409,-0.00
 027271,0.00006955,0.04960175,-0.26948212,0.08924303,0.00002408,-0.0000
 3439,0.00001180,0.00000928,-0.00002265,-0.00000046,-0.00033216,0.00035
 395,0.00005641,-0.00001156,0.00007218,-0.00001337,0.00009471,0.0011169
 2,-0.00114846,-0.00297164,0.00101275,0.00296516,-0.00000848,0.00019481
 ,-0.00008882,-0.00013843,0.00280124,-0.00135701,0.00416863,-0.01728489
 ,0.00877528,-0.05676787,0.29081078,-0.01266175,0.01868759,-0.00590559,
 0.00004558,0.00027943,-0.00011541,-0.01817142,0.08725858,-0.08584125,-
 0.00002437,0.00001227,0.00009413,0.00001154,-0.00000135,0.00000588,-0.
 00014407,-0.00014716,0.00012864,-0.00005592,-0.00005151,0.00007549,0.0
 0005263,-0.00158052,0.00063575,0.00590544,0.00322329,-0.00301010,-0.00
 010881,-0.00025741,0.00007349,-0.00171304,0.01334622,-0.00570245,0.005
 65898,-0.02269688,0.01194153,0.01975654,-0.09789872,0.08787544,-0.0007
 8159,0.00127201,-0.00029328,-0.00013534,0.00224121,-0.00008961,-0.0000
 3055,-0.00001849,0.00002976,-0.10413944,0.05025595,-0.09388245,-0.0000
 3651,0.00011433,-0.00008316,-0.01098625,0.00774551,-0.01887142,0.00029
 969,-0.00036483,0.00008391,0.00296576,0.00097128,0.00095882,-0.0003061
 7,-0.00076239,0.00051766,0.00014726,-0.00077903,0.00077637,0.00001145,
 -0.00001470,0.00001957,-0.00004623,0.00000504,0.00001530,-0.00002897,-
 0.00003815,0.00001232,0.11016294,0.00002157,-0.00026020,0.00046671,-0.
 00052378,0.00240503,-0.00147835,-0.00004771,0.00004129,-0.00012307,0.0
 5078463,-0.09488420,0.08830594,-0.00003271,-0.00006466,-0.00005619,-0.
 01145835,0.00797229,-0.02029357,0.00029316,-0.00010540,0.00030386,0.00
 218278,0.00106112,-0.00000816,0.00054023,0.00035427,-0.00004139,0.0002
 6177,0.00007024,0.00082280,-0.00002169,-0.00000509,0.00000157,0.000028
 81,-0.00000476,-0.00001005,0.00001729,0.00001604,-0.00001644,-0.052009
 07,0.09921957,0.00018568,-0.00034307,0.00011743,-0.00095525,0.00201961
 ,-0.00069640,-0.00005027,0.00003916,-0.00001942,-0.09515867,0.08616899
 ,-0.21720468,-0.00019322,-0.00002484,0.00001924,-0.00519136,0.00397883
 ,-0.01176192,0.00059624,-0.00028264,-0.00001512,0.00096400,-0.00027620
 ,0.00176472,0.00021859,0.00016126,-0.00001582,0.00042084,-0.00091699,0
 .00074003,-0.00001763,-0.00000527,0.00001310,-0.00001421,-0.00000195,0
 .00002072,0.00000216,-0.00000743,-0.00000142,0.10685711,-0.09353547,0.
 23378303,0.00019979,-0.00346188,0.00109517,-0.00554449,-0.00062569,-0.
 00115905,-0.00014120,0.00015109,-0.00017846,-0.10923017,0.11191024,0.0
 3788872,0.00024426,0.00022535,0.00000053,0.00951594,-0.02381588,-0.009
 04466,0.00131622,-0.00011559,-0.00035240,0.00095868,0.00222498,0.00004
 280,0.00001798,0.00210526,-0.00054215,0.00106308,-0.00142054,0.0008785
 4,-0.00003510,0.00002565,0.00000253,0.00000952,0.00002965,-0.00002191,
 0.00007578,0.00008079,-0.00011760,-0.00664289,0.01045191,0.00477900,0.
 11715484,-0.00047789,-0.00201701,0.00070102,-0.00470887,0.00054257,-0.
 00079803,-0.00012715,-0.00001200,-0.00018040,0.10931853,-0.24141695,-0
 .06140694,0.00019807,0.00026350,0.00002411,0.00788286,-0.02058328,-0.0
 0783326,0.00065329,-0.00021764,-0.00020106,0.00076958,0.00197637,0.000
 56170,0.00143813,0.00134631,-0.00007592,0.00062192,-0.00093954,0.00039
 684,-0.00001978,0.00002428,0.00001809,-0.00001765,0.00002927,-0.000025
 40,0.00003218,0.00006086,-0.00006799,0.00499961,-0.00942912,-0.0034594
 6,-0.11666420,0.26080579,0.00076448,-0.00129592,0.00081524,-0.00253498
 ,0.00021807,-0.00087324,-0.00010364,0.00015297,-0.00018422,0.03540031,
 -0.06106169,-0.07128752,-0.00014826,0.00028742,0.00010982,0.00592003,-
 0.01219478,-0.00474664,-0.00004833,-0.00065207,-0.00024236,-0.00032180
 ,0.00172013,0.00022604,0.00058853,0.00106483,-0.00080087,0.00044481,-0
 .00109983,0.00075717,-0.00004187,-0.00000894,0.00001539,0.00004789,0.0
 0001274,-0.00002479,0.00004222,0.00003457,-0.00006225,-0.01256140,0.02
 328253,0.00929344,-0.03840802,0.06957479,0.07291122,0.00169320,-0.0019
 8802,0.00006716,-0.00117543,0.00067784,0.00160690,0.00006200,0.0003058
 0,0.00033576,-0.17353416,-0.04079782,0.12310047,0.00040621,-0.00004082
 ,-0.00026413,-0.01196294,-0.00199002,0.01627444,0.00088419,0.00054097,
 0.00000644,-0.00451821,-0.00357775,-0.00096418,-0.00047102,0.00086837,
 -0.00066494,0.00054620,-0.00001358,-0.00048797,-0.00002001,-0.00002195
 ,-0.00000615,-0.00012046,-0.00000541,0.00008562,0.00000904,-0.00002969
 ,-0.00000704,0.01246799,0.00332140,-0.01053660,-0.01001457,-0.00437800
 ,0.00980370,0.18681136,0.00099729,-0.00294123,0.00018881,-0.00155457,0
 .00028828,0.00237962,0.00001170,0.00022603,0.00019153,-0.03983412,-0.0
 6214113,0.03965656,0.00036795,-0.00031997,-0.00031907,-0.01075164,-0.0
 0462413,0.01565869,0.00122809,0.00032830,-0.00045195,-0.00579702,-0.00
 177457,-0.00083388,0.00028442,0.00148497,-0.00038388,0.00037228,0.0001
 2573,-0.00075750,-0.00001511,0.00000562,-0.00000732,-0.00010667,0.0000
 0120,0.00005609,0.00001296,0.00001474,-0.00002519,-0.00965443,-0.00358
 380,0.00851682,0.01860122,0.00915195,-0.01978430,0.04659554,0.06320716
 ,-0.00050775,-0.00021472,0.00015004,0.00119199,0.00019419,-0.00065521,
 0.00001691,0.00008942,0.00007551,0.12400612,0.04103087,-0.17556800,-0.
 00004269,-0.00003435,0.00000964,-0.00909198,-0.00213878,0.00903074,-0.
 00091306,-0.00070368,-0.00019133,-0.00105398,-0.00218628,0.00097722,0.
 00015083,0.00015134,0.00004282,-0.00021744,-0.00007078,0.00044410,0.00
 001486,0.00000316,0.,-0.00007011,0.00001982,0.00002454,0.00000251,0.00
 001296,-0.00003039,0.01874919,0.00430101,-0.01660702,0.00480686,0.0025
 6927,-0.00642981,-0.13712487,-0.04313690,0.18792914,0.00014533,-0.0001
 8986,0.00005360,0.00146530,0.00357756,-0.00026054,-0.00003500,0.000023
 38,0.00000048,-0.00004721,-0.00010598,-0.00005299,-0.08476067,-0.02323
 967,-0.08685226,-0.00075337,-0.00051928,-0.00000435,0.00523215,0.00777
 483,0.02424183,-0.00030930,0.00040340,0.00003727,-0.00006505,0.0000875
 6,-0.00001341,-0.00011545,-0.00091691,0.00035170,-0.00001408,-0.000000
 22,0.00000975,-0.00000913,-0.00000102,0.00000702,0.00000422,-0.0000037
 1,0.00000066,0.00001039,-0.00000108,0.00003455,0.00000281,0.00000476,0
 .00002797,-0.00002861,-0.00002002,-0.00000828,0.08726060,-0.00030052,0
 .00038067,-0.00004908,-0.00386989,-0.00590191,0.00409725,0.00005096,-0
 .00003551,-0.00000877,0.00013270,0.00015300,0.00002906,-0.02280768,-0.
 06270311,-0.05027351,0.00107090,0.00055782,0.00012942,0.00206719,-0.01
 315972,-0.03305319,0.00041991,-0.00059419,-0.00001461,0.00013074,-0.00
 019301,0.00003128,-0.00097210,0.00285241,-0.00150654,0.00002003,0.0000
 0380,-0.00001162,0.00001386,-0.00000122,-0.00001397,-0.00000602,0.0000
 0365,0.00000447,-0.00003828,-0.00000180,-0.00002248,0.00000441,-0.0000
 2259,-0.00005149,0.00002696,0.00006459,-0.00000134,0.01815780,0.070067
 32,-0.00036216,0.00034148,-0.00000010,-0.00268029,-0.00178887,0.001570
 08,0.00004813,-0.00002205,-0.00001072,0.00012768,-0.00001369,0.0000097
 2,-0.08321711,-0.05308393,-0.26475280,-0.00003371,0.00019682,-0.000195
 32,0.00533112,-0.00755277,-0.00874650,0.00047009,-0.00041431,-0.000093
 36,0.00015014,-0.00019080,0.00003535,0.00078098,0.00016333,-0.00053447
 ,0.00002324,-0.00000077,-0.00001021,0.00001084,0.00000146,-0.00001190,
 -0.00000871,0.00000348,-0.00000184,-0.00001230,0.00001374,0.00000582,-
 0.00001680,-0.00004349,-0.00004789,0.00003863,0.00008528,0.00000658,0.
 08735580,0.06622752,0.28662473,0.00037663,-0.00036356,-0.00001864,0.00
 032258,0.00189848,-0.00525535,-0.00005217,0.00001462,0.00000610,-0.000
 32294,0.00015379,0.00008183,-0.29686679,-0.05784781,0.00816147,0.00026
 452,0.00003940,0.00032569,-0.01505359,0.00707036,0.00966628,-0.0003387
 3,0.00044041,0.00025106,-0.00013384,0.00022859,-0.00001401,-0.00029976
 ,-0.00114431,0.00089163,-0.00001648,-0.00000557,0.00000748,-0.00000995
 ,0.00000496,0.00001330,0.00000428,-0.00000518,-0.00000549,0.00002103,-
 0.00001343,0.00004042,0.00009421,0.00007509,0.00007427,-0.00002495,-0.
 00004355,-0.00003499,-0.01038309,-0.00433298,-0.00022127,0.32505336,-0
 .00024309,0.00025360,-0.00004027,0.00066600,-0.00479197,0.00587143,0.0
 0004378,-0.00001044,0.00000720,0.00044820,-0.00022511,-0.00017735,-0.0
 6137952,-0.06298354,0.00430953,-0.00098663,-0.00030194,-0.00113759,0.0
 3702908,0.00102146,-0.01071318,0.00022776,-0.00027961,-0.00017882,0.00
 007959,-0.00013891,0.00002995,0.00009132,0.00325854,-0.00039242,0.0000
 1817,0.00000105,-0.00000971,0.00000550,0.00000050,-0.00000699,-0.00000
 410,0.00000297,-0.00000230,-0.00001641,0.00001331,-0.00000072,-0.00014
 871,-0.00013236,-0.00004895,-0.00003430,-0.00004319,0.00005889,-0.0065
 5516,-0.00091535,0.00160536,0.05529371,0.06765004,-0.00020029,0.000180
 35,0.00000059,0.00145441,-0.00104637,0.00147307,0.00003264,-0.00000801
 ,0.00000056,0.00015047,-0.00004096,-0.00001547,0.00616996,0.00228275,-
 0.05233692,-0.00012153,0.00003501,-0.00035104,0.01608394,0.00035464,-0
 .00256558,0.00020431,-0.00027646,-0.00017086,0.00007413,-0.00011639,0.
 00000447,-0.00001602,-0.00031663,-0.00074185,0.00001171,0.00000177,-0.
 00000699,0.00000646,-0.00000172,-0.00000609,-0.00000232,0.00000455,0.0
 0000103,0.00000128,-0.00000191,-0.00005995,-0.00006362,-0.00003892,-0.
 00002945,0.00000393,-0.00002063,0.00003942,-0.03024111,-0.00716222,0.0
 0245701,-0.01398933,0.00274976,0.05122505,-0.00020807,0.00015555,0.000
 04777,0.00176180,0.00304252,-0.00165002,0.00001260,-0.00000134,-0.0000
 1081,0.00013993,-0.00006634,-0.00000435,-0.05900272,-0.03926918,0.0303
 9011,0.00016273,-0.00019657,0.00015579,0.00159773,0.01750077,-0.012576
 92,0.00005414,-0.00030474,0.00006562,0.00008533,-0.00014248,0.00000802
 ,-0.00132143,-0.00195673,0.00058811,0.00000376,0.00000363,-0.00000100,
 0.00000513,-0.00000598,-0.00000561,-0.00000270,0.00000134,0.00000931,-
 0.00000961,0.00001255,-0.00000123,-0.00003775,-0.00003104,-0.00002176,
 -0.00006146,-0.00004114,0.00000901,0.00202635,0.01076880,-0.00813455,-
 0.00251939,-0.02445998,0.02115933,0.05940813,0.00013810,-0.00007520,-0
 .00001284,-0.00163803,-0.00334529,0.00500765,-0.00000395,-0.00000171,0
 .00000353,-0.00009342,-0.00001040,0.00005347,-0.03208642,-0.20589602,0
 .12830458,0.00000713,-0.00015640,0.00016382,-0.00044514,-0.02993128,0.
 01597219,-0.00014354,0.00026515,-0.00003442,-0.00004621,0.00009463,-0.
 00003466,-0.00167728,0.00369125,-0.00025158,-0.00000309,0.00000046,0.0
 0000004,-0.00000139,0.00000134,0.00000173,0.00000366,0.00000124,-0.000
 00292,0.00000332,-0.00002436,-0.00006150,0.00002107,0.00002633,-0.0000
 3776,0.00009117,0.00006398,-0.00001561,0.00198803,0.00937734,-0.005499
 87,-0.00143204,-0.00322360,0.00317734,0.03247508,0.23165000,0.00026028
 ,-0.00017399,-0.00004291,0.00084218,-0.00190416,0.00152252,-0.00002351
 ,0.00000343,0.00001089,-0.00018179,0.00008137,0.00003864,0.02661733,0.
 13913796,-0.16534168,-0.00004844,0.00039402,-0.00007330,-0.00315591,-0
 .01151410,0.01020067,-0.00008557,0.00032750,-0.00011023,-0.00012009,0.
 00014173,-0.00000737,0.00034403,0.00014156,-0.00248434,-0.00001225,0.0
 0000143,0.00000348,-0.00000571,0.00000057,0.00000653,0.00000786,-0.000
 00143,-0.00000160,0.00001174,-0.00002411,-0.00003087,0.00005206,0.0000
 5356,0.00001760,0.00005625,0.00003700,-0.00000750,0.00586633,0.0218795
 3,-0.01631474,-0.00022657,-0.00242239,0.00097589,-0.03200049,-0.143625
 55,0.17291921,0.00263015,-0.00435520,0.00215725,-0.00369918,0.00306798
 ,-0.01187120,-0.00051506,-0.00018757,-0.00078989,-0.01183572,0.0075503
 8,-0.01975823,-0.00001579,-0.00006849,0.00039462,-0.10128456,0.0518169
 4,-0.09314212,0.00041688,0.00020932,0.00116490,0.00661874,-0.01365327,
 0.02634775,-0.00059066,0.00194037,-0.00175756,-0.00030070,0.00184413,0
 .00100949,-0.00021270,0.00008112,0.00008462,0.00009063,-0.00001050,-0.
 00000987,0.00018664,0.00009899,-0.00011206,-0.00229344,-0.00354148,-0.
 00143745,0.00097195,0.00021311,0.00068177,0.00046016,0.00054028,0.0006
 8516,-0.00003423,0.00007127,-0.00000828,0.00004239,-0.00004293,-0.0000
 4781,0.00012486,-0.00009558,-0.00011396,0.11218580,0.00113572,0.000440
 98,-0.00103896,0.01039163,-0.01151228,0.02522669,0.00002554,-0.0002703
 5,0.00044579,-0.01204628,0.00871354,-0.01876546,-0.00039832,-0.0002422
 2,-0.00068873,0.05060900,-0.09236510,0.08615559,-0.00131818,0.00101623
 ,-0.00123008,-0.00175987,-0.00394004,0.00821005,-0.00013036,-0.0004934
 1,-0.00007308,0.00095344,-0.00496296,-0.00294498,0.00002134,0.00002746
 ,-0.00000998,-0.00001390,0.00002929,-0.00001106,-0.00010731,0.00001418
 ,0.00006508,-0.00347556,-0.00283221,-0.00216488,0.00072439,0.00096667,
 -0.00002278,0.00071362,0.00080888,0.00076373,0.00010948,-0.00017128,-0
 .00000734,-0.00010991,0.00019128,0.00005194,-0.00018639,0.00012186,0.0
 0017090,-0.04659212,0.10422299,-0.00359414,0.00758448,-0.00078478,0.00
 482300,-0.00205904,0.00916822,0.00031004,-0.00000249,0.00027807,-0.008
 88511,0.00446737,-0.01045903,-0.00024615,0.00045320,0.00048032,-0.0868
 8719,0.08321857,-0.20516416,0.00061934,-0.00074699,-0.00040727,0.00402
 169,0.01377137,-0.02366908,-0.00082655,-0.00351417,0.00296776,-0.00067
 379,-0.00310005,-0.00005349,0.00014439,-0.00009364,-0.00004967,-0.0000
 3051,-0.00004430,-0.00000656,-0.00010774,-0.00018248,0.00011855,-0.001
 76740,-0.00197049,0.00029476,0.00065705,0.00040279,0.00016777,-0.00028
 061,-0.00005868,0.00070502,0.00000500,-0.00005618,-0.00004543,0.000066
 79,-0.00004939,-0.00002542,-0.00002099,-0.00008802,0.00008065,0.092376
 04,-0.09544644,0.23022071,-0.00005159,0.00012707,0.00021254,-0.0032793
 3,-0.02283685,0.00261752,0.00005549,0.00000635,0.00002760,0.00045213,0
 .00073170,-0.00049865,0.00092847,0.01352502,-0.01239260,0.00016419,-0.
 00085125,0.00140250,-0.02881616,0.00499185,0.03537305,-0.00032295,0.00
 037812,-0.00115172,-0.00003456,-0.00009014,-0.00023261,0.00238048,0.00
 183528,0.00811956,0.00000268,0.00000710,-0.00000299,0.00000485,-0.0000
 0228,-0.00001109,0.00000914,0.00001235,-0.00000464,-0.00017539,-0.0001
 4714,-0.00013834,-0.00025857,-0.00010798,0.00027546,-0.00022306,-0.000
 64513,0.00010878,0.00036667,-0.00055415,0.00048602,-0.00024332,0.00001
 202,-0.00061507,-0.00202123,0.00275721,0.00169217,-0.00111701,0.001162
 06,-0.00039649,0.03176881,-0.00016484,0.00027670,-0.00011720,-0.003516
 03,0.00124342,0.00014586,0.00002393,0.00000215,0.00002596,0.00079330,-
 0.00010765,-0.00059230,-0.00413021,-0.01524626,0.01297220,0.00039217,-
 0.00005926,-0.00122223,0.00229581,-0.34496067,0.17684880,-0.00016708,-
 0.00066876,0.00006128,-0.00000336,-0.00022062,0.00006651,0.00268405,0.
 00362507,-0.00147246,0.00000316,0.00000414,-0.00000210,0.00000090,-0.0
 0000634,-0.00000390,-0.00000403,-0.00000416,0.00001352,-0.00012884,-0.
 00000967,0.00020158,-0.00014300,-0.00015996,0.00002894,-0.00036261,-0.
 00043230,-0.00043114,-0.00054597,0.00013803,-0.00007663,0.00017485,0.0
 0063415,0.00014289,0.00250032,-0.00251677,-0.00248398,0.00043488,0.000
 32145,-0.00038581,0.00002404,0.35779135,0.00037171,-0.00051054,0.00011
 814,-0.00843353,0.02859260,-0.01159336,-0.00009896,0.00006809,0.000004
 10,0.00063504,0.00033894,-0.00074186,-0.00306474,-0.01414448,0.0095029
 8,0.00070137,-0.00047673,-0.00104756,0.03737878,0.17400923,-0.15249948
 ,-0.00078467,-0.00010274,0.00046894,-0.00020595,0.00011668,-0.00004649
 ,0.00771025,-0.00033024,-0.00279931,-0.00004178,-0.00000398,0.00002525
 ,-0.00001497,-0.00000857,0.00001968,0.00000251,-0.00000963,0.00001645,
 -0.00008068,0.00005373,0.00023566,-0.00032278,-0.00014432,0.00040892,-
 0.00079993,-0.00110402,0.00005054,-0.00051713,-0.00026004,0.00000208,0
 .00028618,0.00053485,0.00006804,0.00185406,-0.00288967,-0.00125093,0.0
 0054628,-0.00034850,0.00013317,-0.03472692,-0.18387516,0.15859745,0.00
 347786,0.02063766,-0.01791999,-0.00224580,-0.00683826,0.00826728,-0.00
 129656,-0.00026444,-0.00146861,-0.00204140,-0.00032966,0.00284297,-0.0
 0017226,0.00042723,0.00011495,0.00323922,-0.02268240,0.00627948,0.0013
 1788,0.00149462,-0.00270485,-0.04937760,0.01812728,0.02484030,-0.00241
 378,0.00495293,0.00416119,0.00095309,0.00188344,-0.00576954,-0.0000688
 3,-0.00007497,0.00031953,0.00058997,-0.00056173,-0.00014176,-0.0010902
 4,-0.00031059,0.00167319,-0.00047412,-0.00011966,-0.00040435,0.0002796
 9,0.00032546,0.00011862,-0.00118546,-0.00054832,-0.00067707,0.00004137
 ,-0.00005390,-0.00012749,0.00008600,-0.00004430,-0.00005545,-0.0001981
 3,0.00018131,0.00022406,-0.00182915,0.00029198,0.00069333,0.00041026,-
 0.00016143,-0.00039412,0.05199800,-0.00298058,-0.01462689,0.00425923,0
 .00260263,0.00438242,-0.00456936,-0.00110087,-0.00002217,-0.00038585,0
 .00035549,-0.00075177,0.00065789,0.00026924,-0.00042292,-0.00007686,-0
 .00522133,-0.00095810,0.00273876,-0.00136862,-0.00168708,0.00308693,0.
 02186946,-0.37280720,0.15610461,0.00322132,0.00379736,-0.00050111,-0.0
 0076026,-0.00479673,0.00091379,-0.00052111,0.00031122,0.00015514,-0.00
 009698,0.00008947,0.00010725,0.00001351,0.00112589,-0.00014207,-0.0003
 0808,0.00005213,0.00001666,-0.00016052,-0.00026345,-0.00011846,0.00009
 827,0.00008890,-0.00026108,-0.00002793,0.00010106,0.00005604,-0.000095
 89,0.00001910,0.00004923,0.00020136,-0.00011254,-0.00022085,0.00067838
 ,-0.00008498,-0.00209962,-0.00033526,0.00035599,0.00049450,-0.01633224
 ,0.38621029,-0.00801117,-0.00802382,-0.00048465,0.00292982,0.00570548,
 -0.00447903,-0.00068912,-0.00174096,-0.00194567,0.00000571,-0.00071499
 ,-0.00022858,0.00014792,-0.00025984,0.00013820,-0.00335308,0.01752018,
 -0.01122019,-0.00081915,-0.00029580,0.00152920,0.02435357,0.14812813,-
 0.08691100,0.00509374,-0.00096690,0.00529879,-0.00418075,-0.00175296,0
 .00135867,-0.00049804,0.00052236,0.00011899,0.00054212,-0.00001788,-0.
 00013749,0.00151174,0.00028101,-0.00029408,-0.00039133,0.00000731,0.00
 012466,0.00002419,-0.00002698,0.00000645,-0.00024287,0.00011291,0.0000
 0395,-0.00004188,0.00008651,0.00005391,-0.00010685,0.00001310,0.000064
 49,0.00014060,-0.00012994,-0.00011063,0.00360056,0.00166249,-0.0039501
 2,-0.00014406,0.00015537,0.00032758,-0.01987168,-0.16026478,0.10073657
 \\-0.00000859,0.00002295,-0.00000051,0.00001777,0.00000818,0.00000208,
 -0.00000742,0.00000360,0.00000311,-0.00000068,0.00000052,0.00000336,-0
 .00000722,-0.00000600,0.00000999,-0.00001069,0.00000101,0.00000378,-0.
 00004676,0.00000173,-0.00004772,0.00001756,0.00000033,0.00000200,0.000
 00310,-0.00001158,0.00000026,0.00000418,-0.00000825,-0.00000548,0.0000
 0083,-0.00000043,0.00000120,0.00000256,-0.00000239,0.00000074,0.000001
 90,-0.00000093,-0.00000174,0.00000095,-0.00000008,-0.00000040,0.000000
 53,0.00000016,-0.00000162,-0.00000071,0.00000107,-0.00000019,-0.000007
 50,0.00002098,0.00001623,0.00000799,-0.00001093,0.00000322,0.00001702,
 -0.00001592,0.00000544,0.00000182,-0.00000272,-0.00000454,0.00001664,0
 .00000383,0.00001461,-0.00000328,-0.00000513,-0.00000383\\\@


  THE LARGE PRINT GIVETH,
  AND THE SMALL PRINT TAKETH AWAY.

                     -- TOM WAITS
 Job cpu time:  0 days  0 hours 40 minutes 55.0 seconds.
 File lengths (MBytes):  RWF=     93 Int=      0 D2E=      0 Chk=      4 Scr=      1
 Normal termination of Gaussian 09 at Mon Feb 26 22:27:55 2018.
