 Entering Gaussian System, Link 0=g09
 Initial command:
 /home/fb_chem/chemsoft/lx24-amd64/Gaussian_09_C.01_NBO_3.1_64_istanbul-64/g09/l1.exe /local/2426260.1.parallel_long/Gau-22076.inp -scrdir=/local/2426260.1.parallel_long/
 Entering Link 1 = /home/fb_chem/chemsoft/lx24-amd64/Gaussian_09_C.01_NBO_3.1_64_istanbul-64/g09/l1.exe PID=     22077.
  
 Copyright (c) 1988,1990,1992,1993,1995,1998,2003,2009,2011,
            Gaussian, Inc.  All Rights Reserved.
  
 This is part of the Gaussian(R) 09 program.  It is based on
 the Gaussian(R) 03 system (copyright 2003, Gaussian, Inc.),
 the Gaussian(R) 98 system (copyright 1998, Gaussian, Inc.),
 the Gaussian(R) 94 system (copyright 1995, Gaussian, Inc.),
 the Gaussian 92(TM) system (copyright 1992, Gaussian, Inc.),
 the Gaussian 90(TM) system (copyright 1990, Gaussian, Inc.),
 the Gaussian 88(TM) system (copyright 1988, Gaussian, Inc.),
 the Gaussian 86(TM) system (copyright 1986, Carnegie Mellon
 University), and the Gaussian 82(TM) system (copyright 1983,
 Carnegie Mellon University). Gaussian is a federally registered
 trademark of Gaussian, Inc.
  
 This software contains proprietary and confidential information,
 including trade secrets, belonging to Gaussian, Inc.
  
 This software is provided under written license and may be
 used, copied, transmitted, or stored only in accord with that
 written license.
  
 The following legend is applicable only to US Government
 contracts under FAR:
  
                    RESTRICTED RIGHTS LEGEND
  
 Use, reproduction and disclosure by the US Government is
 subject to restrictions as set forth in subparagraphs (a)
 and (c) of the Commercial Computer Software - Restricted
 Rights clause in FAR 52.227-19.
  
 Gaussian, Inc.
 340 Quinnipiac St., Bldg. 40, Wallingford CT 06492
  
  
 ---------------------------------------------------------------
 Warning -- This program may not be used in any manner that
 competes with the business of Gaussian, Inc. or will provide
 assistance to any competitor of Gaussian, Inc.  The licensee
 of this program is prohibited from giving any competitor of
 Gaussian, Inc. access to this program.  By using this program,
 the user acknowledges that Gaussian, Inc. is engaged in the
 business of creating and licensing software in the field of
 computational chemistry and represents and warrants to the
 licensee that it is not a competitor of Gaussian, Inc. and that
 it will not use this program in any manner prohibited above.
 ---------------------------------------------------------------
  

 Cite this work as:
 Gaussian 09, Revision C.01,
 M. J. Frisch, G. W. Trucks, H. B. Schlegel, G. E. Scuseria, 
 M. A. Robb, J. R. Cheeseman, G. Scalmani, V. Barone, B. Mennucci, 
 G. A. Petersson, H. Nakatsuji, M. Caricato, X. Li, H. P. Hratchian, 
 A. F. Izmaylov, J. Bloino, G. Zheng, J. L. Sonnenberg, M. Hada, 
 M. Ehara, K. Toyota, R. Fukuda, J. Hasegawa, M. Ishida, T. Nakajima, 
 Y. Honda, O. Kitao, H. Nakai, T. Vreven, J. A. Montgomery, Jr., 
 J. E. Peralta, F. Ogliaro, M. Bearpark, J. J. Heyd, E. Brothers, 
 K. N. Kudin, V. N. Staroverov, T. Keith, R. Kobayashi, J. Normand, 
 K. Raghavachari, A. Rendell, J. C. Burant, S. S. Iyengar, J. Tomasi, 
 M. Cossi, N. Rega, J. M. Millam, M. Klene, J. E. Knox, J. B. Cross, 
 V. Bakken, C. Adamo, J. Jaramillo, R. Gomperts, R. E. Stratmann, 
 O. Yazyev, A. J. Austin, R. Cammi, C. Pomelli, J. W. Ochterski, 
 R. L. Martin, K. Morokuma, V. G. Zakrzewski, G. A. Voth, 
 P. Salvador, J. J. Dannenberg, S. Dapprich, A. D. Daniels, 
 O. Farkas, J. B. Foresman, J. V. Ortiz, J. Cioslowski, 
 and D. J. Fox, Gaussian, Inc., Wallingford CT, 2010.
 
 ******************************************
 Gaussian 09:  AM64L-G09RevC.01 23-Sep-2011
                26-Feb-2018 
 ******************************************
 %nprocs=4
 Will use up to    4 processors via shared memory.
 %chk=frag0-conf0.chk
 ----------------------------------------------------------------------
 #HF/6-31G* Geom=AllCheck Guess=Read Pop=(MK,ReadRadii) Integral=(Grid=
 UltraFine) iop(6/33=2)
 ----------------------------------------------------------------------
 1/29=7,38=1/1;
 2/12=2,40=1/2;
 3/5=1,6=6,7=1,11=9,14=-4,16=1,25=1,30=1,75=-5,116=-2/1,2,3;
 4/5=1/1;
 5/5=2,38=6/2;
 6/7=2,8=2,9=2,10=2,15=8,20=101,28=1,33=2/1,2;
 99/5=1,9=1/99;
 Structure from the checkpoint file:  frag0-conf0.chk
 ----------------------------
 Optimization for frag0-conf0
 ----------------------------
 Charge =  0 Multiplicity = 1
 Redundant internal coordinates found in file.
 C,0,0.3256124871,-1.4112593377,-0.0473244088
 C,0,-2.397899395,0.465671858,1.5534747454
 C,0,1.3676514748,-0.9110392562,-1.0369072399
 C,0,-2.7977650503,-1.852666743,0.5886957674
 C,0,-3.8764107547,1.5736277583,3.1972975942
 C,0,-1.7515331194,-0.8708635093,1.1530093138
 N,0,-3.1488646392,0.4239896496,2.6863846705
 N,0,-0.7161890864,-0.5654443926,0.186297152
 O,0,0.418225058,-2.5072996722,0.499491197
 O,0,-2.2544069237,1.4782143719,0.8717667299
 H,0,2.3425649897,-0.8864664197,-0.5400309491
 H,0,1.4416983497,-1.6250233082,-1.8630721867
 H,0,1.1480103086,0.0813726598,-1.4422626903
 H,0,-3.3004106749,-1.4173014422,-0.2811874333
 H,0,-2.2896008815,-2.7715073153,0.2861967193
 H,0,-3.5565114115,-2.1048209347,1.3384924055
 H,0,-3.5176260915,1.8569125442,4.1935564312
 H,0,-4.9515251725,1.3674315083,3.2525973337
 H,0,-3.7047906684,2.4009986404,2.5079852017
 H,0,-1.2775160433,-1.3346979745,2.0276075054
 H,0,-3.1883232972,-0.4425771537,3.2041083033
 H,0,-0.7576755494,0.3679493341,-0.2063539154
 Recover connectivity data from disk.
                          Input orientation:                          
 ---------------------------------------------------------------------
 Center     Atomic      Atomic             Coordinates (Angstroms)
 Number     Number       Type             X           Y           Z
 ---------------------------------------------------------------------
      1          6           0        0.325612   -1.411259   -0.047324
      2          6           0       -2.397899    0.465672    1.553475
      3          6           0        1.367651   -0.911039   -1.036907
      4          6           0       -2.797765   -1.852667    0.588696
      5          6           0       -3.876411    1.573628    3.197298
      6          6           0       -1.751533   -0.870864    1.153009
      7          7           0       -3.148865    0.423990    2.686385
      8          7           0       -0.716189   -0.565444    0.186297
      9          8           0        0.418225   -2.507300    0.499491
     10          8           0       -2.254407    1.478214    0.871767
     11          1           0        2.342565   -0.886466   -0.540031
     12          1           0        1.441698   -1.625023   -1.863072
     13          1           0        1.148010    0.081373   -1.442263
     14          1           0       -3.300411   -1.417301   -0.281187
     15          1           0       -2.289601   -2.771507    0.286197
     16          1           0       -3.556511   -2.104821    1.338492
     17          1           0       -3.517626    1.856913    4.193556
     18          1           0       -4.951525    1.367432    3.252597
     19          1           0       -3.704791    2.400999    2.507985
     20          1           0       -1.277516   -1.334698    2.027608
     21          1           0       -3.188323   -0.442577    3.204108
     22          1           0       -0.757676    0.367949   -0.206354
 ---------------------------------------------------------------------
                    Distance matrix (angstroms):
                    1          2          3          4          5
     1  C    0.000000
     2  C    3.674635   0.000000
     3  C    1.521624   4.773341   0.000000
     4  C    3.217895   2.542712   4.569458   0.000000
     5  C    6.090494   2.472997   7.183471   4.439344   0.000000
     6  C    2.459139   1.537689   3.811386   1.541749   3.830112
     7  N    4.786783   1.359842   6.003676   3.115563   1.453280
     8  N    1.362106   2.400109   2.440913   2.480287   4.860942
     9  O    1.228368   4.228475   2.410390   3.283153   6.509687
    10  O    3.981242   1.229048   4.740346   3.386759   2.836916
    11  H    2.141557   5.355656   1.094507   5.350753   7.661289
    12  H    2.142028   5.548541   1.094443   4.902656   8.007559
    13  H    2.202304   4.657854   1.094275   4.840914   6.999797
    14  H    3.633562   2.779586   4.755861   1.094939   4.623558
    15  H    2.966623   3.478082   4.311315   1.092705   5.465590
    16  H    4.180000   2.827726   5.595982   1.096117   4.133821
    17  H    6.590637   3.187377   7.673672   5.222471   1.096133
    18  H    6.816068   3.197060   7.970149   4.701498   1.096105
    19  H    6.107951   2.522805   7.018941   4.753950   1.090480
    20  H    2.623209   2.172876   4.070338   2.156366   4.071951
    21  H    4.884455   2.043105   6.242001   2.996877   2.130397
    22  H    2.089111   2.407671   2.615845   3.118526   4.771270
                    6          7          8          9         10
     6  C    0.000000
     7  N    2.445490   0.000000
     8  N    1.449052   3.625924   0.000000
     9  O    2.795149   5.108727   2.270636   0.000000
    10  O    2.418708   2.281290   2.648117   4.813094   0.000000
    11  H    4.430380   6.502527   3.160156   2.722277   5.358828
    12  H    4.456706   6.780065   3.158971   2.721693   5.547127
    13  H    4.006188   5.968773   2.558480   3.317261   4.345382
    14  H    2.180490   3.495684   2.760870   3.952949   3.287467
    15  H    2.157157   4.087840   2.711516   2.729033   4.290019
    16  H    2.194311   2.894455   3.429966   4.082210   3.840762
    17  H    4.450255   2.112065   5.456555   6.941426   3.573992
    18  H    4.433755   2.111934   5.574610   7.171287   3.599316
    19  H    4.044287   2.061418   4.808509   6.717492   2.373258
    20  H    1.097614   2.651210   2.072984   2.566256   3.194176
    21  H    2.540630   1.010214   3.903041   4.958349   3.162508
    22  H    2.090521   3.753513   1.013469   3.185595   2.152960
                   11         12         13         14         15
    11  H    0.000000
    12  H    1.762800   0.000000
    13  H    1.782609   1.781887   0.000000
    14  H    5.673796   5.003309   4.835553   0.000000
    15  H    5.068826   4.456049   4.789955   1.782564   0.000000
    16  H    6.309702   5.955025   5.885963   1.778098   1.776755
    17  H    8.017158   8.567469   7.528822   5.548963   6.180435
    18  H    8.524543   8.717693   7.803845   4.792552   5.745971
    19  H    7.527838   7.861383   6.673440   4.745779   5.804647
    20  H    4.460792   4.755608   4.464127   3.070743   2.474116
    21  H    6.693754   6.965027   6.377074   3.620765   3.840029
    22  H    3.361010   3.399103   2.289374   3.107768   3.527831
                   16         17         18         19         20
    16  H    0.000000
    17  H    4.883465   0.000000
    18  H    4.203141   1.783553   0.000000
    19  H    4.657479   1.781070   1.782430   0.000000
    20  H    2.502357   4.460471   4.722335   4.480832   0.000000
    21  H    2.525696   2.524896   2.527323   2.972751   2.414792
    22  H    4.041612   5.403106   5.527358   4.492929   2.856541
                   21         22
    21  H    0.000000
    22  H    4.265707   0.000000
 Stoichiometry    C6H12N2O2
 Framework group  C1[X(C6H12N2O2)]
 Deg. of freedom    60
 Full point group                 C1      NOp   1
 Largest Abelian subgroup         C1      NOp   1
 Largest concise Abelian subgroup C1      NOp   1
                         Standard orientation:                         
 ---------------------------------------------------------------------
 Center     Atomic      Atomic             Coordinates (Angstroms)
 Number     Number       Type             X           Y           Z
 ---------------------------------------------------------------------
      1          6           0        2.319099   -0.066258   -0.235966
      2          6           0       -1.336216   -0.297312    0.061077
      3          6           0        3.361557   -1.142687    0.028463
      4          6           0       -0.075933    1.720925    0.957620
      5          6           0       -3.762786   -0.336464   -0.414254
      6          6           0       -0.054536    0.546160   -0.040607
      7          7           0       -2.449578    0.284375   -0.459725
      8          7           0        1.059415   -0.349322    0.198089
      9          8           0        2.598939    0.988662   -0.799635
     10          8           0       -1.337057   -1.401871    0.600064
     11          1           0        3.799678   -1.451230   -0.925894
     12          1           0        4.167109   -0.713593    0.632423
     13          1           0        2.963147   -2.023981    0.540349
     14          1           0       -0.186367    1.350175    1.981944
     15          1           0        0.865565    2.269281    0.874597
     16          1           0       -0.900905    2.411219    0.746931
     17          1           0       -4.147655   -0.520319   -1.423998
     18          1           0       -4.477747    0.292044    0.129118
     19          1           0       -3.655434   -1.289186    0.105307
     20          1           0        0.045584    0.954789   -1.054390
     21          1           0       -2.354335    1.182074   -0.913154
     22          1           0        0.810335   -1.247161    0.596791
 ---------------------------------------------------------------------
 Rotational constants (GHZ):      2.8569331      0.6543800      0.5872052
 Standard basis: 6-31G(d) (6D, 7F)
 There are   174 symmetry adapted basis functions of A   symmetry.
 Integral buffers will be    131072 words long.
 Raffenetti 1 integral format.
 Two-electron integral symmetry is turned on.
   174 basis functions,   328 primitive gaussians,   174 cartesian basis functions
    39 alpha electrons       39 beta electrons
       nuclear repulsion energy       548.7127503658 Hartrees.
 NAtoms=   22 NActive=   22 NUniq=   22 SFac= 1.00D+00 NAtFMM=   60 NAOKFM=F Big=F
 One-electron integrals computed using PRISM.
 NBasis=   174 RedAO= T  NBF=   174
 NBsUse=   174 1.00D-06 NBFU=   174
 Initial guess read from the checkpoint file:  frag0-conf0.chk
 B after Tr=     0.000000    0.000000    0.000000
         Rot=    1.000000    0.000000    0.000000    0.000000 Ang=   0.00 deg.
 Initial guess orbital symmetries:
       Occupied  (A) (A) (A) (A) (A) (A) (A) (A) (A) (A) (A) (A)
                 (A) (A) (A) (A) (A) (A) (A) (A) (A) (A) (A) (A)
                 (A) (A) (A) (A) (A) (A) (A) (A) (A) (A) (A) (A)
                 (A) (A) (A)
       Virtual   (A) (A) (A) (A) (A) (A) (A) (A) (A) (A) (A) (A)
                 (A) (A) (A) (A) (A) (A) (A) (A) (A) (A) (A) (A)
                 (A) (A) (A) (A) (A) (A) (A) (A) (A) (A) (A) (A)
                 (A) (A) (A) (A) (A) (A) (A) (A) (A) (A) (A) (A)
                 (A) (A) (A) (A) (A) (A) (A) (A) (A) (A) (A) (A)
                 (A) (A) (A) (A) (A) (A) (A) (A) (A) (A) (A) (A)
                 (A) (A) (A) (A) (A) (A) (A) (A) (A) (A) (A) (A)
                 (A) (A) (A) (A) (A) (A) (A) (A) (A) (A) (A) (A)
                 (A) (A) (A) (A) (A) (A) (A) (A) (A) (A) (A) (A)
                 (A) (A) (A) (A) (A) (A) (A) (A) (A) (A) (A) (A)
                 (A) (A) (A) (A) (A) (A) (A) (A) (A) (A) (A) (A)
                 (A) (A) (A)
 Requested convergence on RMS density matrix=1.00D-08 within 128 cycles.
 Requested convergence on MAX density matrix=1.00D-06.
 Requested convergence on             energy=1.00D-06.
 No special actions if energy rises.
 SCF Done:  E(RHF) =  -492.856075552     A.U. after   13 cycles
             Convg  =    0.9317D-08             -V/T =  2.0027

 **********************************************************************

            Population analysis using the SCF density.

 **********************************************************************

 Orbital symmetries:
 BldTbl:  Degeneracy threshold= 1.00D-02
       Occupied  (A) (A) (A) (A) (A) (A) (A) (A) (A) (A) (A) (A)
                 (A) (A) (A) (A) (A) (A) (A) (A) (A) (A) (A) (A)
                 (A) (A) (A) (A) (A) (A) (A) (A) (A) (A) (A) (A)
                 (A) (A) (A)
       Virtual   (A) (A) (A) (A) (A) (A) (A) (A) (A) (A) (A) (A)
                 (A) (A) (A) (A) (A) (A) (A) (A) (A) (A) (A) (A)
                 (A) (A) (A) (A) (A) (A) (A) (A) (A) (A) (A) (A)
                 (A) (A) (A) (A) (A) (A) (A) (A) (A) (A) (A) (A)
                 (A) (A) (A) (A) (A) (A) (A) (A) (A) (A) (A) (A)
                 (A) (A) (A) (A) (A) (A) (A) (A) (A) (A) (A) (A)
                 (A) (A) (A) (A) (A) (A) (A) (A) (A) (A) (A) (A)
                 (A) (A) (A) (A) (A) (A) (A) (A) (A) (A) (A) (A)
                 (A) (A) (A) (A) (A) (A) (A) (A) (A) (A) (A) (A)
                 (A) (A) (A) (A) (A) (A) (A) (A) (A) (A) (A) (A)
                 (A) (A) (A) (A) (A) (A) (A) (A) (A) (A) (A) (A)
                 (A) (A) (A)
 The electronic state is 1-A.
 Alpha  occ. eigenvalues --  -20.53847 -20.51629 -15.60351 -15.58278 -11.36516
 Alpha  occ. eigenvalues --  -11.35045 -11.28735 -11.26995 -11.23453 -11.22952
 Alpha  occ. eigenvalues --   -1.39066  -1.36736  -1.23973  -1.22752  -1.05208
 Alpha  occ. eigenvalues --   -0.98764  -0.95992  -0.88218  -0.80197  -0.77921
 Alpha  occ. eigenvalues --   -0.72709  -0.67096  -0.65425  -0.64028  -0.63001
 Alpha  occ. eigenvalues --   -0.61408  -0.59766  -0.58326  -0.56494  -0.56215
 Alpha  occ. eigenvalues --   -0.55558  -0.54209  -0.52642  -0.52079  -0.48864
 Alpha  occ. eigenvalues --   -0.43102  -0.41288  -0.40213  -0.38147
 Alpha virt. eigenvalues --    0.18009   0.20273   0.21069   0.23918   0.26007
 Alpha virt. eigenvalues --    0.27782   0.28859   0.29799   0.30912   0.31311
 Alpha virt. eigenvalues --    0.32403   0.32941   0.33758   0.34399   0.36119
 Alpha virt. eigenvalues --    0.39630   0.40246   0.42060   0.46949   0.51467
 Alpha virt. eigenvalues --    0.52675   0.58239   0.63876   0.70280   0.72373
 Alpha virt. eigenvalues --    0.73125   0.74635   0.75398   0.76273   0.77136
 Alpha virt. eigenvalues --    0.78640   0.82311   0.85159   0.86732   0.89550
 Alpha virt. eigenvalues --    0.92247   0.94101   0.95146   0.97990   0.98516
 Alpha virt. eigenvalues --    1.01275   1.01414   1.03666   1.05948   1.07875
 Alpha virt. eigenvalues --    1.09922   1.10383   1.12517   1.14506   1.15310
 Alpha virt. eigenvalues --    1.15948   1.17082   1.18040   1.19389   1.19793
 Alpha virt. eigenvalues --    1.19977   1.20927   1.21893   1.23729   1.23827
 Alpha virt. eigenvalues --    1.31567   1.33954   1.36257   1.37267   1.41157
 Alpha virt. eigenvalues --    1.44102   1.49417   1.56105   1.57569   1.60327
 Alpha virt. eigenvalues --    1.61590   1.63853   1.67328   1.73945   1.76671
 Alpha virt. eigenvalues --    1.77132   1.80050   1.90232   1.95473   1.99197
 Alpha virt. eigenvalues --    2.00566   2.04334   2.06477   2.09864   2.11768
 Alpha virt. eigenvalues --    2.12341   2.13059   2.16225   2.17125   2.19351
 Alpha virt. eigenvalues --    2.21700   2.22200   2.26911   2.29714   2.33811
 Alpha virt. eigenvalues --    2.35010   2.37206   2.41275   2.45090   2.49099
 Alpha virt. eigenvalues --    2.55007   2.55850   2.58769   2.59971   2.61091
 Alpha virt. eigenvalues --    2.63489   2.64632   2.68178   2.71112   2.74472
 Alpha virt. eigenvalues --    2.76887   2.79358   2.86764   2.94046   2.95044
 Alpha virt. eigenvalues --    3.00884   3.04380   3.06032   3.12134   3.22388
 Alpha virt. eigenvalues --    3.28666   3.34530   3.36976   3.49924   3.56464
 Alpha virt. eigenvalues --    4.37512   4.41241   4.48649   4.51524   4.60965
 Alpha virt. eigenvalues --    4.64891   4.69046   4.84054   4.91148   5.03360
          Condensed to atoms (all electrons):
              1          2          3          4          5          6
     1  C    4.152872   0.003550   0.361837  -0.002082   0.000001  -0.030723
     2  C    0.003550   4.164330  -0.000020  -0.050468  -0.023780   0.363944
     3  C    0.361837  -0.000020   5.240579  -0.000354   0.000000   0.005344
     4  C   -0.002082  -0.050468  -0.000354   5.153045  -0.000251   0.332772
     5  C    0.000001  -0.023780   0.000000  -0.000251   4.948656   0.003631
     6  C   -0.030723   0.363944   0.005344   0.332772   0.003631   5.054196
     7  N   -0.000095   0.292334   0.000000   0.002116   0.187297  -0.109158
     8  N    0.273802  -0.042623  -0.101878  -0.062397  -0.000067   0.199849
     9  O    0.577035   0.000439  -0.068196  -0.004960   0.000000   0.010040
    10  O    0.000278   0.578320  -0.000039  -0.000580  -0.003662  -0.072955
    11  H   -0.027922   0.000002   0.380332  -0.000003   0.000000  -0.000133
    12  H   -0.028034   0.000000   0.380627   0.000027   0.000000  -0.000102
    13  H   -0.038999  -0.000034   0.375960   0.000008   0.000000   0.000091
    14  H    0.000210  -0.003246  -0.000001   0.386484   0.000002  -0.038193
    15  H    0.002131   0.003723   0.000104   0.389867   0.000003  -0.028640
    16  H    0.000018  -0.002945   0.000004   0.379110  -0.000003  -0.037736
    17  H    0.000000   0.000389   0.000000  -0.000002   0.401012  -0.000089
    18  H    0.000000   0.001115   0.000000   0.000028   0.400389  -0.000046
    19  H    0.000000  -0.001891   0.000000  -0.000031   0.397543   0.000563
    20  H   -0.000521  -0.039042   0.000165  -0.042336  -0.000088   0.407846
    21  H    0.000000  -0.022226   0.000000   0.000343  -0.021546   0.001283
    22  H   -0.010837  -0.007550  -0.000392   0.002658  -0.000013  -0.030187
              7          8          9         10         11         12
     1  C   -0.000095   0.273802   0.577035   0.000278  -0.027922  -0.028034
     2  C    0.292334  -0.042623   0.000439   0.578320   0.000002   0.000000
     3  C    0.000000  -0.101878  -0.068196  -0.000039   0.380332   0.380627
     4  C    0.002116  -0.062397  -0.004960  -0.000580  -0.000003   0.000027
     5  C    0.187297  -0.000067   0.000000  -0.003662   0.000000   0.000000
     6  C   -0.109158   0.199849   0.010040  -0.072955  -0.000133  -0.000102
     7  N    7.310433   0.002504  -0.000001  -0.091178   0.000000   0.000000
     8  N    0.002504   7.404119  -0.100401  -0.010711   0.001464   0.001636
     9  O   -0.000001  -0.100401   8.208109  -0.000004   0.000790   0.000680
    10  O   -0.091178  -0.010711  -0.000004   8.209838   0.000000   0.000000
    11  H    0.000000   0.001464   0.000790   0.000000   0.482977  -0.020244
    12  H    0.000000   0.001636   0.000680   0.000000  -0.020244   0.482698
    13  H    0.000000   0.006022   0.002454  -0.000024  -0.022570  -0.022756
    14  H    0.000329   0.000678  -0.000004   0.001051   0.000000  -0.000002
    15  H   -0.000028  -0.005768   0.005749  -0.000062   0.000000  -0.000003
    16  H    0.001814   0.004439   0.000021   0.000020   0.000000   0.000000
    17  H   -0.044315   0.000002   0.000000   0.000271   0.000000   0.000000
    18  H   -0.044927   0.000000   0.000000   0.000285   0.000000   0.000000
    19  H   -0.034908  -0.000002   0.000000   0.009863   0.000000   0.000000
    20  H    0.002845  -0.043881   0.006109   0.001446   0.000020  -0.000012
    21  H    0.324519   0.000020   0.000000   0.002205   0.000000   0.000000
    22  H    0.000984   0.303364   0.001721   0.025761  -0.000008   0.000005
             13         14         15         16         17         18
     1  C   -0.038999   0.000210   0.002131   0.000018   0.000000   0.000000
     2  C   -0.000034  -0.003246   0.003723  -0.002945   0.000389   0.001115
     3  C    0.375960  -0.000001   0.000104   0.000004   0.000000   0.000000
     4  C    0.000008   0.386484   0.389867   0.379110  -0.000002   0.000028
     5  C    0.000000   0.000002   0.000003  -0.000003   0.401012   0.400389
     6  C    0.000091  -0.038193  -0.028640  -0.037736  -0.000089  -0.000046
     7  N    0.000000   0.000329  -0.000028   0.001814  -0.044315  -0.044927
     8  N    0.006022   0.000678  -0.005768   0.004439   0.000002   0.000000
     9  O    0.002454  -0.000004   0.005749   0.000021   0.000000   0.000000
    10  O   -0.000024   0.001051  -0.000062   0.000020   0.000271   0.000285
    11  H   -0.022570   0.000000   0.000000   0.000000   0.000000   0.000000
    12  H   -0.022756  -0.000002  -0.000003   0.000000   0.000000   0.000000
    13  H    0.523370   0.000000  -0.000009   0.000000   0.000000   0.000000
    14  H    0.000000   0.518597  -0.022278  -0.024927   0.000000  -0.000001
    15  H   -0.000009  -0.022278   0.465118  -0.022810   0.000000  -0.000001
    16  H    0.000000  -0.024927  -0.022810   0.550173   0.000003  -0.000012
    17  H    0.000000   0.000000   0.000000   0.000003   0.529680  -0.037186
    18  H    0.000000  -0.000001  -0.000001  -0.000012  -0.037186   0.530647
    19  H    0.000000  -0.000002   0.000000  -0.000002  -0.022803  -0.022752
    20  H   -0.000013   0.003858  -0.003596   0.000168  -0.000001  -0.000002
    21  H    0.000000  -0.000005  -0.000034   0.000985  -0.001084  -0.000951
    22  H    0.001325   0.000367  -0.000153  -0.000065   0.000000   0.000000
             19         20         21         22
     1  C    0.000000  -0.000521   0.000000  -0.010837
     2  C   -0.001891  -0.039042  -0.022226  -0.007550
     3  C    0.000000   0.000165   0.000000  -0.000392
     4  C   -0.000031  -0.042336   0.000343   0.002658
     5  C    0.397543  -0.000088  -0.021546  -0.000013
     6  C    0.000563   0.407846   0.001283  -0.030187
     7  N   -0.034908   0.002845   0.324519   0.000984
     8  N   -0.000002  -0.043881   0.000020   0.303364
     9  O    0.000000   0.006109   0.000000   0.001721
    10  O    0.009863   0.001446   0.002205   0.025761
    11  H    0.000000   0.000020   0.000000  -0.000008
    12  H    0.000000  -0.000012   0.000000   0.000005
    13  H    0.000000  -0.000013   0.000000   0.001325
    14  H   -0.000002   0.003858  -0.000005   0.000367
    15  H    0.000000  -0.003596  -0.000034  -0.000153
    16  H   -0.000002   0.000168   0.000985  -0.000065
    17  H   -0.022803  -0.000001  -0.001084   0.000000
    18  H   -0.022752  -0.000002  -0.000951   0.000000
    19  H    0.439683  -0.000017   0.002492  -0.000014
    20  H   -0.000017   0.487925   0.000928   0.002597
    21  H    0.002492   0.000928   0.322534  -0.000031
    22  H   -0.000014   0.002597  -0.000031   0.282852
 Mulliken atomic charges:
              1
     1  C    0.767479
     2  C    0.785680
     3  C   -0.574073
     4  C   -0.482992
     5  C   -0.289124
     6  C   -0.031597
     7  N   -0.800565
     8  N   -0.830171
     9  O   -0.639581
    10  O   -0.650123
    11  H    0.205294
    12  H    0.205480
    13  H    0.175176
    14  H    0.177085
    15  H    0.216685
    16  H    0.151746
    17  H    0.174123
    18  H    0.173414
    19  H    0.232278
    20  H    0.215603
    21  H    0.390565
    22  H    0.427617
 Sum of Mulliken atomic charges =   0.00000
 Mulliken charges with hydrogens summed into heavy atoms:
              1
     1  C    0.767479
     2  C    0.785680
     3  C    0.011878
     4  C    0.062523
     5  C    0.290691
     6  C    0.184007
     7  N   -0.409999
     8  N   -0.402554
     9  O   -0.639581
    10  O   -0.650123
 Sum of Mulliken charges with hydrogens summed into heavy atoms =   0.00000
 DipInt: DoE/N= T F RetVal/Mat= T F Init=T NMatP=  1 IDeriv=0 Min/MaxMlt=  0  4
 Entering OneElI...
 OneElI was handed    33474183 working-precision words.
 Multipole integrals L=0 to 4 MinM= 0 MaxM= 0.
 Requested accuracy = 0.1000D-12
 PrsmSu:  NPrtUS=   1 ThrOK=F IAlg=1 NPAlg=1 LenDen=           0.
 Prism:   IPart=     0 DynPar=F LinDyn=F Incr=          18.
 PRISM was handed    33312227 working-precision words and  1878 shell-pairs
 IPart=  0 NShTot=        1878 NBatch=          51 AvBLen=        36.8
 PrSmSu:  NxtVal=             19.
 Electronic moments (au):
        -78.00000000         -1.07714249          0.07079712         -0.02561446
      -1515.97744677       -329.02103961       -145.21835984         -9.68162766
          6.09574293          1.86823664        444.12347675       -148.81040138
        -41.18800705       -219.50420393        853.39383644        774.70121818
         10.93620175       -117.18596624       -215.25801733         84.49637542
     -59820.40124912      -3611.47100063       -901.56377051       1724.83663479
      -1796.43364427        225.46473418       -395.11949033        -11.64957617
       -210.27013709      -4983.23481734      -2606.24290307       -881.87086667
        562.45056557        331.85225561       -165.69476413
 Electronic spatial extent (au):  <R**2>=           1990.2168
 DipInt: DoE/N= F T RetVal/Mat= T F Init=T NMatP=  1 IDeriv=0 Min/MaxMlt=  0  4
 Nuclear    moments (au):
         78.00000000          0.00000000          0.00000000          0.00000000
       1474.77400979        282.01465686         99.31323610          0.00000000
          0.00000000          0.00000000       -498.17244382        152.17100943
         38.19468379        216.48659651       -882.24155105       -769.67434599
        -15.88899188        116.34134456        212.83267054        -75.35344980
      54950.22574192       2491.45709704        425.28976057      -1868.58253755
       1934.39330623       -259.34105786        377.71147304         11.92183883
        196.89407021       3900.01402550       1640.74719846        613.25562102
       -517.32100888       -295.33299965        144.65052100
 Total      moments (au):
          0.00000000         -1.07714249          0.07079712         -0.02561446
        -41.20343698        -47.00638276        -45.90512375         -9.68162766
          6.09574293          1.86823664        -54.04896707          3.36060805
         -2.99332326         -3.01760743        -28.84771461          5.02687219
         -4.95279012         -0.84462168         -2.42534679          9.14292562
      -4870.17550721      -1120.01390359       -476.27400994       -143.74590275
        137.95966196        -33.87632368        -17.40801730          0.27226266
        -13.37606688      -1083.22079184       -965.49570461       -268.61524565
         45.12955669         36.51925596        -21.04424313
 Traceless Quadrup. (au):
          3.50154418         -2.30140160         -1.20014259         -9.68162766
          6.09574293          1.86823664
 Charge=              0.0000 electrons
 Dipole moment (field-independent basis, Debye):
    X=             -2.7378    Y=              0.1799    Z=             -0.0651  Tot=              2.7445
 Quadrupole moment (field-independent basis, Debye-Ang):
   XX=            -55.4200   YY=            -63.2252   ZZ=            -61.7440
   XY=            -13.0221   XZ=              8.1990   YZ=              2.5128
 Traceless Quadrupole moment (field-independent basis, Debye-Ang):
   XX=              4.7097   YY=             -3.0955   ZZ=             -1.6142
   XY=            -13.0221   XZ=              8.1990   YZ=              2.5128
 Octapole moment (field-independent basis, Debye-Ang**2):
  XXX=            -38.4700  YYY=              2.3920  ZZZ=             -2.1305  XYY=             -2.1478
  XXY=            -20.5327  XXZ=              3.5779  XZZ=             -3.5252  YZZ=             -0.6012
  YYZ=             -1.7263  XYZ=              6.5076
 Hexadecapole moment (field-independent basis, Debye-Ang**3):
 XXXX=          -1834.3415 YYYY=           -421.8509 ZZZZ=           -179.3876 XXXY=            -54.1416
 XXXZ=             51.9622 YYYX=            -12.7594 YYYZ=             -6.5567 ZZZX=              0.1025
 ZZZY=             -5.0381 XXYY=           -407.9929 XXZZ=           -363.6520 YYZZ=           -101.1734
 XXYZ=             16.9980 YYXZ=             13.7549 ZZXY=             -7.9263
 N-N= 5.487127503658D+02 E-N=-2.252322103358D+03  KE= 4.915284083390D+02
 Entering OneElI...
 OneElI was handed    33412907 working-precision words.
 Calculate electrostatic properties
    NBasis =   174  MinDer = 0  MaxDer = 0
    NGrid  =    22  NMatD  =   1
 Requested accuracy = 0.1000D-12
 PrsmSu:  NPrtUS=   4 ThrOK=T IAlg=1 NPAlg=1 LenDen=           0.
 Prism:   IPart=     0 DynPar=F LinDyn=F Incr=          96.
 PRISM was handed     8274055 working-precision words and  1747 shell-pairs
 PRISM was handed     8274055 working-precision words and  1747 shell-pairs
 PRISM was handed     8274055 working-precision words and  1747 shell-pairs
 PRISM was handed     8274055 working-precision words and  1747 shell-pairs
 IPart=  3 NShTot=        9284 NBatch=         422 AvBLen=        22.0
 IPart=  2 NShTot=        9482 NBatch=         431 AvBLen=        22.0
 IPart=  1 NShTot=        9768 NBatch=         444 AvBLen=        22.0
 IPart=  0 NShTot=        9900 NBatch=         450 AvBLen=        22.0
 PrSmSu:  NxtVal=            385.
 --------------------------------------------------------
       Center         ----      EFG at Nuclei      ----
                      3XX-RR        3YY-RR        3ZZ-RR
 --------------------------------------------------------
     1   Atom        0.161093      0.220133     -0.381226
     2   Atom        0.221755      0.171952     -0.393707
     3   Atom       -0.005088     -0.025500      0.030588
     4   Atom        0.051945     -0.031918     -0.020027
     5   Atom       -0.229188      0.093137      0.136051
     6   Atom       -0.153452      0.002597      0.150854
     7   Atom       -0.467138     -0.181522      0.648660
     8   Atom       -0.486860     -0.210769      0.697629
     9   Atom        1.398983     -0.686446     -0.712537
    10   Atom        1.496864     -0.889253     -0.607611
    11   Atom        0.077572      0.112454     -0.190027
    12   Atom       -0.092740      0.077283      0.015456
    13   Atom        0.079105     -0.137300      0.058195
    14   Atom        0.148490      0.091805     -0.240295
    15   Atom       -0.177089      0.031235      0.145854
    16   Atom       -0.101739     -0.026351      0.128091
    17   Atom        0.085224      0.139318     -0.224542
    18   Atom       -0.045943     -0.000754      0.046697
    19   Atom        0.134119     -0.188222      0.054103
    20   Atom        0.132559      0.083774     -0.216332
    21   Atom        0.153648     -0.262992      0.109345
    22   Atom        0.130730     -0.261125      0.130395
 --------------------------------------------------------
                        XY            XZ            YZ
 --------------------------------------------------------
     1   Atom       -0.108864     -0.106333     -0.340521
     2   Atom        0.152907      0.096590     -0.332789
     3   Atom        0.045071     -0.011466      0.018994
     4   Atom        0.024860     -0.015342     -0.061050
     5   Atom       -0.184870      0.023610     -0.026779
     6   Atom        0.122058     -0.054189      0.020388
     7   Atom       -0.129238     -0.245092      0.602117
     8   Atom        0.169026      0.210526      0.491561
     9   Atom       -0.725183     -0.154184      0.200071
    10   Atom        0.237505      0.345439      0.188503
    11   Atom        0.056151      0.153256     -0.108828
    12   Atom       -0.123635     -0.183709     -0.097330
    13   Atom       -0.127542      0.078553      0.169788
    14   Atom       -0.016173      0.042497      0.137915
    15   Atom       -0.191695      0.026666      0.012128
    16   Atom        0.210768     -0.070939      0.048553
    17   Atom       -0.033235     -0.138363     -0.064581
    18   Atom        0.156705      0.141510     -0.127627
    19   Atom        0.022402     -0.016098      0.183170
    20   Atom       -0.003689      0.026191      0.145856
    21   Atom       -0.054047      0.010104      0.254021
    22   Atom       -0.091067      0.054862      0.211408
 --------------------------------------------------------


 ---------------------------------------------------------------------------------
              Nuclear Quadrupole in Principal Axis System
 ---------------------------------------------------------------------------------

       Atom             a.u.   MegaHertz   Gauss  10(-4) cm-1        Axes

              Baa    -0.5627   -75.507   -26.943   -25.186  0.1930  0.4138  0.8897
     1 C(13)  Bbb     0.1740    23.347     8.331     7.788  0.9461  0.1619 -0.2805
              Bcc     0.3887    52.159    18.612    17.398 -0.2602  0.8958 -0.3603
 
              Baa    -0.5769   -77.412   -27.623   -25.822 -0.1892  0.4308  0.8824
     2 C(13)  Bbb     0.1848    24.801     8.849     8.273  0.8090 -0.4410  0.3887
              Bcc     0.3921    52.612    18.773    17.549  0.5566  0.7874 -0.2650
 
              Baa    -0.0665    -8.923    -3.184    -2.976 -0.6036  0.7660 -0.2212
     3 C(13)  Bbb     0.0296     3.971     1.417     1.324  0.7691  0.4861 -0.4151
              Bcc     0.0369     4.952     1.767     1.652  0.2104  0.4206  0.8825
 
              Baa    -0.0878   -11.782    -4.204    -3.930 -0.0606  0.7484  0.6604
     4 C(13)  Bbb     0.0146     1.962     0.700     0.654  0.5938 -0.5048  0.6266
              Bcc     0.0732     9.821     3.504     3.276  0.8024  0.4301 -0.4138
 
              Baa    -0.3135   -42.072   -15.012   -14.034  0.9107  0.4125 -0.0233
     5 C(13)  Bbb     0.1170    15.694     5.600     5.235 -0.1849  0.4573  0.8699
              Bcc     0.1966    26.378     9.412     8.799 -0.3694  0.7879 -0.4927
 
              Baa    -0.2289   -30.723   -10.963   -10.248  0.8692 -0.4713  0.1493
     6 C(13)  Bbb     0.0687     9.223     3.291     3.076  0.4633  0.8819  0.0868
              Bcc     0.1602    21.500     7.672     7.172 -0.1726 -0.0062  0.9850
 
              Baa    -0.5189   -20.012    -7.141    -6.675  0.9828  0.1040  0.1527
     7 N(14)  Bbb    -0.4978   -19.197    -6.850    -6.404 -0.0207  0.8833 -0.4684
              Bcc     1.0166    39.210    13.991    13.079 -0.1836  0.4571  0.8703
 
              Baa    -0.5677   -21.896    -7.813    -7.304  0.8847 -0.4649  0.0334
     8 N(14)  Bbb    -0.3920   -15.120    -5.395    -5.044  0.4309  0.7884 -0.4389
              Bcc     0.9598    37.016    13.208    12.347  0.1777  0.4027  0.8979
 
              Baa    -0.9931    71.863    25.643    23.971  0.2260  0.8476 -0.4801
     9 O(17)  Bbb    -0.6515    47.139    16.820    15.724  0.2198  0.4358  0.8728
              Bcc     1.6446  -119.002   -42.463   -39.695  0.9490 -0.3028 -0.0878
 
              Baa    -0.9853    71.295    25.440    23.781 -0.0272  0.9041 -0.4264
    10 O(17)  Bbb    -0.5952    43.070    15.368    14.366 -0.1938  0.4137  0.8895
              Bcc     1.5805  -114.365   -40.808   -38.148  0.9807  0.1068  0.1640
 
              Baa    -0.2963  -158.080   -56.407   -52.730 -0.3999  0.2867  0.8705
    11 H(1)   Bbb     0.1422    75.886    27.078    25.313 -0.6135  0.6219 -0.4867
              Bcc     0.1541    82.194    29.329    27.417  0.6810  0.7287  0.0728
 
              Baa    -0.2964  -158.132   -56.425   -52.747  0.7360  0.3880  0.5547
    12 H(1)   Bbb     0.1423    75.920    27.090    25.324 -0.4872  0.8726  0.0360
              Bcc     0.1541    82.212    29.335    27.423 -0.4700 -0.2968  0.8313
 
              Baa    -0.2953  -157.584   -56.230   -52.564  0.3713  0.8021 -0.4677
    13 H(1)   Bbb     0.1382    73.715    26.303    24.589  0.9080 -0.4190  0.0023
              Bcc     0.1572    83.869    29.926    27.976  0.1941  0.4255  0.8839
 
              Baa    -0.2948  -157.271   -56.118   -52.460 -0.1020 -0.3381  0.9356
    14 H(1)   Bbb     0.1416    75.529    26.950    25.194  0.0662  0.9361  0.3455
              Bcc     0.1532    81.743    29.168    27.266  0.9926 -0.0972  0.0731
 
              Baa    -0.2930  -156.345   -55.788   -52.151  0.8579  0.5096 -0.0662
    15 H(1)   Bbb     0.1431    76.335    27.238    25.463 -0.3907  0.7305  0.5601
              Bcc     0.1500    80.010    28.549    26.688  0.3338 -0.4547  0.8257
 
              Baa    -0.2954  -157.637   -56.249   -52.582  0.7540 -0.6263  0.1981
    16 H(1)   Bbb     0.1393    74.300    26.512    24.784  0.2628  0.5640  0.7829
              Bcc     0.1562    83.337    29.737    27.798  0.6020  0.5382 -0.5898
 
              Baa    -0.2895  -154.463   -55.116   -51.523  0.3545  0.1661  0.9202
    17 H(1)   Bbb     0.1344    71.692    25.582    23.914  0.8220  0.4137 -0.3913
              Bcc     0.1551    82.771    29.535    27.610 -0.4456  0.8952  0.0101
 
              Baa    -0.2896  -154.526   -55.139   -51.544  0.6547 -0.5730 -0.4929
    18 H(1)   Bbb     0.1344    71.729    25.595    23.926  0.7094  0.6909  0.1392
              Bcc     0.1552    82.797    29.544    27.618  0.2608 -0.4409  0.8589
 
              Baa    -0.2884  -153.902   -54.916   -51.336 -0.0646  0.8787 -0.4729
    19 H(1)   Bbb     0.1352    72.114    25.732    24.055  0.9776  0.1509  0.1468
              Bcc     0.1533    81.788    29.184    27.281 -0.2004  0.4528  0.8688
 
              Baa    -0.2771  -147.872   -52.764   -49.325 -0.0625 -0.3745  0.9251
    20 H(1)   Bbb     0.1308    69.781    24.900    23.276  0.8831 -0.4526 -0.1235
              Bcc     0.1464    78.091    27.865    26.048  0.4650  0.8093  0.3590
 
              Baa    -0.3968  -211.726   -75.549   -70.624  0.0955  0.8889 -0.4480
    21 H(1)   Bbb     0.1558    83.150    29.670    27.736  0.9785 -0.0012  0.2063
              Bcc     0.2410   128.577    45.879    42.889 -0.1828  0.4581  0.8699
 
              Baa    -0.3755  -200.325   -71.481   -66.821  0.2040  0.8952 -0.3962
    22 H(1)   Bbb     0.1502    80.121    28.589    26.725  0.9622 -0.2579 -0.0872
              Bcc     0.2253   120.205    42.892    40.096  0.1802  0.3635  0.9140
 

 ---------------------------------------------------------------------------------

 No NMR shielding tensors so no spin-rotation constants.
 Leave Link  601 at Mon Feb 26 23:17:06 2018, MaxMem=   33554432 cpu:       0.9
 Merz-Kollman atomic radii used.
 Read replacement radii for each type of atom:
 Atom Element Radius
    1     6    1.50
    2     6    1.50
    3     6    1.50
    4     6    1.50
    5     6    1.50
    6     6    1.50
    7     7    1.50
    8     7    1.50
    9     8    1.40
   10     8    1.40
   11     1    1.20
   12     1    1.20
   13     1    1.20
   14     1    1.20
   15     1    1.20
   16     1    1.20
   17     1    1.20
   18     1    1.20
   19     1    1.20
   20     1    1.20
   21     1    1.20
   22     1    1.20
 Generate VDW surfaces: Layer= 4 Dens= 1 Start= 1.400 Inc= 0.200

 **********************************************************************

            Electrostatic Properties Using The SCF Density

 **********************************************************************

       Atomic Center    1 is at   2.319099 -0.066258 -0.235966
       Atomic Center    2 is at  -1.336216 -0.297312  0.061077
       Atomic Center    3 is at   3.361557 -1.142687  0.028463
       Atomic Center    4 is at  -0.075933  1.720925  0.957620
       Atomic Center    5 is at  -3.762786 -0.336464 -0.414254
       Atomic Center    6 is at  -0.054536  0.546160 -0.040607
       Atomic Center    7 is at  -2.449578  0.284375 -0.459725
       Atomic Center    8 is at   1.059415 -0.349322  0.198089
       Atomic Center    9 is at   2.598939  0.988662 -0.799635
       Atomic Center   10 is at  -1.337057 -1.401871  0.600064
       Atomic Center   11 is at   3.799678 -1.451230 -0.925894
       Atomic Center   12 is at   4.167109 -0.713593  0.632423
       Atomic Center   13 is at   2.963147 -2.023981  0.540349
       Atomic Center   14 is at  -0.186367  1.350175  1.981944
       Atomic Center   15 is at   0.865565  2.269281  0.874597
       Atomic Center   16 is at  -0.900905  2.411219  0.746931
       Atomic Center   17 is at  -4.147655 -0.520319 -1.423998
       Atomic Center   18 is at  -4.477747  0.292044  0.129118
       Atomic Center   19 is at  -3.655434 -1.289186  0.105307
       Atomic Center   20 is at   0.045584  0.954789 -1.054390
       Atomic Center   21 is at  -2.354335  1.182074 -0.913154
       Atomic Center   22 is at   0.810335 -1.247161  0.596791
      ESP Fit Center   23 is at   2.319099 -0.066258  1.864034
      ESP Fit Center   24 is at   2.844099  0.843069  1.582687
      ESP Fit Center   25 is at   1.269099 -0.066258 -2.054619
      ESP Fit Center   26 is at   1.794099 -0.975585 -2.054619
      ESP Fit Center   27 is at  -1.861216  0.612014  1.879730
      ESP Fit Center   28 is at  -2.386216 -0.297312  1.879730
      ESP Fit Center   29 is at  -0.811216 -1.206639 -1.757577
      ESP Fit Center   30 is at   3.361557 -1.142687  2.128463
      ESP Fit Center   31 is at   2.836557 -0.233360  1.847116
      ESP Fit Center   32 is at   2.311557 -1.142687  1.847116
      ESP Fit Center   33 is at   4.554493 -2.870953  0.028463
      ESP Fit Center   34 is at   5.221014 -2.118606  0.028463
      ESP Fit Center   35 is at   4.891505 -0.159449 -1.021537
      ESP Fit Center   36 is at   2.170592 -2.517133 -1.021537
      ESP Fit Center   37 is at  -0.334754  3.521067  2.007620
      ESP Fit Center   38 is at   1.454016  0.737687  2.007620
      ESP Fit Center   39 is at   0.177194  3.805614  0.957620
      ESP Fit Center   40 is at   0.449067  2.630252 -0.861034
      ESP Fit Center   41 is at  -3.762786 -0.336464  1.685746
      ESP Fit Center   42 is at  -5.801764 -0.839027 -0.414254
      ESP Fit Center   43 is at  -5.334658 -1.729022 -0.414254
      ESP Fit Center   44 is at  -4.021607  1.463678 -1.464254
      ESP Fit Center   45 is at  -4.953751  1.037982 -1.464254
      ESP Fit Center   46 is at  -3.007290 -1.990769 -1.464254
      ESP Fit Center   47 is at  -2.974578  1.193702  1.358928
      ESP Fit Center   48 is at  -2.708400  2.084517  0.590275
      ESP Fit Center   49 is at  -1.399578  0.284375 -2.278378
      ESP Fit Center   50 is at  -1.924578 -0.624951 -2.278378
      ESP Fit Center   51 is at  -2.449578  0.284375 -2.559725
      ESP Fit Center   52 is at   1.059415 -0.349322  2.298089
      ESP Fit Center   53 is at   2.109415 -0.349322  2.016743
      ESP Fit Center   54 is at   1.584415  0.560005  2.016743
      ESP Fit Center   55 is at   0.009415 -0.349322  2.016743
      ESP Fit Center   56 is at   0.800594 -2.149464 -0.851911
      ESP Fit Center   57 is at   0.534415 -1.258648 -1.620564
      ESP Fit Center   58 is at   1.059415 -0.349322 -1.901911
      ESP Fit Center   59 is at   3.088939  1.837367  0.897775
      ESP Fit Center   60 is at   4.296349  0.988662  0.180365
      ESP Fit Center   61 is at   3.972173  1.986374  0.180365
      ESP Fit Center   62 is at   3.123468  2.602995  0.180365
      ESP Fit Center   63 is at   4.558939  0.988662 -0.799635
      ESP Fit Center   64 is at   4.296349  1.968662 -0.799635
      ESP Fit Center   65 is at   3.578939  2.686072 -0.799635
      ESP Fit Center   66 is at   2.598939  2.948662 -0.799635
      ESP Fit Center   67 is at   1.618939  2.686072 -0.799635
      ESP Fit Center   68 is at   4.296349  0.988662 -1.779635
      ESP Fit Center   69 is at   3.972173  1.986374 -1.779635
      ESP Fit Center   70 is at   3.123468  2.602995 -1.779635
      ESP Fit Center   71 is at   2.074411  2.602995 -1.779635
      ESP Fit Center   72 is at   1.225706  1.986374 -1.779635
      ESP Fit Center   73 is at   3.972173 -0.009051 -1.779635
      ESP Fit Center   74 is at   3.578939  0.988662 -2.497044
      ESP Fit Center   75 is at   3.088939  1.837367 -2.497044
      ESP Fit Center   76 is at   2.108939  1.837367 -2.497044
      ESP Fit Center   77 is at   1.618939  0.988662 -2.497044
      ESP Fit Center   78 is at   2.108939  0.139957 -2.497044
      ESP Fit Center   79 is at   3.088939  0.139957 -2.497044
      ESP Fit Center   80 is at   2.598939  0.988662 -2.759635
      ESP Fit Center   81 is at  -1.337057 -1.401871  2.560064
      ESP Fit Center   82 is at  -0.357057 -1.401871  2.297474
      ESP Fit Center   83 is at  -0.847057 -0.553166  2.297474
      ESP Fit Center   84 is at  -1.827057 -0.553166  2.297474
      ESP Fit Center   85 is at  -2.317057 -1.401871  2.297474
      ESP Fit Center   86 is at  -1.827057 -2.250576  2.297474
      ESP Fit Center   87 is at  -0.847057 -2.250576  2.297474
      ESP Fit Center   88 is at  -2.710291 -2.399583  1.580064
      ESP Fit Center   89 is at  -1.861586 -3.016204  1.580064
      ESP Fit Center   90 is at  -0.812529 -3.016204  1.580064
      ESP Fit Center   91 is at   0.036176 -2.399583  1.580064
      ESP Fit Center   92 is at  -2.317057 -3.099281  0.600064
      ESP Fit Center   93 is at  -1.337057 -3.361871  0.600064
      ESP Fit Center   94 is at  -0.357057 -3.099281  0.600064
      ESP Fit Center   95 is at  -1.861586 -3.016204 -0.379936
      ESP Fit Center   96 is at  -0.812529 -3.016204 -0.379936
      ESP Fit Center   97 is at   0.036176 -2.399583 -0.379936
      ESP Fit Center   98 is at  -1.827057 -2.250576 -1.097345
      ESP Fit Center   99 is at  -0.847057 -2.250576 -1.097345
      ESP Fit Center  100 is at   5.397453 -1.451230 -0.406745
      ESP Fit Center  101 is at   5.023645 -2.478260 -0.406745
      ESP Fit Center  102 is at   5.397453 -1.451230 -1.445042
      ESP Fit Center  103 is at   5.023645 -0.424201 -1.445042
      ESP Fit Center  104 is at   3.000791 -2.834944 -1.445042
      ESP Fit Center  105 is at   4.077129 -3.024732 -1.445042
      ESP Fit Center  106 is at   5.023645 -2.478260 -1.445042
      ESP Fit Center  107 is at   4.787158 -1.451230 -2.285042
      ESP Fit Center  108 is at   4.104826 -0.512082 -2.285042
      ESP Fit Center  109 is at   3.000791 -0.870805 -2.285042
      ESP Fit Center  110 is at   3.000791 -2.031656 -2.285042
      ESP Fit Center  111 is at   4.104826 -2.390379 -2.285042
      ESP Fit Center  112 is at   3.799678 -1.451230 -2.605894
      ESP Fit Center  113 is at   4.167109 -0.713593  2.312423
      ESP Fit Center  114 is at   5.154588 -0.713593  1.991571
      ESP Fit Center  115 is at   4.472257  0.225556  1.991571
      ESP Fit Center  116 is at   3.368222 -0.133167  1.991571
      ESP Fit Center  117 is at   4.472257 -1.652741  1.991571
      ESP Fit Center  118 is at   5.764884 -0.713593  1.151571
      ESP Fit Center  119 is at   5.391076  0.313437  1.151571
      ESP Fit Center  120 is at   4.444560  0.859909  1.151571
      ESP Fit Center  121 is at   5.391076 -1.740623  1.151571
      ESP Fit Center  122 is at   5.764884 -0.713593  0.113274
      ESP Fit Center  123 is at   5.391076  0.313437  0.113274
      ESP Fit Center  124 is at   4.444560  0.859909  0.113274
      ESP Fit Center  125 is at   5.391076 -1.740623  0.113274
      ESP Fit Center  126 is at   2.963147 -2.023981  2.220349
      ESP Fit Center  127 is at   3.950626 -2.023981  1.899497
      ESP Fit Center  128 is at   2.164259 -1.443555  1.899497
      ESP Fit Center  129 is at   2.164259 -2.604407  1.899497
      ESP Fit Center  130 is at   3.268295 -2.963129  1.899497
      ESP Fit Center  131 is at   2.164259 -3.407695  1.059497
      ESP Fit Center  132 is at   3.240598 -3.597482  1.059497
      ESP Fit Center  133 is at   4.187113 -3.051011  1.059497
      ESP Fit Center  134 is at   2.164259 -3.407695  0.021200
      ESP Fit Center  135 is at   3.240598 -3.597482  0.021200
      ESP Fit Center  136 is at  -0.186367  1.350175  3.661944
      ESP Fit Center  137 is at   0.801112  1.350175  3.341093
      ESP Fit Center  138 is at   0.118781  2.289324  3.341093
      ESP Fit Center  139 is at  -0.985255  1.930601  3.341093
      ESP Fit Center  140 is at  -0.985255  0.769750  3.341093
      ESP Fit Center  141 is at   0.118781  0.411027  3.341093
      ESP Fit Center  142 is at   1.411408  1.350175  2.501093
      ESP Fit Center  143 is at  -1.687785  1.896647  2.501093
      ESP Fit Center  144 is at  -1.687785  0.803704  2.501093
      ESP Fit Center  145 is at  -0.985255 -0.033538  2.501093
      ESP Fit Center  146 is at   0.091083 -0.223326  2.501093
      ESP Fit Center  147 is at   1.037599  0.323145  2.501093
      ESP Fit Center  148 is at   1.853044  2.269281  2.233745
      ESP Fit Center  149 is at   1.170713  3.208429  2.233745
      ESP Fit Center  150 is at   2.463340  2.269281  1.393745
      ESP Fit Center  151 is at   2.089531  3.296311  1.393745
      ESP Fit Center  152 is at   1.143016  3.842782  1.393745
      ESP Fit Center  153 is at   2.089531  1.242251  1.393745
      ESP Fit Center  154 is at   2.089531  3.296311  0.355448
      ESP Fit Center  155 is at   1.143016  3.842782  0.355448
      ESP Fit Center  156 is at   1.170713  3.208429 -0.484552
      ESP Fit Center  157 is at  -1.699792  2.991644  2.106080
      ESP Fit Center  158 is at  -0.623454  3.984720  1.266080
      ESP Fit Center  159 is at  -1.699792  3.794932  1.266080
      ESP Fit Center  160 is at  -2.402322  2.957690  1.266080
      ESP Fit Center  161 is at  -2.402322  1.864747  1.266080
      ESP Fit Center  162 is at  -0.623454  3.984720  0.227783
      ESP Fit Center  163 is at  -1.699792  3.794932  0.227783
      ESP Fit Center  164 is at  -2.402322  2.957690  0.227783
      ESP Fit Center  165 is at  -0.595757  3.350367 -0.612217
      ESP Fit Center  166 is at  -1.699792  2.991644 -0.612217
      ESP Fit Center  167 is at  -0.900905  2.411219 -0.933069
      ESP Fit Center  168 is at  -4.946543  0.863395 -1.943146
      ESP Fit Center  169 is at  -5.649073  0.026152 -1.943146
      ESP Fit Center  170 is at  -5.649073 -1.066790 -1.943146
      ESP Fit Center  171 is at  -4.946543 -1.904033 -1.943146
      ESP Fit Center  172 is at  -3.870205 -2.093820 -1.943146
      ESP Fit Center  173 is at  -2.923689 -1.547349 -1.943146
      ESP Fit Center  174 is at  -3.160176 -0.520319 -2.783146
      ESP Fit Center  175 is at  -3.842507  0.418830 -2.783146
      ESP Fit Center  176 is at  -4.946543  0.060107 -2.783146
      ESP Fit Center  177 is at  -4.946543 -1.100745 -2.783146
      ESP Fit Center  178 is at  -3.842507 -1.459467 -2.783146
      ESP Fit Center  179 is at  -4.147655 -0.520319 -3.103998
      ESP Fit Center  180 is at  -4.477747  0.292044  1.809118
      ESP Fit Center  181 is at  -4.172600  1.231193  1.488266
      ESP Fit Center  182 is at  -5.276635  0.872470  1.488266
      ESP Fit Center  183 is at  -5.276635 -0.288381  1.488266
      ESP Fit Center  184 is at  -4.200297  1.865545  0.648266
      ESP Fit Center  185 is at  -5.276635  1.675758  0.648266
      ESP Fit Center  186 is at  -5.979165  0.838515  0.648266
      ESP Fit Center  187 is at  -5.979165 -0.254427  0.648266
      ESP Fit Center  188 is at  -4.200297  1.865545 -0.390031
      ESP Fit Center  189 is at  -5.276635  1.675758 -0.390031
      ESP Fit Center  190 is at  -5.979165  0.838515 -0.390031
      ESP Fit Center  191 is at  -5.979165 -0.254427 -0.390031
      ESP Fit Center  192 is at  -5.276635  0.872470 -1.230031
      ESP Fit Center  193 is at  -3.655434 -1.289186  1.785307
      ESP Fit Center  194 is at  -4.454322 -1.869612  1.464455
      ESP Fit Center  195 is at  -3.350286 -2.228335  1.464455
      ESP Fit Center  196 is at  -5.156852 -1.835657  0.624455
      ESP Fit Center  197 is at  -4.454322 -2.672900  0.624455
      ESP Fit Center  198 is at  -3.377984 -2.862687  0.624455
      ESP Fit Center  199 is at  -4.454322 -2.672900 -0.413842
      ESP Fit Center  200 is at  -3.377984 -2.862687 -0.413842
      ESP Fit Center  201 is at  -3.350286 -2.228335 -1.253842
      ESP Fit Center  202 is at   0.323035  2.528290 -1.573539
      ESP Fit Center  203 is at  -0.753304  2.338502 -1.573539
      ESP Fit Center  204 is at   1.033063  0.954789 -2.413539
      ESP Fit Center  205 is at   0.350732  1.893937 -2.413539
      ESP Fit Center  206 is at  -0.753304  1.535214 -2.413539
      ESP Fit Center  207 is at  -0.753304  0.374363 -2.413539
      ESP Fit Center  208 is at   0.350732  0.015640 -2.413539
      ESP Fit Center  209 is at   0.045584  0.954789 -2.734390
      ESP Fit Center  210 is at  -3.153223  2.565788 -0.394005
      ESP Fit Center  211 is at  -1.130369  2.209104 -1.432302
      ESP Fit Center  212 is at  -2.076885  2.755576 -1.432302
      ESP Fit Center  213 is at  -3.153223  2.565788 -1.432302
      ESP Fit Center  214 is at  -3.855753  1.728546 -1.432302
      ESP Fit Center  215 is at  -1.366856  1.182074 -2.272302
      ESP Fit Center  216 is at  -2.049187  2.121223 -2.272302
      ESP Fit Center  217 is at  -3.153223  1.762500 -2.272302
      ESP Fit Center  218 is at  -2.354335  1.182074 -2.593154
      ESP Fit Center  219 is at   0.810335 -1.247161  2.276791
      ESP Fit Center  220 is at   1.797814 -1.247161  1.955940
      ESP Fit Center  221 is at   1.115482 -2.186310  1.955940
      ESP Fit Center  222 is at   1.087785 -2.820662  1.115940
      ESP Fit Center  223 is at   1.087785 -2.820662  0.077642
      ESP Fit Center  224 is at   2.839759  0.835552  1.926359
      ESP Fit Center  225 is at   1.277778 -0.066258 -2.398291
      ESP Fit Center  226 is at   1.798439 -0.968068 -2.398291
      ESP Fit Center  227 is at  -0.556733 -2.004142 -1.435299
      ESP Fit Center  228 is at  -0.815555 -1.199123 -2.101249
      ESP Fit Center  229 is at   3.361557 -1.142687  2.428463
      ESP Fit Center  230 is at   2.840896 -0.240877  2.190788
      ESP Fit Center  231 is at   2.320236 -1.142687  2.190788
      ESP Fit Center  232 is at   4.820415 -2.972037  0.562513
      ESP Fit Center  233 is at   5.469668 -2.157900  0.562513
      ESP Fit Center  234 is at   5.701384 -1.142687 -0.505588
      ESP Fit Center  235 is at   3.882217 -3.423850 -0.505588
      ESP Fit Center  236 is at   2.132779 -2.560772 -1.467913
      ESP Fit Center  237 is at   0.703550  3.427755  2.453995
      ESP Fit Center  238 is at  -0.342972  3.578222  2.453995
      ESP Fit Center  239 is at  -1.876321  2.249567  2.453995
      ESP Fit Center  240 is at  -3.762786 -0.336464  1.985746
      ESP Fit Center  241 is at  -5.870897 -1.351677  0.119796
      ESP Fit Center  242 is at  -4.283446  1.944699 -0.948305
      ESP Fit Center  243 is at  -6.102613 -0.336464 -0.948305
      ESP Fit Center  244 is at  -5.870897 -1.351677 -0.948305
      ESP Fit Center  245 is at  -5.221644 -2.165814 -0.948305
      ESP Fit Center  246 is at  -4.029825  1.520833 -1.910630
      ESP Fit Center  247 is at  -2.983303 -2.043293 -1.910630
      ESP Fit Center  248 is at  -2.970239  1.186186  1.702600
      ESP Fit Center  249 is at  -1.408257  0.284375 -2.622050
      ESP Fit Center  250 is at  -1.928918 -0.617435 -2.622050
      ESP Fit Center  251 is at  -2.449578  0.284375 -2.859725
      ESP Fit Center  252 is at   1.059415 -0.349322  2.598089
      ESP Fit Center  253 is at   2.100736 -0.349322  2.360415
      ESP Fit Center  254 is at   1.580076  0.552489  2.360415
      ESP Fit Center  255 is at   1.580076 -1.251132  2.360415
      ESP Fit Center  256 is at   0.792376 -2.206618 -1.298286
      ESP Fit Center  257 is at   0.538755 -1.251132 -1.964236
      ESP Fit Center  258 is at   3.084889  1.830352  1.218536
      ESP Fit Center  259 is at   4.015773  2.018052  0.596983
      ESP Fit Center  260 is at   3.140122  2.654250  0.596983
      ESP Fit Center  261 is at   4.782778  0.988662 -0.301188
      ESP Fit Center  262 is at   4.532632  2.003542 -0.301188
      ESP Fit Center  263 is at   3.839501  2.785926 -0.301188
      ESP Fit Center  264 is at   2.862172  3.156578 -0.301188
      ESP Fit Center  265 is at   4.782778  0.988662 -1.298081
      ESP Fit Center  266 is at   4.532632  2.003542 -1.298081
      ESP Fit Center  267 is at   3.839501  2.785926 -1.298081
      ESP Fit Center  268 is at   2.862172  3.156578 -1.298081
      ESP Fit Center  269 is at   1.824540  3.030586 -1.298081
      ESP Fit Center  270 is at   4.350242  0.988662 -2.196252
      ESP Fit Center  271 is at   4.015773  2.018052 -2.196252
      ESP Fit Center  272 is at   3.140122  2.654250 -2.196252
      ESP Fit Center  273 is at   2.057757  2.654250 -2.196252
      ESP Fit Center  274 is at   1.182106  2.018052 -2.196252
      ESP Fit Center  275 is at   3.570839  0.988662 -2.817805
      ESP Fit Center  276 is at   3.084889  1.830352 -2.817805
      ESP Fit Center  277 is at   2.112990  1.830352 -2.817805
      ESP Fit Center  278 is at   1.627040  0.988662 -2.817805
      ESP Fit Center  279 is at   2.112990  0.146972 -2.817805
      ESP Fit Center  280 is at   3.084889  0.146972 -2.817805
      ESP Fit Center  281 is at   2.598939  0.988662 -3.039635
      ESP Fit Center  282 is at  -1.337057 -1.401871  2.840064
      ESP Fit Center  283 is at  -0.365158 -1.401871  2.618235
      ESP Fit Center  284 is at  -0.851107 -0.560181  2.618235
      ESP Fit Center  285 is at  -1.823007 -0.560181  2.618235
      ESP Fit Center  286 is at  -2.308957 -1.401871  2.618235
      ESP Fit Center  287 is at  -1.823007 -2.243561  2.618235
      ESP Fit Center  288 is at  -0.851107 -2.243561  2.618235
      ESP Fit Center  289 is at  -2.753891 -0.372481  1.996681
      ESP Fit Center  290 is at  -3.088360 -1.401871  1.996681
      ESP Fit Center  291 is at  -2.753891 -2.431261  1.996681
      ESP Fit Center  292 is at  -1.878239 -3.067459  1.996681
      ESP Fit Center  293 is at  -0.795875 -3.067459  1.996681
      ESP Fit Center  294 is at   0.079776 -2.431261  1.996681
      ESP Fit Center  295 is at  -2.971684 -2.850024  1.098511
      ESP Fit Center  296 is at  -2.111457 -3.443795  1.098511
      ESP Fit Center  297 is at  -1.073825 -3.569787  1.098511
      ESP Fit Center  298 is at  -0.096496 -3.199135  1.098511
      ESP Fit Center  299 is at  -2.111457 -3.443795  0.101617
      ESP Fit Center  300 is at  -1.073825 -3.569787  0.101617
      ESP Fit Center  301 is at  -0.096496 -3.199135  0.101617
      ESP Fit Center  302 is at  -1.878239 -3.067459 -0.796553
      ESP Fit Center  303 is at  -0.795875 -3.067459 -0.796553
      ESP Fit Center  304 is at   0.079776 -2.431261 -0.796553
      ESP Fit Center  305 is at  -1.823007 -2.243561 -1.418106
      ESP Fit Center  306 is at  -0.851107 -2.243561 -1.418106
      ESP Fit Center  307 is at   5.719678 -1.451230 -0.925894
      ESP Fit Center  308 is at   3.799678 -3.371230 -0.925894
      ESP Fit Center  309 is at   4.759678 -3.113999 -0.925894
      ESP Fit Center  310 is at   5.462447 -2.411230 -0.925894
      ESP Fit Center  311 is at   5.462447 -1.451230 -1.885894
      ESP Fit Center  312 is at   5.144887 -0.473880 -1.885894
      ESP Fit Center  313 is at   2.454470 -2.428581 -1.885894
      ESP Fit Center  314 is at   3.285855 -3.032618 -1.885894
      ESP Fit Center  315 is at   4.313502 -3.032618 -1.885894
      ESP Fit Center  316 is at   5.144887 -2.428581 -1.885894
      ESP Fit Center  317 is at   4.759678 -1.451230 -2.588663
      ESP Fit Center  318 is at   4.279678 -0.619846 -2.588663
      ESP Fit Center  319 is at   3.319678 -0.619846 -2.588663
      ESP Fit Center  320 is at   2.839678 -1.451230 -2.588663
      ESP Fit Center  321 is at   3.319678 -2.282615 -2.588663
      ESP Fit Center  322 is at   4.279678 -2.282615 -2.588663
      ESP Fit Center  323 is at   3.799678 -1.451230 -2.845894
      ESP Fit Center  324 is at   4.167109 -0.713593  2.552423
      ESP Fit Center  325 is at   5.127109 -0.713593  2.295191
      ESP Fit Center  326 is at   4.647109  0.117792  2.295191
      ESP Fit Center  327 is at   3.687109  0.117792  2.295191
      ESP Fit Center  328 is at   4.647109 -1.544977  2.295191
      ESP Fit Center  329 is at   5.829878 -0.713593  1.592423
      ESP Fit Center  330 is at   5.512317  0.263758  1.592423
      ESP Fit Center  331 is at   4.680933  0.867794  1.592423
      ESP Fit Center  332 is at   3.653285  0.867794  1.592423
      ESP Fit Center  333 is at   5.512317 -1.690944  1.592423
      ESP Fit Center  334 is at   6.087109 -0.713593  0.632423
      ESP Fit Center  335 is at   5.829878  0.246407  0.632423
      ESP Fit Center  336 is at   5.127109  0.949176  0.632423
      ESP Fit Center  337 is at   5.829878 -1.673593  0.632423
      ESP Fit Center  338 is at   5.829878 -0.713593 -0.327577
      ESP Fit Center  339 is at   5.512317  0.263758 -0.327577
      ESP Fit Center  340 is at   2.963147 -2.023981  2.460349
      ESP Fit Center  341 is at   3.923147 -2.023981  2.203117
      ESP Fit Center  342 is at   2.003147 -2.023981  2.203117
      ESP Fit Center  343 is at   2.483147 -2.855365  2.203117
      ESP Fit Center  344 is at   3.443147 -2.855365  2.203117
      ESP Fit Center  345 is at   1.617939 -3.001332  1.500349
      ESP Fit Center  346 is at   2.449323 -3.605368  1.500349
      ESP Fit Center  347 is at   3.476971 -3.605368  1.500349
      ESP Fit Center  348 is at   4.308355 -3.001332  1.500349
      ESP Fit Center  349 is at   2.003147 -3.686750  0.540349
      ESP Fit Center  350 is at   2.963147 -3.943981  0.540349
      ESP Fit Center  351 is at   3.923147 -3.686750  0.540349
      ESP Fit Center  352 is at   1.617939 -3.001332 -0.419651
      ESP Fit Center  353 is at   2.449323 -3.605368 -0.419651
      ESP Fit Center  354 is at   3.476971 -3.605368 -0.419651
      ESP Fit Center  355 is at  -0.186367  1.350175  3.901944
      ESP Fit Center  356 is at   0.773633  1.350175  3.644713
      ESP Fit Center  357 is at   0.293633  2.181560  3.644713
      ESP Fit Center  358 is at  -0.666367  2.181560  3.644713
      ESP Fit Center  359 is at  -1.146367  1.350175  3.644713
      ESP Fit Center  360 is at  -0.666367  0.518791  3.644713
      ESP Fit Center  361 is at   0.293633  0.518791  3.644713
      ESP Fit Center  362 is at   1.476401  1.350175  2.941944
      ESP Fit Center  363 is at   1.158841  2.327526  2.941944
      ESP Fit Center  364 is at  -0.700191  2.931563  2.941944
      ESP Fit Center  365 is at  -1.531576  2.327526  2.941944
      ESP Fit Center  366 is at  -1.849136  1.350175  2.941944
      ESP Fit Center  367 is at  -1.531576  0.372824  2.941944
      ESP Fit Center  368 is at  -0.700191 -0.231212  2.941944
      ESP Fit Center  369 is at   0.327456 -0.231212  2.941944
      ESP Fit Center  370 is at   1.158841  0.372824  2.941944
      ESP Fit Center  371 is at   1.825565  2.269281  2.537365
      ESP Fit Center  372 is at   1.345565  3.100665  2.537365
      ESP Fit Center  373 is at   2.528334  2.269281  1.834597
      ESP Fit Center  374 is at   2.210773  3.246632  1.834597
      ESP Fit Center  375 is at   1.379389  3.850668  1.834597
      ESP Fit Center  376 is at   2.210773  1.291930  1.834597
      ESP Fit Center  377 is at   2.528334  3.229281  0.874597
      ESP Fit Center  378 is at   1.825565  3.932049  0.874597
      ESP Fit Center  379 is at   0.865565  4.189281  0.874597
      ESP Fit Center  380 is at   2.210773  3.246632 -0.085403
      ESP Fit Center  381 is at   1.379389  3.850668 -0.085403
      ESP Fit Center  382 is at   0.351741  3.850668 -0.085403
      ESP Fit Center  383 is at   1.345565  3.100665 -0.788172
      ESP Fit Center  384 is at  -1.380905  3.242603  2.409700
      ESP Fit Center  385 is at  -1.860905  2.411219  2.409700
      ESP Fit Center  386 is at  -0.387081  3.992606  1.706931
      ESP Fit Center  387 is at  -1.414728  3.992606  1.706931
      ESP Fit Center  388 is at  -2.246113  3.388570  1.706931
      ESP Fit Center  389 is at  -2.563673  2.411219  1.706931
      ESP Fit Center  390 is at  -0.900905  4.331219  0.746931
      ESP Fit Center  391 is at  -1.860905  4.073987  0.746931
      ESP Fit Center  392 is at  -2.563673  3.371219  0.746931
      ESP Fit Center  393 is at  -2.820905  2.411219  0.746931
      ESP Fit Center  394 is at  -0.387081  3.992606 -0.213069
      ESP Fit Center  395 is at  -1.414728  3.992606 -0.213069
      ESP Fit Center  396 is at  -2.246113  3.388570 -0.213069
      ESP Fit Center  397 is at  -0.420905  3.242603 -0.915837
      ESP Fit Center  398 is at  -1.380905  3.242603 -0.915837
      ESP Fit Center  399 is at  -5.810424  0.439681 -1.423998
      ESP Fit Center  400 is at  -6.067655 -0.520319 -1.423998
      ESP Fit Center  401 is at  -5.810424 -1.480319 -1.423998
      ESP Fit Center  402 is at  -5.107655 -2.183088 -1.423998
      ESP Fit Center  403 is at  -4.661479  1.061068 -2.383998
      ESP Fit Center  404 is at  -5.492863  0.457032 -2.383998
      ESP Fit Center  405 is at  -5.810424 -0.520319 -2.383998
      ESP Fit Center  406 is at  -5.492863 -1.497670 -2.383998
      ESP Fit Center  407 is at  -4.661479 -2.101706 -2.383998
      ESP Fit Center  408 is at  -3.633831 -2.101706 -2.383998
      ESP Fit Center  409 is at  -2.802447 -1.497670 -2.383998
      ESP Fit Center  410 is at  -3.187655 -0.520319 -3.086766
      ESP Fit Center  411 is at  -3.667655  0.311066 -3.086766
      ESP Fit Center  412 is at  -4.627655  0.311066 -3.086766
      ESP Fit Center  413 is at  -5.107655 -0.520319 -3.086766
      ESP Fit Center  414 is at  -4.627655 -1.351703 -3.086766
      ESP Fit Center  415 is at  -3.667655 -1.351703 -3.086766
      ESP Fit Center  416 is at  -4.147655 -0.520319 -3.343998
      ESP Fit Center  417 is at  -4.477747  0.292044  2.049118
      ESP Fit Center  418 is at  -3.997747  1.123429  1.791887
      ESP Fit Center  419 is at  -4.957747  1.123429  1.791887
      ESP Fit Center  420 is at  -5.437747  0.292044  1.791887
      ESP Fit Center  421 is at  -4.957747 -0.539340  1.791887
      ESP Fit Center  422 is at  -3.963924  1.873431  1.089118
      ESP Fit Center  423 is at  -4.991571  1.873431  1.089118
      ESP Fit Center  424 is at  -5.822956  1.269395  1.089118
      ESP Fit Center  425 is at  -6.140516  0.292044  1.089118
      ESP Fit Center  426 is at  -5.822956 -0.685307  1.089118
      ESP Fit Center  427 is at  -4.477747  2.212044  0.129118
      ESP Fit Center  428 is at  -5.437747  1.954813  0.129118
      ESP Fit Center  429 is at  -6.140516  1.252044  0.129118
      ESP Fit Center  430 is at  -6.397747  0.292044  0.129118
      ESP Fit Center  431 is at  -6.140516 -0.667956  0.129118
      ESP Fit Center  432 is at  -4.991571  1.873431 -0.830882
      ESP Fit Center  433 is at  -5.822956  1.269395 -0.830882
      ESP Fit Center  434 is at  -6.140516  0.292044 -0.830882
      ESP Fit Center  435 is at  -3.655434 -1.289186  2.025307
      ESP Fit Center  436 is at  -4.615434 -1.289186  1.768076
      ESP Fit Center  437 is at  -4.135434 -2.120570  1.768076
      ESP Fit Center  438 is at  -3.175434 -2.120570  1.768076
      ESP Fit Center  439 is at  -5.000642 -2.266537  1.065307
      ESP Fit Center  440 is at  -4.169258 -2.870573  1.065307
      ESP Fit Center  441 is at  -3.141610 -2.870573  1.065307
      ESP Fit Center  442 is at  -5.318203 -2.249186  0.105307
      ESP Fit Center  443 is at  -4.615434 -2.951955  0.105307
      ESP Fit Center  444 is at  -3.655434 -3.209186  0.105307
      ESP Fit Center  445 is at  -4.169258 -2.870573 -0.854693
      ESP Fit Center  446 is at  -3.141610 -2.870573 -0.854693
      ESP Fit Center  447 is at   1.005584  2.617557 -1.054390
      ESP Fit Center  448 is at   0.559408  2.536176 -2.014390
      ESP Fit Center  449 is at  -0.468240  2.536176 -2.014390
      ESP Fit Center  450 is at   1.005584  0.954789 -2.717159
      ESP Fit Center  451 is at   0.525584  1.786173 -2.717159
      ESP Fit Center  452 is at  -0.434416  1.786173 -2.717159
      ESP Fit Center  453 is at  -0.914416  0.954789 -2.717159
      ESP Fit Center  454 is at  -0.434416  0.123404 -2.717159
      ESP Fit Center  455 is at   0.525584  0.123404 -2.717159
      ESP Fit Center  456 is at   0.045584  0.954789 -2.974390
      ESP Fit Center  457 is at  -2.868159  2.763461  0.046846
      ESP Fit Center  458 is at  -2.354335  3.102074 -0.913154
      ESP Fit Center  459 is at  -3.314335  2.844843 -0.913154
      ESP Fit Center  460 is at  -4.017104  2.142074 -0.913154
      ESP Fit Center  461 is at  -1.840511  2.763461 -1.873154
      ESP Fit Center  462 is at  -2.868159  2.763461 -1.873154
      ESP Fit Center  463 is at  -3.699543  2.159425 -1.873154
      ESP Fit Center  464 is at  -1.394335  1.182074 -2.575923
      ESP Fit Center  465 is at  -1.874335  2.013459 -2.575923
      ESP Fit Center  466 is at  -2.834335  2.013459 -2.575923
      ESP Fit Center  467 is at  -3.314335  1.182074 -2.575923
      ESP Fit Center  468 is at  -2.354335  1.182074 -2.833154
      ESP Fit Center  469 is at   0.810335 -1.247161  2.516791
      ESP Fit Center  470 is at   0.330335 -2.078546  2.259560
      ESP Fit Center  471 is at   1.290335 -2.078546  2.259560
      ESP Fit Center  472 is at   0.296511 -2.828548  1.556791
      ESP Fit Center  473 is at   1.324158 -2.828548  1.556791
      ESP Fit Center  474 is at   0.810335 -3.167161  0.596791
      ESP Fit Center  475 is at   0.296511 -2.828548 -0.363209
      ESP Fit Center  476 is at   1.324158 -2.828548 -0.363209
      ESP Fit Center  477 is at   2.835722  0.828559  2.258509
      ESP Fit Center  478 is at   3.112204  1.670401  1.673222
      ESP Fit Center  479 is at   1.285854 -0.066258 -2.730441
      ESP Fit Center  480 is at   1.802476 -0.961075 -2.730441
      ESP Fit Center  481 is at  -1.607921 -2.187068 -1.848112
      ESP Fit Center  482 is at  -0.543110 -2.033971 -1.848112
      ESP Fit Center  483 is at  -0.819593 -1.192129 -2.433398
      ESP Fit Center  484 is at   3.361557 -1.142687  2.728463
      ESP Fit Center  485 is at   2.844934 -0.247870  2.522937
      ESP Fit Center  486 is at   2.328311 -1.142687  2.522937
      ESP Fit Center  487 is at   3.878179 -2.037504  2.522937
      ESP Fit Center  488 is at   4.916836 -3.092946  1.061708
      ESP Fit Center  489 is at   4.394802 -3.637162  0.028463
      ESP Fit Center  490 is at   5.270745 -3.051875  0.028463
      ESP Fit Center  491 is at   5.856031 -2.175932  0.028463
      ESP Fit Center  492 is at   5.609001 -0.060375 -1.004783
      ESP Fit Center  493 is at   1.806277 -3.092946 -1.004783
      ESP Fit Center  494 is at   2.806484 -3.574620 -1.004783
      ESP Fit Center  495 is at   2.111304 -2.585555 -1.880726
      ESP Fit Center  496 is at   1.833255  1.720925  2.866808
      ESP Fit Center  497 is at   0.717172  3.457584  2.866808
      ESP Fit Center  498 is at  -0.347639  3.610681  2.866808
      ESP Fit Center  499 is at  -1.326185  3.163794  2.866808
      ESP Fit Center  500 is at   0.479140  4.152858  1.990865
      ESP Fit Center  501 is at  -2.570408  1.720925  1.990865
      ESP Fit Center  502 is at  -0.075933  4.420925  0.957620
      ESP Fit Center  503 is at   0.717172  3.457584 -0.951569
      ESP Fit Center  504 is at  -3.762786 -0.336464  2.285746
      ESP Fit Center  505 is at  -6.010230 -1.418776  0.618991
      ESP Fit Center  506 is at  -6.257261 -1.369709 -0.414254
      ESP Fit Center  507 is at  -5.671974 -2.245652 -0.414254
      ESP Fit Center  508 is at  -4.317859  2.095469 -1.447500
      ESP Fit Center  509 is at  -5.318065  1.613795 -1.447500
      ESP Fit Center  510 is at  -6.010230  0.745848 -1.447500
      ESP Fit Center  511 is at  -4.317859 -2.768397 -1.447500
      ESP Fit Center  512 is at  -3.207713 -2.768397 -1.447500
      ESP Fit Center  513 is at  -4.034492  1.553292 -2.323443
      ESP Fit Center  514 is at  -2.966201  1.179192  2.034750
      ESP Fit Center  515 is at  -1.656473 -1.452283 -2.368913
      ESP Fit Center  516 is at  -1.416333  0.284375 -2.954200
      ESP Fit Center  517 is at  -1.932956 -0.610441 -2.954200
      ESP Fit Center  518 is at  -2.449578  0.284375 -3.159725
      ESP Fit Center  519 is at   1.059415 -0.349322  2.898089
      ESP Fit Center  520 is at   2.092660 -0.349322  2.692564
      ESP Fit Center  521 is at   1.576038 -1.244138  2.692564
      ESP Fit Center  522 is at   0.787709 -2.239077 -1.711099
      ESP Fit Center  523 is at   0.542793 -1.244138 -2.296385
      ESP Fit Center  524 is at   3.145633  1.935563  1.470807
      ESP Fit Center  525 is at   4.256390  2.053841  0.771560
      ESP Fit Center  526 is at   3.417396  2.780833  0.771560
      ESP Fit Center  527 is at   4.812456  2.054635 -0.238882
      ESP Fit Center  528 is at   4.130741  2.909480 -0.238882
      ESP Fit Center  529 is at   3.145633  3.383883 -0.238882
      ESP Fit Center  530 is at   5.055758  0.988662 -1.360387
      ESP Fit Center  531 is at   4.812456  2.054635 -1.360387
      ESP Fit Center  532 is at   4.130741  2.909480 -1.360387
      ESP Fit Center  533 is at   3.145633  3.383883 -1.360387
      ESP Fit Center  534 is at   2.052246  3.383883 -1.360387
      ESP Fit Center  535 is at   1.067138  2.909480 -1.360387
      ESP Fit Center  536 is at   4.569155  0.988662 -2.370829
      ESP Fit Center  537 is at   4.256390  2.053841 -2.370829
      ESP Fit Center  538 is at   3.417396  2.780833 -2.370829
      ESP Fit Center  539 is at   2.318548  2.938823 -2.370829
      ESP Fit Center  540 is at   1.308723  2.477651 -2.370829
      ESP Fit Center  541 is at   3.692326  0.988662 -3.070076
      ESP Fit Center  542 is at   3.145633  1.935563 -3.070076
      ESP Fit Center  543 is at   2.052246  1.935563 -3.070076
      ESP Fit Center  544 is at   1.505552  0.988662 -3.070076
      ESP Fit Center  545 is at   2.052246  0.041761 -3.070076
      ESP Fit Center  546 is at   3.145633  0.041761 -3.070076
      ESP Fit Center  547 is at   2.598939  0.988662 -3.319635
      ESP Fit Center  548 is at  -1.337057 -1.401871  3.120064
      ESP Fit Center  549 is at  -0.243670 -1.401871  2.870506
      ESP Fit Center  550 is at  -1.883751 -0.454970  2.870506
      ESP Fit Center  551 is at  -2.430444 -1.401871  2.870506
      ESP Fit Center  552 is at  -1.883751 -2.348772  2.870506
      ESP Fit Center  553 is at  -0.790364 -2.348772  2.870506
      ESP Fit Center  554 is at  -3.227465 -1.956945  2.171259
      ESP Fit Center  555 is at  -2.627274 -2.890860  2.171259
      ESP Fit Center  556 is at  -1.617448 -3.352032  2.171259
      ESP Fit Center  557 is at  -0.518600 -3.194042  2.171259
      ESP Fit Center  558 is at  -2.868858 -3.322689  1.160817
      ESP Fit Center  559 is at  -1.883751 -3.797092  1.160817
      ESP Fit Center  560 is at  -0.790364 -3.797092  1.160817
      ESP Fit Center  561 is at   0.194744 -3.322689  1.160817
      ESP Fit Center  562 is at  -2.868858 -3.322689  0.039312
      ESP Fit Center  563 is at  -1.883751 -3.797092  0.039312
      ESP Fit Center  564 is at  -0.790364 -3.797092  0.039312
      ESP Fit Center  565 is at   0.194744 -3.322689  0.039312
      ESP Fit Center  566 is at  -2.627274 -2.890860 -0.971130
      ESP Fit Center  567 is at  -1.617448 -3.352032 -0.971130
      ESP Fit Center  568 is at  -0.518600 -3.194042 -0.971130
      ESP Fit Center  569 is at  -1.883751 -2.348772 -1.670377
      ESP Fit Center  570 is at  -0.790364 -2.348772 -1.670377
      ESP Fit Center  571 is at   5.959678 -1.451230 -0.925894
      ESP Fit Center  572 is at   4.060038 -3.595482 -0.925894
      ESP Fit Center  573 is at   5.026698 -3.228876 -0.925894
      ESP Fit Center  574 is at   5.712264 -2.455033 -0.925894
      ESP Fit Center  575 is at   5.670293 -1.451230 -2.005894
      ESP Fit Center  576 is at   5.373340 -0.439900 -2.005894
      ESP Fit Center  577 is at   2.574686 -2.864947 -2.005894
      ESP Fit Center  578 is at   3.533462 -3.302805 -2.005894
      ESP Fit Center  579 is at   4.576760 -3.152802 -2.005894
      ESP Fit Center  580 is at   5.373340 -2.462561 -2.005894
      ESP Fit Center  581 is at   4.879678 -1.451230 -2.796509
      ESP Fit Center  582 is at   4.339678 -0.515923 -2.796509
      ESP Fit Center  583 is at   3.259678 -0.515923 -2.796509
      ESP Fit Center  584 is at   2.719678 -1.451230 -2.796509
      ESP Fit Center  585 is at   3.259678 -2.386538 -2.796509
      ESP Fit Center  586 is at   4.339678 -2.386538 -2.796509
      ESP Fit Center  587 is at   3.799678 -1.451230 -3.085894
      ESP Fit Center  588 is at   4.167109 -0.713593  2.792423
      ESP Fit Center  589 is at   5.247109 -0.713593  2.503037
      ESP Fit Center  590 is at   4.707109  0.221715  2.503037
      ESP Fit Center  591 is at   3.627109  0.221715  2.503037
[...]
  289 Fit      -0.011105
  290 Fit      -0.021708
  291 Fit      -0.032513
  292 Fit      -0.036923
  293 Fit      -0.032754
  294 Fit      -0.016557
  295 Fit      -0.028526
  296 Fit      -0.036553
  297 Fit      -0.034587
  298 Fit      -0.022341
  299 Fit      -0.033848
  300 Fit      -0.032778
  301 Fit      -0.021211
  302 Fit      -0.028390
  303 Fit      -0.026291
  304 Fit      -0.013010
  305 Fit      -0.016005
  306 Fit      -0.015154
  307 Fit       0.002066
  308 Fit       0.007540
  309 Fit       0.007200
  310 Fit       0.005704
  311 Fit       0.002078
  312 Fit      -0.008126
  313 Fit       0.006755
  314 Fit       0.007191
  315 Fit       0.007751
  316 Fit       0.006529
  317 Fit       0.001842
  318 Fit      -0.008842
  319 Fit      -0.011825
  320 Fit       0.001476
  321 Fit       0.005738
  322 Fit       0.006191
  323 Fit       0.000956
  324 Fit       0.006960
  325 Fit       0.007560
  326 Fit       0.005476
  327 Fit       0.005093
  328 Fit       0.007608
  329 Fit       0.006729
  330 Fit       0.003714
  331 Fit      -0.001539
  332 Fit      -0.002289
  333 Fit       0.007351
  334 Fit       0.003824
  335 Fit      -0.000626
  336 Fit      -0.009994
  337 Fit       0.005543
  338 Fit      -0.000551
  339 Fit      -0.009792
  340 Fit       0.009266
  341 Fit       0.008005
  342 Fit       0.013822
  343 Fit       0.011738
  344 Fit       0.009647
  345 Fit       0.015961
  346 Fit       0.011868
  347 Fit       0.010225
  348 Fit       0.008330
  349 Fit       0.011406
  350 Fit       0.010113
  351 Fit       0.008719
  352 Fit       0.011318
  353 Fit       0.008818
  354 Fit       0.007986
  355 Fit       0.004740
  356 Fit       0.002709
  357 Fit       0.003314
  358 Fit       0.004930
  359 Fit       0.005054
  360 Fit       0.003049
  361 Fit       0.002932
  362 Fit      -0.001263
  363 Fit      -0.000541
  364 Fit       0.004097
  365 Fit       0.005474
  366 Fit       0.004888
  367 Fit       0.000409
  368 Fit      -0.004539
  369 Fit      -0.001158
  370 Fit      -0.000907
  371 Fit      -0.002790
  372 Fit      -0.000716
  373 Fit      -0.008565
  374 Fit      -0.004669
  375 Fit      -0.000733
  376 Fit      -0.006086
  377 Fit      -0.016133
  378 Fit      -0.006040
  379 Fit      -0.000821
  380 Fit      -0.029189
  381 Fit      -0.009620
  382 Fit      -0.000213
  383 Fit      -0.024119
  384 Fit       0.006511
  385 Fit       0.006746
  386 Fit       0.004374
  387 Fit       0.009160
  388 Fit       0.012344
  389 Fit       0.011346
  390 Fit       0.008848
  391 Fit       0.015010
  392 Fit       0.019909
  393 Fit       0.020439
  394 Fit       0.007082
  395 Fit       0.016829
  396 Fit       0.028124
  397 Fit       0.012796
  398 Fit       0.027657
  399 Fit       0.017380
  400 Fit       0.015928
  401 Fit       0.014071
  402 Fit       0.010822
  403 Fit       0.022277
  404 Fit       0.017830
  405 Fit       0.016102
  406 Fit       0.014057
  407 Fit       0.010678
  408 Fit       0.006622
  409 Fit       0.004759
  410 Fit       0.013299
  411 Fit       0.019429
  412 Fit       0.018677
  413 Fit       0.016487
  414 Fit       0.013903
  415 Fit       0.011433
  416 Fit       0.015802
  417 Fit       0.007647
  418 Fit       0.009714
  419 Fit       0.012969
  420 Fit       0.011678
  421 Fit       0.007498
  422 Fit       0.015605
  423 Fit       0.016905
  424 Fit       0.016116
  425 Fit       0.014324
  426 Fit       0.011917
  427 Fit       0.022569
  428 Fit       0.019123
  429 Fit       0.017223
  430 Fit       0.015675
  431 Fit       0.014752
  432 Fit       0.022743
  433 Fit       0.018084
  434 Fit       0.016619
  435 Fit      -0.007451
  436 Fit       0.003862
  437 Fit      -0.002455
  438 Fit      -0.023410
  439 Fit       0.006513
  440 Fit      -0.001203
  441 Fit      -0.022344
  442 Fit       0.010189
  443 Fit       0.004862
  444 Fit      -0.005493
  445 Fit       0.003443
  446 Fit      -0.008228
  447 Fit      -0.022543
  448 Fit      -0.005672
  449 Fit       0.018278
  450 Fit      -0.014036
  451 Fit      -0.003107
  452 Fit       0.015694
  453 Fit       0.020657
  454 Fit       0.011593
  455 Fit       0.000379
  456 Fit       0.006753
  457 Fit       0.031519
  458 Fit       0.037739
  459 Fit       0.036587
  460 Fit       0.035147
  461 Fit       0.037495
  462 Fit       0.038371
  463 Fit       0.037031
  464 Fit       0.028560
  465 Fit       0.034161
  466 Fit       0.035349
  467 Fit       0.031330
  468 Fit       0.027956
  469 Fit       0.000440
  470 Fit      -0.007128
  471 Fit       0.010726
  472 Fit      -0.008513
  473 Fit       0.015734
  474 Fit       0.005967
  475 Fit      -0.008326
  476 Fit       0.011897
  477 Fit      -0.001490
  478 Fit      -0.012196
  479 Fit      -0.011163
  480 Fit      -0.004733
  481 Fit      -0.008311
  482 Fit      -0.005383
  483 Fit       0.004188
  484 Fit       0.005741
  485 Fit       0.003678
  486 Fit       0.006194
  487 Fit       0.006808
  488 Fit       0.006118
  489 Fit       0.006462
  490 Fit       0.005184
  491 Fit       0.003894
  492 Fit      -0.010322
  493 Fit       0.006394
  494 Fit       0.006362
  495 Fit       0.004873
  496 Fit      -0.002520
  497 Fit       0.000392
  498 Fit       0.002735
  499 Fit       0.004950
  500 Fit       0.000950
  501 Fit       0.006875
  502 Fit       0.002953
  503 Fit      -0.007659
  504 Fit      -0.000987
  505 Fit       0.010281
  506 Fit       0.011931
  507 Fit       0.009567
  508 Fit       0.029391
  509 Fit       0.019460
  510 Fit       0.016021
  511 Fit       0.004537
  512 Fit      -0.003533
  513 Fit       0.028630
  514 Fit       0.004553
  515 Fit       0.001029
  516 Fit       0.013579
  517 Fit       0.006707
  518 Fit       0.014683
  519 Fit      -0.001977
  520 Fit       0.000345
  521 Fit       0.003645
  522 Fit      -0.001670
  523 Fit      -0.000527
  524 Fit      -0.017181
  525 Fit      -0.027285
  526 Fit      -0.028731
  527 Fit      -0.034867
  528 Fit      -0.037398
  529 Fit      -0.034760
  530 Fit      -0.032777
  531 Fit      -0.039830
  532 Fit      -0.041149
  533 Fit      -0.038821
  534 Fit      -0.033042
  535 Fit      -0.021044
  536 Fit      -0.035689
  537 Fit      -0.041039
  538 Fit      -0.040612
  539 Fit      -0.036129
  540 Fit      -0.025762
  541 Fit      -0.035104
  542 Fit      -0.038048
  543 Fit      -0.032368
  544 Fit      -0.022853
  545 Fit      -0.020180
  546 Fit      -0.024771
  547 Fit      -0.031408
  548 Fit      -0.021394
  549 Fit      -0.015512
  550 Fit      -0.013162
  551 Fit      -0.021578
  552 Fit      -0.026871
  553 Fit      -0.023781
  554 Fit      -0.019358
  555 Fit      -0.027147
  556 Fit      -0.028857
  557 Fit      -0.023432
  558 Fit      -0.024911
  559 Fit      -0.028865
  560 Fit      -0.025540
  561 Fit      -0.012178
  562 Fit      -0.020696
  563 Fit      -0.026648
  564 Fit      -0.023981
  565 Fit      -0.011622
  566 Fit      -0.015880
  567 Fit      -0.021897
  568 Fit      -0.018162
  569 Fit      -0.011186
  570 Fit      -0.010788
  571 Fit       0.000985
  572 Fit       0.006388
  573 Fit       0.005740
  574 Fit       0.004198
  575 Fit       0.000321
  576 Fit      -0.008463
  577 Fit       0.005189
  578 Fit       0.005783
  579 Fit       0.005827
  580 Fit       0.004354
  581 Fit      -0.000274
  582 Fit      -0.011017
  583 Fit      -0.014667
  584 Fit      -0.000690
  585 Fit       0.003748
  586 Fit       0.004019
  587 Fit      -0.001202
  588 Fit       0.005408
  589 Fit       0.005607
  590 Fit       0.003445
  591 Fit       0.003224
  592 Fit       0.006275
  593 Fit       0.004703
  594 Fit       0.001922
  595 Fit      -0.002729
  596 Fit      -0.005861
  597 Fit       0.005771
  598 Fit       0.002148
  599 Fit      -0.002026
  600 Fit      -0.010208
  601 Fit       0.004171
  602 Fit      -0.001575
  603 Fit      -0.010027
  604 Fit       0.007450
  605 Fit       0.010446
  606 Fit       0.009003
  607 Fit       0.007797
  608 Fit       0.009748
  609 Fit       0.008804
  610 Fit       0.007950
  611 Fit       0.006921
  612 Fit       0.009379
  613 Fit       0.008136
  614 Fit       0.007801
  615 Fit       0.007037
  616 Fit       0.007102
  617 Fit       0.006823
  618 Fit       0.003280
  619 Fit       0.001655
  620 Fit       0.002373
  621 Fit       0.003902
  622 Fit       0.003649
  623 Fit       0.001217
  624 Fit       0.001484
  625 Fit      -0.001568
  626 Fit       0.004865
  627 Fit       0.004889
  628 Fit       0.002039
  629 Fit      -0.005090
  630 Fit      -0.006887
  631 Fit      -0.001771
  632 Fit      -0.001213
  633 Fit      -0.002872
  634 Fit      -0.001062
  635 Fit      -0.009038
  636 Fit      -0.006113
  637 Fit      -0.002168
  638 Fit      -0.018536
  639 Fit      -0.008388
  640 Fit      -0.002428
  641 Fit      -0.012864
  642 Fit      -0.002505
  643 Fit      -0.024909
  644 Fit       0.006776
  645 Fit       0.010147
  646 Fit       0.011306
  647 Fit       0.008131
  648 Fit       0.006107
  649 Fit       0.011542
  650 Fit       0.016407
  651 Fit       0.019905
  652 Fit       0.003935
  653 Fit       0.012425
  654 Fit       0.021621
  655 Fit       0.025838
  656 Fit       0.015008
  657 Fit       0.013370
  658 Fit       0.011176
  659 Fit       0.023201
  660 Fit       0.017317
  661 Fit       0.014904
  662 Fit       0.013235
  663 Fit       0.010975
  664 Fit       0.007759
  665 Fit       0.004344
  666 Fit       0.011728
  667 Fit       0.017774
  668 Fit       0.016691
  669 Fit       0.014262
  670 Fit       0.011728
  671 Fit       0.009538
  672 Fit       0.013688
  673 Fit       0.006026
  674 Fit       0.008323
  675 Fit       0.011036
  676 Fit       0.009772
  677 Fit       0.005903
  678 Fit       0.015041
  679 Fit       0.014325
  680 Fit       0.013072
  681 Fit       0.011322
  682 Fit       0.022560
  683 Fit       0.018051
  684 Fit       0.015811
  685 Fit       0.014335
  686 Fit       0.013209
  687 Fit       0.024045
  688 Fit       0.017724
  689 Fit       0.015468
  690 Fit      -0.008035
  691 Fit       0.002921
  692 Fit      -0.003748
  693 Fit       0.007283
  694 Fit       0.002770
  695 Fit      -0.006452
  696 Fit       0.006715
  697 Fit       0.000875
  698 Fit      -0.010499
  699 Fit      -0.000083
  700 Fit      -0.011666
  701 Fit      -0.012935
  702 Fit       0.009960
  703 Fit      -0.015827
  704 Fit      -0.005172
  705 Fit       0.013232
  706 Fit       0.018117
  707 Fit       0.009213
  708 Fit      -0.001374
  709 Fit       0.004534
  710 Fit       0.031384
  711 Fit       0.031140
  712 Fit       0.030356
  713 Fit       0.030072
  714 Fit       0.031839
  715 Fit       0.031755
  716 Fit       0.023362
  717 Fit       0.027938
  718 Fit       0.029545
  719 Fit       0.023468
  720 Fit      -0.001163
  721 Fit      -0.009441
  722 Fit       0.007317
  723 Fit      -0.003150
  724 Fit       0.006934
  725 Fit      -0.003437
  726 Fit      -0.001398
  727 Fit      -0.008009
  728 Fit      -0.010184
  729 Fit      -0.005631
  730 Fit      -0.004328
  731 Fit      -0.002933
  732 Fit       0.003526
  733 Fit       0.004582
  734 Fit       0.002561
  735 Fit       0.004405
  736 Fit       0.005629
  737 Fit       0.005271
  738 Fit       0.005572
  739 Fit       0.004409
  740 Fit       0.003620
  741 Fit      -0.000265
  742 Fit       0.005780
  743 Fit       0.005131
  744 Fit       0.004291
  745 Fit       0.002656
  746 Fit      -0.010549
  747 Fit       0.004114
  748 Fit       0.004989
  749 Fit       0.003164
  750 Fit      -0.001613
  751 Fit      -0.001181
  752 Fit       0.000418
  753 Fit       0.002450
  754 Fit       0.004254
  755 Fit       0.000246
  756 Fit       0.002802
  757 Fit       0.006981
  758 Fit       0.003900
  759 Fit       0.001484
  760 Fit       0.001184
  761 Fit      -0.008263
  762 Fit       0.008263
  763 Fit      -0.001567
  764 Fit       0.007032
  765 Fit       0.010971
  766 Fit       0.008864
  767 Fit       0.023890
  768 Fit       0.013294
  769 Fit       0.011718
  770 Fit       0.009874
  771 Fit       0.007240
  772 Fit       0.019900
  773 Fit       0.015748
  774 Fit       0.002889
  775 Fit      -0.002968
  776 Fit       0.024184
  777 Fit       0.004136
  778 Fit       0.015699
  779 Fit       0.002059
  780 Fit       0.011666
  781 Fit       0.019189
  782 Fit       0.020898
  783 Fit       0.007126
  784 Fit       0.013328
  785 Fit      -0.001235
  786 Fit       0.000488
  787 Fit      -0.004123
  788 Fit       0.001949
  789 Fit      -0.001485
  790 Fit      -0.001303
  791 Fit      -0.000443
  792 Fit      -0.018787
  793 Fit      -0.021120
  794 Fit      -0.025225
  795 Fit      -0.028464
  796 Fit      -0.026854
  797 Fit      -0.023408
  798 Fit      -0.030138
  799 Fit      -0.032746
  800 Fit      -0.032244
  801 Fit      -0.029069
  802 Fit      -0.027696
  803 Fit      -0.033152
  804 Fit      -0.034600
  805 Fit      -0.033142
  806 Fit      -0.028978
  807 Fit      -0.020717
  808 Fit      -0.029116
  809 Fit      -0.033345
  810 Fit      -0.033580
  811 Fit      -0.030607
  812 Fit      -0.023935
  813 Fit      -0.020113
  814 Fit      -0.028341
  815 Fit      -0.030685
  816 Fit      -0.025834
  817 Fit      -0.018468
  818 Fit      -0.016943
  819 Fit      -0.020663
  820 Fit      -0.025226
  821 Fit      -0.016453
  822 Fit      -0.012300
  823 Fit      -0.010517
  824 Fit      -0.016798
  825 Fit      -0.020895
  826 Fit      -0.018495
  827 Fit      -0.007546
  828 Fit      -0.012845
  829 Fit      -0.018665
  830 Fit      -0.022570
  831 Fit      -0.022328
  832 Fit      -0.017219
  833 Fit      -0.022083
  834 Fit      -0.023106
  835 Fit      -0.019021
  836 Fit      -0.017829
  837 Fit      -0.022101
  838 Fit      -0.021024
  839 Fit      -0.014506
  840 Fit      -0.016998
  841 Fit      -0.019785
  842 Fit      -0.016631
  843 Fit      -0.012899
  844 Fit      -0.015311
  845 Fit      -0.011794
  846 Fit      -0.000340
  847 Fit      -0.006659
  848 Fit       0.005069
  849 Fit       0.004451
  850 Fit       0.002862
  851 Fit      -0.001031
  852 Fit      -0.008847
  853 Fit       0.003556
  854 Fit       0.004271
  855 Fit       0.004192
  856 Fit       0.002713
  857 Fit      -0.001776
  858 Fit      -0.010537
  859 Fit      -0.013218
  860 Fit      -0.002373
  861 Fit       0.001915
  862 Fit       0.002070
  863 Fit      -0.002572
  864 Fit       0.004283
  865 Fit       0.004282
  866 Fit       0.002518
  867 Fit       0.002375
  868 Fit       0.005200
  869 Fit       0.003708
  870 Fit       0.001437
  871 Fit      -0.001862
  872 Fit      -0.003668
  873 Fit       0.004822
  874 Fit       0.002170
  875 Fit      -0.000834
  876 Fit      -0.006034
  877 Fit      -0.013883
  878 Fit       0.003790
  879 Fit      -0.000319
  880 Fit      -0.005087
  881 Fit      -0.014174
  882 Fit       0.006022
  883 Fit       0.007087
  884 Fit       0.006795
  885 Fit       0.006364
  886 Fit       0.006845
  887 Fit       0.006875
  888 Fit       0.006561
  889 Fit       0.006023
  890 Fit       0.005899
  891 Fit       0.006489
  892 Fit       0.006510
  893 Fit       0.006042
  894 Fit       0.005055
  895 Fit       0.005807
  896 Fit       0.005971
  897 Fit       0.002322
  898 Fit       0.001268
  899 Fit       0.001948
  900 Fit       0.003129
  901 Fit       0.002690
  902 Fit       0.000619
  903 Fit       0.000884
  904 Fit      -0.000744
  905 Fit       0.004176
  906 Fit       0.004027
  907 Fit       0.001273
  908 Fit      -0.004114
  909 Fit      -0.005277
  910 Fit      -0.001432
  911 Fit      -0.000342
  912 Fit      -0.006326
  913 Fit      -0.004865
  914 Fit      -0.001992
  915 Fit      -0.013256
  916 Fit      -0.007072
  917 Fit      -0.002555
  918 Fit      -0.013809
  919 Fit      -0.005586
  920 Fit      -0.015489
  921 Fit       0.005447
  922 Fit       0.007991
  923 Fit       0.008849
  924 Fit       0.003795
  925 Fit       0.007772
  926 Fit       0.011333
  927 Fit       0.013978
  928 Fit       0.004524
  929 Fit       0.010091
  930 Fit       0.015600
  931 Fit       0.021734
  932 Fit       0.012338
  933 Fit       0.022127
  934 Fit       0.014190
  935 Fit       0.012579
  936 Fit       0.010972
  937 Fit       0.008812
  938 Fit       0.005723
  939 Fit       0.020038
  940 Fit       0.015674
  941 Fit       0.013406
  942 Fit       0.011748
  943 Fit       0.009765
  944 Fit       0.007209
  945 Fit       0.004751
  946 Fit       0.004445
  947 Fit       0.010861
  948 Fit       0.015431
  949 Fit       0.014724
  950 Fit       0.012555
  951 Fit       0.010358
  952 Fit       0.008770
  953 Fit       0.012079
  954 Fit       0.004829
  955 Fit       0.006895
  956 Fit       0.009025
  957 Fit       0.007930
  958 Fit       0.012369
  959 Fit       0.011920
  960 Fit       0.010862
  961 Fit       0.009274
  962 Fit       0.015808
  963 Fit       0.014056
  964 Fit       0.012785
  965 Fit       0.011623
  966 Fit       0.010542
  967 Fit       0.019285
  968 Fit       0.015651
  969 Fit       0.013842
  970 Fit       0.012799
  971 Fit      -0.007979
  972 Fit      -0.004948
  973 Fit       0.005072
  974 Fit       0.000662
  975 Fit      -0.007876
  976 Fit       0.002892
  977 Fit      -0.003636
  978 Fit      -0.016638
  979 Fit       0.004618
  980 Fit      -0.001191
  981 Fit      -0.011320
  982 Fit      -0.006014
  983 Fit      -0.011216
  984 Fit       0.007594
  985 Fit      -0.012642
  986 Fit      -0.004715
  987 Fit       0.010042
  988 Fit       0.014200
  989 Fit       0.007160
  990 Fit      -0.001872
  991 Fit       0.003047
  992 Fit       0.025842
  993 Fit       0.025108
  994 Fit       0.025819
  995 Fit       0.027062
  996 Fit       0.027120
  997 Fit       0.024405
  998 Fit       0.026497
  999 Fit       0.026885
 1000 Fit       0.022777
 1001 Fit       0.024554
 1002 Fit      -0.008663
 1003 Fit       0.003930
 1004 Fit      -0.004550
 1005 Fit      -0.004048
 -----------------------------------------------------------------
 Leave Link  602 at Mon Feb 26 23:17:06 2018, MaxMem=   33554432 cpu:       0.5

 Test job not archived.
 1\1\GINC-NODE086\SP\RHF\6-31G(d)\C6H12N2O2\WULSDORT\26-Feb-2018\0\\#HF
 /6-31G* Geom=AllCheck Guess=Read Pop=(MK,ReadRadii) Integral=(Grid=Ult
 raFine) iop(6/33=2)\\Optimization for frag0-conf0\\0,1\C,0,0.325612487
 1,-1.4112593377,-0.0473244088\C,0,-2.397899395,0.465671858,1.553474745
 4\C,0,1.3676514748,-0.9110392562,-1.0369072399\C,0,-2.7977650503,-1.85
 2666743,0.5886957674\C,0,-3.8764107547,1.5736277583,3.1972975942\C,0,-
 1.7515331194,-0.8708635093,1.1530093138\N,0,-3.1488646392,0.4239896496
 ,2.6863846705\N,0,-0.7161890864,-0.5654443926,0.186297152\O,0,0.418225
 058,-2.5072996722,0.499491197\O,0,-2.2544069237,1.4782143719,0.8717667
 299\H,0,2.3425649897,-0.8864664197,-0.5400309491\H,0,1.4416983497,-1.6
 250233082,-1.8630721867\H,0,1.1480103086,0.0813726598,-1.4422626903\H,
 0,-3.3004106749,-1.4173014422,-0.2811874333\H,0,-2.2896008815,-2.77150
 73153,0.2861967193\H,0,-3.5565114115,-2.1048209347,1.3384924055\H,0,-3
 .5176260915,1.8569125442,4.1935564312\H,0,-4.9515251725,1.3674315083,3
 .2525973337\H,0,-3.7047906684,2.4009986404,2.5079852017\H,0,-1.2775160
 433,-1.3346979745,2.0276075054\H,0,-3.1883232972,-0.4425771537,3.20410
 83033\H,0,-0.7576755494,0.3679493341,-0.2063539154\\Version=AM64L-G09R
 evC.01\State=1-A\HF=-492.8560756\RMSD=9.317e-09\Dipole=-0.7953431,0.42
 33707,0.5950553\Quadrupole=2.6555281,-9.3900991,6.734571,5.210984,-6.6
 906561,1.2929634\PG=C01 [X(C6H12N2O2)]\\@


 Human beings, who are almost unique in having the
 ability to learn from the experience of others, are
 also remarkable for their apparent disinclination to do so.
                               -- Douglas Adams,
                                Last Chance to See
 Job cpu time:  0 days  0 hours  1 minutes 18.9 seconds.
 File lengths (MBytes):  RWF=     19 Int=      0 D2E=      0 Chk=      4 Scr=      1
 Normal termination of Gaussian 09 at Mon Feb 26 23:17:06 2018.
