 Entering Gaussian System, Link 0=g09
 Initial command:
 /home/fb_chem/chemsoft/lx24-amd64/Gaussian_09_C.01_NBO_3.1_64_istanbul-64/g09/l1.exe /local/2397380.1.parallel_long/Gau-26666.inp -scrdir=/local/2397380.1.parallel_long/
 Entering Link 1 = /home/fb_chem/chemsoft/lx24-amd64/Gaussian_09_C.01_NBO_3.1_64_istanbul-64/g09/l1.exe PID=     26667.
  
 Copyright (c) 1988,1990,1992,1993,1995,1998,2003,2009,2011,
            Gaussian, Inc.  All Rights Reserved.
  
 This is part of the Gaussian(R) 09 program.  It is based on
 the Gaussian(R) 03 system (copyright 2003, Gaussian, Inc.),
 the Gaussian(R) 98 system (copyright 1998, Gaussian, Inc.),
 the Gaussian(R) 94 system (copyright 1995, Gaussian, Inc.),
 the Gaussian 92(TM) system (copyright 1992, Gaussian, Inc.),
 the Gaussian 90(TM) system (copyright 1990, Gaussian, Inc.),
 the Gaussian 88(TM) system (copyright 1988, Gaussian, Inc.),
 the Gaussian 86(TM) system (copyright 1986, Carnegie Mellon
 University), and the Gaussian 82(TM) system (copyright 1983,
 Carnegie Mellon University). Gaussian is a federally registered
 trademark of Gaussian, Inc.
  
 This software contains proprietary and confidential information,
 including trade secrets, belonging to Gaussian, Inc.
  
 This software is provided under written license and may be
 used, copied, transmitted, or stored only in accord with that
 written license.
  
 The following legend is applicable only to US Government
 contracts under FAR:
  
                    RESTRICTED RIGHTS LEGEND
  
 Use, reproduction and disclosure by the US Government is
 subject to restrictions as set forth in subparagraphs (a)
 and (c) of the Commercial Computer Software - Restricted
 Rights clause in FAR 52.227-19.
  
 Gaussian, Inc.
 340 Quinnipiac St., Bldg. 40, Wallingford CT 06492
  
  
 ---------------------------------------------------------------
 Warning -- This program may not be used in any manner that
 competes with the business of Gaussian, Inc. or will provide
 assistance to any competitor of Gaussian, Inc.  The licensee
 of this program is prohibited from giving any competitor of
 Gaussian, Inc. access to this program.  By using this program,
 the user acknowledges that Gaussian, Inc. is engaged in the
 business of creating and licensing software in the field of
 computational chemistry and represents and warrants to the
 licensee that it is not a competitor of Gaussian, Inc. and that
 it will not use this program in any manner prohibited above.
 ---------------------------------------------------------------
  

 Cite this work as:
 Gaussian 09, Revision C.01,
 M. J. Frisch, G. W. Trucks, H. B. Schlegel, G. E. Scuseria, 
 M. A. Robb, J. R. Cheeseman, G. Scalmani, V. Barone, B. Mennucci, 
 G. A. Petersson, H. Nakatsuji, M. Caricato, X. Li, H. P. Hratchian, 
 A. F. Izmaylov, J. Bloino, G. Zheng, J. L. Sonnenberg, M. Hada, 
 M. Ehara, K. Toyota, R. Fukuda, J. Hasegawa, M. Ishida, T. Nakajima, 
 Y. Honda, O. Kitao, H. Nakai, T. Vreven, J. A. Montgomery, Jr., 
 J. E. Peralta, F. Ogliaro, M. Bearpark, J. J. Heyd, E. Brothers, 
 K. N. Kudin, V. N. Staroverov, T. Keith, R. Kobayashi, J. Normand, 
 K. Raghavachari, A. Rendell, J. C. Burant, S. S. Iyengar, J. Tomasi, 
 M. Cossi, N. Rega, J. M. Millam, M. Klene, J. E. Knox, J. B. Cross, 
 V. Bakken, C. Adamo, J. Jaramillo, R. Gomperts, R. E. Stratmann, 
 O. Yazyev, A. J. Austin, R. Cammi, C. Pomelli, J. W. Ochterski, 
 R. L. Martin, K. Morokuma, V. G. Zakrzewski, G. A. Voth, 
 P. Salvador, J. J. Dannenberg, S. Dapprich, A. D. Daniels, 
 O. Farkas, J. B. Foresman, J. V. Ortiz, J. Cioslowski, 
 and D. J. Fox, Gaussian, Inc., Wallingford CT, 2010.
 
 ******************************************
 Gaussian 09:  AM64L-G09RevC.01 23-Sep-2011
                16-Feb-2018 
 ******************************************
 %nprocs=4
 Will use up to    4 processors via shared memory.
 %chk=frag30-conf1.chk
 ---------------------------------------------------------
 #B3LYP/6-31G* Integral=(Grid=UltraFine) freq Opt pop=none
 ---------------------------------------------------------
 1/14=-1,18=20,19=15,26=3,38=1/1,3;
 2/9=110,12=2,17=6,18=5,40=1/2;
 3/5=1,6=6,7=1,11=2,16=1,25=1,30=1,71=1,74=-5,75=-5/1,2,3;
 4//1;
 5/5=2,38=5/2;
 7//1,2,3,16;
 1/14=-1,18=20,19=15/3(2);
 2/9=110/2;
 99//99;
 2/9=110/2;
 3/5=1,6=6,7=1,11=2,16=1,25=1,30=1,71=1,74=-5,75=-5/1,2,3;
 4/5=5,16=3/1;
 5/5=2,38=5/2;
 7//1,2,3,16;
 1/14=-1,18=20,19=15/3(-5);
 2/9=110/2;
 99/9=1/99;
 -----------------------------
 Optimization for frag30-conf1
 -----------------------------
 Charge =  0 Multiplicity = 1
 Symbolic Z-Matrix:
 C                    -1.42865  -3.21257   5.8809 
 C                    -1.68076  -3.98656   4.75472 
 C                    -0.85437  -1.95306   5.7328 
 C                    -1.34752  -3.46986   3.51541 
 C                    -0.54607  -1.49934   4.45311 
 C                     0.88559   1.36724   2.48308 
 C                     1.07214   1.4865    0.99542 
 C                     0.07974  -0.13022   4.27968 
 N                    -0.78791  -2.2488    3.33749 
 N                     0.32987   0.18501   2.88587 
 O                     1.23148   2.2499    3.26608 
 H                    -1.67812  -3.58795   6.87109 
 H                    -2.12768  -4.97218   4.84066 
 H                    -0.65193  -1.33763   6.60546 
 H                    -1.52847  -4.04369   2.60916 
 H                     0.32742   0.89496   0.45546 
 H                     0.963     2.53352   0.69959 
 H                     2.07251   1.13424   0.73053 
 H                    -0.58599   0.63951   4.6855 
 H                     1.03612  -0.08638   4.81239 
 H                     0.0722   -0.52725   2.2059 
 

 GradGradGradGradGradGradGradGradGradGradGradGradGradGradGradGradGradGrad
 Berny optimization.
 Initialization pass.
                           ----------------------------
                           !    Initial Parameters    !
                           ! (Angstroms and Degrees)  !
 --------------------------                            --------------------------
 ! Name  Definition              Value          Derivative Info.                !
 --------------------------------------------------------------------------------
 ! R1    R(1,2)                  1.3896         estimate D2E/DX2                !
 ! R2    R(1,3)                  1.3922         estimate D2E/DX2                !
 ! R3    R(1,12)                 1.0879         estimate D2E/DX2                !
 ! R4    R(2,4)                  1.3834         estimate D2E/DX2                !
 ! R5    R(2,13)                 1.0856         estimate D2E/DX2                !
 ! R6    R(3,5)                  1.3923         estimate D2E/DX2                !
 ! R7    R(3,14)                 1.0869         estimate D2E/DX2                !
 ! R8    R(4,9)                  1.3549         estimate D2E/DX2                !
 ! R9    R(4,15)                 1.0878         estimate D2E/DX2                !
 ! R10   R(5,8)                  1.5153         estimate D2E/DX2                !
 ! R11   R(5,9)                  1.3656         estimate D2E/DX2                !
 ! R12   R(6,7)                  1.504          estimate D2E/DX2                !
 ! R13   R(6,10)                 1.367          estimate D2E/DX2                !
 ! R14   R(6,11)                 1.2296         estimate D2E/DX2                !
 ! R15   R(7,16)                 1.0937         estimate D2E/DX2                !
 ! R16   R(7,17)                 1.0935         estimate D2E/DX2                !
 ! R17   R(7,18)                 1.0932         estimate D2E/DX2                !
 ! R18   R(8,10)                 1.4507         estimate D2E/DX2                !
 ! R19   R(8,19)                 1.0956         estimate D2E/DX2                !
 ! R20   R(8,20)                 1.0956         estimate D2E/DX2                !
 ! R21   R(10,21)                1.0179         estimate D2E/DX2                !
 ! A1    A(2,1,3)              119.5087         estimate D2E/DX2                !
 ! A2    A(2,1,12)             120.2546         estimate D2E/DX2                !
 ! A3    A(3,1,12)             120.2367         estimate D2E/DX2                !
 ! A4    A(1,2,4)              118.3121         estimate D2E/DX2                !
 ! A5    A(1,2,13)             121.0792         estimate D2E/DX2                !
 ! A6    A(4,2,13)             120.6086         estimate D2E/DX2                !
 ! A7    A(1,3,5)              118.9433         estimate D2E/DX2                !
 ! A8    A(1,3,14)             120.2463         estimate D2E/DX2                !
 ! A9    A(5,3,14)             120.8104         estimate D2E/DX2                !
 ! A10   A(2,4,9)              123.6223         estimate D2E/DX2                !
 ! A11   A(2,4,15)             120.6114         estimate D2E/DX2                !
 ! A12   A(9,4,15)             115.7663         estimate D2E/DX2                !
 ! A13   A(3,5,8)              119.4113         estimate D2E/DX2                !
 ! A14   A(3,5,9)              122.1962         estimate D2E/DX2                !
 ! A15   A(8,5,9)              118.3924         estimate D2E/DX2                !
 ! A16   A(7,6,10)             114.2321         estimate D2E/DX2                !
 ! A17   A(7,6,11)             122.5522         estimate D2E/DX2                !
 ! A18   A(10,6,11)            123.1988         estimate D2E/DX2                !
 ! A19   A(6,7,16)             111.1613         estimate D2E/DX2                !
 ! A20   A(6,7,17)             109.3381         estimate D2E/DX2                !
 ! A21   A(6,7,18)             109.1253         estimate D2E/DX2                !
 ! A22   A(16,7,17)            108.4431         estimate D2E/DX2                !
 ! A23   A(16,7,18)            109.2213         estimate D2E/DX2                !
 ! A24   A(17,7,18)            109.5317         estimate D2E/DX2                !
 ! A25   A(5,8,10)             112.1782         estimate D2E/DX2                !
 ! A26   A(5,8,19)             109.9641         estimate D2E/DX2                !
 ! A27   A(5,8,20)             109.9381         estimate D2E/DX2                !
 ! A28   A(10,8,19)            107.9379         estimate D2E/DX2                !
 ! A29   A(10,8,20)            107.9352         estimate D2E/DX2                !
 ! A30   A(19,8,20)            108.796          estimate D2E/DX2                !
 ! A31   A(4,9,5)              117.4173         estimate D2E/DX2                !
 ! A32   A(6,10,8)             122.7582         estimate D2E/DX2                !
 ! A33   A(6,10,21)            120.7461         estimate D2E/DX2                !
 ! A34   A(8,10,21)            116.4953         estimate D2E/DX2                !
 ! D1    D(3,1,2,4)              0.0023         estimate D2E/DX2                !
 ! D2    D(3,1,2,13)           179.9998         estimate D2E/DX2                !
 ! D3    D(12,1,2,4)          -179.9958         estimate D2E/DX2                !
 ! D4    D(12,1,2,13)            0.0017         estimate D2E/DX2                !
 ! D5    D(2,1,3,5)              0.0055         estimate D2E/DX2                !
 ! D6    D(2,1,3,14)          -179.9948         estimate D2E/DX2                !
 ! D7    D(12,1,3,5)          -179.9964         estimate D2E/DX2                !
 ! D8    D(12,1,3,14)            0.0033         estimate D2E/DX2                !
 ! D9    D(1,2,4,9)             -0.0015         estimate D2E/DX2                !
 ! D10   D(1,2,4,15)           179.997          estimate D2E/DX2                !
 ! D11   D(13,2,4,9)          -179.999          estimate D2E/DX2                !
 ! D12   D(13,2,4,15)           -0.0005         estimate D2E/DX2                !
 ! D13   D(1,3,5,8)           -179.9793         estimate D2E/DX2                !
 ! D14   D(1,3,5,9)             -0.0149         estimate D2E/DX2                !
 ! D15   D(14,3,5,8)             0.0211         estimate D2E/DX2                !
 ! D16   D(14,3,5,9)           179.9854         estimate D2E/DX2                !
 ! D17   D(2,4,9,5)             -0.0072         estimate D2E/DX2                !
 ! D18   D(15,4,9,5)           179.9942         estimate D2E/DX2                !
 ! D19   D(3,5,8,10)          -179.7774         estimate D2E/DX2                !
 ! D20   D(3,5,8,19)           -59.6489         estimate D2E/DX2                !
 ! D21   D(3,5,8,20)            60.1151         estimate D2E/DX2                !
 ! D22   D(9,5,8,10)             0.2569         estimate D2E/DX2                !
 ! D23   D(9,5,8,19)           120.3854         estimate D2E/DX2                !
 ! D24   D(9,5,8,20)          -119.8505         estimate D2E/DX2                !
 ! D25   D(3,5,9,4)              0.0155         estimate D2E/DX2                !
 ! D26   D(8,5,9,4)            179.9802         estimate D2E/DX2                !
 ! D27   D(10,6,7,16)           28.5102         estimate D2E/DX2                !
 ! D28   D(10,6,7,17)          148.2044         estimate D2E/DX2                !
 ! D29   D(10,6,7,18)          -92.0126         estimate D2E/DX2                !
 ! D30   D(11,6,7,16)         -152.9395         estimate D2E/DX2                !
 ! D31   D(11,6,7,17)          -33.2453         estimate D2E/DX2                !
 ! D32   D(11,6,7,18)           86.5377         estimate D2E/DX2                !
 ! D33   D(7,6,10,8)           179.3979         estimate D2E/DX2                !
 ! D34   D(7,6,10,21)           -0.3634         estimate D2E/DX2                !
 ! D35   D(11,6,10,8)            0.8582         estimate D2E/DX2                !
 ! D36   D(11,6,10,21)        -178.9031         estimate D2E/DX2                !
 ! D37   D(5,8,10,6)           179.796          estimate D2E/DX2                !
 ! D38   D(5,8,10,21)           -0.4332         estimate D2E/DX2                !
 ! D39   D(19,8,10,6)           58.4963         estimate D2E/DX2                !
 ! D40   D(19,8,10,21)        -121.7329         estimate D2E/DX2                !
 ! D41   D(20,8,10,6)          -58.9386         estimate D2E/DX2                !
 ! D42   D(20,8,10,21)         120.8323         estimate D2E/DX2                !
 --------------------------------------------------------------------------------
 Trust Radius=3.00D-01 FncErr=1.00D-07 GrdErr=1.00D-06
 Number of steps in this run=    107 maximum allowed number of steps=    126.
 GradGradGradGradGradGradGradGradGradGradGradGradGradGradGradGradGradGrad

                          Input orientation:                          
 ---------------------------------------------------------------------
 Center     Atomic      Atomic             Coordinates (Angstroms)
 Number     Number       Type             X           Y           Z
 ---------------------------------------------------------------------
      1          6           0       -1.428655   -3.212571    5.880898
      2          6           0       -1.680764   -3.986564    4.754717
      3          6           0       -0.854374   -1.953060    5.732801
      4          6           0       -1.347518   -3.469859    3.515413
      5          6           0       -0.546073   -1.499342    4.453108
      6          6           0        0.885588    1.367244    2.483077
      7          6           0        1.072142    1.486497    0.995424
      8          6           0        0.079740   -0.130216    4.279676
      9          7           0       -0.787905   -2.248800    3.337492
     10          7           0        0.329875    0.185007    2.885872
     11          8           0        1.231482    2.249898    3.266081
     12          1           0       -1.678121   -3.587952    6.871085
     13          1           0       -2.127678   -4.972182    4.840662
     14          1           0       -0.651930   -1.337628    6.605455
     15          1           0       -1.528468   -4.043693    2.609156
     16          1           0        0.327423    0.894956    0.455464
     17          1           0        0.962999    2.533516    0.699586
     18          1           0        2.072509    1.134244    0.730534
     19          1           0       -0.585988    0.639514    4.685502
     20          1           0        1.036119   -0.086381    4.812387
     21          1           0        0.072202   -0.527254    2.205897
 ---------------------------------------------------------------------
                    Distance matrix (angstroms):
                    1          2          3          4          5
     1  C    0.000000
     2  C    1.389571   0.000000
     3  C    1.392156   2.403061   0.000000
     4  C    2.380819   1.383442   2.731424   0.000000
     5  C    2.398476   2.750412   1.392309   2.324763   0.000000
     6  C    6.154317   6.356868   4.961108   5.426790   3.761381
     7  C    7.225169   7.187848   6.163177   6.063873   4.846589
     8  C    3.786830   4.265730   2.511355   3.711385   1.515330
     9  N    2.794339   2.413617   2.414412   1.354920   1.365566
    10  N    4.858615   4.993721   3.752170   4.070383   2.461817
    11  O    6.614542   7.042064   5.300977   6.279254   4.315731
    12  H    1.087941   2.153581   2.155718   3.373986   3.389755
    13  H    2.160314   1.085616   3.395926   2.149862   3.835661
    14  H    2.154924   3.391252   1.086861   3.818195   2.161008
    15  H    3.377132   2.151718   3.818678   1.087809   3.292261
    16  H    7.027867   6.807762   6.112129   5.587515   4.740972
    17  H    8.098366   8.120654   6.983228   7.021958   5.712283
    18  H    7.594682   7.516899   6.566640   6.375727   5.258356
    19  H    4.120391   4.754358   2.808969   4.340044   2.151814
    20  H    4.121879   4.753546   2.811693   4.337256   2.151481
    21  H    4.792612   4.640710   3.915420   3.519852   2.525307
                    6          7          8          9         10
     6  C    0.000000
     7  C    1.504039   0.000000
     8  C    2.473772   3.792747   0.000000
     9  N    4.075092   4.785133   2.475665   0.000000
    10  N    1.367021   2.412183   1.450732   2.716028   0.000000
    11  O    1.229559   2.400844   2.831753   4.931664   2.285001
    12  H    7.097971   8.236344   4.664913   3.882280   5.843731
    13  H    7.404478   8.169408   5.350891   3.386934   6.037994
    14  H    5.164717   6.513106   2.720741   3.395337   4.137349
    15  H    5.926364   6.320625   4.548875   2.073776   4.627300
    16  H    2.155415   1.093656   3.966978   4.408315   2.531978
    17  H    2.132375   1.093473   4.548919   5.735396   3.270503
    18  H    2.129431   1.093153   4.262205   5.140349   2.929728
    19  H    2.746962   4.133212   1.095615   3.193784   2.069794
    20  H    2.749795   4.128492   1.095611   3.190366   2.069757
    21  H    2.080276   2.553491   2.111458   2.232490   1.017878
                   11         12         13         14         15
    11  O    0.000000
    12  H    7.452673   0.000000
    13  H    8.119218   2.498162   0.000000
    14  H    5.250619   2.487486   4.301432   0.000000
    15  H    6.903489   4.288838   2.490133   4.905254   0.000000
    16  H    3.248500   8.079534   7.725334   6.615584   5.698506
    17  H    2.596039   9.084894   9.112426   7.243828   7.287904
    18  H    2.894997   8.606551   8.474855   6.931624   6.580827
    19  H    2.812701   4.882725   5.821685   2.756748   5.208829
    20  H    2.808457   4.885318   5.820779   2.762285   5.204964
    21  H    3.190688   5.847690   5.615945   4.531797   3.884598
                   16         17         18         19         20
    16  H    0.000000
    17  H    1.774382   0.000000
    18  H    1.782764   1.786039   0.000000
    19  H    4.335065   4.676979   4.791047   0.000000
    20  H    4.521952   4.876920   4.384696   1.781643   0.000000
    21  H    2.269765   3.525736   2.989733   2.818333   2.813769
                   21
    21  H    0.000000
 Stoichiometry    C8H10N2O
 Framework group  C1[X(C8H10N2O)]
 Deg. of freedom    57
 Full point group                 C1      NOp   1
 Largest Abelian subgroup         C1      NOp   1
 Largest concise Abelian subgroup C1      NOp   1
                         Standard orientation:                         
 ---------------------------------------------------------------------
 Center     Atomic      Atomic             Coordinates (Angstroms)
 Number     Number       Type             X           Y           Z
 ---------------------------------------------------------------------
      1          6           0        3.281803   -0.776869   -0.000643
      2          6           0        3.492930    0.596568    0.000567
      3          6           0        1.980116   -1.270541   -0.000917
      4          6           0        2.388811    1.430133    0.001514
      5          6           0        0.918046   -0.370248   -0.000084
      6          6           0       -2.830252   -0.056918   -0.008962
      7          6           0       -3.670330    1.190597    0.001512
      8          6           0       -0.503153   -0.896007    0.000106
      9          7           0        1.110242    0.981724    0.001296
     10          7           0       -1.482872    0.173925   -0.004216
     11          8           0       -3.320160   -1.184570    0.005456
     12          1           0        4.127366   -1.461440   -0.001340
     13          1           0        4.497065    1.009213    0.000811
     14          1           0        1.801167   -2.342569   -0.001775
     15          1           0        2.510821    2.511078    0.002523
     16          1           0       -3.146544    2.023313   -0.476310
     17          1           0       -4.598960    1.006402   -0.545663
     18          1           0       -3.902392    1.457443    1.035884
     19          1           0       -0.673749   -1.513340   -0.888809
     20          1           0       -0.675206   -1.507410    0.892824
     21          1           0       -1.117707    1.124037    0.000090
 ---------------------------------------------------------------------
 Rotational constants (GHZ):      3.3415006      0.5125809      0.4469335
 Standard basis: 6-31G(d) (6D, 7F)
 There are   185 symmetry adapted basis functions of A   symmetry.
 Integral buffers will be    131072 words long.
 Raffenetti 2 integral format.
 Two-electron integral symmetry is turned on.
   185 basis functions,   348 primitive gaussians,   185 cartesian basis functions
    40 alpha electrons       40 beta electrons
       nuclear repulsion energy       564.2696795571 Hartrees.
 NAtoms=   21 NActive=   21 NUniq=   21 SFac= 1.00D+00 NAtFMM=   60 NAOKFM=F Big=F
 One-electron integrals computed using PRISM.
 NBasis=   185 RedAO= T  NBF=   185
 NBsUse=   185 1.00D-06 NBFU=   185
 Harris functional with IExCor=  402 diagonalized for initial guess.
 ExpMin= 1.61D-01 ExpMax= 5.48D+03 ExpMxC= 8.25D+02 IAcc=3 IRadAn=         5 AccDes= 0.00D+00
 HarFok:  IExCor=  402 AccDes= 0.00D+00 IRadAn=         5 IDoV= 1
 ScaDFX=  1.000000  1.000000  1.000000  1.000000
 FoFCou: FMM=F IPFlag=           0 FMFlag=      100000 FMFlg1=           0
         NFxFlg=           0 DoJE=T BraDBF=F KetDBF=T FulRan=T
         Omega=  0.000000  0.000000  1.000000  0.000000  0.000000 ICntrl=     500 IOpCl=  0
         NMat0=    1 NMatS0=    1 NMatT0=    0 NMatD0=    1 NMtDS0=    0 NMtDT0=    0
         I1Cent=           4 NGrid=           0.
 Petite list used in FoFCou.
 Initial guess orbital symmetries:
       Occupied  (A) (A) (A) (A) (A) (A) (A) (A) (A) (A) (A) (A)
                 (A) (A) (A) (A) (A) (A) (A) (A) (A) (A) (A) (A)
                 (A) (A) (A) (A) (A) (A) (A) (A) (A) (A) (A) (A)
                 (A) (A) (A) (A)
       Virtual   (A) (A) (A) (A) (A) (A) (A) (A) (A) (A) (A) (A)
                 (A) (A) (A) (A) (A) (A) (A) (A) (A) (A) (A) (A)
                 (A) (A) (A) (A) (A) (A) (A) (A) (A) (A) (A) (A)
                 (A) (A) (A) (A) (A) (A) (A) (A) (A) (A) (A) (A)
                 (A) (A) (A) (A) (A) (A) (A) (A) (A) (A) (A) (A)
                 (A) (A) (A) (A) (A) (A) (A) (A) (A) (A) (A) (A)
                 (A) (A) (A) (A) (A) (A) (A) (A) (A) (A) (A) (A)
                 (A) (A) (A) (A) (A) (A) (A) (A) (A) (A) (A) (A)
                 (A) (A) (A) (A) (A) (A) (A) (A) (A) (A) (A) (A)
                 (A) (A) (A) (A) (A) (A) (A) (A) (A) (A) (A) (A)
                 (A) (A) (A) (A) (A) (A) (A) (A) (A) (A) (A) (A)
                 (A) (A) (A) (A) (A) (A) (A) (A) (A) (A) (A) (A)
                 (A)
 The electronic state of the initial guess is 1-A.
 Requested convergence on RMS density matrix=1.00D-08 within 128 cycles.
 Requested convergence on MAX density matrix=1.00D-06.
 Requested convergence on             energy=1.00D-06.
 No special actions if energy rises.
 Integral accuracy reduced to 1.0D-05 until final iterations.
 Initial convergence to 1.0D-05 achieved.  Increase integral accuracy.
 SCF Done:  E(RB3LYP) =  -495.615247393     A.U. after   15 cycles
             Convg  =    0.4360D-08             -V/T =  2.0096
 Calling FoFJK, ICntrl=      2127 FMM=F ISym2X=0 I1Cent= 0 IOpClX= 0 NMat=1 NMatS=1 NMatT=0.
 ***** Axes restored to original set *****
 -------------------------------------------------------------------
 Center     Atomic                   Forces (Hartrees/Bohr)
 Number     Number              X              Y              Z
 -------------------------------------------------------------------
      1        6           0.000216842    0.001641133    0.006365734
      2        6          -0.002380787   -0.004818624    0.002747045
      3        6          -0.002365609   -0.004408229    0.004566998
      4        6           0.007476384    0.015251928   -0.007974793
      5        6          -0.002643383   -0.009654477   -0.020003358
      6        6          -0.000852312   -0.000237509    0.011526374
      7        6          -0.003938508    0.001319752   -0.006785348
      8        6           0.002810467    0.002002762   -0.012243140
      9        7          -0.000648205    0.001939289    0.018089471
     10        7          -0.001904276   -0.003635021   -0.005920109
     11        8          -0.002504308   -0.004488577    0.000612270
     12        1           0.000316048    0.000624176   -0.000469642
     13        1          -0.000040365   -0.000164504   -0.000443999
     14        1           0.000481236    0.000936011   -0.000855627
     15        1           0.000337224    0.000608083   -0.000753660
     16        1           0.001404715   -0.001350957   -0.003028485
     17        1           0.002675714   -0.000729959    0.000617781
     18        1           0.001413428    0.000797665   -0.002754402
     19        1           0.001430202    0.000510114    0.005867338
     20        1          -0.001332225    0.001685198    0.006002775
     21        1           0.000047719    0.002171746    0.004836777
 -------------------------------------------------------------------
 Cartesian Forces:  Max     0.020003358 RMS     0.005473519

 GradGradGradGradGradGradGradGradGradGradGradGradGradGradGradGradGradGrad
 Berny optimization.
 Internal  Forces:  Max     0.021486255 RMS     0.003890429
 Search for a local minimum.
 Step number   1 out of a maximum of  107
 All quantities printed in internal units (Hartrees-Bohrs-Radians)
 Mixed Optimization -- RFO/linear search
 Second derivative matrix not updated -- first step.
 ITU=  0
     Eigenvalues ---    0.00563   0.00713   0.01021   0.01285   0.01451
     Eigenvalues ---    0.01485   0.02128   0.02181   0.02192   0.02210
     Eigenvalues ---    0.02214   0.02264   0.02279   0.02302   0.05142
     Eigenvalues ---    0.06578   0.07328   0.07524   0.09933   0.13229
     Eigenvalues ---    0.16000   0.16000   0.16000   0.16000   0.16000
     Eigenvalues ---    0.16000   0.16000   0.16000   0.22000   0.22000
     Eigenvalues ---    0.22056   0.22416   0.24412   0.24992   0.25000
     Eigenvalues ---    0.25000   0.30821   0.31957   0.34172   0.34172
     Eigenvalues ---    0.34394   0.34414   0.34451   0.35052   0.35067
     Eigenvalues ---    0.35178   0.35324   0.38149   0.43250   0.44566
     Eigenvalues ---    0.44678   0.47096   0.47974   0.50786   0.51553
     Eigenvalues ---    0.52939   0.91270
 RFO step:  Lambda=-4.65948842D-03 EMin= 5.63155476D-03
 Linear search not attempted -- first point.
 Iteration  1 RMS(Cart)=  0.04708135 RMS(Int)=  0.00053890
 Iteration  2 RMS(Cart)=  0.00084124 RMS(Int)=  0.00013144
 Iteration  3 RMS(Cart)=  0.00000056 RMS(Int)=  0.00013144
 Variable       Old X    -DE/DX   Delta X   Delta X   Delta X     New X
                                 (Linear)    (Quad)   (Total)
    R1        2.62591   0.00407   0.00000   0.01062   0.01063   2.63654
    R2        2.63079  -0.00110   0.00000  -0.00075  -0.00073   2.63007
    R3        2.05591  -0.00072   0.00000  -0.00201  -0.00201   2.05390
    R4        2.61433   0.00791   0.00000   0.01665   0.01664   2.63096
    R5        2.05152   0.00013   0.00000   0.00037   0.00037   2.05188
    R6        2.63108   0.00597   0.00000   0.01197   0.01198   2.64306
    R7        2.05387  -0.00007   0.00000  -0.00019  -0.00019   2.05368
    R8        2.56043  -0.01331   0.00000  -0.02577  -0.02579   2.53464
    R9        2.05566   0.00025   0.00000   0.00071   0.00071   2.05637
   R10        2.86356  -0.00193   0.00000  -0.00617  -0.00617   2.85739
   R11        2.58055  -0.02149   0.00000  -0.04302  -0.04303   2.53752
   R12        2.84222   0.01202   0.00000   0.03706   0.03706   2.87928
   R13        2.58329  -0.00484   0.00000  -0.00931  -0.00931   2.57398
   R14        2.32353  -0.00354   0.00000  -0.00386  -0.00386   2.31968
   R15        2.06671   0.00127   0.00000   0.00364   0.00364   2.07035
   R16        2.06636  -0.00113   0.00000  -0.00325  -0.00325   2.06312
   R17        2.06576   0.00170   0.00000   0.00488   0.00488   2.07064
   R18        2.74149  -0.00111   0.00000  -0.00287  -0.00287   2.73862
   R19        2.07041   0.00166   0.00000   0.00480   0.00480   2.07521
   R20        2.07040   0.00182   0.00000   0.00526   0.00526   2.07567
   R21        1.92351  -0.00476   0.00000  -0.01055  -0.01055   1.91296
    A1        2.08582  -0.00503   0.00000  -0.01353  -0.01350   2.07232
    A2        2.09884   0.00297   0.00000   0.00954   0.00953   2.10837
    A3        2.09853   0.00206   0.00000   0.00398   0.00397   2.10250
    A4        2.06494  -0.00210   0.00000  -0.00261  -0.00261   2.06233
    A5        2.11323   0.00152   0.00000   0.00415   0.00415   2.11738
    A6        2.10502   0.00058   0.00000  -0.00154  -0.00154   2.10348
    A7        2.07595  -0.00071   0.00000  -0.00017  -0.00013   2.07582
    A8        2.09869   0.00175   0.00000   0.00853   0.00852   2.10721
    A9        2.10854  -0.00104   0.00000  -0.00836  -0.00838   2.10016
   A10        2.15762   0.00094   0.00000   0.00295   0.00292   2.16054
   A11        2.10507   0.00055   0.00000   0.00473   0.00475   2.10981
   A12        2.02050  -0.00149   0.00000  -0.00768  -0.00767   2.01283
   A13        2.08412   0.00406   0.00000   0.01809   0.01809   2.10221
   A14        2.13273   0.00339   0.00000   0.00898   0.00899   2.14171
   A15        2.06634  -0.00745   0.00000  -0.02707  -0.02708   2.03926
   A16        1.99373   0.00516   0.00000   0.02023   0.02023   2.01396
   A17        2.13894   0.00178   0.00000   0.00695   0.00695   2.14589
   A18        2.15023  -0.00694   0.00000  -0.02730  -0.02730   2.12293
   A19        1.94013   0.00427   0.00000   0.03111   0.03092   1.97105
   A20        1.90831  -0.00117   0.00000  -0.00794  -0.00803   1.90028
   A21        1.90460   0.00237   0.00000   0.01012   0.00998   1.91458
   A22        1.89269   0.00007   0.00000   0.00885   0.00871   1.90140
   A23        1.90627  -0.00303   0.00000  -0.01657  -0.01679   1.88948
   A24        1.91169  -0.00262   0.00000  -0.02648  -0.02650   1.88518
   A25        1.95788  -0.00875   0.00000  -0.03193  -0.03162   1.92626
   A26        1.91924   0.00110   0.00000  -0.00338  -0.00312   1.91611
   A27        1.91878   0.00093   0.00000  -0.00353  -0.00325   1.91553
   A28        1.88387   0.00543   0.00000   0.03887   0.03868   1.92255
   A29        1.88383   0.00581   0.00000   0.04279   0.04262   1.92644
   A30        1.89885  -0.00435   0.00000  -0.04234  -0.04310   1.85575
   A31        2.04932   0.00351   0.00000   0.00437   0.00433   2.05365
   A32        2.14254  -0.00434   0.00000  -0.01934  -0.01935   2.12319
   A33        2.10742   0.00437   0.00000   0.02299   0.02298   2.13040
   A34        2.03323  -0.00003   0.00000  -0.00368  -0.00369   2.02953
    D1        0.00004   0.00000   0.00000   0.00002   0.00002   0.00006
    D2        3.14159   0.00000   0.00000   0.00007   0.00007  -3.14153
    D3       -3.14152   0.00000   0.00000  -0.00007  -0.00007  -3.14159
    D4        0.00003   0.00000   0.00000  -0.00002  -0.00002   0.00001
    D5        0.00010   0.00000   0.00000  -0.00010  -0.00010   0.00000
    D6       -3.14150   0.00000   0.00000  -0.00010  -0.00010   3.14158
    D7       -3.14153   0.00000   0.00000  -0.00001  -0.00001  -3.14154
    D8        0.00006   0.00000   0.00000  -0.00001  -0.00001   0.00005
    D9       -0.00003   0.00000   0.00000  -0.00007  -0.00007  -0.00010
   D10        3.14154   0.00000   0.00000  -0.00001  -0.00001   3.14153
   D11       -3.14158   0.00000   0.00000  -0.00012  -0.00012   3.14149
   D12       -0.00001   0.00000   0.00000  -0.00006  -0.00006  -0.00006
   D13       -3.14123   0.00000   0.00000   0.00008   0.00008  -3.14115
   D14       -0.00026   0.00001   0.00000   0.00023   0.00023  -0.00003
   D15        0.00037   0.00000   0.00000   0.00009   0.00009   0.00045
   D16        3.14134   0.00000   0.00000   0.00024   0.00024   3.14157
   D17       -0.00013   0.00001   0.00000   0.00020   0.00020   0.00007
   D18        3.14149   0.00000   0.00000   0.00014   0.00014  -3.14156
   D19       -3.13771   0.00013   0.00000   0.00257   0.00257  -3.13514
   D20       -1.04107   0.00200   0.00000   0.02843   0.02840  -1.01267
   D21        1.04921  -0.00210   0.00000  -0.02815  -0.02812   1.02109
   D22        0.00448   0.00013   0.00000   0.00241   0.00241   0.00689
   D23        2.10112   0.00199   0.00000   0.02827   0.02825   2.12937
   D24       -2.09179  -0.00210   0.00000  -0.02831  -0.02828  -2.12006
   D25        0.00027  -0.00001   0.00000  -0.00028  -0.00028  -0.00001
   D26        3.14125   0.00000   0.00000  -0.00012  -0.00012   3.14113
   D27        0.49760  -0.00050   0.00000  -0.00885  -0.00879   0.48880
   D28        2.58665   0.00151   0.00000   0.01644   0.01651   2.60316
   D29       -1.60592  -0.00097   0.00000  -0.01447  -0.01453  -1.62046
   D30       -2.66930  -0.00064   0.00000  -0.01401  -0.01399  -2.68329
   D31       -0.58024   0.00136   0.00000   0.01128   0.01131  -0.56893
   D32        1.51037  -0.00111   0.00000  -0.01964  -0.01973   1.49064
   D33        3.13108  -0.00066   0.00000  -0.02858  -0.02859   3.10249
   D34       -0.00634  -0.00048   0.00000  -0.02010  -0.02004  -0.02638
   D35        0.01498  -0.00066   0.00000  -0.02395  -0.02402  -0.00904
   D36       -3.12245  -0.00049   0.00000  -0.01547  -0.01546  -3.13791
   D37        3.13803   0.00007   0.00000   0.00361   0.00359  -3.14156
   D38       -0.00756  -0.00009   0.00000  -0.00447  -0.00444  -0.01200
   D39        1.02095   0.00052   0.00000   0.00164   0.00201   1.02296
   D40       -2.12464   0.00037   0.00000  -0.00644  -0.00601  -2.13065
   D41       -1.02867  -0.00034   0.00000   0.00803   0.00760  -1.02107
   D42        2.10892  -0.00050   0.00000  -0.00005  -0.00042   2.10850
         Item               Value     Threshold  Converged?
 Maximum Force            0.021486     0.000450     NO 
 RMS     Force            0.003890     0.000300     NO 
 Maximum Displacement     0.183442     0.001800     NO 
 RMS     Displacement     0.046824     0.001200     NO 
 Predicted change in Energy=-2.384568D-03
 GradGradGradGradGradGradGradGradGradGradGradGradGradGradGradGradGradGrad

                          Input orientation:                          
 ---------------------------------------------------------------------
 Center     Atomic      Atomic             Coordinates (Angstroms)
 Number     Number       Type             X           Y           Z
 ---------------------------------------------------------------------
      1          6           0       -1.423132   -3.221706    5.883118
      2          6           0       -1.669128   -3.965596    4.728698
      3          6           0       -0.850431   -1.959566    5.756446
      4          6           0       -1.327570   -3.405372    3.500759
      5          6           0       -0.541944   -1.481575    4.478722
      6          6           0        0.852667    1.332434    2.475071
      7          6           0        1.066106    1.451259    0.971132
      8          6           0        0.081546   -0.115481    4.301543
      9          7           0       -0.775331   -2.190883    3.362696
     10          7           0        0.299821    0.160818    2.895758
     11          8           0        1.181936    2.210129    3.267559
     12          1           0       -1.672914   -3.617560    6.864039
     13          1           0       -2.114328   -4.954670    4.778822
     14          1           0       -0.644818   -1.352352    6.633978
     15          1           0       -1.499917   -3.946619    2.572594
     16          1           0        0.352263    0.856755    0.390363
     17          1           0        0.971350    2.499942    0.682669
     18          1           0        2.078310    1.119343    0.714401
     19          1           0       -0.570991    0.650759    4.740878
     20          1           0        1.030296   -0.066133    4.852826
     21          1           0        0.028815   -0.568557    2.248216
 ---------------------------------------------------------------------
                    Distance matrix (angstroms):
                    1          2          3          4          5
     1  C    0.000000
     2  C    1.395196   0.000000
     3  C    1.391772   2.398059   0.000000
     4  C    2.391339   1.392246   2.721423   0.000000
     5  C    2.403513   2.739233   1.398649   2.296653   0.000000
     6  C    6.126519   6.285492   4.950276   5.315287   3.725346
     7  C    7.222224   7.137446   6.181106   5.976250   4.846703
     8  C    3.796586   4.250965   2.527048   3.667458   1.512066
     9  N    2.799065   2.411315   2.406072   1.341273   1.342796
    10  N    4.830565   4.925823   3.742011   3.966377   2.431419
    11  O    6.567523   6.957232   5.264165   6.155149   4.250571
    12  H    1.086875   2.163521   2.156892   3.387615   3.395771
    13  H    2.168038   1.085810   3.394677   2.157025   3.824244
    14  H    2.159640   3.392396   1.086761   3.807638   2.161576
    15  H    3.389833   2.162817   3.808822   1.088183   3.259982
    16  H    7.067972   6.794281   6.178429   5.537340   4.793962
    17  H    8.094163   8.071287   6.996379   6.935374   5.705485
    18  H    7.603975   7.484283   6.593893   6.311645   5.272629
    19  H    4.126360   4.745186   2.814829   4.308423   2.148585
    20  H    4.127765   4.744271   2.817579   4.305593   2.148340
    21  H    4.728621   4.536042   3.875004   3.384696   2.476797
                    6          7          8          9         10
     6  C    0.000000
     7  C    1.523649   0.000000
     8  C    2.455013   3.809944   0.000000
     9  N    3.981460   4.730293   2.433714   0.000000
    10  N    1.362094   2.440617   1.449213   2.627638   0.000000
    11  O    1.227519   2.421338   2.772805   4.817557   2.261866
    12  H    7.081246   8.241451   4.680713   3.885931   5.823666
    13  H    7.323797   8.102444   5.335486   3.381840   5.961734
    14  H    5.171755   6.546398   2.738194   3.379564   4.142019
    15  H    5.780361   6.187588   4.490870   2.057158   4.496058
    16  H    2.196061   1.095582   4.039290   4.403900   2.600785
    17  H    2.142398   1.091754   4.552850   5.677789   3.289410
    18  H    2.155822   1.095736   4.287126   5.110219   2.973232
    19  H    2.761406   4.187107   1.098155   3.164817   2.098291
    20  H    2.764283   4.167890   1.098396   3.161540   2.101242
    21  H    2.084217   2.605105   2.103380   2.126184   1.012295
                   11         12         13         14         15
    11  O    0.000000
    12  H    7.419353   0.000000
    13  H    8.030169   2.516116   0.000000
    14  H    5.230782   2.498215   4.310192   0.000000
    15  H    6.751360   4.307518   2.502221   4.894513   0.000000
    16  H    3.286067   8.125843   7.688648   6.697541   5.591521
    17  H    2.609597   9.089846   9.048267   7.271194   7.158012
    18  H    2.917519   8.621368   8.425638   6.968938   6.474609
    19  H    2.770389   4.892913   5.814135   2.757125   5.167228
    20  H    2.778027   4.895401   5.813082   2.762765   5.163294
    21  H    3.176451   5.787756   5.498638   4.505888   3.722036
                   16         17         18         19         20
    16  H    0.000000
    17  H    1.780106   0.000000
    18  H    1.775723   1.769865   0.000000
    19  H    4.452169   4.718830   4.842611   0.000000
    20  H    4.607063   4.896778   4.430604   1.758007   0.000000
    21  H    2.363843   3.571414   3.066273   2.838989   2.835381
                   21
    21  H    0.000000
 Stoichiometry    C8H10N2O
 Framework group  C1[X(C8H10N2O)]
 Deg. of freedom    57
 Full point group                 C1      NOp   1
 Largest Abelian subgroup         C1      NOp   1
 Largest concise Abelian subgroup C1      NOp   1
                         Standard orientation:                         
 ---------------------------------------------------------------------
 Center     Atomic      Atomic             Coordinates (Angstroms)
 Number     Number       Type             X           Y           Z
 ---------------------------------------------------------------------
      1          6           0        3.293151   -0.740044    0.007632
      2          6           0        3.451054    0.646161   -0.000936
      3          6           0        2.004890   -1.266741    0.009038
      4          6           0        2.305890    1.437933   -0.007618
      5          6           0        0.915294   -0.389844    0.001826
      6          6           0       -2.795048   -0.056273   -0.015412
      7          6           0       -3.665314    1.193899    0.019423
      8          6           0       -0.498929   -0.924927    0.003674
      9          7           0        1.058370    0.945282   -0.006408
     10          7           0       -1.451409    0.167182   -0.013573
     11          8           0       -3.258714   -1.192849   -0.011987
     12          1           0        4.157741   -1.398642    0.013065
     13          1           0        4.436578    1.101928   -0.002406
     14          1           0        1.844304   -2.341552    0.015614
     15          1           0        2.377587    2.523731   -0.014348
     16          1           0       -3.179312    2.065111   -0.433448
     17          1           0       -4.596589    0.990972   -0.512999
     18          1           0       -3.915278    1.441084    1.057236
     19          1           0       -0.651861   -1.574168   -0.868704
     20          1           0       -0.656065   -1.555505    0.889199
     21          1           0       -1.062049    1.101601   -0.013214
 ---------------------------------------------------------------------
 Rotational constants (GHZ):      3.3234108      0.5226956      0.4542210
 Standard basis: 6-31G(d) (6D, 7F)
 There are   185 symmetry adapted basis functions of A   symmetry.
 Integral buffers will be    131072 words long.
 Raffenetti 2 integral format.
 Two-electron integral symmetry is turned on.
   185 basis functions,   348 primitive gaussians,   185 cartesian basis functions
    40 alpha electrons       40 beta electrons
       nuclear repulsion energy       566.5561317588 Hartrees.
 NAtoms=   21 NActive=   21 NUniq=   21 SFac= 1.00D+00 NAtFMM=   60 NAOKFM=F Big=F
 One-electron integrals computed using PRISM.
 NBasis=   185 RedAO= T  NBF=   185
 NBsUse=   185 1.00D-06 NBFU=   185
 Initial guess read from the read-write file.
 B after Tr=     0.000000    0.000000    0.000000
         Rot=    1.000000    0.000000    0.000000    0.000000 Ang=   0.00 deg.
 Initial guess orbital symmetries:
       Occupied  (A) (A) (A) (A) (A) (A) (A) (A) (A) (A) (A) (A)
                 (A) (A) (A) (A) (A) (A) (A) (A) (A) (A) (A) (A)
                 (A) (A) (A) (A) (A) (A) (A) (A) (A) (A) (A) (A)
                 (A) (A) (A) (A)
       Virtual   (A) (A) (A) (A) (A) (A) (A) (A) (A) (A) (A) (A)
                 (A) (A) (A) (A) (A) (A) (A) (A) (A) (A) (A) (A)
                 (A) (A) (A) (A) (A) (A) (A) (A) (A) (A) (A) (A)
                 (A) (A) (A) (A) (A) (A) (A) (A) (A) (A) (A) (A)
                 (A) (A) (A) (A) (A) (A) (A) (A) (A) (A) (A) (A)
                 (A) (A) (A) (A) (A) (A) (A) (A) (A) (A) (A) (A)
                 (A) (A) (A) (A) (A) (A) (A) (A) (A) (A) (A) (A)
                 (A) (A) (A) (A) (A) (A) (A) (A) (A) (A) (A) (A)
                 (A) (A) (A) (A) (A) (A) (A) (A) (A) (A) (A) (A)
                 (A) (A) (A) (A) (A) (A) (A) (A) (A) (A) (A) (A)
                 (A) (A) (A) (A) (A) (A) (A) (A) (A) (A) (A) (A)
                 (A) (A) (A) (A) (A) (A) (A) (A) (A) (A) (A) (A)
                 (A)
 Harris functional with IExCor=  402 diagonalized for initial guess.
 ExpMin= 1.61D-01 ExpMax= 5.48D+03 ExpMxC= 8.25D+02 IAcc=3 IRadAn=         5 AccDes= 0.00D+00
 HarFok:  IExCor=  402 AccDes= 0.00D+00 IRadAn=         5 IDoV= 1
 ScaDFX=  1.000000  1.000000  1.000000  1.000000
 FoFCou: FMM=F IPFlag=           0 FMFlag=      100000 FMFlg1=           0
         NFxFlg=           0 DoJE=T BraDBF=F KetDBF=T FulRan=T
         Omega=  0.000000  0.000000  1.000000  0.000000  0.000000 ICntrl=     500 IOpCl=  0
         NMat0=    1 NMatS0=    1 NMatT0=    0 NMatD0=    1 NMtDS0=    0 NMtDT0=    0
         I1Cent=           4 NGrid=           0.
 Petite list used in FoFCou.
 Requested convergence on RMS density matrix=1.00D-08 within 128 cycles.
 Requested convergence on MAX density matrix=1.00D-06.
 Requested convergence on             energy=1.00D-06.
 No special actions if energy rises.
 Integral accuracy reduced to 1.0D-05 until final iterations.
 Initial convergence to 1.0D-05 achieved.  Increase integral accuracy.
 SCF Done:  E(RB3LYP) =  -495.617408534     A.U. after   12 cycles
             Convg  =    0.5657D-08             -V/T =  2.0095
 Calling FoFJK, ICntrl=      2127 FMM=F ISym2X=0 I1Cent= 0 IOpClX= 0 NMat=1 NMatS=1 NMatT=0.
 ***** Axes restored to original set *****
 -------------------------------------------------------------------
 Center     Atomic                   Forces (Hartrees/Bohr)
 Number     Number              X              Y              Z
 -------------------------------------------------------------------
      1        6           0.000572311    0.001291514    0.000145296
      2        6          -0.000366705   -0.000951878   -0.000736336
      3        6          -0.000974647   -0.001949216    0.001542385
      4        6           0.000242795    0.000208138   -0.002094469
      5        6           0.000029447   -0.000540152   -0.003841607
      6        6           0.000033298   -0.001138070    0.003726227
      7        6          -0.001473287    0.000215599   -0.000079784
      8        6           0.000626297    0.000952153   -0.005057833
      9        7          -0.001530561   -0.002509783    0.005975767
     10        7           0.000897282    0.002293619   -0.000600310
     11        8           0.000621851    0.001489969   -0.001559893
     12        1           0.000029556    0.000039376   -0.000216180
     13        1           0.000082232    0.000127482   -0.000353329
     14        1           0.000228869    0.000459353   -0.000417830
     15        1          -0.000462894   -0.000974997    0.000345535
     16        1           0.000377697   -0.000516265    0.000434872
     17        1           0.000426924    0.000439807    0.000410081
     18        1           0.000397419    0.000061430    0.000142220
     19        1           0.000641189    0.000942294    0.000557648
     20        1           0.000298129    0.001161731    0.000365505
     21        1          -0.000697201   -0.001102102    0.001312038
 -------------------------------------------------------------------
 Cartesian Forces:  Max     0.005975767 RMS     0.001491870

 GradGradGradGradGradGradGradGradGradGradGradGradGradGradGradGradGradGrad
 Berny optimization.
 Using GEDIIS/GDIIS optimizer.
 Internal  Forces:  Max     0.005264010 RMS     0.001283792
 Search for a local minimum.
 Step number   2 out of a maximum of  107
 All quantities printed in internal units (Hartrees-Bohrs-Radians)
 Mixed Optimization -- RFO/linear search
 Update second derivatives using D2CorX and points    1    2
 DE= -2.16D-03 DEPred=-2.38D-03 R= 9.06D-01
 SS=  1.41D+00  RLast= 1.54D-01 DXNew= 5.0454D-01 4.6117D-01
 Trust test= 9.06D-01 RLast= 1.54D-01 DXMaxT set to 4.61D-01
 ITU=  1  0
 Use linear search instead of GDIIS.
     Eigenvalues ---    0.00563   0.00712   0.01021   0.01272   0.01460
     Eigenvalues ---    0.01495   0.02126   0.02181   0.02192   0.02210
     Eigenvalues ---    0.02214   0.02264   0.02280   0.02302   0.05217
     Eigenvalues ---    0.06128   0.07044   0.07476   0.09851   0.13118
     Eigenvalues ---    0.15354   0.16000   0.16000   0.16000   0.16000
     Eigenvalues ---    0.16000   0.16000   0.16208   0.21553   0.21999
     Eigenvalues ---    0.22400   0.22667   0.24273   0.24957   0.24994
     Eigenvalues ---    0.28258   0.30395   0.34086   0.34172   0.34258
     Eigenvalues ---    0.34404   0.34433   0.35005   0.35045   0.35112
     Eigenvalues ---    0.35178   0.35342   0.38078   0.43232   0.44530
     Eigenvalues ---    0.44877   0.46667   0.48288   0.50644   0.51530
     Eigenvalues ---    0.53315   0.91293
 RFO step:  Lambda=-5.82965141D-04 EMin= 5.63147375D-03
 Quartic linear search produced a step of -0.07570.
 Iteration  1 RMS(Cart)=  0.02904997 RMS(Int)=  0.00016041
 Iteration  2 RMS(Cart)=  0.00031040 RMS(Int)=  0.00002252
 Iteration  3 RMS(Cart)=  0.00000002 RMS(Int)=  0.00002252
 Variable       Old X    -DE/DX   Delta X   Delta X   Delta X     New X
                                 (Linear)    (Quad)   (Total)
    R1        2.63654   0.00098  -0.00080   0.00408   0.00327   2.63981
    R2        2.63007  -0.00014   0.00005  -0.00040  -0.00036   2.62971
    R3        2.05390  -0.00022   0.00015  -0.00097  -0.00082   2.05307
    R4        2.63096  -0.00096  -0.00126   0.00155   0.00029   2.63126
    R5        2.05188  -0.00017  -0.00003  -0.00036  -0.00039   2.05150
    R6        2.64306   0.00135  -0.00091   0.00502   0.00411   2.64718
    R7        2.05368  -0.00004   0.00001  -0.00014  -0.00012   2.05356
    R8        2.53464   0.00004   0.00195  -0.00512  -0.00316   2.53148
    R9        2.05637   0.00026  -0.00005   0.00083   0.00078   2.05715
   R10        2.85739   0.00526   0.00047   0.01449   0.01496   2.87235
   R11        2.53752  -0.00106   0.00326  -0.01056  -0.00730   2.53022
   R12        2.87928  -0.00092  -0.00281   0.00483   0.00202   2.88130
   R13        2.57398  -0.00032   0.00070  -0.00244  -0.00173   2.57225
   R14        2.31968   0.00023   0.00029  -0.00054  -0.00025   2.31942
   R15        2.07035  -0.00020  -0.00028   0.00021  -0.00007   2.07028
   R16        2.06312   0.00028   0.00025   0.00009   0.00033   2.06345
   R17        2.07064   0.00032  -0.00037   0.00183   0.00146   2.07210
   R18        2.73862  -0.00325   0.00022  -0.00843  -0.00822   2.73040
   R19        2.07521   0.00050  -0.00036   0.00231   0.00195   2.07716
   R20        2.07567   0.00049  -0.00040   0.00239   0.00199   2.07766
   R21        1.91296   0.00014   0.00080  -0.00183  -0.00103   1.91193
    A1        2.07232   0.00079   0.00102   0.00074   0.00175   2.07407
    A2        2.10837  -0.00044  -0.00072  -0.00009  -0.00081   2.10756
    A3        2.10250  -0.00034  -0.00030  -0.00065  -0.00094   2.10155
    A4        2.06233  -0.00065   0.00020  -0.00305  -0.00286   2.05947
    A5        2.11738   0.00068  -0.00031   0.00415   0.00384   2.12122
    A6        2.10348  -0.00003   0.00012  -0.00110  -0.00098   2.10249
    A7        2.07582   0.00063   0.00001   0.00264   0.00264   2.07846
    A8        2.10721   0.00036  -0.00064   0.00430   0.00367   2.11087
    A9        2.10016  -0.00099   0.00063  -0.00694  -0.00630   2.09386
   A10        2.16054  -0.00124  -0.00022  -0.00455  -0.00476   2.15578
   A11        2.10981  -0.00051  -0.00036  -0.00297  -0.00334   2.10648
   A12        2.01283   0.00175   0.00058   0.00752   0.00810   2.02093
   A13        2.10221  -0.00180  -0.00137  -0.00294  -0.00431   2.09790
   A14        2.14171  -0.00311  -0.00068  -0.00973  -0.01040   2.13131
   A15        2.03926   0.00491   0.00205   0.01266   0.01471   2.05397
   A16        2.01396  -0.00123  -0.00153  -0.00032  -0.00187   2.01208
   A17        2.14589  -0.00197  -0.00053  -0.00573  -0.00628   2.13960
   A18        2.12293   0.00320   0.00207   0.00640   0.00844   2.13137
   A19        1.97105  -0.00026  -0.00234   0.00559   0.00326   1.97431
   A20        1.90028  -0.00041   0.00061  -0.00343  -0.00283   1.89745
   A21        1.91458  -0.00031  -0.00076  -0.00110  -0.00185   1.91273
   A22        1.90140   0.00081  -0.00066   0.00895   0.00830   1.90970
   A23        1.88948   0.00015   0.00127  -0.00351  -0.00222   1.88726
   A24        1.88518   0.00003   0.00201  -0.00699  -0.00499   1.88019
   A25        1.92626   0.00448   0.00239   0.01586   0.01815   1.94440
   A26        1.91611  -0.00077   0.00024   0.00022   0.00037   1.91648
   A27        1.91553  -0.00071   0.00025   0.00010   0.00028   1.91581
   A28        1.92255  -0.00140  -0.00293   0.00268  -0.00031   1.92224
   A29        1.92644  -0.00160  -0.00323   0.00151  -0.00177   1.92467
   A30        1.85575  -0.00022   0.00326  -0.02173  -0.01843   1.83732
   A31        2.05365   0.00358  -0.00033   0.01394   0.01364   2.06729
   A32        2.12319  -0.00120   0.00146  -0.00893  -0.00747   2.11572
   A33        2.13040   0.00236  -0.00174   0.01731   0.01557   2.14597
   A34        2.02953  -0.00116   0.00028  -0.00839  -0.00811   2.02142
    D1        0.00006   0.00000   0.00000   0.00005   0.00005   0.00011
    D2       -3.14153   0.00000  -0.00001   0.00009   0.00008  -3.14145
    D3       -3.14159   0.00000   0.00001  -0.00008  -0.00007   3.14152
    D4        0.00001   0.00000   0.00000  -0.00004  -0.00004  -0.00003
    D5        0.00000   0.00000   0.00001   0.00004   0.00005   0.00005
    D6        3.14158   0.00000   0.00001  -0.00013  -0.00012   3.14146
    D7       -3.14154   0.00000   0.00000   0.00017   0.00017  -3.14137
    D8        0.00005   0.00000   0.00000   0.00000   0.00000   0.00005
    D9       -0.00010   0.00000   0.00001   0.00001   0.00001  -0.00008
   D10        3.14153   0.00000   0.00000  -0.00001  -0.00001   3.14152
   D11        3.14149   0.00000   0.00001  -0.00002  -0.00001   3.14147
   D12       -0.00006   0.00000   0.00000  -0.00005  -0.00004  -0.00011
   D13       -3.14115   0.00000  -0.00001   0.00034   0.00033  -3.14082
   D14       -0.00003   0.00000  -0.00002  -0.00021  -0.00023  -0.00025
   D15        0.00045   0.00001  -0.00001   0.00050   0.00049   0.00095
   D16        3.14157   0.00000  -0.00002  -0.00004  -0.00006   3.14151
   D17        0.00007   0.00000  -0.00002  -0.00017  -0.00018  -0.00011
   D18       -3.14156   0.00000  -0.00001  -0.00015  -0.00016   3.14147
   D19       -3.13514  -0.00006  -0.00019   0.00104   0.00084  -3.13430
   D20       -1.01267   0.00060  -0.00215   0.01485   0.01272  -0.99995
   D21        1.02109  -0.00052   0.00213  -0.01128  -0.00917   1.01192
   D22        0.00689  -0.00005  -0.00018   0.00156   0.00138   0.00827
   D23        2.12937   0.00061  -0.00214   0.01538   0.01326   2.14263
   D24       -2.12006  -0.00051   0.00214  -0.01075  -0.00863  -2.12869
   D25       -0.00001   0.00001   0.00002   0.00027   0.00029   0.00028
   D26        3.14113   0.00000   0.00001  -0.00026  -0.00026   3.14087
   D27        0.48880  -0.00048   0.00067  -0.02474  -0.02405   0.46475
   D28        2.60316   0.00009  -0.00125  -0.01213  -0.01336   2.58980
   D29       -1.62046  -0.00028   0.00110  -0.02323  -0.02209  -1.64255
   D30       -2.68329  -0.00024   0.00106  -0.01151  -0.01048  -2.69377
   D31       -0.56893   0.00034  -0.00086   0.00110   0.00021  -0.56872
   D32        1.49064  -0.00004   0.00149  -0.01000  -0.00852   1.48212
   D33        3.10249   0.00000   0.00216  -0.00231  -0.00011   3.10238
   D34       -0.02638   0.00001   0.00152  -0.00063   0.00092  -0.02546
   D35       -0.00904  -0.00014   0.00182  -0.01511  -0.01333  -0.02236
   D36       -3.13791  -0.00013   0.00117  -0.01344  -0.01230   3.13298
   D37       -3.14156   0.00001  -0.00027   0.00161   0.00135  -3.14022
   D38       -0.01200   0.00002   0.00034   0.00021   0.00056  -0.01144
   D39        1.02296  -0.00104  -0.00015  -0.01084  -0.01103   1.01194
   D40       -2.13065  -0.00103   0.00046  -0.01224  -0.01182  -2.14247
   D41       -1.02107   0.00103  -0.00058   0.01325   0.01271  -1.00836
   D42        2.10850   0.00105   0.00003   0.01185   0.01192   2.12042
         Item               Value     Threshold  Converged?
 Maximum Force            0.005264     0.000450     NO 
 RMS     Force            0.001284     0.000300     NO 
 Maximum Displacement     0.101712     0.001800     NO 
 RMS     Displacement     0.028909     0.001200     NO 
 Predicted change in Energy=-3.065169D-04
 GradGradGradGradGradGradGradGradGradGradGradGradGradGradGradGradGradGrad

                          Input orientation:                          
 ---------------------------------------------------------------------
 Center     Atomic      Atomic             Coordinates (Angstroms)
 Number     Number       Type             X           Y           Z
 ---------------------------------------------------------------------
      1          6           0       -1.424098   -3.221502    5.894999
      2          6           0       -1.680731   -3.982402    4.751943
      3          6           0       -0.849904   -1.962436    5.748175
      4          6           0       -1.345956   -3.437399    3.515141
      5          6           0       -0.547601   -1.497653    4.461745
      6          6           0        0.858763    1.340158    2.477027
      7          6           0        1.079473    1.482243    0.975072
      8          6           0        0.080893   -0.126744    4.272147
      9          7           0       -0.793046   -2.226420    3.365662
     10          7           0        0.302160    0.163146    2.874063
     11          8           0        1.175937    2.214864    3.277506
     12          1           0       -1.667522   -3.603139    6.882647
     13          1           0       -2.127403   -4.969809    4.815576
     14          1           0       -0.635718   -1.341561    6.613939
     15          1           0       -1.526737   -3.992236    2.596165
     16          1           0        0.384164    0.880720    0.379306
     17          1           0        0.973844    2.534552    0.703411
     18          1           0        2.100793    1.173167    0.722674
     19          1           0       -0.562425    0.643222    4.721045
     20          1           0        1.028384   -0.072086    4.827181
     21          1           0        0.029338   -0.563315    2.224864
 ---------------------------------------------------------------------
                    Distance matrix (angstroms):
                    1          2          3          4          5
     1  C    0.000000
     2  C    1.396927   0.000000
     3  C    1.391583   2.400628   0.000000
     4  C    2.390908   1.392401   2.721769   0.000000
     5  C    2.407098   2.746302   1.400826   2.301314   0.000000
     6  C    6.140254   6.320911   4.952482   5.363164   3.737664
     7  C    7.252501   7.193457   6.194419   6.044629   4.866625
     8  C    3.804756   4.266101   2.532746   3.683666   1.519981
     9  N    2.790333   2.406914   2.397768   1.339599   1.338933
    10  N    4.854056   4.964258   3.755779   4.011384   2.449711
    11  O    6.570048   6.981449   5.259095   6.193908   4.260961
    12  H    1.086440   2.164235   2.155791   3.386882   3.398244
    13  H    2.171720   1.085605   3.397946   2.156402   3.831036
    14  H    2.161619   3.396045   1.086696   3.807824   2.159646
    15  H    3.389228   2.161293   3.809640   1.088597   3.265278
    16  H    7.107806   6.858112   6.199292   5.610074   4.815719
    17  H    8.113869   8.118378   6.999900   6.996535   5.718264
    18  H    7.647935   7.557435   6.617725   6.398068   5.303576
    19  H    4.129980   4.758987   2.815509   4.326614   2.156572
    20  H    4.132036   4.757682   2.819507   4.322531   2.156273
    21  H    4.759025   4.582643   3.891572   3.437529   2.491883
                    6          7          8          9         10
     6  C    0.000000
     7  C    1.524720   0.000000
     8  C    2.445269   3.802198   0.000000
     9  N    4.029717   4.793269   2.448290   0.000000
    10  N    1.361176   2.439344   1.444865   2.674167   0.000000
    11  O    1.227386   2.418107   2.769759   4.858978   2.266230
    12  H    7.087157   8.264777   4.685828   3.876758   5.842371
    13  H    7.362179   8.164711   5.350435   3.377713   6.001623
    14  H    5.151614   6.535486   2.733734   3.370317   4.138893
    15  H    5.842878   6.276161   4.509481   2.061197   4.548548
    16  H    2.199264   1.095546   4.032514   4.467489   2.597200
    17  H    2.141386   1.091930   4.540456   5.733789   3.284274
    18  H    2.155987   1.096507   4.285852   5.188148   2.980553
    19  H    2.746108   4.175177   1.099188   3.181995   2.095071
    20  H    2.747076   4.154190   1.099450   3.177232   2.097000
    21  H    2.091589   2.617073   2.093949   2.177993   1.011750
                   11         12         13         14         15
    11  O    0.000000
    12  H    7.411577   0.000000
    13  H    8.055883   2.520329   0.000000
    14  H    5.202119   2.500312   4.315486   0.000000
    15  H    6.804172   4.306408   2.498447   4.895151   0.000000
    16  H    3.287310   8.161364   7.759971   6.696965   5.684339
    17  H    2.601731   9.101155   9.101817   7.249088   7.241159
    18  H    2.909924   8.657861   8.506800   6.965583   6.584096
    19  H    2.752411   4.891354   5.827881   2.743680   5.189651
    20  H    2.766479   4.895017   5.826390   2.751964   5.183980
    21  H    3.184498   5.815050   5.548018   4.506878   3.783745
                   16         17         18         19         20
    16  H    0.000000
    17  H    1.785477   0.000000
    18  H    1.774892   1.767414   0.000000
    19  H    4.450071   4.698791   4.833274   0.000000
    20  H    4.594176   4.878834   4.421277   1.747457   0.000000
    21  H    2.370068   3.578225   3.092389   2.834931   2.830452
                   21
    21  H    0.000000
 Stoichiometry    C8H10N2O
 Framework group  C1[X(C8H10N2O)]
 Deg. of freedom    57
 Full point group                 C1      NOp   1
 Largest Abelian subgroup         C1      NOp   1
 Largest concise Abelian subgroup C1      NOp   1
                         Standard orientation:                         
 ---------------------------------------------------------------------
 Center     Atomic      Atomic             Coordinates (Angstroms)
 Number     Number       Type             X           Y           Z
 ---------------------------------------------------------------------
      1          6           0        3.292504   -0.761276    0.008137
      2          6           0        3.476684    0.623418   -0.002071
      3          6           0        1.995620   -1.265843    0.010509
      4          6           0        2.344170    1.433444   -0.009264
      5          6           0        0.917109   -0.371938    0.002549
      6          6           0       -2.807346   -0.058331   -0.012219
      7          6           0       -3.695107    1.180861    0.020238
      8          6           0       -0.509886   -0.895403    0.005934
      9          7           0        1.092778    0.955387   -0.007005
     10          7           0       -1.468229    0.185729   -0.013288
     11          8           0       -3.262959   -1.198005   -0.018286
     12          1           0        4.144756   -1.435061    0.013968
     13          1           0        4.468734    1.064290   -0.004433
     14          1           0        1.812802   -2.337023    0.018241
     15          1           0        2.436832    2.518060   -0.017242
     16          1           0       -3.215535    2.065081   -0.413798
     17          1           0       -4.617793    0.965167   -0.522384
     18          1           0       -3.964310    1.413219    1.057478
     19          1           0       -0.666564   -1.555372   -0.858997
     20          1           0       -0.670582   -1.531339    0.888290
     21          1           0       -1.078997    1.119608   -0.015663
 ---------------------------------------------------------------------
 Rotational constants (GHZ):      3.3461780      0.5169279      0.4502567
 Standard basis: 6-31G(d) (6D, 7F)
 There are   185 symmetry adapted basis functions of A   symmetry.
 Integral buffers will be    131072 words long.
 Raffenetti 2 integral format.
 Two-electron integral symmetry is turned on.
   185 basis functions,   348 primitive gaussians,   185 cartesian basis functions
    40 alpha electrons       40 beta electrons
       nuclear repulsion energy       565.5393635374 Hartrees.
 NAtoms=   21 NActive=   21 NUniq=   21 SFac= 1.00D+00 NAtFMM=   60 NAOKFM=F Big=F
 One-electron integrals computed using PRISM.
 NBasis=   185 RedAO= T  NBF=   185
 NBsUse=   185 1.00D-06 NBFU=   185
 Initial guess read from the read-write file.
 B after Tr=     0.000000    0.000000    0.000000
         Rot=    1.000000    0.000000    0.000000    0.000000 Ang=   0.00 deg.
 Initial guess orbital symmetries:
       Occupied  (A) (A) (A) (A) (A) (A) (A) (A) (A) (A) (A) (A)
                 (A) (A) (A) (A) (A) (A) (A) (A) (A) (A) (A) (A)
                 (A) (A) (A) (A) (A) (A) (A) (A) (A) (A) (A) (A)
                 (A) (A) (A) (A)
       Virtual   (A) (A) (A) (A) (A) (A) (A) (A) (A) (A) (A) (A)
                 (A) (A) (A) (A) (A) (A) (A) (A) (A) (A) (A) (A)
                 (A) (A) (A) (A) (A) (A) (A) (A) (A) (A) (A) (A)
                 (A) (A) (A) (A) (A) (A) (A) (A) (A) (A) (A) (A)
                 (A) (A) (A) (A) (A) (A) (A) (A) (A) (A) (A) (A)
                 (A) (A) (A) (A) (A) (A) (A) (A) (A) (A) (A) (A)
                 (A) (A) (A) (A) (A) (A) (A) (A) (A) (A) (A) (A)
                 (A) (A) (A) (A) (A) (A) (A) (A) (A) (A) (A) (A)
                 (A) (A) (A) (A) (A) (A) (A) (A) (A) (A) (A) (A)
                 (A) (A) (A) (A) (A) (A) (A) (A) (A) (A) (A) (A)
                 (A) (A) (A) (A) (A) (A) (A) (A) (A) (A) (A) (A)
                 (A) (A) (A) (A) (A) (A) (A) (A) (A) (A) (A) (A)
                 (A)
 Harris functional with IExCor=  402 diagonalized for initial guess.
 ExpMin= 1.61D-01 ExpMax= 5.48D+03 ExpMxC= 8.25D+02 IAcc=3 IRadAn=         5 AccDes= 0.00D+00
 HarFok:  IExCor=  402 AccDes= 0.00D+00 IRadAn=         5 IDoV= 1
 ScaDFX=  1.000000  1.000000  1.000000  1.000000
 FoFCou: FMM=F IPFlag=           0 FMFlag=      100000 FMFlg1=           0
         NFxFlg=           0 DoJE=T BraDBF=F KetDBF=T FulRan=T
         Omega=  0.000000  0.000000  1.000000  0.000000  0.000000 ICntrl=     500 IOpCl=  0
         NMat0=    1 NMatS0=    1 NMatT0=    0 NMatD0=    1 NMtDS0=    0 NMtDT0=    0
         I1Cent=           4 NGrid=           0.
 Petite list used in FoFCou.
 Requested convergence on RMS density matrix=1.00D-08 within 128 cycles.
 Requested convergence on MAX density matrix=1.00D-06.
 Requested convergence on             energy=1.00D-06.
 No special actions if energy rises.
 Integral accuracy reduced to 1.0D-05 until final iterations.
 Initial convergence to 1.0D-05 achieved.  Increase integral accuracy.
 SCF Done:  E(RB3LYP) =  -495.617631011     A.U. after   11 cycles
             Convg  =    0.4271D-08             -V/T =  2.0096
 Calling FoFJK, ICntrl=      2127 FMM=F ISym2X=0 I1Cent= 0 IOpClX= 0 NMat=1 NMatS=1 NMatT=0.
 ***** Axes restored to original set *****
 -------------------------------------------------------------------
 Center     Atomic                   Forces (Hartrees/Bohr)
 Number     Number              X              Y              Z
 -------------------------------------------------------------------
      1        6           0.000414195    0.000807235   -0.000700791
      2        6           0.000167022    0.000304173   -0.000345557
      3        6          -0.000212577   -0.000285168    0.000974905
      4        6          -0.000376197   -0.000805260    0.000113381
      5        6           0.000424028    0.000726340   -0.000739957
      6        6          -0.001054026    0.000518826   -0.001159412
      7        6           0.000173493   -0.000167712    0.000361778
      8        6          -0.000514494   -0.000612740    0.000715157
      9        7           0.000658398    0.001391779   -0.000658677
     10        7           0.000014871   -0.000505819    0.001267186
     11        8           0.000632961   -0.000463815   -0.000255032
     12        1          -0.000026754   -0.000048469    0.000081891
     13        1           0.000019166    0.000052720    0.000070211
     14        1          -0.000028875   -0.000024019    0.000144260
     15        1          -0.000085290   -0.000157307    0.000170158
     16        1           0.000115857   -0.000027216    0.000462951
     17        1          -0.000196134    0.000135372    0.000087239
     18        1           0.000056524    0.000025401    0.000272880
     19        1          -0.000306544    0.000010316   -0.000108119
     20        1           0.000244659   -0.000221231   -0.000112989
     21        1          -0.000120282   -0.000653406   -0.000641464
 -------------------------------------------------------------------
 Cartesian Forces:  Max     0.001391779 RMS     0.000498464

 GradGradGradGradGradGradGradGradGradGradGradGradGradGradGradGradGradGrad
 Berny optimization.
 Using GEDIIS/GDIIS optimizer.
 Internal  Forces:  Max     0.002333516 RMS     0.000487490
 Search for a local minimum.
 Step number   3 out of a maximum of  107
 All quantities printed in internal units (Hartrees-Bohrs-Radians)
 Mixed Optimization -- En-DIIS/RFO-DIIS
 Update second derivatives using D2CorX and points    1    2    3
 DE= -2.22D-04 DEPred=-3.07D-04 R= 7.26D-01
 SS=  1.41D+00  RLast= 7.22D-02 DXNew= 7.7558D-01 2.1662D-01
 Trust test= 7.26D-01 RLast= 7.22D-02 DXMaxT set to 4.61D-01
 ITU=  1  1  0
 Use linear search instead of GDIIS.
     Eigenvalues ---    0.00563   0.00691   0.01021   0.01312   0.01452
     Eigenvalues ---    0.01502   0.02146   0.02181   0.02192   0.02210
     Eigenvalues ---    0.02214   0.02264   0.02279   0.02302   0.05053
     Eigenvalues ---    0.06437   0.06994   0.07485   0.10035   0.13239
     Eigenvalues ---    0.14832   0.16000   0.16000   0.16000   0.16000
     Eigenvalues ---    0.16000   0.16007   0.16275   0.21168   0.22012
     Eigenvalues ---    0.22511   0.22712   0.24635   0.24931   0.25175
     Eigenvalues ---    0.28559   0.32591   0.33889   0.34172   0.34399
     Eigenvalues ---    0.34418   0.34456   0.35043   0.35063   0.35176
     Eigenvalues ---    0.35323   0.36976   0.39697   0.43393   0.44569
     Eigenvalues ---    0.45051   0.46936   0.48238   0.50706   0.51525
     Eigenvalues ---    0.53335   0.91308
 RFO step:  Lambda=-5.56319636D-05 EMin= 5.63115663D-03
 Quartic linear search produced a step of -0.20917.
 Iteration  1 RMS(Cart)=  0.01047892 RMS(Int)=  0.00003494
 Iteration  2 RMS(Cart)=  0.00006163 RMS(Int)=  0.00001253
 Iteration  3 RMS(Cart)=  0.00000000 RMS(Int)=  0.00001253
 Variable       Old X    -DE/DX   Delta X   Delta X   Delta X     New X
                                 (Linear)    (Quad)   (Total)
    R1        2.63981   0.00002  -0.00068   0.00082   0.00014   2.63995
    R2        2.62971  -0.00091   0.00007  -0.00166  -0.00158   2.62813
    R3        2.05307   0.00010   0.00017  -0.00001   0.00017   2.05324
    R4        2.63126  -0.00041  -0.00006  -0.00080  -0.00086   2.63040
    R5        2.05150  -0.00005   0.00008  -0.00024  -0.00016   2.05134
    R6        2.64718   0.00025  -0.00086   0.00153   0.00067   2.64784
    R7        2.05356   0.00010   0.00003   0.00018   0.00020   2.05376
    R8        2.53148   0.00066   0.00066   0.00038   0.00104   2.53252
    R9        2.05715  -0.00005  -0.00016   0.00012  -0.00004   2.05710
   R10        2.87235  -0.00227  -0.00313  -0.00110  -0.00423   2.86812
   R11        2.53022   0.00001   0.00153  -0.00156  -0.00004   2.53018
   R12        2.88130  -0.00115  -0.00042  -0.00268  -0.00310   2.87820
   R13        2.57225  -0.00003   0.00036  -0.00044  -0.00008   2.57217
   R14        2.31942  -0.00033   0.00005  -0.00031  -0.00026   2.31917
   R15        2.07028  -0.00031   0.00001  -0.00077  -0.00076   2.06953
   R16        2.06345   0.00013  -0.00007   0.00043   0.00036   2.06381
   R17        2.07210  -0.00002  -0.00030   0.00034   0.00003   2.07213
   R18        2.73040  -0.00067   0.00172  -0.00382  -0.00210   2.72830
   R19        2.07716   0.00014  -0.00041   0.00085   0.00044   2.07761
   R20        2.07766   0.00014  -0.00042   0.00086   0.00044   2.07810
   R21        1.91193   0.00091   0.00022   0.00141   0.00163   1.91356
    A1        2.07407   0.00037  -0.00037   0.00175   0.00139   2.07546
    A2        2.10756  -0.00020   0.00017  -0.00098  -0.00081   2.10675
    A3        2.10155  -0.00017   0.00020  -0.00078  -0.00058   2.10097
    A4        2.05947   0.00035   0.00060   0.00024   0.00084   2.06031
    A5        2.12122  -0.00025  -0.00080   0.00020  -0.00060   2.12062
    A6        2.10249  -0.00010   0.00021  -0.00044  -0.00023   2.10226
    A7        2.07846  -0.00069  -0.00055  -0.00172  -0.00227   2.07619
    A8        2.11087   0.00023  -0.00077   0.00167   0.00090   2.11178
    A9        2.09386   0.00046   0.00132   0.00005   0.00137   2.09522
   A10        2.15578  -0.00030   0.00100  -0.00243  -0.00144   2.15434
   A11        2.10648  -0.00010   0.00070  -0.00179  -0.00110   2.10538
   A12        2.02093   0.00040  -0.00169   0.00422   0.00253   2.02347
   A13        2.09790   0.00039   0.00090  -0.00042   0.00049   2.09839
   A14        2.13131   0.00087   0.00218  -0.00042   0.00176   2.13307
   A15        2.05397  -0.00126  -0.00308   0.00084  -0.00224   2.05173
   A16        2.01208   0.00002   0.00039  -0.00090  -0.00057   2.01151
   A17        2.13960  -0.00017   0.00131  -0.00264  -0.00139   2.13821
   A18        2.13137   0.00015  -0.00177   0.00326   0.00142   2.13280
   A19        1.97431  -0.00043  -0.00068  -0.00174  -0.00242   1.97189
   A20        1.89745  -0.00006   0.00059  -0.00090  -0.00030   1.89715
   A21        1.91273  -0.00027   0.00039  -0.00194  -0.00155   1.91118
   A22        1.90970   0.00024  -0.00174   0.00341   0.00168   1.91137
   A23        1.88726   0.00031   0.00046   0.00083   0.00129   1.88855
   A24        1.88019   0.00024   0.00104   0.00045   0.00150   1.88169
   A25        1.94440  -0.00233  -0.00380  -0.00356  -0.00735   1.93706
   A26        1.91648   0.00062  -0.00008   0.00172   0.00165   1.91813
   A27        1.91581   0.00064  -0.00006   0.00162   0.00156   1.91737
   A28        1.92224   0.00066   0.00007   0.00113   0.00121   1.92345
   A29        1.92467   0.00061   0.00037   0.00014   0.00052   1.92519
   A30        1.83732  -0.00004   0.00385  -0.00083   0.00303   1.84035
   A31        2.06729  -0.00060  -0.00285   0.00258  -0.00028   2.06701
   A32        2.11572   0.00041   0.00156  -0.00052   0.00104   2.11676
   A33        2.14597  -0.00029  -0.00326   0.00325  -0.00001   2.14596
   A34        2.02142  -0.00013   0.00170  -0.00272  -0.00102   2.02040
    D1        0.00011   0.00000  -0.00001  -0.00006  -0.00007   0.00004
    D2       -3.14145   0.00000  -0.00002   0.00007   0.00005  -3.14140
    D3        3.14152   0.00000   0.00001  -0.00016  -0.00015   3.14138
    D4       -0.00003   0.00000   0.00001  -0.00003  -0.00002  -0.00005
    D5        0.00005   0.00000  -0.00001  -0.00017  -0.00018  -0.00013
    D6        3.14146   0.00000   0.00002  -0.00020  -0.00017   3.14129
    D7       -3.14137   0.00000  -0.00004  -0.00007  -0.00011  -3.14147
    D8        0.00005   0.00000   0.00000  -0.00010  -0.00010  -0.00005
    D9       -0.00008   0.00001   0.00000   0.00019   0.00019   0.00010
   D10        3.14152   0.00000   0.00000   0.00014   0.00014  -3.14153
   D11        3.14147   0.00000   0.00000   0.00006   0.00006   3.14154
   D12       -0.00011   0.00000   0.00001   0.00000   0.00001  -0.00009
   D13       -3.14082   0.00000  -0.00007  -0.00009  -0.00015  -3.14097
   D14       -0.00025   0.00001   0.00005   0.00030   0.00035   0.00010
   D15        0.00095   0.00000  -0.00010  -0.00006  -0.00016   0.00079
   D16        3.14151   0.00001   0.00001   0.00033   0.00034  -3.14133
   D17       -0.00011   0.00000   0.00004  -0.00007  -0.00003  -0.00014
   D18        3.14147   0.00000   0.00003  -0.00002   0.00002   3.14149
   D19       -3.13430  -0.00001  -0.00018  -0.00008  -0.00026  -3.13456
   D20       -0.99995  -0.00032  -0.00266   0.00013  -0.00253  -1.00248
   D21        1.01192   0.00035   0.00192   0.00103   0.00295   1.01487
   D22        0.00827  -0.00002  -0.00029  -0.00046  -0.00075   0.00753
   D23        2.14263  -0.00033  -0.00277  -0.00024  -0.00302   2.13961
   D24       -2.12869   0.00034   0.00181   0.00066   0.00247  -2.12623
   D25        0.00028  -0.00001  -0.00006  -0.00018  -0.00024   0.00004
   D26        3.14087   0.00000   0.00005   0.00020   0.00025   3.14112
   D27        0.46475   0.00005   0.00503  -0.00616  -0.00114   0.46361
   D28        2.58980   0.00003   0.00279  -0.00361  -0.00083   2.58897
   D29       -1.64255   0.00013   0.00462  -0.00469  -0.00008  -1.64263
   D30       -2.69377  -0.00031   0.00219  -0.02473  -0.02253  -2.71630
   D31       -0.56872  -0.00033  -0.00004  -0.02218  -0.02221  -0.59093
   D32        1.48212  -0.00023   0.00178  -0.02326  -0.02146   1.46065
   D33        3.10238  -0.00006   0.00002  -0.00606  -0.00606   3.09633
   D34       -0.02546  -0.00008  -0.00019  -0.00688  -0.00710  -0.03256
   D35       -0.02236   0.00030   0.00279   0.01248   0.01528  -0.00708
   D36        3.13298   0.00028   0.00257   0.01165   0.01424  -3.13597
   D37       -3.14022   0.00000  -0.00028   0.00013  -0.00015  -3.14037
   D38       -0.01144   0.00002  -0.00012   0.00094   0.00083  -0.01061
   D39        1.01194   0.00034   0.00231  -0.00041   0.00189   1.01383
   D40       -2.14247   0.00035   0.00247   0.00040   0.00287  -2.13960
   D41       -1.00836  -0.00036  -0.00266  -0.00015  -0.00280  -1.01116
   D42        2.12042  -0.00034  -0.00249   0.00066  -0.00183   2.11859
         Item               Value     Threshold  Converged?
 Maximum Force            0.002334     0.000450     NO 
 RMS     Force            0.000487     0.000300     NO 
 Maximum Displacement     0.037849     0.001800     NO 
 RMS     Displacement     0.010518     0.001200     NO 
 Predicted change in Energy=-4.416084D-05
 GradGradGradGradGradGradGradGradGradGradGradGradGradGradGradGradGradGrad

                          Input orientation:                          
 ---------------------------------------------------------------------
 Center     Atomic      Atomic             Coordinates (Angstroms)
[...]
 .00670160,-0.00202691,0.00033782,0.00177025,0.00396638,-0.00565584,-0.
 00824572,0.04068482,-0.10234541,-0.25990866,0.06897491,-0.00729897,-0.
 00304761,0.01060664,-0.02072297,-0.10552847,0.00455771,-0.00486937,-0.
 00782424,0.00250983,0.29365160,0.69712581,-0.00047233,-0.00112713,-0.0
 0047809,0.00008398,0.00030868,0.00092282,0.00034174,0.00067803,0.00072
 618,0.00004653,-0.00004136,-0.00054360,0.00528709,0.01048524,-0.006728
 03,0.03525241,0.05941634,-0.17133374,0.01744265,0.03366874,-0.01655341
 ,0.01825047,0.01595534,-0.22981830,-0.00056085,-0.00203209,-0.00409402
 ,-0.00259215,0.07880961,0.70161211,0.00003617,0.00006126,0.00008349,-0
 .00005665,-0.00024388,-0.00000451,-0.00011985,-0.00040018,0.00001069,0
 .00001759,0.00043043,0.00051499,0.00096892,0.00061310,-0.00053520,-0.1
 3036185,-0.12150086,-0.10588836,0.01480837,-0.00242796,-0.00452529,-0.
 00373082,0.00339499,-0.00544992,-0.00086759,-0.00141052,0.00010417,0.0
 0172808,-0.04485116,-0.01647815,0.10797526,0.00004167,0.00012749,0.000
 20471,-0.00024333,-0.00045741,0.00000379,-0.00042432,-0.00083472,-0.00
 001806,0.00038658,0.00081987,0.00113254,0.00066394,0.00192183,-0.00091
 862,-0.12110065,-0.37442332,-0.26456149,-0.00362234,0.00567944,-0.0167
 8592,0.00425157,0.00191492,-0.01142672,-0.00139344,-0.00309143,0.00034
 050,-0.04422390,-0.07768245,-0.03499696,0.17094920,0.44392178,-0.00006
 141,-0.00010648,0.00020716,0.00001351,0.00004132,0.00014935,-0.0001632
 2,-0.00038779,-0.00022771,0.00017273,0.00038895,0.00006460,-0.00020506
 ,-0.00016204,0.00232307,-0.10283786,-0.25796887,-0.36549357,-0.0134756
 4,-0.03591018,-0.03746004,0.00101666,0.00233185,-0.00411974,0.00040209
 ,0.00096224,0.00064269,-0.01197764,-0.02541386,0.02425938,0.12689003,0
 .31727174,0.37963789,-0.05849648,-0.03040253,0.05798539,0.00594870,0.0
 0246776,-0.00631548,0.00154096,-0.00439272,0.01319377,0.00660209,-0.00
 380952,-0.00097585,0.00633069,-0.00593763,-0.00005786,0.00000270,0.000
 19069,0.00004762,0.00001496,-0.00004039,0.00000714,-0.00016305,0.00032
 966,0.00065641,-0.00297808,0.00117842,-0.00038831,-0.00028414,-0.00025
 652,0.00000290,-0.00003738,-0.00005974,-0.00001979,0.04781686,-0.03038
 941,-0.09295083,0.08944085,0.00422101,0.01114961,-0.01637183,-0.006146
 32,-0.00491360,0.02753897,-0.00387384,-0.00032055,-0.00349939,-0.00588
 674,-0.00346479,-0.00107015,0.00016746,0.00029125,0.00011585,-0.000039
 72,-0.00004979,0.00000917,0.00022800,0.00039375,0.00142450,0.00118031,
 -0.00110011,-0.00029149,-0.00024234,-0.00067652,0.00002261,-0.00005002
 ,-0.00012257,-0.00003776,0.03659168,0.09116966,0.05807637,0.08963316,-
 0.29147027,0.00691540,0.01162792,-0.01829221,-0.00002514,-0.00043596,0
 .00155755,-0.00146051,-0.00452537,-0.00248122,0.00032507,-0.00025786,0
 .00200139,-0.00010595,-0.00021287,0.00002223,0.00000941,0.00001417,-0.
 00001056,-0.00010672,-0.00019049,-0.00001333,-0.00037695,-0.00026923,0
 .00042801,0.00009263,0.00021679,-0.00001810,0.00004729,0.00010472,0.00
 001730,-0.06331188,-0.09674782,0.30743651,-0.00030891,-0.00416539,0.00
 122137,-0.09158702,-0.11957898,0.00850165,0.00628261,-0.00261650,-0.00
 080067,-0.00249723,-0.00509084,-0.00177470,0.00008144,0.00055204,0.000
 15242,0.00007028,0.00014338,-0.00006205,-0.00000369,-0.00000828,0.0000
 0920,-0.00116452,0.00055733,-0.00003768,0.00680068,-0.00340513,0.00203
 403,-0.00026740,-0.00006760,0.00003761,-0.00003111,-0.00008783,-0.0000
 0826,-0.00290974,0.00174084,-0.00032733,0.08760561,-0.00593856,-0.0103
 9854,0.00326389,-0.11959166,-0.28571561,0.01440725,-0.00256494,0.00160
 910,-0.00325745,-0.00322749,-0.00742549,-0.00295710,0.00049501,0.00088
 378,0.00004346,0.00013875,0.00028151,-0.00011384,-0.00000949,-0.000017
 02,0.00001839,0.00056185,-0.00022577,0.00011579,-0.00337623,0.00172477
 ,0.00250034,-0.00005816,-0.00034314,0.00011463,-0.00007850,-0.00016041
 ,-0.00001522,0.00178639,0.00002038,-0.00005351,0.13085285,0.30016937,-
 0.01215652,-0.02504843,0.00684608,0.00840643,0.01420712,-0.06156233,-0
 .00040758,-0.00242619,-0.00432520,0.01227611,0.02677735,0.00581304,-0.
 00027978,-0.00087001,-0.00226728,-0.00008447,-0.00016307,0.00013660,-0
 .00000053,-0.00000237,-0.00000766,-0.00000070,0.00019512,0.00004944,0.
 00225463,0.00296674,-0.00506472,0.00010098,0.00024942,0.00002905,0.000
 05856,0.00012734,0.00002259,0.00001653,0.00067420,0.00106873,-0.009000
 94,-0.01468676,0.05809766,0.00001631,-0.00680048,-0.01204816,0.0057568
 8,-0.00522413,0.00144665,-0.05345921,-0.04253212,-0.04613806,-0.000408
 40,-0.00045216,0.00032123,0.00287458,0.00547999,0.00503217,0.00004649,
 -0.00011827,0.00002855,0.00002111,0.00000498,-0.00000622,-0.00102275,0
 .00059183,0.00012933,0.00620750,-0.00294662,0.00243639,-0.00016519,0.0
 0015613,-0.00025659,-0.00004240,0.00005967,-0.00002310,-0.00319747,0.0
 0211880,-0.00013233,0.00024780,-0.00042309,-0.00061265,0.04518597,-0.0
 0501641,-0.01143326,-0.02484432,-0.00528920,-0.00258959,0.00215945,-0.
 04255575,-0.14282066,-0.12469057,-0.00037897,-0.00087981,0.00072992,0.
 00371637,0.00957171,0.00834893,-0.00011651,-0.00013829,0.00005014,0.00
 000286,0.00002284,-0.00001426,0.00052098,-0.00013047,0.00047247,-0.003
 01261,0.00182058,0.00334452,0.00020038,0.00011155,-0.00043815,0.000061
 88,0.00005622,-0.00002695,0.00207935,0.00024410,0.00038561,-0.00032121
 ,-0.00044430,-0.00131234,0.04883478,0.14658036,0.00141639,0.00364762,0
 .00738770,0.00095595,0.00112261,0.00151424,-0.04632486,-0.12508115,-0.
 24047252,0.00087447,0.00190187,0.00021169,-0.00828024,-0.01982720,-0.0
 1678116,0.00003268,0.00005732,0.00002260,-0.00002073,-0.00004538,0.000
 00989,-0.00040562,-0.00065177,0.00023516,0.00194384,0.00230287,-0.0059
 1577,0.00008252,0.00027820,0.00052804,-0.00000468,0.00001344,0.0000987
 1,-0.00043004,-0.00024501,0.00081472,0.00015606,0.00031438,0.00028849,
 0.05000679,0.13587025,0.25208053,0.00572789,-0.00350214,0.00180655,0.0
 0719763,0.00312242,0.00678752,-0.00042293,-0.00011225,0.00001028,-0.05
 144771,-0.02727507,-0.03842735,0.00738604,-0.00563989,0.00068102,0.000
 13283,0.00009705,-0.00007871,-0.00000817,-0.00003033,0.00000515,0.0005
 9548,-0.00021540,-0.00049865,-0.00809248,-0.01023025,-0.01264178,-0.00
 003602,-0.00008373,0.00008995,-0.00006934,-0.00005414,0.00003159,-0.00
 018663,0.00038700,0.00037069,-0.00245155,0.00138715,-0.00046042,-0.001
 52616,0.00081060,-0.00021311,0.04343929,-0.00343223,0.00054286,0.00234
 228,0.00143044,0.01065332,0.01114539,-0.00007127,-0.00050563,0.0001096
 5,-0.02734342,-0.11359304,-0.11126883,-0.00553532,-0.00156225,0.000448
 56,0.00012478,0.00032533,-0.00019420,-0.00003168,-0.00005989,0.0000125
 5,-0.00013754,0.00022566,-0.00112746,-0.00872445,-0.02580953,-0.024842
 43,-0.00011584,-0.00021147,0.00020370,-0.00006785,-0.00017810,0.000070
 23,0.00028620,0.00035115,0.00069334,0.00144433,-0.00014188,-0.00047202
 ,0.00081918,-0.00021506,-0.00019869,0.04140279,0.13050011,0.00233475,0
 .00346089,-0.00366106,-0.00596499,-0.01584413,-0.01813351,0.00031094,0
 .00074657,0.00030072,-0.03895471,-0.11238491,-0.26672173,0.00146726,0.
 00210901,0.00258032,0.00014138,0.00027410,-0.00013389,-0.00000770,-0.0
 0001479,0.00001843,0.00008875,0.00011601,0.00012637,-0.00127820,-0.000
 79089,0.01037635,-0.00015406,-0.00031394,0.00011396,-0.00007809,-0.000
 16310,-0.00001268,-0.00038947,-0.00091482,-0.00103208,-0.00002853,0.00
 044190,0.00065106,-0.00014746,-0.00005918,-0.00001651,0.04257824,0.123
 14856,0.27563733,-0.00000439,-0.00000741,-0.00000809,0.00000789,0.0000
 0658,0.00000953,0.00001665,0.00002787,-0.00000529,0.00000527,-0.000008
 17,-0.00002122,0.00001368,-0.00006739,-0.00004192,-0.00186015,0.004645
 63,0.00172358,-0.07953137,-0.07065567,-0.04640167,-0.00000135,0.000265
 69,-0.00015722,-0.00008335,0.00007340,0.00001349,-0.00038181,0.0000445
 3,0.00018141,0.00258686,-0.00015257,0.00142842,0.00000166,0.00000232,-
 0.00000123,0.00000343,0.00000125,-0.00000161,-0.00000055,-0.00000112,0
 .00000198,0.00000649,0.00000350,0.00000338,0.08016044,-0.00000823,-0.0
 0002114,-0.00001776,0.00000544,0.00002032,0.00002600,0.00003015,0.0000
 6531,-0.00001211,0.00000085,0.00000288,-0.00004942,-0.00007332,-0.0001
 2314,-0.00008656,0.00247697,0.00181124,0.00327813,-0.07044751,-0.21470
 728,-0.10916747,0.00028785,0.00043858,-0.00026507,0.00007254,0.0000447
 5,0.00005800,0.00012272,-0.00002716,0.00065423,-0.00016571,0.00256520,
 0.00128019,0.00000242,0.00000530,-0.00000211,0.00000121,0.00000490,-0.
 00000301,-0.00000187,-0.00000296,0.00000700,0.00000416,0.00001459,0.00
 000583,0.07874084,0.23076311,-0.00001286,-0.00002755,-0.00000437,0.000
 00036,0.00000593,0.00004440,0.00000835,0.00001692,-0.00000264,0.000044
 05,0.00008916,-0.00002022,-0.00007804,-0.00016119,0.00006955,-0.014542
 92,-0.03152859,-0.00698276,-0.04482468,-0.10579275,-0.12343521,-0.0000
 0082,0.00006542,0.00038732,0.00000790,0.00004532,0.00009464,0.00080912
 ,0.00201917,0.00163238,0.00134190,0.00109318,-0.01055969,-0.00000072,-
 0.00000110,0.00000395,-0.00000193,-0.00000364,0.00000567,-0.00000354,-
 0.00000497,0.00001957,0.00000711,0.00001374,-0.00000499,0.05009122,0.1
 1842268,0.13065210,-0.00000010,-0.00000263,0.00001060,0.00000123,-0.00
 000478,-0.00000285,0.00000079,-0.00003320,0.00000040,-0.00000035,-0.00
 000682,0.00000605,-0.00001551,0.00002395,0.00008029,0.00290793,-0.0060
 9905,0.00340064,-0.11011468,0.10961683,-0.04004971,-0.00068446,0.00009
 844,0.00013021,-0.00002517,0.00000576,-0.00001392,-0.00069310,-0.00016
 165,0.00106157,0.00011793,-0.00052174,-0.00104568,-0.00000309,-0.00000
 146,0.,0.00000013,-0.00000024,0.00000034,-0.00000013,-0.00000007,-0.00
 000105,-0.00000110,-0.00000176,-0.00000088,0.00620803,-0.01046377,0.00
 506839,0.11722184,0.00000388,0.00000861,0.00001575,-0.00000431,-0.0000
 1512,-0.00000333,-0.00002687,-0.00006746,0.00000653,0.00001504,0.00002
 810,0.00002659,0.00004378,0.00007566,0.00006518,0.00016910,-0.00496178
 ,0.00145900,0.11038243,-0.23124848,0.06269739,-0.00045715,0.00016596,-
 0.00009296,-0.00008006,-0.00003374,0.00001642,-0.00009191,0.00060347,0
 .00156494,-0.00033783,0.00101624,-0.00106276,-0.00000314,-0.00000686,0
 .00000499,-0.00000122,-0.00000747,0.00000361,0.00000205,0.00000331,-0.
 00000218,0.00000167,-0.00000518,-0.00000729,0.01260069,-0.01881225,0.0
 0781466,-0.12023419,0.24829179,-0.00002342,-0.00003536,-0.00005252,0.0
 0000824,0.00003168,0.00004083,0.00006151,0.00021563,-0.00000422,0.0000
 0056,0.00000457,-0.00006367,0.00000342,-0.00029754,-0.00032748,-0.0185
 5797,0.03089158,-0.00957734,-0.04126893,0.06308977,-0.06974097,0.00152
 278,0.00029119,0.00003245,0.00005377,0.00007015,0.00006649,0.00109951,
 -0.00092396,-0.00411330,0.00307269,-0.00280507,0.00217100,0.00001456,0
 .00001504,-0.00000702,0.00000494,0.00000804,-0.00000183,-0.00000400,-0
 .00000889,0.00001290,0.00000991,0.00001894,0.00000832,0.01030284,-0.01
 418553,0.00570934,0.04109985,-0.07034102,0.07429823,0.00000463,0.00001
 214,0.00001056,-0.00000544,-0.00001145,-0.00000480,-0.00002367,-0.0000
 5404,0.00000540,0.00000996,0.00002638,0.00002271,0.00002549,0.00008065
 ,0.00003093,-0.00244833,-0.00184258,-0.00023118,-0.30269357,-0.0373844
 8,0.05176385,0.00008771,-0.00004000,-0.00014634,0.00000213,-0.00006152
 ,0.00001820,0.00024163,0.00066880,0.00093779,0.00151662,0.00038376,-0.
 00023498,-0.00000376,-0.00000498,0.00000444,-0.00000424,-0.00000511,0.
 00000256,0.00000162,0.00000368,-0.00000230,-0.00000365,-0.00000253,-0.
 00000616,-0.00797496,-0.00038906,0.00138209,-0.01538562,-0.00273842,0.
 00298087,0.32676044,-0.00000106,0.00000280,0.00001540,-0.00000794,-0.0
 0000876,-0.00000255,-0.00003662,-0.00004703,0.00000293,0.00000242,0.00
 001677,0.00001806,0.00002132,0.00004972,0.00008646,-0.00611383,-0.0028
 4670,0.00261018,-0.03816281,-0.05103634,0.00490157,0.00062032,-0.00044
 364,0.00012808,0.00003121,-0.00006108,0.00000976,0.00034027,-0.0001905
 7,0.00166987,0.00022069,0.00002686,-0.00136621,-0.00000166,-0.00000573
 ,0.00000301,-0.00000352,-0.00000317,0.00000232,0.00000080,0.00000176,-
 0.00000155,-0.00000278,-0.00000204,-0.00000519,-0.02530475,-0.00270964
 ,0.00675726,0.02782959,0.00481674,-0.00622890,0.04103479,0.05175852,-0
 .00000669,-0.00004216,-0.00005108,0.00001497,0.00002791,0.00004106,0.0
 0012752,0.00018119,0.00000003,0.00001053,0.00000197,-0.00006213,-0.000
 19724,-0.00019793,-0.00033908,0.03668854,0.00518822,-0.00634520,0.0528
 8195,0.00429548,-0.05738057,-0.00077743,0.00137557,-0.00013646,0.00001
 265,0.00008682,0.00006553,-0.00098764,0.00012645,-0.00424949,-0.004202
 61,0.00069608,0.00176545,0.00000277,0.00002024,-0.00000746,0.00000301,
 0.00000853,-0.00000181,-0.00000554,-0.00000786,0.00001276,0.00000729,0
 .00002006,0.00000784,-0.01770622,-0.00088157,0.00378671,-0.00981371,-0
 .00215574,0.00188164,-0.05648775,-0.00855356,0.06130287,0.00006483,0.0
 0056700,-0.00018450,-0.00005846,-0.00021717,-0.00048400,0.00021816,-0.
 00011602,0.00036309,-0.00148245,-0.00016363,-0.00006726,0.01005119,-0.
 01293787,-0.00747616,0.00256977,0.00449238,0.00176001,-0.00002092,-0.0
 0027162,-0.00009023,-0.13273016,0.10593484,0.05455011,-0.00009674,-0.0
 0161638,0.00015938,0.00104029,-0.00322302,0.00815233,-0.00025634,-0.00
 112163,-0.00281987,0.00010886,-0.00000727,0.00002906,0.00008611,-0.000
 04354,0.00000384,-0.00008330,0.00022265,-0.00006346,-0.00013240,-0.000
 08259,-0.00002221,-0.00001053,-0.00001501,-0.00011030,-0.00002112,-0.0
 0003887,0.00007342,-0.00002748,0.00000023,0.00000997,0.14198730,-0.000
 80739,0.00028552,-0.00014063,0.00008527,-0.00015755,-0.00023915,-0.001
 08317,0.00090594,-0.00093963,-0.00183628,-0.00010442,-0.00006254,0.014
 34169,-0.02120830,-0.01038458,-0.00025658,0.00189665,0.00175445,0.0007
 4153,-0.00050161,-0.00013729,0.10845366,-0.17878152,-0.06882192,0.0004
 7251,-0.00249198,0.00119725,-0.00738162,0.00936795,0.00181190,0.000257
 04,-0.00043912,-0.00096527,0.00011608,-0.00007379,0.00004654,0.0002080
 7,-0.00009649,0.00007160,0.00039958,-0.00016019,0.00068006,-0.00023860
 ,-0.00011404,-0.00001828,0.00000614,0.00004324,-0.00007931,-0.00003152
 ,-0.00009537,0.00018977,0.00000807,0.00007106,-0.00005325,-0.11415351,
 0.19169639,-0.00104997,-0.00112883,-0.00026703,0.00011874,0.00039955,0
 .00106873,0.00100566,0.00182354,-0.00049035,0.00064445,0.00059132,-0.0
 0050471,-0.00360676,0.00015705,0.00281326,-0.00275667,-0.00761149,-0.0
 0074251,-0.00101624,0.00068848,-0.00027477,0.05301727,-0.06487393,-0.0
 8129386,-0.00060831,-0.00020402,0.00002416,0.02035253,-0.01849592,-0.0
 3003658,0.00062848,0.00275847,0.00252584,-0.00004320,-0.00001738,-0.00
 002493,0.00005044,-0.00004864,0.00002060,0.00036593,-0.00017584,-0.000
 12209,0.00007364,-0.00000762,0.00000006,0.00005474,-0.00001129,0.00015
 343,0.00013799,0.00021835,-0.00025239,0.00002009,-0.00006699,0.0001340
 6,-0.06295979,0.07537817,0.10283497,0.00032958,-0.00043908,0.00009032,
 -0.00007845,0.00005257,0.00000136,0.00121934,-0.00050098,-0.00075830,0
 .00031327,-0.00044143,0.00009901,-0.00917051,-0.00146582,-0.00449412,0
 .00047042,-0.00153244,0.00043431,-0.00065492,0.00034309,-0.00010230,-0
 .24584943,-0.00513816,-0.10466616,-0.00107235,-0.00015440,0.00072019,0
 .01399828,0.00058584,0.00077008,-0.00018736,0.00031222,0.00073845,-0.0
 0005697,-0.00001176,0.00001510,-0.00010112,0.00005350,0.00003810,-0.00
 045135,0.00012017,0.00052903,0.00004080,-0.00010595,0.00000911,0.00003
 022,0.00003162,-0.00000462,0.00003954,0.00005265,-0.00006064,-0.000051
 35,-0.00005929,0.00012460,-0.01977500,0.00070277,-0.00887945,0.2615922
 6,0.00078332,-0.00004699,-0.00016287,-0.00015263,-0.00016991,-0.000485
 23,0.00077449,-0.00001702,-0.00026344,0.00132049,-0.00186574,0.0001094
 5,-0.02732085,-0.00266660,-0.01500388,0.00197120,0.00414618,0.00244290
 ,-0.00062199,-0.00001366,-0.00022941,-0.00728805,-0.04635098,-0.004235
 24,-0.00240372,-0.00161537,0.00072224,0.00323360,-0.00030986,0.0063833
 5,-0.00049449,-0.00075790,-0.00269103,-0.00014437,0.00008827,0.0000321
 1,-0.00020653,0.00009535,0.00002395,-0.00012218,0.00021739,0.00035764,
 0.00005535,-0.00028151,-0.00000962,0.00002522,0.00000240,-0.00012424,0
 .00004401,0.00001453,-0.00001702,-0.00005911,-0.00006611,0.00016530,0.
 02323376,0.00059732,0.01016933,0.00737082,0.05014389,-0.00018398,-0.00
 159351,-0.00019595,0.00012390,0.00041345,0.00109928,0.00091604,0.00187
 153,-0.00057021,0.00006930,0.00089878,-0.00053689,0.00248873,-0.002578
 60,0.00346204,-0.00406396,-0.00741584,-0.00089865,0.00118336,-0.000313
 70,-0.00013838,-0.10056292,-0.00268299,-0.10054770,0.00023083,-0.00053
 620,0.00011820,-0.02284540,0.00255801,-0.03328467,0.00145384,0.0024665
 5,0.00278337,0.00001743,-0.00005133,-0.00002131,-0.00007237,0.00000995
 ,0.00001586,-0.00039794,0.00016767,-0.00013042,-0.00005114,0.00005506,
 -0.00000650,-0.00005778,0.00004452,0.00015160,-0.00007662,-0.00001662,
 0.00012432,0.00010296,0.00023304,-0.00025438,0.00957821,0.00002497,0.0
 0721305,0.11439155,0.00276942,0.12472893,0.00012677,0.00026975,0.00010
 785,0.00053166,0.00013119,-0.00036379,-0.00003389,-0.00058445,-0.00026
 750,-0.00073654,-0.00096048,-0.00110082,0.00190736,-0.00003793,0.00068
 336,-0.01052987,-0.00312152,-0.01041914,-0.00261372,0.00124664,-0.0003
 1030,-0.00132719,0.00835292,0.00197909,-0.00303349,0.00149811,0.001327
 86,-0.04348696,-0.10161166,-0.06757843,0.00600487,-0.00404300,0.002179
 04,-0.00005069,0.00001645,-0.00003742,0.00014844,0.00004026,-0.0001529
 0,-0.00000135,0.00011815,-0.00025363,-0.00014829,0.00014122,0.00009865
 ,0.00080782,-0.00021229,0.00081994,0.00044699,0.00074270,-0.00039390,-
 0.00002817,-0.00040737,0.00030103,-0.00143162,-0.00000374,0.00445042,-
 0.00058489,0.00000163,-0.00224403,0.05403277,0.00023019,0.00052201,0.0
 0022047,0.00014556,0.00065579,-0.00076066,-0.00054221,-0.00100786,-0.0
 0065904,-0.00076318,-0.00224434,-0.00208665,-0.00020369,0.00165016,0.0
 0086149,-0.00174189,-0.01585784,-0.01914832,0.00135625,-0.00039972,-0.
 00025472,0.00694312,0.00991065,0.00233979,0.00115951,-0.00079557,0.003
 15294,-0.10124355,-0.23751433,-0.17311152,-0.00395965,0.00009758,0.003
 76790,0.00001959,-0.00002836,-0.00006716,0.00005298,0.00019016,-0.0003
 1457,0.00015313,0.00018476,-0.00050032,0.00011638,0.00006660,0.0002232
 8,-0.00024658,0.00062177,0.00137991,-0.00005571,0.00022931,0.00001694,
 0.00037499,0.00067657,-0.00030173,-0.00044274,-0.00063968,0.00045770,0
 .00022407,-0.00114369,0.00367585,0.09842343,0.24482603,-0.00019483,-0.
 00042127,-0.00006228,-0.00024448,-0.00050764,0.00052787,0.00007391,0.0
 0006286,-0.00047783,0.00039094,0.00106842,0.00145435,-0.00054056,-0.00
 174598,-0.00256467,0.00110791,0.00547221,0.01451658,0.00034478,0.00112
 627,-0.00021154,-0.00847445,-0.01973229,-0.01864129,-0.00126491,-0.002
 32077,-0.00098621,-0.06621965,-0.17054723,-0.22857259,0.00296068,0.005
 46289,0.00120504,-0.00001194,-0.00001333,0.00002811,-0.00005628,-0.000
 11039,0.00018596,0.00000853,0.00005439,0.00020146,-0.00008779,-0.00017
 079,-0.00009782,0.00059164,0.00090532,-0.00170077,0.00000808,-0.000211
 53,-0.00020478,-0.00016895,-0.00021299,-0.00017028,-0.00040164,0.00068
 715,-0.00277894,0.00100438,0.00004630,-0.00311158,0.07117463,0.1811084
 0,0.24146121\\-0.00000141,-0.00000275,0.00000173,-0.00000047,0.0000009
 8,0.00000230,0.00000225,0.00000020,-0.00000239,0.00000470,0.00000076,0
 .00000051,-0.00000704,-0.00000168,-0.00000298,-0.00001074,0.00000194,0
 .00000268,0.00000638,0.00000435,-0.00000273,-0.00000282,0.00000346,0.0
 0000493,-0.00000067,0.00000022,0.00000029,0.00001834,-0.00001216,-0.00
 000033,0.00000042,0.00000197,0.00000172,0.00000015,0.00000043,-0.00000
 038,-0.00000058,-0.00000003,-0.00000053,0.00000075,-0.00000035,0.00000
 028,-0.00000052,0.00000074,-0.00000018,-0.00000026,-0.00000105,-0.0000
 0080,-0.00000159,-0.00000089,-0.00000019,-0.00000202,-0.00000206,-0.00
 000059,0.00000151,0.00000112,-0.00000329,-0.00000054,-0.00000090,-0.00
 000180,-0.00000584,0.00000570,0.00000173\\\@


 DESK:  A WASTEBASKET WITH DRAWERS.
 Job cpu time:  0 days  0 hours 56 minutes  3.9 seconds.
 File lengths (MBytes):  RWF=     96 Int=      0 D2E=      0 Chk=      3 Scr=      1
 Normal termination of Gaussian 09 at Fri Feb 16 20:28:23 2018.
