 Entering Gaussian System, Link 0=g09
 Initial command:
 /home/fb_chem/chemsoft/lx24-amd64/Gaussian_09_C.01_NBO_3.1_64_istanbul-64/g09/l1.exe /local/2397357.1.parallel/Gau-19067.inp -scrdir=/local/2397357.1.parallel/
 Entering Link 1 = /home/fb_chem/chemsoft/lx24-amd64/Gaussian_09_C.01_NBO_3.1_64_istanbul-64/g09/l1.exe PID=     19069.
  
 Copyright (c) 1988,1990,1992,1993,1995,1998,2003,2009,2011,
            Gaussian, Inc.  All Rights Reserved.
  
 This is part of the Gaussian(R) 09 program.  It is based on
 the Gaussian(R) 03 system (copyright 2003, Gaussian, Inc.),
 the Gaussian(R) 98 system (copyright 1998, Gaussian, Inc.),
 the Gaussian(R) 94 system (copyright 1995, Gaussian, Inc.),
 the Gaussian 92(TM) system (copyright 1992, Gaussian, Inc.),
 the Gaussian 90(TM) system (copyright 1990, Gaussian, Inc.),
 the Gaussian 88(TM) system (copyright 1988, Gaussian, Inc.),
 the Gaussian 86(TM) system (copyright 1986, Carnegie Mellon
 University), and the Gaussian 82(TM) system (copyright 1983,
 Carnegie Mellon University). Gaussian is a federally registered
 trademark of Gaussian, Inc.
  
 This software contains proprietary and confidential information,
 including trade secrets, belonging to Gaussian, Inc.
  
 This software is provided under written license and may be
 used, copied, transmitted, or stored only in accord with that
 written license.
  
 The following legend is applicable only to US Government
 contracts under FAR:
  
                    RESTRICTED RIGHTS LEGEND
  
 Use, reproduction and disclosure by the US Government is
 subject to restrictions as set forth in subparagraphs (a)
 and (c) of the Commercial Computer Software - Restricted
 Rights clause in FAR 52.227-19.
  
 Gaussian, Inc.
 340 Quinnipiac St., Bldg. 40, Wallingford CT 06492
  
  
 ---------------------------------------------------------------
 Warning -- This program may not be used in any manner that
 competes with the business of Gaussian, Inc. or will provide
 assistance to any competitor of Gaussian, Inc.  The licensee
 of this program is prohibited from giving any competitor of
 Gaussian, Inc. access to this program.  By using this program,
 the user acknowledges that Gaussian, Inc. is engaged in the
 business of creating and licensing software in the field of
 computational chemistry and represents and warrants to the
 licensee that it is not a competitor of Gaussian, Inc. and that
 it will not use this program in any manner prohibited above.
 ---------------------------------------------------------------
  

 Cite this work as:
 Gaussian 09, Revision C.01,
 M. J. Frisch, G. W. Trucks, H. B. Schlegel, G. E. Scuseria, 
 M. A. Robb, J. R. Cheeseman, G. Scalmani, V. Barone, B. Mennucci, 
 G. A. Petersson, H. Nakatsuji, M. Caricato, X. Li, H. P. Hratchian, 
 A. F. Izmaylov, J. Bloino, G. Zheng, J. L. Sonnenberg, M. Hada, 
 M. Ehara, K. Toyota, R. Fukuda, J. Hasegawa, M. Ishida, T. Nakajima, 
 Y. Honda, O. Kitao, H. Nakai, T. Vreven, J. A. Montgomery, Jr., 
 J. E. Peralta, F. Ogliaro, M. Bearpark, J. J. Heyd, E. Brothers, 
 K. N. Kudin, V. N. Staroverov, T. Keith, R. Kobayashi, J. Normand, 
 K. Raghavachari, A. Rendell, J. C. Burant, S. S. Iyengar, J. Tomasi, 
 M. Cossi, N. Rega, J. M. Millam, M. Klene, J. E. Knox, J. B. Cross, 
 V. Bakken, C. Adamo, J. Jaramillo, R. Gomperts, R. E. Stratmann, 
 O. Yazyev, A. J. Austin, R. Cammi, C. Pomelli, J. W. Ochterski, 
 R. L. Martin, K. Morokuma, V. G. Zakrzewski, G. A. Voth, 
 P. Salvador, J. J. Dannenberg, S. Dapprich, A. D. Daniels, 
 O. Farkas, J. B. Foresman, J. V. Ortiz, J. Cioslowski, 
 and D. J. Fox, Gaussian, Inc., Wallingford CT, 2010.
 
 ******************************************
 Gaussian 09:  AM64L-G09RevC.01 23-Sep-2011
                16-Feb-2018 
 ******************************************
 %nprocs=4
 Will use up to    4 processors via shared memory.
 %chk=frag22-conf2.chk
 ---------------------------------------------------------
 #B3LYP/6-31G* Integral=(Grid=UltraFine) freq Opt pop=none
 ---------------------------------------------------------
 1/14=-1,18=20,19=15,26=3,38=1/1,3;
 2/9=110,12=2,17=6,18=5,40=1/2;
 3/5=1,6=6,7=1,11=2,16=1,25=1,30=1,71=1,74=-5,75=-5/1,2,3;
 4//1;
 5/5=2,38=5/2;
 7//1,2,3,16;
 1/14=-1,18=20,19=15/3(2);
 2/9=110/2;
 99//99;
 2/9=110/2;
 3/5=1,6=6,7=1,11=2,16=1,25=1,30=1,71=1,74=-5,75=-5/1,2,3;
 4/5=5,16=3/1;
 5/5=2,38=5/2;
 7//1,2,3,16;
 1/14=-1,18=20,19=15/3(-5);
 2/9=110/2;
 99/9=1/99;
 -----------------------------
 Optimization for frag22-conf2
 -----------------------------
 Charge =  0 Multiplicity = 1
 Symbolic Z-Matrix:
 C                    -4.04286   3.15215  -3.68394 
 C                    -2.99258   2.25959  -3.88427 
 C                    -4.93246   2.95263  -2.63101 
 C                    -2.82791   1.16923  -3.02858 
 C                    -4.76918   1.86299  -1.77424 
 C                    -3.70826   0.96374  -1.95622 
 C                    -0.30083   0.33299  -0.3634 
 C                    -3.52566  -0.21454  -1.02987 
 N                    -1.41328   1.13335   0.17195 
 O                    -3.70908   1.29154   1.18145 
 O                    -2.44757  -0.86882   1.31992 
 S                    -2.83967   0.30656   0.5578 
 H                    -4.17113   4.00178  -4.35238 
 H                    -2.30114   2.4107   -4.71177 
 H                    -5.75703   3.64673  -2.47663 
 H                    -2.00512   0.47885  -3.21154 
 H                    -5.47836   1.72346  -0.95803 
 H                     0.00598  -0.4348    0.35116 
 H                     0.55319   0.9948   -0.53571 
 H                    -0.56576  -0.12673  -1.31722 
 H                    -2.85606  -0.97009  -1.45181 
 H                    -4.48768  -0.6955   -0.82431 
 H                    -1.63129   1.95547  -0.40631 
 

 GradGradGradGradGradGradGradGradGradGradGradGradGradGradGradGradGradGrad
 Berny optimization.
 Initialization pass.
                           ----------------------------
                           !    Initial Parameters    !
                           ! (Angstroms and Degrees)  !
 --------------------------                            --------------------------
 ! Name  Definition              Value          Derivative Info.                !
 --------------------------------------------------------------------------------
 ! R1    R(1,2)                  1.3928         estimate D2E/DX2                !
 ! R2    R(1,3)                  1.3928         estimate D2E/DX2                !
 ! R3    R(1,13)                 1.0886         estimate D2E/DX2                !
 ! R4    R(2,4)                  1.3958         estimate D2E/DX2                !
 ! R5    R(2,14)                 1.0889         estimate D2E/DX2                !
 ! R6    R(3,5)                  1.3957         estimate D2E/DX2                !
 ! R7    R(3,15)                 1.0888         estimate D2E/DX2                !
 ! R8    R(4,6)                  1.4026         estimate D2E/DX2                !
 ! R9    R(4,16)                 1.0895         estimate D2E/DX2                !
 ! R10   R(5,6)                  1.4026         estimate D2E/DX2                !
 ! R11   R(5,17)                 1.0902         estimate D2E/DX2                !
 ! R12   R(6,8)                  1.5099         estimate D2E/DX2                !
 ! R13   R(7,9)                  1.4713         estimate D2E/DX2                !
 ! R14   R(7,18)                 1.0928         estimate D2E/DX2                !
 ! R15   R(7,19)                 1.0941         estimate D2E/DX2                !
 ! R16   R(7,20)                 1.0915         estimate D2E/DX2                !
 ! R17   R(8,12)                 1.8063         estimate D2E/DX2                !
 ! R18   R(8,21)                 1.0942         estimate D2E/DX2                !
 ! R19   R(8,22)                 1.095          estimate D2E/DX2                !
 ! R20   R(9,12)                 1.6932         estimate D2E/DX2                !
 ! R21   R(9,23)                 1.0285         estimate D2E/DX2                !
 ! R22   R(10,12)                1.4543         estimate D2E/DX2                !
 ! R23   R(11,12)                1.4547         estimate D2E/DX2                !
 ! A1    A(2,1,3)              119.9061         estimate D2E/DX2                !
 ! A2    A(2,1,13)             120.0446         estimate D2E/DX2                !
 ! A3    A(3,1,13)             120.0486         estimate D2E/DX2                !
 ! A4    A(1,2,4)              120.0924         estimate D2E/DX2                !
 ! A5    A(1,2,14)             119.9479         estimate D2E/DX2                !
 ! A6    A(4,2,14)             119.9594         estimate D2E/DX2                !
 ! A7    A(1,3,5)              120.0784         estimate D2E/DX2                !
 ! A8    A(1,3,15)             119.972          estimate D2E/DX2                !
 ! A9    A(5,3,15)             119.9496         estimate D2E/DX2                !
 ! A10   A(2,4,6)              120.6055         estimate D2E/DX2                !
 ! A11   A(2,4,16)             118.7599         estimate D2E/DX2                !
 ! A12   A(6,4,16)             120.6343         estimate D2E/DX2                !
 ! A13   A(3,5,6)              120.6217         estimate D2E/DX2                !
 ! A14   A(3,5,17)             118.9067         estimate D2E/DX2                !
 ! A15   A(6,5,17)             120.4713         estimate D2E/DX2                !
 ! A16   A(4,6,5)              118.6876         estimate D2E/DX2                !
 ! A17   A(4,6,8)              120.4975         estimate D2E/DX2                !
 ! A18   A(5,6,8)              120.8093         estimate D2E/DX2                !
 ! A19   A(9,7,18)             110.8887         estimate D2E/DX2                !
 ! A20   A(9,7,19)             108.5687         estimate D2E/DX2                !
 ! A21   A(9,7,20)             111.3198         estimate D2E/DX2                !
 ! A22   A(18,7,19)            107.9883         estimate D2E/DX2                !
 ! A23   A(18,7,20)            110.0985         estimate D2E/DX2                !
 ! A24   A(19,7,20)            107.8553         estimate D2E/DX2                !
 ! A25   A(6,8,12)             111.1035         estimate D2E/DX2                !
 ! A26   A(6,8,21)             112.1034         estimate D2E/DX2                !
 ! A27   A(6,8,22)             110.5904         estimate D2E/DX2                !
 ! A28   A(12,8,21)            107.802          estimate D2E/DX2                !
 ! A29   A(12,8,22)            107.1791         estimate D2E/DX2                !
 ! A30   A(21,8,22)            107.8623         estimate D2E/DX2                !
 ! A31   A(7,9,12)             117.0162         estimate D2E/DX2                !
 ! A32   A(7,9,23)             112.987          estimate D2E/DX2                !
 ! A33   A(12,9,23)            109.8686         estimate D2E/DX2                !
 ! A34   A(8,12,9)             105.0992         estimate D2E/DX2                !
 ! A35   A(8,12,10)            110.1984         estimate D2E/DX2                !
 ! A36   A(8,12,11)            109.254          estimate D2E/DX2                !
 ! A37   A(9,12,10)            105.7011         estimate D2E/DX2                !
 ! A38   A(9,12,11)            106.6699         estimate D2E/DX2                !
 ! A39   A(10,12,11)           118.9286         estimate D2E/DX2                !
 ! D1    D(3,1,2,4)             -0.2431         estimate D2E/DX2                !
 ! D2    D(3,1,2,14)           179.5376         estimate D2E/DX2                !
 ! D3    D(13,1,2,4)          -179.9417         estimate D2E/DX2                !
 ! D4    D(13,1,2,14)           -0.161          estimate D2E/DX2                !
 ! D5    D(2,1,3,5)              0.2537         estimate D2E/DX2                !
 ! D6    D(2,1,3,15)          -179.6718         estimate D2E/DX2                !
 ! D7    D(13,1,3,5)           179.9524         estimate D2E/DX2                !
 ! D8    D(13,1,3,15)            0.0269         estimate D2E/DX2                !
 ! D9    D(1,2,4,6)             -0.4033         estimate D2E/DX2                !
 ! D10   D(1,2,4,16)           179.3678         estimate D2E/DX2                !
 ! D11   D(14,2,4,6)           179.816          estimate D2E/DX2                !
 ! D12   D(14,2,4,16)           -0.4128         estimate D2E/DX2                !
 ! D13   D(1,3,5,6)              0.3818         estimate D2E/DX2                !
 ! D14   D(1,3,5,17)          -179.8221         estimate D2E/DX2                !
 ! D15   D(15,3,5,6)          -179.6926         estimate D2E/DX2                !
 ! D16   D(15,3,5,17)            0.1034         estimate D2E/DX2                !
 ! D17   D(2,4,6,5)              1.0192         estimate D2E/DX2                !
 ! D18   D(2,4,6,8)           -179.8361         estimate D2E/DX2                !
 ! D19   D(16,4,6,5)          -178.7476         estimate D2E/DX2                !
 ! D20   D(16,4,6,8)             0.3971         estimate D2E/DX2                !
 ! D21   D(3,5,6,4)             -1.0086         estimate D2E/DX2                !
 ! D22   D(3,5,6,8)            179.8494         estimate D2E/DX2                !
 ! D23   D(17,5,6,4)           179.1985         estimate D2E/DX2                !
 ! D24   D(17,5,6,8)             0.0565         estimate D2E/DX2                !
 ! D25   D(4,6,8,12)           105.044          estimate D2E/DX2                !
 ! D26   D(4,6,8,21)           -15.6494         estimate D2E/DX2                !
 ! D27   D(4,6,8,22)          -136.0622         estimate D2E/DX2                !
 ! D28   D(5,6,8,12)           -75.8296         estimate D2E/DX2                !
 ! D29   D(5,6,8,21)           163.4771         estimate D2E/DX2                !
 ! D30   D(5,6,8,22)            43.0642         estimate D2E/DX2                !
 ! D31   D(18,7,9,12)          -59.8926         estimate D2E/DX2                !
 ! D32   D(18,7,9,23)          171.006          estimate D2E/DX2                !
 ! D33   D(19,7,9,12)         -178.3759         estimate D2E/DX2                !
 ! D34   D(19,7,9,23)           52.5227         estimate D2E/DX2                !
 ! D35   D(20,7,9,12)           63.0483         estimate D2E/DX2                !
 ! D36   D(20,7,9,23)          -66.0531         estimate D2E/DX2                !
 ! D37   D(6,8,12,9)           -55.3            estimate D2E/DX2                !
 ! D38   D(6,8,12,10)           58.1484         estimate D2E/DX2                !
 ! D39   D(6,8,12,11)         -169.4395         estimate D2E/DX2                !
 ! D40   D(21,8,12,9)           67.8983         estimate D2E/DX2                !
 ! D41   D(21,8,12,10)        -178.6532         estimate D2E/DX2                !
 ! D42   D(21,8,12,11)         -46.2411         estimate D2E/DX2                !
 ! D43   D(22,8,12,9)         -176.2229         estimate D2E/DX2                !
 ! D44   D(22,8,12,10)         -62.7744         estimate D2E/DX2                !
 ! D45   D(22,8,12,11)          69.6376         estimate D2E/DX2                !
 ! D46   D(7,9,12,8)           -69.0221         estimate D2E/DX2                !
 ! D47   D(7,9,12,10)          174.4057         estimate D2E/DX2                !
 ! D48   D(7,9,12,11)           46.9111         estimate D2E/DX2                !
 ! D49   D(23,9,12,8)           61.5467         estimate D2E/DX2                !
 ! D50   D(23,9,12,10)         -55.0255         estimate D2E/DX2                !
 ! D51   D(23,9,12,11)         177.4799         estimate D2E/DX2                !
 --------------------------------------------------------------------------------
 Trust Radius=3.00D-01 FncErr=1.00D-07 GrdErr=1.00D-06
 Number of steps in this run=    123 maximum allowed number of steps=    138.
 GradGradGradGradGradGradGradGradGradGradGradGradGradGradGradGradGradGrad

                          Input orientation:                          
 ---------------------------------------------------------------------
 Center     Atomic      Atomic             Coordinates (Angstroms)
 Number     Number       Type             X           Y           Z
 ---------------------------------------------------------------------
      1          6           0       -4.042865    3.152150   -3.683937
      2          6           0       -2.992583    2.259586   -3.884273
      3          6           0       -4.932462    2.952631   -2.631006
      4          6           0       -2.827913    1.169229   -3.028580
      5          6           0       -4.769184    1.862989   -1.774236
      6          6           0       -3.708263    0.963738   -1.956224
      7          6           0       -0.300830    0.332988   -0.363401
      8          6           0       -3.525664   -0.214538   -1.029871
      9          7           0       -1.413276    1.133345    0.171949
     10          8           0       -3.709080    1.291540    1.181445
     11          8           0       -2.447574   -0.868822    1.319921
     12         16           0       -2.839673    0.306563    0.557800
     13          1           0       -4.171130    4.001781   -4.352376
     14          1           0       -2.301138    2.410702   -4.711766
     15          1           0       -5.757033    3.646727   -2.476627
     16          1           0       -2.005124    0.478847   -3.211541
     17          1           0       -5.478361    1.723461   -0.958031
     18          1           0        0.005985   -0.434803    0.351159
     19          1           0        0.553187    0.994805   -0.535714
     20          1           0       -0.565756   -0.126731   -1.317218
     21          1           0       -2.856055   -0.970094   -1.451805
     22          1           0       -4.487684   -0.695503   -0.824313
     23          1           0       -1.631287    1.955465   -0.406310
 ---------------------------------------------------------------------
                    Distance matrix (angstroms):
                    1          2          3          4          5
     1  C    0.000000
     2  C    1.392802   0.000000
     3  C    1.392787   2.411249   0.000000
     4  C    2.416108   1.395781   2.787062   0.000000
     5  C    2.415871   2.786728   1.395720   2.413133   0.000000
     6  C    2.808220   2.430801   2.430985   1.402565   1.402614
     7  C    5.742513   4.832582   5.784165   3.766779   4.929253
     8  C    4.318119   3.814849   3.817548   2.529131   2.533089
     9  N    5.085092   4.496172   4.852940   3.499410   3.947421
    10  O    5.219696   5.206916   4.334820   4.302990   3.191618
    11  O    6.614512   6.096524   6.032246   4.817444   4.735660
    12  S    5.247606   4.854863   4.642189   3.688692   3.403508
    13  H    1.088639   2.154841   2.154869   3.402943   3.402779
    14  H    2.154017   1.088888   3.398105   2.156818   3.875606
    15  H    2.154200   3.398207   1.088816   3.875873   2.156599
    16  H    3.394421   2.144452   3.876330   1.089533   3.409064
    17  H    3.395933   3.876778   2.146557   3.408698   1.090225
    18  H    6.748438   5.847224   6.690013   4.693243   5.709587
    19  H    5.974039   5.038353   6.189965   4.204360   5.533110
    20  H    5.333170   4.263070   5.502420   3.118593   4.672970
    21  H    4.835683   4.045537   4.592358   2.657765   3.433713
    22  H    4.814535   4.509016   4.095222   3.330294   2.743624
    23  H    4.241533   3.747244   4.103823   2.987705   3.424350
                    6          7          8          9         10
     6  C    0.000000
     7  C    3.813859   0.000000
     8  C    1.509903   3.338191   0.000000
     9  N    3.134462   1.471294   2.779090   0.000000
    10  O    3.154746   3.862840   2.681759   2.512931   0.000000
    11  O    3.959891   2.981011   2.666812   2.529088   2.505541
    12  S    2.739825   2.700932   1.806330   1.693239   1.454297
    13  H    3.896858   6.659668   5.406756   6.025214   6.179165
    14  H    3.415658   5.217893   4.684837   5.125486   6.161555
    15  H    3.415656   6.724339   4.688441   5.674528   4.808587
    16  H    2.170627   3.322317   2.748182   3.496664   4.781450
    17  H    2.169519   5.393869   2.752095   4.260282   2.809674
    18  H    4.590814   1.092811   3.798461   2.122618   4.179873
    19  H    4.492078   1.094092   4.282957   2.094506   4.604737
    20  H    3.387152   1.091464   2.975118   2.126899   4.258555
    21  H    2.172649   3.067869   1.094198   3.023681   3.574443
    22  H    2.154484   4.335894   1.095018   3.713382   2.928759
    23  H    2.774813   2.098663   2.947271   1.028491   2.697960
                   11         12         13         14         15
    11  O    0.000000
    12  S    1.454682   0.000000
    13  H    7.672573   6.287865   0.000000
    14  H    6.867166   5.699627   2.481444   0.000000
    15  H    6.764354   5.373586   2.481852   4.297303   0.000000
    16  H    4.748275   3.864465   4.290006   2.463811   4.965117
    17  H    4.592893   3.356787   4.291989   4.965639   2.466321
    18  H    2.673354   2.947896   7.697715   6.249235   7.607078
    19  H    3.990119   3.630557   6.777019   5.252747   7.114683
    20  H    3.323618   2.978948   6.265422   4.579637   6.521700
    21  H    2.803494   2.380890   5.904429   4.729171   5.548060
    22  H    2.964765   2.372828   5.883189   5.435236   4.816258
    23  H    3.409223   2.260218   5.119536   4.380969   4.916133
                   16         17         18         19         20
    16  H    0.000000
    17  H    4.323279   0.000000
    18  H    4.191915   6.037394   0.000000
    19  H    3.737810   6.090062   1.769110   0.000000
    20  H    2.454988   5.261740   1.790329   1.766529   0.000000
    21  H    2.433143   3.791509   3.424688   4.040171   2.444349
    22  H    3.638827   2.617385   4.652178   5.324548   3.993491
    23  H    3.192096   3.893353   2.994629   2.389883   2.510109
                   21         22         23
    21  H    0.000000
    22  H    1.769565   0.000000
    23  H    3.339463   3.919358   0.000000
 Stoichiometry    C8H11NO2S
 Framework group  C1[X(C8H11NO2S)]
 Deg. of freedom    63
 Full point group                 C1      NOp   1
 Largest Abelian subgroup         C1      NOp   1
 Largest concise Abelian subgroup C1      NOp   1
                         Standard orientation:                         
 ---------------------------------------------------------------------
 Center     Atomic      Atomic             Coordinates (Angstroms)
 Number     Number       Type             X           Y           Z
 ---------------------------------------------------------------------
      1          6           0        3.505667    0.173466   -0.445739
      2          6           0        2.834832    1.264022    0.102499
      3          6           0        2.909728   -1.085342   -0.435086
      4          6           0        1.564977    1.097695    0.657483
      5          6           0        1.639893   -1.253456    0.119253
      6          6           0        0.947357   -0.161553    0.662822
      7          6           0       -1.887085    2.146846   -0.424723
      8          6           0       -0.427935   -0.337972    1.260530
      9          7           0       -1.502270    0.852620   -1.009192
     10          8           0       -1.364572   -1.653240   -0.880640
     11          8           0       -3.002178   -0.432431    0.570430
     12         16           0       -1.679640   -0.516940   -0.029445
     13          1           0        4.496461    0.303892   -0.877542
     14          1           0        3.303258    2.247004    0.101307
     15          1           0        3.435428   -1.939641   -0.858564
     16          1           0        1.064287    1.963464    1.089729
     17          1           0        1.192651   -2.247721    0.120097
     18          1           0       -2.940696    2.145533   -0.134655
     19          1           0       -1.745450    2.925964   -1.179675
     20          1           0       -1.261814    2.395837    0.434539
     21          1           0       -0.715115    0.509694    1.890021
     22          1           0       -0.466924   -1.242329    1.876715
     23          1           0       -0.562570    0.864137   -1.427073
 ---------------------------------------------------------------------
 Rotational constants (GHZ):      1.6279971      0.5608584      0.4824953
 Standard basis: 6-31G(d) (6D, 7F)
 There are   206 symmetry adapted basis functions of A   symmetry.
 Integral buffers will be    131072 words long.
 Raffenetti 2 integral format.
 Two-electron integral symmetry is turned on.
   206 basis functions,   404 primitive gaussians,   206 cartesian basis functions
    49 alpha electrons       49 beta electrons
       nuclear repulsion energy       843.8011821990 Hartrees.
 NAtoms=   23 NActive=   23 NUniq=   23 SFac= 1.00D+00 NAtFMM=   60 NAOKFM=F Big=F
 One-electron integrals computed using PRISM.
 NBasis=   206 RedAO= T  NBF=   206
 NBsUse=   206 1.00D-06 NBFU=   206
 Harris functional with IExCor=  402 diagonalized for initial guess.
 ExpMin= 1.17D-01 ExpMax= 2.19D+04 ExpMxC= 3.30D+03 IAcc=3 IRadAn=         5 AccDes= 0.00D+00
 HarFok:  IExCor=  402 AccDes= 0.00D+00 IRadAn=         5 IDoV= 1
 ScaDFX=  1.000000  1.000000  1.000000  1.000000
 FoFCou: FMM=F IPFlag=           0 FMFlag=      100000 FMFlg1=           0
         NFxFlg=           0 DoJE=T BraDBF=F KetDBF=T FulRan=T
         Omega=  0.000000  0.000000  1.000000  0.000000  0.000000 ICntrl=     500 IOpCl=  0
         NMat0=    1 NMatS0=    1 NMatT0=    0 NMatD0=    1 NMtDS0=    0 NMtDT0=    0
         I1Cent=           4 NGrid=           0.
 Petite list used in FoFCou.
 Initial guess orbital symmetries:
       Occupied  (A) (A) (A) (A) (A) (A) (A) (A) (A) (A) (A) (A)
                 (A) (A) (A) (A) (A) (A) (A) (A) (A) (A) (A) (A)
                 (A) (A) (A) (A) (A) (A) (A) (A) (A) (A) (A) (A)
                 (A) (A) (A) (A) (A) (A) (A) (A) (A) (A) (A) (A)
                 (A)
       Virtual   (A) (A) (A) (A) (A) (A) (A) (A) (A) (A) (A) (A)
                 (A) (A) (A) (A) (A) (A) (A) (A) (A) (A) (A) (A)
                 (A) (A) (A) (A) (A) (A) (A) (A) (A) (A) (A) (A)
                 (A) (A) (A) (A) (A) (A) (A) (A) (A) (A) (A) (A)
                 (A) (A) (A) (A) (A) (A) (A) (A) (A) (A) (A) (A)
                 (A) (A) (A) (A) (A) (A) (A) (A) (A) (A) (A) (A)
                 (A) (A) (A) (A) (A) (A) (A) (A) (A) (A) (A) (A)
                 (A) (A) (A) (A) (A) (A) (A) (A) (A) (A) (A) (A)
                 (A) (A) (A) (A) (A) (A) (A) (A) (A) (A) (A) (A)
                 (A) (A) (A) (A) (A) (A) (A) (A) (A) (A) (A) (A)
                 (A) (A) (A) (A) (A) (A) (A) (A) (A) (A) (A) (A)
                 (A) (A) (A) (A) (A) (A) (A) (A) (A) (A) (A) (A)
                 (A) (A) (A) (A) (A) (A) (A) (A) (A) (A) (A) (A)
                 (A)
 The electronic state of the initial guess is 1-A.
 Requested convergence on RMS density matrix=1.00D-08 within 128 cycles.
 Requested convergence on MAX density matrix=1.00D-06.
 Requested convergence on             energy=1.00D-06.
 No special actions if energy rises.
 Integral accuracy reduced to 1.0D-05 until final iterations.
 Initial convergence to 1.0D-05 achieved.  Increase integral accuracy.
 SCF Done:  E(RB3LYP) =  -914.792619394     A.U. after   15 cycles
             Convg  =    0.4635D-08             -V/T =  2.0070
 Calling FoFJK, ICntrl=      2127 FMM=F ISym2X=0 I1Cent= 0 IOpClX= 0 NMat=1 NMatS=1 NMatT=0.
 ***** Axes restored to original set *****
 -------------------------------------------------------------------
 Center     Atomic                   Forces (Hartrees/Bohr)
 Number     Number              X              Y              Z
 -------------------------------------------------------------------
      1        6          -0.000047987    0.003736834   -0.003204533
      2        6           0.002120991   -0.000421549   -0.001724826
      3        6          -0.001342533   -0.000671580    0.001953814
      4        6           0.001733919    0.001563569   -0.000837439
      5        6          -0.004111526    0.001923893    0.001864564
      6        6          -0.001855573   -0.002396258   -0.005219805
      7        6          -0.000658597    0.004372683   -0.000556388
      8        6          -0.008673308    0.001991699   -0.011893710
      9        7           0.000500073    0.001992812   -0.003419176
     10        8          -0.011290081    0.008246134   -0.004414407
     11        8           0.003404719   -0.014073813   -0.001104482
     12       16           0.016012016    0.008059911    0.016584552
     13        1           0.000235715   -0.001049980    0.000719508
     14        1          -0.000804081   -0.000775227    0.001202750
     15        1           0.001023638   -0.001577392    0.000248970
     16        1          -0.001640805   -0.000498978    0.001541972
     17        1           0.003733969   -0.001041062   -0.001000413
     18        1          -0.004089941    0.001155837    0.000283246
     19        1          -0.001062142    0.001442704    0.001166960
     20        1           0.003230490   -0.005661952   -0.004310724
     21        1           0.000748819    0.000716937    0.001828315
     22        1           0.001447005   -0.000896576    0.004196648
     23        1           0.001385220   -0.006138647    0.006094606
 -------------------------------------------------------------------
 Cartesian Forces:  Max     0.016584552 RMS     0.004812516

 GradGradGradGradGradGradGradGradGradGradGradGradGradGradGradGradGradGrad
 Berny optimization.
 Internal  Forces:  Max     0.011720262 RMS     0.003495627
 Search for a local minimum.
 Step number   1 out of a maximum of  123
 All quantities printed in internal units (Hartrees-Bohrs-Radians)
 Mixed Optimization -- RFO/linear search
 Second derivative matrix not updated -- first step.
 ITU=  0
     Eigenvalues ---    0.00287   0.00635   0.00749   0.01386   0.01481
     Eigenvalues ---    0.02067   0.02096   0.02103   0.02135   0.02162
     Eigenvalues ---    0.02165   0.02174   0.02184   0.02342   0.04274
     Eigenvalues ---    0.05568   0.07149   0.07578   0.07997   0.08400
     Eigenvalues ---    0.08947   0.12277   0.12629   0.13132   0.16000
     Eigenvalues ---    0.16000   0.16000   0.16000   0.16000   0.16000
     Eigenvalues ---    0.16000   0.16000   0.18391   0.21959   0.21999
     Eigenvalues ---    0.22000   0.23017   0.23472   0.24997   0.25000
     Eigenvalues ---    0.25624   0.31360   0.34239   0.34332   0.34344
     Eigenvalues ---    0.34490   0.34644   0.34787   0.34867   0.34941
     Eigenvalues ---    0.34950   0.34970   0.35586   0.36716   0.41828
     Eigenvalues ---    0.41869   0.43011   0.45449   0.46144   0.46332
     Eigenvalues ---    0.46748   0.93879   0.94046
 RFO step:  Lambda=-6.58741582D-03 EMin= 2.86564739D-03
 Linear search not attempted -- first point.
 Iteration  1 RMS(Cart)=  0.09254411 RMS(Int)=  0.00232505
 Iteration  2 RMS(Cart)=  0.00289106 RMS(Int)=  0.00037278
 Iteration  3 RMS(Cart)=  0.00000421 RMS(Int)=  0.00037276
 Iteration  4 RMS(Cart)=  0.00000000 RMS(Int)=  0.00037276
 Variable       Old X    -DE/DX   Delta X   Delta X   Delta X     New X
                                 (Linear)    (Quad)   (Total)
    R1        2.63201   0.00219   0.00000   0.00497   0.00497   2.63699
    R2        2.63199   0.00342   0.00000   0.00751   0.00751   2.63949
    R3        2.05723  -0.00129   0.00000  -0.00362  -0.00362   2.05361
    R4        2.63764   0.00038   0.00000   0.00087   0.00087   2.63851
    R5        2.05770  -0.00153   0.00000  -0.00431  -0.00431   2.05340
    R6        2.63753  -0.00062   0.00000  -0.00137  -0.00137   2.63615
    R7        2.05756  -0.00175   0.00000  -0.00490  -0.00490   2.05266
    R8        2.65046  -0.00029   0.00000  -0.00095  -0.00095   2.64951
    R9        2.05892  -0.00118   0.00000  -0.00333  -0.00333   2.05559
   R10        2.65056  -0.00088   0.00000  -0.00230  -0.00230   2.64826
   R11        2.06023  -0.00304   0.00000  -0.00859  -0.00859   2.05164
   R12        2.85330   0.00190   0.00000   0.00595   0.00595   2.85925
   R13        2.78034  -0.00142   0.00000  -0.00391  -0.00391   2.77644
   R14        2.06511  -0.00178   0.00000  -0.00505  -0.00505   2.06006
   R15        2.06753  -0.00014   0.00000  -0.00040  -0.00040   2.06714
   R16        2.06257   0.00537   0.00000   0.01521   0.01521   2.07778
   R17        3.41347   0.01172   0.00000   0.04459   0.04459   3.45806
   R18        2.06774  -0.00074   0.00000  -0.00212  -0.00212   2.06561
   R19        2.06928  -0.00009   0.00000  -0.00026  -0.00026   2.06903
   R20        3.19976  -0.00180   0.00000  -0.00481  -0.00481   3.19495
   R21        1.94357  -0.00863   0.00000  -0.01975  -0.01975   1.92381
   R22        2.74822   0.01044   0.00000   0.01103   0.01103   2.75925
   R23        2.74895   0.01171   0.00000   0.01239   0.01239   2.76134
    A1        2.09276  -0.00123   0.00000  -0.00393  -0.00394   2.08882
    A2        2.09517   0.00050   0.00000   0.00125   0.00125   2.09642
    A3        2.09524   0.00074   0.00000   0.00269   0.00269   2.09794
    A4        2.09601  -0.00066   0.00000  -0.00195  -0.00195   2.09406
    A5        2.09349   0.00090   0.00000   0.00441   0.00441   2.09790
    A6        2.09369  -0.00025   0.00000  -0.00247  -0.00247   2.09121
    A7        2.09576   0.00068   0.00000   0.00363   0.00363   2.09939
    A8        2.09391   0.00041   0.00000   0.00270   0.00270   2.09660
    A9        2.09352  -0.00109   0.00000  -0.00632  -0.00632   2.08719
   A10        2.10496   0.00074   0.00000   0.00277   0.00274   2.10770
   A11        2.07275   0.00164   0.00000   0.01066   0.01063   2.08338
   A12        2.10547  -0.00238   0.00000  -0.01347  -0.01350   2.09196
   A13        2.10525  -0.00029   0.00000  -0.00210  -0.00212   2.10312
   A14        2.07531   0.00263   0.00000   0.01593   0.01590   2.09121
   A15        2.10262  -0.00234   0.00000  -0.01386  -0.01388   2.08874
   A16        2.07149   0.00077   0.00000   0.00182   0.00178   2.07327
   A17        2.10308   0.00045   0.00000   0.00243   0.00239   2.10547
   A18        2.10852  -0.00121   0.00000  -0.00403  -0.00407   2.10445
   A19        1.93537  -0.00677   0.00000  -0.04634  -0.04635   1.88902
   A20        1.89488  -0.00320   0.00000  -0.01793  -0.01847   1.87641
   A21        1.94290   0.00984   0.00000   0.06348   0.06368   2.00657
   A22        1.88475   0.00299   0.00000   0.00862   0.00777   1.89252
   A23        1.92158  -0.00209   0.00000  -0.01474  -0.01412   1.90746
   A24        1.88243  -0.00081   0.00000   0.00679   0.00651   1.88894
   A25        1.93912   0.01043   0.00000   0.04824   0.04832   1.98744
   A26        1.95657  -0.00227   0.00000   0.00163   0.00178   1.95835
   A27        1.93017   0.00004   0.00000   0.01467   0.01535   1.94552
   A28        1.88150  -0.00383   0.00000  -0.02038  -0.02096   1.86054
   A29        1.87063  -0.00676   0.00000  -0.04695  -0.04743   1.82320
   A30        1.88255   0.00188   0.00000  -0.00150  -0.00244   1.88011
   A31        2.04232   0.00320   0.00000   0.01954   0.01914   2.06145
   A32        1.97200  -0.00003   0.00000   0.01441   0.01397   1.98596
   A33        1.91757  -0.00127   0.00000   0.00641   0.00586   1.92343
   A34        1.83433   0.00774   0.00000   0.02244   0.02296   1.85729
   A35        1.92333  -0.01003   0.00000  -0.06043  -0.06096   1.86236
   A36        1.90684  -0.00681   0.00000  -0.04336  -0.04390   1.86295
   A37        1.84483   0.00197   0.00000   0.02266   0.02292   1.86775
   A38        1.86174  -0.00040   0.00000   0.00995   0.01008   1.87182
   A39        2.07570   0.00866   0.00000   0.05286   0.05058   2.12628
    D1       -0.00424   0.00002   0.00000   0.00098   0.00097  -0.00328
    D2        3.13352  -0.00005   0.00000  -0.00121  -0.00124   3.13228
    D3       -3.14057  -0.00002   0.00000  -0.00082  -0.00083  -3.14140
    D4       -0.00281  -0.00009   0.00000  -0.00301  -0.00303  -0.00584
    D5        0.00443  -0.00010   0.00000  -0.00387  -0.00387   0.00055
    D6       -3.13586  -0.00012   0.00000  -0.00481  -0.00483  -3.14070
    D7        3.14076  -0.00006   0.00000  -0.00208  -0.00209   3.13868
    D8        0.00047  -0.00008   0.00000  -0.00302  -0.00304  -0.00257
    D9       -0.00704   0.00023   0.00000   0.00888   0.00889   0.00185
   D10        3.13056  -0.00016   0.00000  -0.00523  -0.00533   3.12523
   D11        3.13838   0.00030   0.00000   0.01105   0.01108  -3.13373
   D12       -0.00721  -0.00009   0.00000  -0.00306  -0.00315  -0.01035
   D13        0.00666  -0.00007   0.00000  -0.00305  -0.00303   0.00364
   D14       -3.13849  -0.00042   0.00000  -0.01532  -0.01541   3.12928
   D15       -3.13623  -0.00005   0.00000  -0.00211  -0.00207  -3.13830
   D16        0.00180  -0.00040   0.00000  -0.01437  -0.01445  -0.01265
   D17        0.01779  -0.00037   0.00000  -0.01548  -0.01551   0.00228
   D18       -3.13873  -0.00004   0.00000   0.00053   0.00054  -3.13819
   D19       -3.11973   0.00001   0.00000  -0.00116  -0.00128  -3.12101
   D20        0.00693   0.00034   0.00000   0.01485   0.01477   0.02171
   D21       -0.01760   0.00030   0.00000   0.01261   0.01260  -0.00501
   D22        3.13896  -0.00005   0.00000  -0.00350  -0.00350   3.13546
   D23        3.12760   0.00064   0.00000   0.02500   0.02490  -3.13068
   D24        0.00099   0.00030   0.00000   0.00889   0.00881   0.00979
   D25        1.83336   0.00103   0.00000   0.02749   0.02740   1.86077
   D26       -0.27313   0.00018   0.00000   0.01864   0.01846  -0.25467
   D27       -2.37473  -0.00070   0.00000   0.00931   0.00959  -2.36515
   D28       -1.32348   0.00138   0.00000   0.04389   0.04379  -1.27968
   D29        2.85321   0.00054   0.00000   0.03504   0.03485   2.88806
   D30        0.75161  -0.00035   0.00000   0.02571   0.02598   0.77759
   D31       -1.04532   0.00031   0.00000   0.03672   0.03743  -1.00789
   D32        2.98462  -0.00086   0.00000  -0.00597  -0.00547   2.97915
   D33       -3.11325   0.00262   0.00000   0.06454   0.06440  -3.04885
   D34        0.91669   0.00145   0.00000   0.02185   0.02150   0.93819
   D35        1.10040  -0.00023   0.00000   0.02968   0.02944   1.12984
   D36       -1.15284  -0.00141   0.00000  -0.01301  -0.01346  -1.16631
   D37       -0.96517  -0.00046   0.00000  -0.02747  -0.02760  -0.99277
   D38        1.01488   0.00128   0.00000  -0.01702  -0.01780   0.99708
   D39       -2.95728  -0.00082   0.00000  -0.03063  -0.03025  -2.98753
   D40        1.18505   0.00077   0.00000  -0.00843  -0.00877   1.17628
   D41       -3.11809   0.00252   0.00000   0.00203   0.00103  -3.11706
   D42       -0.80706   0.00041   0.00000  -0.01159  -0.01142  -0.81848
   D43       -3.07567  -0.00238   0.00000  -0.04415  -0.04354  -3.11921
   D44       -1.09562  -0.00064   0.00000  -0.03370  -0.03373  -1.12935
   D45        1.21541  -0.00275   0.00000  -0.04731  -0.04618   1.16922
   D46       -1.20466  -0.00180   0.00000  -0.03173  -0.03173  -1.23639
   D47        3.04395   0.00518   0.00000   0.01639   0.01667   3.06063
   D48        0.81875  -0.00612   0.00000  -0.06609  -0.06645   0.75231
   D49        1.07419  -0.00016   0.00000   0.01323   0.01327   1.08747
   D50       -0.96038   0.00682   0.00000   0.06135   0.06168  -0.89870
   D51        3.09761  -0.00448   0.00000  -0.02113  -0.02144   3.07617
         Item               Value     Threshold  Converged?
 Maximum Force            0.011720     0.000450     NO 
 RMS     Force            0.003496     0.000300     NO 
 Maximum Displacement     0.400678     0.001800     NO 
 RMS     Displacement     0.092396     0.001200     NO 
 Predicted change in Energy=-3.484116D-03
 GradGradGradGradGradGradGradGradGradGradGradGradGradGradGradGradGradGrad

                          Input orientation:                          
 ---------------------------------------------------------------------
 Center     Atomic      Atomic             Coordinates (Angstroms)
 Number     Number       Type             X           Y           Z
 ---------------------------------------------------------------------
      1          6           0       -4.113658    3.163288   -3.740169
      2          6           0       -3.075765    2.259350   -3.970181
      3          6           0       -4.959776    2.980534   -2.643983
      4          6           0       -2.884989    1.180942   -3.104083
      5          6           0       -4.770176    1.900867   -1.781210
      6          6           0       -3.727916    0.989988   -2.000096
      7          6           0       -0.227705    0.304726   -0.264670
      8          6           0       -3.515848   -0.177173   -1.060905
      9          7           0       -1.359225    1.097417    0.235263
     10          8           0       -3.721188    1.278337    1.142739
     11          8           0       -2.475103   -0.947177    1.251681
     12         16           0       -2.811669    0.295544    0.560608
     13          1           0       -4.264261    4.003311   -4.412962
     14          1           0       -2.417861    2.388534   -4.825280
     15          1           0       -5.770485    3.679286   -2.458575
     16          1           0       -2.082397    0.473730   -3.301429
     17          1           0       -5.425240    1.772537   -0.924983
     18          1           0       -0.012559   -0.478748    0.462159
     19          1           0        0.639149    0.969298   -0.323684
     20          1           0       -0.380624   -0.149775   -1.254099
     21          1           0       -2.847281   -0.931500   -1.483779
     22          1           0       -4.461789   -0.670546   -0.814843
     23          1           0       -1.537400    1.943286   -0.302473
 ---------------------------------------------------------------------
                    Distance matrix (angstroms):
                    1          2          3          4          5
     1  C    0.000000
     2  C    1.395433   0.000000
     3  C    1.396760   2.414209   0.000000
     4  C    2.417422   1.396240   2.784774   0.000000
     5  C    2.421206   2.791260   1.394993   2.412926   0.000000
     6  C    2.810673   2.432656   2.427827   1.402061   1.401398
     7  C    5.945679   5.065848   5.934102   3.986374   5.047930
     8  C    4.323715   3.820236   3.816042   2.533187   2.531882
     9  N    5.259162   4.688534   4.979975   3.672350   4.043053
    10  O    5.248796   5.246037   4.332532   4.329458   3.168185
    11  O    6.670783   6.157146   6.064380   4.865139   4.751541
    12  S    5.330649   4.945132   4.700312   3.770844   3.449192
    13  H    1.086725   2.156381   2.158495   3.403134   3.406220
    14  H    2.157183   1.086610   3.401449   2.153836   3.877830
    15  H    2.157269   3.400395   1.086222   3.870980   2.149934
    16  H    3.398859   2.149988   3.872417   1.087773   3.401756
    17  H    3.402896   3.876886   2.151946   3.398725   1.085680
    18  H    6.909632   6.043679   6.788940   4.870678   5.773231
    19  H    6.251011   5.362999   6.385673   4.493880   5.679172
    20  H    5.576063   4.521590   5.718326   3.386015   4.873515
    21  H    4.843789   4.051656   4.594857   2.662558   3.436319
    22  H    4.834978   4.523440   4.113895   3.339899   2.764260
    23  H    4.465789   3.989806   4.274484   3.200966   3.555180
                    6          7          8          9         10
     6  C    0.000000
     7  C    3.966455   0.000000
     8  C    1.513049   3.417324   0.000000
     9  N    3.258691   1.469227   2.820577   0.000000
    10  O    3.156042   3.890134   2.648909   2.536753   0.000000
    11  O    3.987004   2.986198   2.650304   2.541389   2.552942
    12  S    2.806950   2.712570   1.829928   1.690693   1.460131
    13  H    3.897397   6.868889   5.410439   6.203986   6.211781
    14  H    3.413772   5.471582   4.686038   5.328864   6.208740
    15  H    3.408022   6.850057   4.680720   5.777718   4.788907
    16  H    2.160492   3.562352   2.738322   3.663352   4.804545
    17  H    2.156190   5.441034   2.732328   4.281873   2.724610
    18  H    4.692949   1.090138   3.831933   2.085495   4.159864
    19  H    4.677824   1.093881   4.372859   2.079023   4.610688
    20  H    3.613854   1.099512   3.141291   2.175166   4.352437
    21  H    2.175825   3.142716   1.093075   3.047281   3.541989
    22  H    2.168126   4.379648   1.094882   3.722139   2.859853
    23  H    2.930710   2.098001   2.997636   1.018037   2.701801
                   11         12         13         14         15
    11  O    0.000000
    12  S    1.461237   0.000000
    13  H    7.732826   6.371339   0.000000
    14  H    6.932511   5.791674   2.487308   0.000000
    15  H    6.784519   5.414773   2.488640   4.302025   0.000000
    16  H    4.785813   3.934325   4.295809   2.470048   4.958627
    17  H    4.564868   3.349514   4.300026   4.963476   2.471192
    18  H    2.628098   2.905897   7.869729   6.477948   7.679430
    19  H    3.981611   3.625474   7.069007   5.623514   7.279093
    20  H    3.361789   3.066178   6.504551   4.831841   6.720348
    21  H    2.760707   2.384622   5.911032   4.729974   5.545691
    22  H    2.879924   2.355439   5.901730   5.442355   4.830691
    23  H    3.413130   2.254711   5.345615   4.629173   5.057814
                   16         17         18         19         20
    16  H    0.000000
    17  H    4.302208   0.000000
    18  H    4.399550   6.024082   0.000000
    19  H    4.064402   6.146834   1.771754   0.000000
    20  H    2.734292   5.408489   1.785843   1.777058   0.000000
    21  H    2.421481   3.777557   3.468042   4.136913   2.597739
    22  H    3.626842   2.628502   4.632836   5.380511   4.137639
    23  H    3.383837   3.941063   2.962440   2.384631   2.573835
                   21         22         23
    21  H    0.000000
    22  H    1.766977   0.000000
    23  H    3.372783   3.955590   0.000000
 Stoichiometry    C8H11NO2S
 Framework group  C1[X(C8H11NO2S)]
 Deg. of freedom    63
 Full point group                 C1      NOp   1
 Largest Abelian subgroup         C1      NOp   1
 Largest concise Abelian subgroup C1      NOp   1
                         Standard orientation:                         
 ---------------------------------------------------------------------
 Center     Atomic      Atomic             Coordinates (Angstroms)
 Number     Number       Type             X           Y           Z
 ---------------------------------------------------------------------
      1          6           0        3.565530    0.201092   -0.441973
      2          6           0        2.899352    1.283558    0.133968
      3          6           0        2.951252   -1.053000   -0.471185
      4          6           0        1.623378    1.110495    0.673807
      5          6           0        1.677723   -1.225395    0.071412
      6          6           0        0.997769   -0.143980    0.647712
      7          6           0       -2.060373    2.124596   -0.463183
      8          6           0       -0.386820   -0.327279    1.229633
      9          7           0       -1.622562    0.838277   -1.022050
     10          8           0       -1.319555   -1.674541   -0.851618
     11          8           0       -2.975078   -0.478133    0.679838
     12         16           0       -1.698840   -0.528644   -0.030006
     13          1           0        4.558781    0.333262   -0.862632
     14          1           0        3.372852    2.260947    0.169019
     15          1           0        3.463560   -1.900764   -0.916959
     16          1           0        1.119454    1.957542    1.134046
     17          1           0        1.202648   -2.200910    0.034344
     18          1           0       -3.093560    2.018627   -0.131979
     19          1           0       -2.029915    2.861771   -1.270785
     20          1           0       -1.448855    2.501112    0.369407
     21          1           0       -0.685081    0.514923    1.859355
     22          1           0       -0.449144   -1.236089    1.837044
     23          1           0       -0.721181    0.880823   -1.493328
 ---------------------------------------------------------------------
 Rotational constants (GHZ):      1.6219739      0.5404891      0.4684861
 Standard basis: 6-31G(d) (6D, 7F)
 There are   206 symmetry adapted basis functions of A   symmetry.
 Integral buffers will be    131072 words long.
 Raffenetti 2 integral format.
 Two-electron integral symmetry is turned on.
   206 basis functions,   404 primitive gaussians,   206 cartesian basis functions
    49 alpha electrons       49 beta electrons
       nuclear repulsion energy       837.3798767395 Hartrees.
 NAtoms=   23 NActive=   23 NUniq=   23 SFac= 1.00D+00 NAtFMM=   60 NAOKFM=F Big=F
 One-electron integrals computed using PRISM.
 NBasis=   206 RedAO= T  NBF=   206
 NBsUse=   206 1.00D-06 NBFU=   206
 Initial guess read from the read-write file.
 B after Tr=     0.000000    0.000000    0.000000
         Rot=    1.000000    0.000000    0.000000    0.000000 Ang=   0.00 deg.
 Initial guess orbital symmetries:
       Occupied  (A) (A) (A) (A) (A) (A) (A) (A) (A) (A) (A) (A)
                 (A) (A) (A) (A) (A) (A) (A) (A) (A) (A) (A) (A)
                 (A) (A) (A) (A) (A) (A) (A) (A) (A) (A) (A) (A)
                 (A) (A) (A) (A) (A) (A) (A) (A) (A) (A) (A) (A)
                 (A)
       Virtual   (A) (A) (A) (A) (A) (A) (A) (A) (A) (A) (A) (A)
                 (A) (A) (A) (A) (A) (A) (A) (A) (A) (A) (A) (A)
                 (A) (A) (A) (A) (A) (A) (A) (A) (A) (A) (A) (A)
                 (A) (A) (A) (A) (A) (A) (A) (A) (A) (A) (A) (A)
                 (A) (A) (A) (A) (A) (A) (A) (A) (A) (A) (A) (A)
                 (A) (A) (A) (A) (A) (A) (A) (A) (A) (A) (A) (A)
                 (A) (A) (A) (A) (A) (A) (A) (A) (A) (A) (A) (A)
                 (A) (A) (A) (A) (A) (A) (A) (A) (A) (A) (A) (A)
                 (A) (A) (A) (A) (A) (A) (A) (A) (A) (A) (A) (A)
                 (A) (A) (A) (A) (A) (A) (A) (A) (A) (A) (A) (A)
                 (A) (A) (A) (A) (A) (A) (A) (A) (A) (A) (A) (A)
                 (A) (A) (A) (A) (A) (A) (A) (A) (A) (A) (A) (A)
                 (A) (A) (A) (A) (A) (A) (A) (A) (A) (A) (A) (A)
                 (A)
 Harris functional with IExCor=  402 diagonalized for initial guess.
 ExpMin= 1.17D-01 ExpMax= 2.19D+04 ExpMxC= 3.30D+03 IAcc=3 IRadAn=         5 AccDes= 0.00D+00
 HarFok:  IExCor=  402 AccDes= 0.00D+00 IRadAn=         5 IDoV= 1
 ScaDFX=  1.000000  1.000000  1.000000  1.000000
 FoFCou: FMM=F IPFlag=           0 FMFlag=      100000 FMFlg1=           0
         NFxFlg=           0 DoJE=T BraDBF=F KetDBF=T FulRan=T
         Omega=  0.000000  0.000000  1.000000  0.000000  0.000000 ICntrl=     500 IOpCl=  0
         NMat0=    1 NMatS0=    1 NMatT0=    0 NMatD0=    1 NMtDS0=    0 NMtDT0=    0
         I1Cent=           4 NGrid=           0.
 Petite list used in FoFCou.
 Requested convergence on RMS density matrix=1.00D-08 within 128 cycles.
 Requested convergence on MAX density matrix=1.00D-06.
 Requested convergence on             energy=1.00D-06.
 No special actions if energy rises.
 Integral accuracy reduced to 1.0D-05 until final iterations.
 Initial convergence to 1.0D-05 achieved.  Increase integral accuracy.
 SCF Done:  E(RB3LYP) =  -914.795852721     A.U. after   13 cycles
             Convg  =    0.3834D-08             -V/T =  2.0071
 Calling FoFJK, ICntrl=      2127 FMM=F ISym2X=0 I1Cent= 0 IOpClX= 0 NMat=1 NMatS=1 NMatT=0.
 ***** Axes restored to original set *****
 -------------------------------------------------------------------
 Center     Atomic                   Forces (Hartrees/Bohr)
 Number     Number              X              Y              Z
 -------------------------------------------------------------------
      1        6           0.000088814    0.000081679   -0.000033838
      2        6          -0.000291224   -0.000149645    0.000271050
      3        6           0.000420546   -0.000592700    0.000132581
      4        6           0.000456584    0.000212933   -0.000206610
      5        6          -0.001286032    0.001777716    0.000063475
      6        6           0.001045304   -0.003167184    0.001082556
      7        6           0.000787891    0.001443851    0.002818193
      8        6          -0.002416276    0.001825637   -0.007367552
      9        7          -0.001447312   -0.002773839   -0.002102473
     10        8          -0.000125171    0.003969242    0.002312419
     11        8           0.002503058   -0.002243255    0.001699216
     12       16           0.001518511    0.000989795   -0.002663727
     13        1          -0.000060024   -0.000086705    0.000078748
     14        1           0.000076898   -0.000061608    0.000047542
     15        1          -0.000167364    0.000060647   -0.000047763
     16        1           0.000100179   -0.000368203    0.000505357
     17        1           0.000459381   -0.000287865    0.000163585
     18        1           0.000046688   -0.001067109   -0.000391506
     19        1          -0.000114312   -0.000013345    0.000358086
     20        1          -0.001420124    0.000198439   -0.000104463
     21        1           0.000647930    0.000069326   -0.000034648
     22        1           0.000662242   -0.000202094    0.002077555
     23        1          -0.001486187    0.000384288    0.001342218
 -------------------------------------------------------------------
 Cartesian Forces:  Max     0.007367552 RMS     0.001550186

 GradGradGradGradGradGradGradGradGradGradGradGradGradGradGradGradGradGrad
 Berny optimization.
 Using GEDIIS/GDIIS optimizer.
 Internal  Forces:  Max     0.004362522 RMS     0.001095358
 Search for a local minimum.
 Step number   2 out of a maximum of  123
 All quantities printed in internal units (Hartrees-Bohrs-Radians)
 Mixed Optimization -- RFO/linear search
 Update second derivatives using D2CorX and points    1    2
 DE= -3.23D-03 DEPred=-3.48D-03 R= 9.28D-01
 SS=  1.41D+00  RLast= 2.41D-01 DXNew= 5.0454D-01 7.2161D-01
 Trust test= 9.28D-01 RLast= 2.41D-01 DXMaxT set to 5.05D-01
 ITU=  1  0
 Use linear search instead of GDIIS.
     Eigenvalues ---    0.00291   0.00640   0.00745   0.01388   0.01479
     Eigenvalues ---    0.02063   0.02099   0.02104   0.02135   0.02152
     Eigenvalues ---    0.02162   0.02166   0.02174   0.02184   0.04024
     Eigenvalues ---    0.05542   0.06875   0.07840   0.08383   0.08518
     Eigenvalues ---    0.09021   0.12371   0.12770   0.14254   0.15769
     Eigenvalues ---    0.15998   0.15999   0.16000   0.16000   0.16000
     Eigenvalues ---    0.16000   0.17542   0.19300   0.20841   0.22000
     Eigenvalues ---    0.22001   0.22889   0.23509   0.23839   0.25173
     Eigenvalues ---    0.25390   0.31851   0.34239   0.34339   0.34343
     Eigenvalues ---    0.34510   0.34576   0.34771   0.34872   0.34937
     Eigenvalues ---    0.34952   0.34967   0.35624   0.37094   0.41823
     Eigenvalues ---    0.41930   0.43071   0.45482   0.46122   0.46344
     Eigenvalues ---    0.46749   0.91949   0.93978
 RFO step:  Lambda=-7.75241556D-04 EMin= 2.91183092D-03
 Quartic linear search produced a step of -0.00391.
 Iteration  1 RMS(Cart)=  0.03683608 RMS(Int)=  0.00075521
 Iteration  2 RMS(Cart)=  0.00095002 RMS(Int)=  0.00005096
 Iteration  3 RMS(Cart)=  0.00000086 RMS(Int)=  0.00005096
 Variable       Old X    -DE/DX   Delta X   Delta X   Delta X     New X
                                 (Linear)    (Quad)   (Total)
    R1        2.63699   0.00012  -0.00002   0.00081   0.00079   2.63778
    R2        2.63949   0.00011  -0.00003   0.00114   0.00111   2.64060
    R3        2.05361  -0.00011   0.00001  -0.00075  -0.00074   2.05288
    R4        2.63851  -0.00034   0.00000  -0.00066  -0.00066   2.63785
    R5        2.05340   0.00000   0.00002  -0.00052  -0.00051   2.05289
    R6        2.63615  -0.00052   0.00001  -0.00126  -0.00125   2.63490
    R7        2.05266   0.00016   0.00002  -0.00016  -0.00014   2.05252
    R8        2.64951  -0.00045   0.00000  -0.00110  -0.00110   2.64842
    R9        2.05559   0.00022   0.00001   0.00022   0.00024   2.05583
   R10        2.64826   0.00096   0.00001   0.00189   0.00190   2.65016
   R11        2.05164  -0.00011   0.00003  -0.00139  -0.00135   2.05029
   R12        2.85925  -0.00338  -0.00002  -0.00998  -0.01001   2.84924
   R13        2.77644  -0.00176   0.00002  -0.00539  -0.00538   2.77106
   R14        2.06006   0.00052   0.00002   0.00086   0.00088   2.06095
   R15        2.06714  -0.00012   0.00000  -0.00039  -0.00039   2.06674
   R16        2.07778   0.00021  -0.00006   0.00247   0.00241   2.08019
   R17        3.45806   0.00323  -0.00017   0.01800   0.01782   3.47588
   R18        2.06561   0.00036   0.00001   0.00079   0.00080   2.06641
   R19        2.06903  -0.00001   0.00000  -0.00007  -0.00007   2.06896
   R20        3.19495  -0.00436   0.00002  -0.01241  -0.01239   3.18256
   R21        1.92381  -0.00013   0.00008  -0.00274  -0.00266   1.92115
   R22        2.75925   0.00367  -0.00004   0.00525   0.00520   2.76445
   R23        2.76134   0.00329  -0.00005   0.00501   0.00497   2.76630
    A1        2.08882   0.00016   0.00002   0.00014   0.00015   2.08897
    A2        2.09642  -0.00001   0.00000   0.00025   0.00025   2.09667
    A3        2.09794  -0.00015  -0.00001  -0.00039  -0.00040   2.09754
    A4        2.09406   0.00005   0.00001  -0.00017  -0.00017   2.09389
    A5        2.09790   0.00008  -0.00002   0.00116   0.00114   2.09904
    A6        2.09121  -0.00013   0.00001  -0.00098  -0.00097   2.09025
    A7        2.09939   0.00002  -0.00001   0.00065   0.00063   2.10002
    A8        2.09660  -0.00004  -0.00001   0.00007   0.00006   2.09666
    A9        2.08719   0.00001   0.00002  -0.00072  -0.00069   2.08650
   A10        2.10770  -0.00023  -0.00001  -0.00069  -0.00070   2.10700
   A11        2.08338   0.00070  -0.00004   0.00547   0.00543   2.08881
   A12        2.09196  -0.00048   0.00005  -0.00481  -0.00475   2.08721
   A13        2.10312  -0.00043   0.00001  -0.00198  -0.00198   2.10115
   A14        2.09121   0.00074  -0.00006   0.00607   0.00601   2.09723
   A15        2.08874  -0.00031   0.00005  -0.00411  -0.00405   2.08469
   A16        2.07327   0.00043  -0.00001   0.00209   0.00205   2.07532
   A17        2.10547  -0.00133  -0.00001  -0.00508  -0.00510   2.10036
   A18        2.10445   0.00090   0.00002   0.00297   0.00297   2.10742
   A19        1.88902   0.00127   0.00018   0.00218   0.00235   1.89137
   A20        1.87641   0.00021   0.00007   0.00059   0.00066   1.87707
   A21        2.00657  -0.00239  -0.00025  -0.00873  -0.00899   1.99759
   A22        1.89252   0.00004  -0.00003   0.00508   0.00505   1.89757
   A23        1.90746  -0.00001   0.00006  -0.00479  -0.00476   1.90271
   A24        1.88894   0.00098  -0.00003   0.00651   0.00649   1.89542
   A25        1.98744   0.00109  -0.00019   0.00969   0.00953   1.99697
   A26        1.95835  -0.00067  -0.00001  -0.00384  -0.00383   1.95452
   A27        1.94552   0.00143  -0.00006   0.01781   0.01781   1.96333
   A28        1.86054  -0.00030   0.00008  -0.00765  -0.00759   1.85295
   A29        1.82320  -0.00213   0.00019  -0.02177  -0.02165   1.80155
   A30        1.88011   0.00042   0.00001   0.00363   0.00348   1.88359
   A31        2.06145   0.00019  -0.00007   0.00649   0.00626   2.06771
   A32        1.98596   0.00141  -0.00005   0.01905   0.01889   2.00485
   A33        1.92343  -0.00111  -0.00002  -0.00112  -0.00140   1.92203
   A34        1.85729   0.00209  -0.00009   0.01002   0.00997   1.86726
   A35        1.86236   0.00217   0.00024   0.00994   0.01021   1.87257
   A36        1.86295   0.00011   0.00017  -0.00024  -0.00005   1.86290
   A37        1.86775  -0.00284  -0.00009  -0.01618  -0.01634   1.85141
   A38        1.87182  -0.00162  -0.00004  -0.01275  -0.01283   1.85899
   A39        2.12628   0.00047  -0.00020   0.01033   0.00994   2.13622
    D1       -0.00328   0.00005   0.00000   0.00250   0.00250  -0.00078
    D2        3.13228   0.00007   0.00000   0.00361   0.00361   3.13589
    D3       -3.14140   0.00002   0.00000   0.00081   0.00082  -3.14058
    D4       -0.00584   0.00005   0.00001   0.00192   0.00193  -0.00391
    D5        0.00055  -0.00002   0.00002  -0.00182  -0.00180  -0.00124
    D6       -3.14070  -0.00002   0.00002  -0.00203  -0.00201   3.14048
    D7        3.13868   0.00000   0.00001  -0.00013  -0.00011   3.13856
    D8       -0.00257   0.00000   0.00001  -0.00034  -0.00033  -0.00290
    D9        0.00185   0.00005  -0.00003   0.00373   0.00368   0.00554
   D10        3.12523   0.00005   0.00002   0.00226   0.00226   3.12749
   D11       -3.13373   0.00002  -0.00004   0.00261   0.00257  -3.13116
   D12       -0.01035   0.00002   0.00001   0.00114   0.00115  -0.00921
   D13        0.00364  -0.00009   0.00001  -0.00511  -0.00509  -0.00146
   D14        3.12928  -0.00010   0.00006  -0.00639  -0.00634   3.12294
   D15       -3.13830  -0.00009   0.00001  -0.00489  -0.00488   3.14001
   D16       -0.01265  -0.00010   0.00006  -0.00618  -0.00613  -0.01878
   D17        0.00228  -0.00016   0.00006  -0.01046  -0.01041  -0.00813
   D18       -3.13819   0.00001   0.00000   0.00195   0.00192  -3.13627
   D19       -3.12101  -0.00017   0.00000  -0.00910  -0.00910  -3.13011
   D20        0.02171  -0.00001  -0.00006   0.00332   0.00324   0.02494
   D21       -0.00501   0.00018  -0.00005   0.01113   0.01109   0.00608
   D22        3.13546   0.00001   0.00001  -0.00128  -0.00130   3.13416
   D23       -3.13068   0.00017  -0.00010   0.01232   0.01224  -3.11844
   D24        0.00979   0.00001  -0.00003  -0.00009  -0.00015   0.00964
   D25        1.86077   0.00020  -0.00011  -0.00474  -0.00487   1.85590
   D26       -0.25467   0.00029  -0.00007   0.00110   0.00104  -0.25363
   D27       -2.36515  -0.00079  -0.00004  -0.01355  -0.01356  -2.37870
   D28       -1.27968   0.00037  -0.00017   0.00790   0.00769  -1.27199
   D29        2.88806   0.00046  -0.00014   0.01373   0.01360   2.90166
   D30        0.77759  -0.00063  -0.00010  -0.00091  -0.00100   0.77659
   D31       -1.00789   0.00078  -0.00015   0.05316   0.05308  -0.95481
   D32        2.97915   0.00075   0.00002   0.02695   0.02688   3.00603
   D33       -3.04885  -0.00004  -0.00025   0.04574   0.04556  -3.00329
   D34        0.93819  -0.00007  -0.00008   0.01953   0.01937   0.95756
   D35        1.12984   0.00009  -0.00012   0.04260   0.04258   1.17242
   D36       -1.16631   0.00006   0.00005   0.01640   0.01638  -1.14993
   D37       -0.99277   0.00069   0.00011   0.03046   0.03054  -0.96223
   D38        0.99708  -0.00060   0.00007   0.02117   0.02122   1.01830
   D39       -2.98753   0.00151   0.00012   0.04048   0.04060  -2.94693
   D40        1.17628   0.00033   0.00003   0.02633   0.02630   1.20258
   D41       -3.11706  -0.00095   0.00000   0.01703   0.01698  -3.10008
   D42       -0.81848   0.00116   0.00004   0.03635   0.03636  -0.78212
   D43       -3.11921  -0.00026   0.00017   0.01765   0.01787  -3.10133
   D44       -1.12935  -0.00154   0.00013   0.00835   0.00855  -1.12080
   D45        1.16922   0.00057   0.00018   0.02766   0.02793   1.19715
   D46       -1.23639   0.00022   0.00012  -0.00123  -0.00108  -1.23747
   D47        3.06063  -0.00193  -0.00007  -0.00983  -0.00977   3.05086
   D48        0.75231   0.00058   0.00026  -0.00266  -0.00243   0.74988
   D49        1.08747   0.00136  -0.00005   0.03295   0.03285   1.12032
   D50       -0.89870  -0.00080  -0.00024   0.02435   0.02416  -0.87454
   D51        3.07617   0.00172   0.00008   0.03152   0.03149   3.10766
         Item               Value     Threshold  Converged?
 Maximum Force            0.004363     0.000450     NO 
 RMS     Force            0.001095     0.000300     NO 
 Maximum Displacement     0.178517     0.001800     NO 
 RMS     Displacement     0.036907     0.001200     NO 
 Predicted change in Energy=-3.956980D-04
 GradGradGradGradGradGradGradGradGradGradGradGradGradGradGradGradGradGrad

                          Input orientation:                          
 ---------------------------------------------------------------------
 Center     Atomic      Atomic             Coordinates (Angstroms)
 Number     Number       Type             X           Y           Z
 ---------------------------------------------------------------------
      1          6           0       -4.097748    3.155452   -3.747515
      2          6           0       -3.073848    2.235341   -3.978649
      3          6           0       -4.940299    2.990852   -2.644975
      4          6           0       -2.895330    1.157774   -3.109462
      5          6           0       -4.763165    1.913011   -1.778348
      6          6           0       -3.739213    0.981811   -2.004451
      7          6           0       -0.232781    0.338878   -0.273084
      8          6           0       -3.534364   -0.181364   -1.067231
      9          7           0       -1.374609    1.096750    0.248584
     10          8           0       -3.708955    1.246033    1.181061
     11          8           0       -2.435337   -0.979724    1.220048
     12         16           0       -2.809739    0.272755    0.561245
     13          1           0       -4.239604    3.994486   -4.422809
     14          1           0       -2.416706    2.351308   -4.835885
     15          1           0       -5.738653    3.703098   -2.457751
     16          1           0       -2.104167    0.436166   -3.301459
     17          1           0       -5.407870    1.797290   -0.913412
     18          1           0       -0.032873   -0.491602    0.404972
     19          1           0        0.633211    1.006843   -0.274928
     20          1           0       -0.374317   -0.055308   -1.291081
     21          1           0       -2.872184   -0.939542   -1.494336
     22          1           0       -4.475236   -0.670568   -0.794975
     23          1           0       -1.569974    1.966318   -0.240517
 ---------------------------------------------------------------------
                    Distance matrix (angstroms):
                    1          2          3          4          5
     1  C    0.000000
     2  C    1.395851   0.000000
     3  C    1.397348   2.415186   0.000000
     4  C    2.417361   1.395888   2.785287   0.000000
     5  C    2.421581   2.792671   1.394331   2.414758   0.000000
     6  C    2.809188   2.431359   2.426752   1.401481   1.402404
     7  C    5.911237   5.039786   5.900810   3.975525   5.026738
     8  C    4.316904   3.811678   3.811677   2.524354   2.530226
     9  N    5.255716   4.696094   4.967338   3.686840   4.032003
    10  O    5.299801   5.291946   4.381683   4.367878   3.211591
    11  O    6.673827   6.145794   6.081012   4.850273   4.772534
    12  S    5.341752   4.952992   4.712450   3.776860   3.461215
    13  H    1.086335   2.156585   2.158460   3.402776   3.405852
    14  H    2.158032   1.086342   3.402592   2.152706   3.878983
    15  H    2.157771   3.401269   1.086147   3.871419   2.148855
    16  H    3.401154   2.153113   3.873117   1.087897   3.401648
    17  H    3.404873   3.877528   2.154419   3.397715   1.084965
    18  H    6.860566   5.991651   6.746295   4.823417   5.738006
    19  H    6.249588   5.382289   6.373181   4.528572   5.674706
    20  H    5.496088   4.444948   5.653345   3.336703   4.834636
    21  H    4.831956   4.036380   4.587926   2.647245   3.434171
    22  H    4.847516   4.532546   4.128532   3.346011   2.779354
    23  H    4.483605   4.038271   4.264994   3.262078   3.544606
                    6          7          8          9         10
     6  C    0.000000
     7  C    3.963086   0.000000
     8  C    1.507753   3.435371   0.000000
     9  N    3.268138   1.466382   2.833635   0.000000
    10  O    3.196594   3.875726   2.668849   2.518128   0.000000
    11  O    3.993132   2.969749   2.660241   2.525991   2.564687
    12  S    2.819481   2.709463   1.839358   1.684138   1.462885
    13  H    3.895518   6.829225   5.403239   6.198951   6.264099
    14  H    3.411974   5.444130   4.676146   5.339636   6.252614
    15  H    3.407147   6.812148   4.677764   5.758661   4.837126
    16  H    2.157158   3.561264   2.723707   3.683942   4.829514
    17  H    2.154017   5.414658   2.729240   4.255371   2.752637
    18  H    4.659744   1.090606   3.811046   2.085084   4.139477
    19  H    4.702123   1.093674   4.405481   2.076895   4.586014
    20  H    3.592636   1.100788   3.170473   2.167577   4.350263
    21  H    2.168767   3.176832   1.093497   3.070340   3.554528
    22  H    2.175987   4.392013   1.094844   3.718375   2.857492
    23  H    2.964171   2.106586   3.025694   1.016630   2.667383
                   11         12         13         14         15
    11  O    0.000000
    12  S    1.463865   0.000000
    13  H    7.735631   6.382522   0.000000
    14  H    6.911617   5.796885   2.488699   0.000000
    15  H    6.809326   5.427718   2.488676   4.303277   0.000000
    16  H    4.749572   3.930014   4.298739   2.473846   4.959251
    17  H    4.593410   3.353968   4.302137   4.963848   2.475177
    18  H    2.583495   2.884380   7.818507   6.421167   7.638496
    19  H    3.949353   3.618284   7.062242   5.649063   7.255009
    20  H    3.377591   3.077340   6.414749   4.746450   6.653032
    21  H    2.749605   2.387253   5.898341   4.712017   5.540661
    22  H    2.883935   2.345862   5.914341   5.449609   4.846648
    23  H    3.400187   2.246775   5.360220   4.688558   5.030945
                   16         17         18         19         20
    16  H    0.000000
    17  H    4.297659   0.000000
    18  H    4.346107   5.988970   0.000000
    19  H    4.120534   6.125939   1.775182   0.000000
    20  H    2.697322   5.376933   1.784246   1.782089   0.000000
    21  H    2.397523   3.775900   3.445245   4.190843   2.657541
    22  H    3.623436   2.640863   4.605051   5.401888   4.176387
    23  H    3.463537   3.900103   2.969968   2.403290   2.572985
                   21         22         23
    21  H    0.000000
    22  H    1.769528   0.000000
    23  H    3.422256   3.962466   0.000000
 Stoichiometry    C8H11NO2S
 Framework group  C1[X(C8H11NO2S)]
 Deg. of freedom    63
 Full point group                 C1      NOp   1
 Largest Abelian subgroup         C1      NOp   1
 Largest concise Abelian subgroup C1      NOp   1
                         Standard orientation:                         
 ---------------------------------------------------------------------
 Center     Atomic      Atomic             Coordinates (Angstroms)
 Number     Number       Type             X           Y           Z
 ---------------------------------------------------------------------
      1          6           0        3.567038    0.200996   -0.443950
      2          6           0        2.903575    1.276190    0.149493
      3          6           0        2.950278   -1.051979   -0.491267
      4          6           0        1.629662    1.096458    0.691108
      5          6           0        1.678773   -1.231672    0.052005
      6          6           0        1.005956   -0.158012    0.653094
      7          6           0       -2.021820    2.125718   -0.497211
      8          6           0       -0.373075   -0.340912    1.234593
      9          7           0       -1.619048    0.820295   -1.030055
     10          8           0       -1.371653   -1.678993   -0.847506
     11          8           0       -2.978470   -0.416862    0.702586
     12         16           0       -1.708285   -0.522426   -0.017407
     13          1           0        4.558898    0.337732   -0.865427
     14          1           0        3.376476    2.253086    0.196139
     15          1           0        3.459588   -1.893296   -0.952250
     16          1           0        1.122324    1.934481    1.164232
     17          1           0        1.195141   -2.201405   -0.001538
     18          1           0       -3.034186    2.037771   -0.101232
     19          1           0       -2.031216    2.833527   -1.330903
     20          1           0       -1.361536    2.519774    0.290494
     21          1           0       -0.664097    0.499834    1.870351
     22          1           0       -0.459449   -1.257296    1.827436
     23          1           0       -0.737391    0.818666   -1.536232
 ---------------------------------------------------------------------
 Rotational constants (GHZ):      1.6193383      0.5383098      0.4685083
 Standard basis: 6-31G(d) (6D, 7F)
 There are   206 symmetry adapted basis functions of A   symmetry.
 Integral buffers will be    131072 words long.
 Raffenetti 2 integral format.
 Two-electron integral symmetry is turned on.
   206 basis functions,   404 primitive gaussians,   206 cartesian basis functions
    49 alpha electrons       49 beta electrons
       nuclear repulsion energy       836.8193219419 Hartrees.
 NAtoms=   23 NActive=   23 NUniq=   23 SFac= 1.00D+00 NAtFMM=   60 NAOKFM=F Big=F
 One-electron integrals computed using PRISM.
 NBasis=   206 RedAO= T  NBF=   206
 NBsUse=   206 1.00D-06 NBFU=   206
 Initial guess read from the read-write file.
 B after Tr=     0.000000    0.000000    0.000000
         Rot=    1.000000    0.000000    0.000000    0.000000 Ang=   0.00 deg.
 Initial guess orbital symmetries:
       Occupied  (A) (A) (A) (A) (A) (A) (A) (A) (A) (A) (A) (A)
                 (A) (A) (A) (A) (A) (A) (A) (A) (A) (A) (A) (A)
                 (A) (A) (A) (A) (A) (A) (A) (A) (A) (A) (A) (A)
                 (A) (A) (A) (A) (A) (A) (A) (A) (A) (A) (A) (A)
                 (A)
       Virtual   (A) (A) (A) (A) (A) (A) (A) (A) (A) (A) (A) (A)
                 (A) (A) (A) (A) (A) (A) (A) (A) (A) (A) (A) (A)
                 (A) (A) (A) (A) (A) (A) (A) (A) (A) (A) (A) (A)
                 (A) (A) (A) (A) (A) (A) (A) (A) (A) (A) (A) (A)
                 (A) (A) (A) (A) (A) (A) (A) (A) (A) (A) (A) (A)
                 (A) (A) (A) (A) (A) (A) (A) (A) (A) (A) (A) (A)
                 (A) (A) (A) (A) (A) (A) (A) (A) (A) (A) (A) (A)
                 (A) (A) (A) (A) (A) (A) (A) (A) (A) (A) (A) (A)
                 (A) (A) (A) (A) (A) (A) (A) (A) (A) (A) (A) (A)
                 (A) (A) (A) (A) (A) (A) (A) (A) (A) (A) (A) (A)
                 (A) (A) (A) (A) (A) (A) (A) (A) (A) (A) (A) (A)
                 (A) (A) (A) (A) (A) (A) (A) (A) (A) (A) (A) (A)
                 (A) (A) (A) (A) (A) (A) (A) (A) (A) (A) (A) (A)
                 (A)
 Harris functional with IExCor=  402 diagonalized for initial guess.
 ExpMin= 1.17D-01 ExpMax= 2.19D+04 ExpMxC= 3.30D+03 IAcc=3 IRadAn=         5 AccDes= 0.00D+00
 HarFok:  IExCor=  402 AccDes= 0.00D+00 IRadAn=         5 IDoV= 1
 ScaDFX=  1.000000  1.000000  1.000000  1.000000
 FoFCou: FMM=F IPFlag=           0 FMFlag=      100000 FMFlg1=           0
         NFxFlg=           0 DoJE=T BraDBF=F KetDBF=T FulRan=T
         Omega=  0.000000  0.000000  1.000000  0.000000  0.000000 ICntrl=     500 IOpCl=  0
         NMat0=    1 NMatS0=    1 NMatT0=    0 NMatD0=    1 NMtDS0=    0 NMtDT0=    0
         I1Cent=           4 NGrid=           0.
 Petite list used in FoFCou.
 Requested convergence on RMS density matrix=1.00D-08 within 128 cycles.
 Requested convergence on MAX density matrix=1.00D-06.
 Requested convergence on             energy=1.00D-06.
 No special actions if energy rises.
 Integral accuracy reduced to 1.0D-05 until final iterations.
 Initial convergence to 1.0D-05 achieved.  Increase integral accuracy.
 SCF Done:  E(RB3LYP) =  -914.796285855     A.U. after   12 cycles
             Convg  =    0.3746D-08             -V/T =  2.0071
 Calling FoFJK, ICntrl=      2127 FMM=F ISym2X=0 I1Cent= 0 IOpClX= 0 NMat=1 NMatS=1 NMatT=0.
 ***** Axes restored to original set *****
 -------------------------------------------------------------------
 Center     Atomic                   Forces (Hartrees/Bohr)
 Number     Number              X              Y              Z
 -------------------------------------------------------------------
      1        6           0.000141113   -0.000466420    0.000355790
      2        6          -0.000320845    0.000030996    0.000290926
      3        6           0.000276187   -0.000114882   -0.000050888
      4        6          -0.000036996   -0.000135974   -0.000377031
      5        6           0.000009717    0.000495898   -0.000468639
      6        6           0.000530639   -0.000846910    0.002052631
      7        6           0.000179680    0.000839641    0.000560127
      8        6          -0.001007482   -0.000251205   -0.002538174
      9        7          -0.001286880   -0.002282230   -0.001571192
     10        8          -0.001002977    0.000201422    0.000351357
     11        8          -0.001123318   -0.000820811    0.000474180
     12       16           0.003949764    0.002134569   -0.000297899
     13        1          -0.000079878    0.000084896   -0.000081892
     14        1           0.000104921    0.000116155   -0.000138117
     15        1          -0.000134814    0.000235824   -0.000078327
     16        1           0.000077467   -0.000022521   -0.000033724
     17        1          -0.000341856   -0.000068153    0.000313276
     18        1           0.000103840   -0.000178562   -0.000044638
     19        1           0.000212918   -0.000437410    0.000030630
     20        1          -0.000312023    0.000653178    0.000296303
     21        1           0.000259363   -0.000043077    0.000508732
     22        1          -0.000063186   -0.000020342    0.000174214
     23        1          -0.000135354    0.000895919    0.000272354
 -------------------------------------------------------------------
 Cartesian Forces:  Max     0.003949764 RMS     0.000855404

 GradGradGradGradGradGradGradGradGradGradGradGradGradGradGradGradGradGrad
 Berny optimization.
 Using GEDIIS/GDIIS optimizer.
 Internal  Forces:  Max     0.001667822 RMS     0.000424287
 Search for a local minimum.
 Step number   3 out of a maximum of  123
 All quantities printed in internal units (Hartrees-Bohrs-Radians)
 Mixed Optimization -- En-DIIS/RFO-DIIS
 Update second derivatives using D2CorX and points    1    2    3
 DE= -4.33D-04 DEPred=-3.96D-04 R= 1.09D+00
 SS=  1.41D+00  RLast= 1.47D-01 DXNew= 8.4853D-01 4.4043D-01
 Trust test= 1.09D+00 RLast= 1.47D-01 DXMaxT set to 5.05D-01
 ITU=  1  1  0
 Use linear search instead of GDIIS.
     Eigenvalues ---    0.00295   0.00629   0.00665   0.01313   0.01494
     Eigenvalues ---    0.01872   0.02076   0.02103   0.02106   0.02135
     Eigenvalues ---    0.02162   0.02166   0.02174   0.02184   0.03997
     Eigenvalues ---    0.05520   0.06921   0.07776   0.08299   0.08442
     Eigenvalues ---    0.09407   0.12468   0.12897   0.15263   0.15870
     Eigenvalues ---    0.15998   0.15999   0.16000   0.16000   0.16000
     Eigenvalues ---    0.16466   0.17813   0.19238   0.21343   0.22001
     Eigenvalues ---    0.22003   0.23109   0.23544   0.24408   0.25171
     Eigenvalues ---    0.25373   0.31266   0.34240   0.34341   0.34345
     Eigenvalues ---    0.34517   0.34685   0.34870   0.34878   0.34945
     Eigenvalues ---    0.34966   0.35055   0.35403   0.36322   0.41840
     Eigenvalues ---    0.41989   0.43332   0.45449   0.46146   0.46324
     Eigenvalues ---    0.46750   0.90965   0.93968
 RFO step:  Lambda=-2.24396690D-04 EMin= 2.95060849D-03
 Quartic linear search produced a step of  0.13106.
 Iteration  1 RMS(Cart)=  0.02691331 RMS(Int)=  0.00063170
 Iteration  2 RMS(Cart)=  0.00067267 RMS(Int)=  0.00004559
 Iteration  3 RMS(Cart)=  0.00000051 RMS(Int)=  0.00004559
 Variable       Old X    -DE/DX   Delta X   Delta X   Delta X     New X
                                 (Linear)    (Quad)   (Total)
    R1        2.63778  -0.00030   0.00010  -0.00051  -0.00041   2.63737
[...]
 .01891867,-0.00613632,-0.05561098,0.02731437,0.00527105,-0.00094137,0.
 00170229,-0.01629140,0.00159616,0.02004342,0.00039339,-0.00105212,0.00
 011032,0.00380119,-0.00146031,0.00429933,-0.00006129,0.00005882,0.0000
 6444,-0.00070510,0.00036063,0.00082960,0.00011043,0.00004295,0.0000345
 5,-0.00001293,0.00009943,0.00009143,0.00012847,-0.00004429,0.00018913,
 -0.00022833,-0.00032211,-0.00028452,-0.00197928,-0.00042151,-0.0011022
 1,0.00426893,0.05187858,0.00157264,0.00154786,-0.00088498,0.14104685,0
 .02734026,-0.23225111,0.00250284,0.00086219,0.00316754,0.01234270,-0.0
 0050803,-0.01230765,-0.00065452,0.00005968,0.00025019,0.00048450,0.004
 89350,0.00153986,0.00007976,-0.00009079,-0.00005786,0.00073140,-0.0001
 1338,-0.00050599,-0.00025771,-0.00009486,-0.00001700,-0.00007449,-0.00
 009701,-0.00013625,-0.00017838,0.00002340,-0.00019452,0.00056005,0.000
 36534,0.00044152,-0.00149187,-0.00155941,-0.00055350,-0.15450498,-0.03
 149416,0.24260637,-0.00956653,0.01336669,0.00131012,0.00181298,0.00064
 650,0.00535844,-0.19409494,0.14319353,0.04484126,0.00023421,-0.0006612
 6,0.00009074,0.00080285,0.00112761,0.00123304,0.00416152,0.00218492,0.
 00174442,0.00000248,-0.00000393,0.00003252,0.00000642,0.00003873,0.000
 20539,-0.00007349,-0.00007151,-0.00007006,-0.00003428,-0.00010093,-0.0
 0014296,-0.00004859,0.00001180,-0.00011398,0.00013181,0.00018428,0.000
 26576,-0.00101540,-0.00178679,-0.00155669,-0.00048490,0.00079617,0.000
 12783,0.20005467,-0.00381837,0.00584163,0.00138696,0.00129851,0.002779
 95,0.00250966,0.14321096,-0.18059022,-0.02730311,-0.00061862,-0.000118
 17,0.00058704,0.01823360,-0.01270907,-0.00634422,0.00173036,-0.0001464
 6,0.00568355,-0.00004264,0.00002507,-0.00000114,0.00098359,-0.00033026
 ,-0.00055370,0.00010043,0.00007270,0.00010386,-0.00010493,0.00018332,0
 .00017987,0.00007706,-0.00002652,0.00024398,-0.00015798,-0.00029361,-0
 .00064207,-0.00138237,-0.00054297,-0.00159437,-0.00016383,0.00028093,0
 .00020092,-0.15707183,0.18670797,0.01829445,-0.01890874,-0.00021741,0.
 00468659,0.00326015,-0.00197543,0.04493427,-0.02741584,-0.06269165,0.0
 0013133,0.00060780,-0.00096871,-0.01559127,0.01393275,0.00736078,0.002
 36210,0.00485853,-0.00023264,-0.00000077,-0.00001019,-0.00000009,-0.00
 075161,0.00063848,0.00048810,-0.00004063,-0.00005092,-0.00004136,0.000
 04284,-0.00012611,-0.00011078,-0.00001843,-0.00005143,-0.00009184,0.00
 006267,0.00024858,0.00029785,-0.00194236,-0.00114994,-0.00036164,0.001
 07337,-0.00092331,-0.00006043,-0.05103942,0.02707072,0.05946579,0.0041
 5731,0.00236091,0.00141082,0.00019061,0.00127664,0.00136490,0.00014025
 ,-0.00067839,0.00009497,-0.18645351,0.13992432,0.04536171,0.00155614,0
 .00027488,0.00541247,-0.01034704,0.01378945,0.00231414,-0.00007792,-0.
 00005260,-0.00014932,-0.00160514,-0.00011529,-0.00257539,-0.00013108,-
 0.00001640,0.00006959,0.00010759,-0.00035701,-0.00017136,-0.00005768,-
 0.00003841,-0.00011906,0.00022214,0.00048846,0.00014080,0.00001158,0.0
 0012013,0.00020978,-0.00114205,-0.00153335,-0.00184295,-0.00055060,-0.
 00035964,-0.00049016,0.19375395,0.00144368,-0.00052320,0.00577490,0.01
 817952,-0.01277344,-0.00688857,-0.00056910,-0.00007657,0.00041488,0.14
 090391,-0.17990529,-0.02851860,0.00089903,0.00261599,0.00229407,-0.002
 44841,0.00349286,0.00203519,0.00032631,-0.00042483,-0.00051772,-0.0027
 2412,-0.00025681,-0.00064495,-0.00042526,-0.00015563,0.00025514,-0.000
 23910,-0.00007191,-0.00010186,-0.00033560,0.00001235,-0.00029442,0.001
 07048,0.00074664,-0.00005828,0.00104629,-0.00069241,-0.00029562,-0.001
 82859,-0.00036330,-0.00121558,-0.00033851,-0.00034846,-0.00044702,-0.1
 5481515,0.18773932,0.00220018,0.00493050,-0.00046040,-0.01563813,0.013
 94656,0.00751743,0.00004171,0.00044114,-0.00090811,0.04573139,-0.02802
 918,-0.06270961,0.00444022,0.00311953,-0.00227887,0.01771862,-0.018051
 08,-0.00084799,0.00021236,-0.00028614,-0.00070969,-0.00118373,-0.00280
 641,-0.00021830,-0.00027761,-0.00000836,0.00042957,-0.00031967,0.00013
 315,0.00011295,-0.00021801,0.00001692,-0.00000845,0.00089628,0.0002437
 6,-0.00087724,-0.00073106,0.00082430,0.00032386,-0.00147235,-0.0016769
 0,-0.00044121,-0.00046723,-0.00043921,-0.00021094,-0.05150566,0.027564
 91,0.06061787,0.00361923,0.00312023,0.00147242,-0.00012539,0.00027503,
 -0.00060004,0.00617217,0.00115128,-0.00451386,0.00039329,0.00576438,0.
 00131786,-0.14703820,-0.00655624,0.14083021,-0.00960993,-0.00402587,0.
 01895935,-0.00008655,0.00017222,0.00010659,-0.00054354,-0.00198018,-0.
 00156660,0.00048126,-0.00020726,-0.00033361,0.00167551,-0.00152413,0.0
 0004255,0.00024182,-0.00059089,-0.00052571,-0.00266362,0.00299540,0.00
 142370,0.00020753,0.00013764,-0.00022583,-0.00048709,-0.00052116,-0.00
 036633,-0.00123223,-0.00190097,-0.00158861,-0.00045073,0.00001790,0.00
 114494,0.14943393,0.00377471,-0.00169618,0.00459591,0.00043705,-0.0009
 5826,0.00005952,-0.01599477,0.00216198,0.02056664,0.00505080,-0.001212
 16,0.00140385,-0.00670339,-0.05705624,0.02680627,0.01332721,0.00543784
 ,-0.01807944,0.00002656,-0.00009423,-0.00003993,-0.00107388,0.00044808
 ,-0.00207723,-0.00027483,-0.00011531,0.00001839,-0.00014060,-0.0004430
 4,-0.00012981,-0.00016870,-0.00009810,-0.00022749,0.00095824,0.0005597
 7,0.00046806,-0.00083669,-0.00003530,0.00109316,-0.00054112,-0.0002148
 8,-0.00039625,-0.00158809,-0.00045495,-0.00175473,0.00096142,0.0003928
 2,-0.00085585,0.00350856,0.05388530,0.00073162,0.00479794,0.00131079,-
 0.00056231,0.00004937,0.00022953,0.01129253,-0.00007334,-0.01104275,0.
 00186973,0.00099682,0.00273162,0.14385759,0.02706313,-0.23746586,0.002
 12950,0.00080001,-0.00072177,0.00000241,0.00003254,-0.00002061,-0.0014
 3507,-0.00027082,-0.00111428,0.00014831,-0.00016035,-0.00008489,-0.000
 28713,-0.00006396,-0.00138676,0.00009069,-0.00017672,-0.00014786,-0.00
 075472,0.00102000,0.00059478,0.00062784,-0.00000235,-0.00051692,-0.000
 35494,-0.00036687,-0.00036669,-0.00171001,-0.00130084,-0.00041094,0.00
 010937,0.00019939,0.00012339,-0.15557464,-0.03178948,0.24776111,0.0000
 0101,-0.00001603,0.00002421,-0.00002400,-0.00002666,0.00001568,-0.0000
 1345,-0.00001152,0.00000222,-0.00000212,-0.00009558,0.00000019,0.00000
 526,-0.00007352,0.00000635,0.00012578,0.00019048,0.00003616,-0.0510141
 6,0.01755668,-0.01280238,-0.00056981,-0.00036627,0.00025468,-0.0082678
 4,0.02959772,-0.01130685,0.00046048,-0.00118389,0.00048648,0.00137391,
 -0.00218999,0.00104144,-0.00072672,0.00661174,-0.00350615,-0.00000010,
 -0.00000124,0.00000508,-0.00000236,-0.00000895,0.00000750,0.00000614,-
 0.00000712,0.00000463,0.00001481,0.00003781,0.00001967,-0.00001613,0.0
 0001912,-0.00000588,0.05876709,-0.00000399,0.00000273,0.00000797,-0.00
 001242,-0.00000384,0.00000811,-0.00001877,0.00002323,-0.00000309,0.000
 03717,-0.00006916,-0.00005802,0.00000236,0.00001674,0.00003186,0.00001
 411,0.00004139,-0.00004335,0.02649553,-0.24921520,0.11898408,0.0001727
 0,0.00013243,-0.00009058,0.00611339,-0.01699980,0.00471115,0.00025084,
 0.00036820,-0.00019545,-0.00215292,0.00045478,0.00023047,-0.00120426,-
 0.00233347,0.00150036,-0.00000284,0.00000110,0.00000295,-0.00000169,-0
 .00000653,0.00000582,-0.00000065,-0.00000349,0.00000007,0.00000738,0.0
 0005195,0.00004809,-0.00001531,0.00000221,0.00000140,-0.03257434,0.272
 06220,0.00000398,-0.00000536,0.00001345,-0.00004693,-0.00001496,0.0000
 3980,-0.00000759,0.00002097,0.00000052,0.00002102,-0.00015228,-0.00015
 523,-0.00001884,-0.00000635,0.00005995,0.00008376,0.00000308,-0.000125
 78,-0.01692731,0.12517671,-0.12744242,0.00004998,0.00027747,-0.0001470
 5,0.00082407,-0.01546627,0.00849284,-0.00011812,0.00001220,-0.00021091
 ,0.00035077,0.00002594,-0.00117555,0.00047287,-0.00019130,0.00151232,-
 0.00000633,0.00000810,0.00000087,0.00000520,-0.00000799,0.00001678,-0.
 00000505,-0.00000362,0.00000362,-0.00000543,0.00015595,0.00010501,-0.0
 0001658,0.00000959,0.00000477,0.01304547,-0.12928023,0.13112587,-0.000
 00942,0.00005544,-0.00002131,0.00000981,0.00001315,0.00001307,0.000027
 85,-0.00001184,-0.00002582,-0.00004427,0.00009428,0.00000963,0.0000202
 0,0.00002068,-0.00001735,0.00004540,-0.00014831,0.00014763,-0.21622702
 ,-0.12451548,-0.03557173,-0.00018784,-0.00056292,0.00032810,-0.0298965
 8,-0.01166769,0.00474239,-0.00167072,0.00006419,0.00108277,0.00045586,
 -0.00079693,0.00012334,0.00036467,0.00496622,-0.00220026,-0.00000478,0
 .00001011,-0.00001510,0.00000115,0.00000835,-0.00004022,-0.00001119,0.
 00001200,-0.00000582,-0.00000732,-0.00002910,0.00000486,0.00004958,-0.
 00002525,0.00001526,0.00548726,0.00226885,0.00153149,0.24311217,-0.000
 00142,-0.00000436,0.00000979,-0.00002791,-0.00001231,0.00002789,-0.000
 01159,0.00001100,0.00000191,0.00000877,-0.00007859,-0.00005196,0.00001
 325,-0.00001134,-0.00003112,-0.00005321,0.00010782,-0.00008636,-0.1304
 8266,-0.14281298,-0.02426425,0.00040332,0.00039403,-0.00011162,0.02008
 892,0.01140555,-0.00075860,0.00101855,0.00038592,-0.00087985,-0.001352
 97,0.00101746,0.00001737,0.00299449,-0.00359349,0.00111297,-0.00000245
 ,0.00000641,0.00000145,0.00000234,0.00000061,0.00000169,-0.00000102,0.
 00000365,-0.00000052,-0.00001684,0.00003316,0.00004951,-0.00001300,0.0
 0000797,-0.00000163,-0.02245576,-0.01379565,-0.00648491,0.13335697,0.1
 4878571,-0.00003883,0.00004867,0.00002877,-0.00007941,-0.00004661,0.00
 008616,-0.00002374,0.00006329,-0.00003994,0.00011240,-0.00019710,-0.00
 022022,0.00005829,-0.00005015,0.00001723,-0.00001367,0.00023355,-0.000
 02147,-0.03769553,-0.02781752,-0.05772117,0.00039974,-0.00006616,-0.00
 034980,0.01398048,0.00898882,0.00118244,0.00117768,-0.00025869,-0.0005
 1526,0.00045777,0.00025735,0.00000812,0.00087282,-0.00118900,-0.000169
 71,-0.00001038,0.00001641,0.00000678,-0.00000610,-0.00001194,-0.000018
 66,-0.00000405,-0.00000042,-0.00000446,-0.00002380,0.00010623,0.000186
 64,-0.00003918,0.00001534,-0.00000853,0.01477984,0.00899440,0.00326102
 ,0.03267757,0.03028011,0.05780708,0.00004129,-0.00006207,-0.00007692,0
 .00012673,0.00015068,-0.00014421,0.00003914,-0.00008878,0.00003699,-0.
 00023402,0.00024395,0.00016032,-0.00005890,0.00003294,-0.00000475,-0.0
 0001960,-0.00002131,0.00010340,-0.05569069,-0.00741400,-0.03166877,-0.
 00013564,0.00000613,0.00019523,-0.00825271,0.00784972,0.03317910,-0.00
 199950,-0.00058159,-0.00073248,-0.00005934,-0.00143399,-0.00036757,0.0
 0640874,0.00640467,0.00296179,0.00001793,-0.00002230,-0.00000380,0.000
 00663,0.00000830,0.00002475,0.00001030,-0.00000507,0.00000538,0.000014
 86,-0.00023461,-0.00038624,0.00007064,-0.00001520,0.00001153,-0.000213
 13,-0.00177355,-0.00251140,-0.00138799,-0.00327107,-0.02615407,0.06071
 966,-0.00003542,-0.00002336,0.00009792,-0.00007057,-0.00019689,0.00009
 158,-0.00002948,0.00006310,-0.00001571,-0.00011765,-0.00023950,-0.0001
 3032,0.00000843,-0.00004369,0.00004426,0.00004994,0.00021247,-0.000345
 80,-0.00769030,-0.06213398,-0.04080795,0.00076543,0.00065103,-0.000561
 57,0.00838493,-0.00268886,-0.01834366,0.00086122,0.00026554,0.00017815
 ,-0.00035568,0.00071065,-0.00017657,-0.00380269,-0.00341550,0.00117356
 ,-0.00000362,0.00001492,0.00000757,0.00001012,-0.00001611,0.00003848,-
 0.00000749,-0.00000653,0.00000560,0.00003268,0.00034710,0.00015828,-0.
 00006154,0.00002584,-0.00000087,0.00368649,0.00873642,0.02717698,-0.00
 290985,-0.00257340,-0.01976243,0.00167770,0.06012750,-0.00007581,0.000
 03329,0.00005422,-0.00010687,-0.00010013,0.00009837,-0.00003703,0.0001
 1924,-0.00006106,-0.00009482,-0.00031746,-0.00052003,0.00010209,-0.000
 05186,0.00001092,0.00008856,0.00062096,0.00002226,-0.03131787,-0.04102
 754,-0.28804407,0.00116537,-0.00023125,-0.00052145,0.01304042,-0.00521
 981,-0.00771533,0.00137147,0.00050374,0.00037511,0.00074771,0.00089965
 ,0.00031514,-0.00576182,-0.00470881,-0.00068357,-0.00000610,0.00002624
 ,0.00001301,0.00000540,-0.00002136,0.00002586,-0.00001591,0.00000090,-
 0.00000750,-0.00016292,0.00025584,0.00015910,-0.00006935,0.00001474,0.
 00000170,-0.00349843,-0.00387425,-0.01469181,-0.00184701,0.00008282,-0
 .00427698,0.02573857,0.05207673,0.31453657,0.00005054,-0.00008103,0.00
 003477,-0.00005832,-0.00003401,-0.00035812,-0.00011571,0.00017600,0.00
 013904,0.00017431,-0.00146445,0.00061010,0.00118639,0.00102118,-0.0004
 1185,-0.00256782,0.00234912,0.00104297,-0.00050456,-0.00050500,-0.0004
 2291,-0.15076730,0.11384067,0.06691342,-0.00047247,0.00110939,0.001191
 98,0.00071259,-0.00205206,-0.00429576,-0.00050676,-0.00031432,0.000731
 73,0.00799886,-0.00862661,-0.00616946,0.00005945,0.00004614,-0.0000034
 1,-0.00000314,0.00002692,-0.00003982,-0.00008191,0.00003518,-0.0001295
 7,0.00053143,0.00007231,-0.00003697,0.00012518,-0.00030603,-0.00012279
 ,-0.00000092,-0.00000264,-0.00010239,-0.00018860,0.00011432,0.00004909
 ,-0.00021579,-0.00018803,0.00001777,0.15945793,-0.00030620,0.00017166,
 0.00014661,0.00002788,-0.00010424,0.00028751,0.00118876,0.00003974,-0.
 00073423,0.00090543,0.00126704,-0.00206903,-0.00061984,-0.00262359,0.0
 0381621,0.01511352,-0.01627009,-0.00944563,-0.00002021,-0.00017795,-0.
 00061496,0.11494000,-0.17917365,-0.07099333,-0.00090806,0.00036444,0.0
 0063771,-0.00043310,0.00040602,-0.00181002,-0.00091216,0.00116649,0.00
 170028,0.00636026,-0.00775780,-0.00461580,-0.00008727,0.00001966,0.000
 02884,-0.00002781,0.00000257,-0.00002212,0.00001174,-0.00030178,0.0002
 2909,-0.00096530,0.00024622,0.00081489,-0.00015853,-0.00001111,-0.0001
 9187,-0.00002269,0.00004177,-0.00000328,-0.00006006,0.00012763,0.00024
 987,-0.00032718,-0.00002336,0.00040136,-0.12554921,0.19133540,-0.00003
 679,0.00007103,0.00010732,0.00002510,-0.00006462,0.00012865,-0.0009207
 2,0.00049703,0.00015211,-0.00160517,0.00075518,0.00059195,0.00082842,0
 .00325154,-0.00276939,-0.01320753,0.01583206,0.00896202,-0.00044772,-0
 .00048357,-0.00011171,0.06765098,-0.07336635,-0.08716299,-0.00145815,0
 .00161177,0.00102264,-0.00191249,-0.00336477,-0.00692781,-0.00202614,0
 .00271238,0.00204440,0.01983895,-0.01896736,-0.01023237,0.00002624,-0.
 00001956,-0.00002982,-0.00000262,-0.00002462,-0.00001383,-0.00012102,0
 .00020866,-0.00027049,0.00042081,-0.00019252,-0.00016246,0.00000728,0.
 00001852,-0.00003899,-0.00009891,0.00000737,-0.00017204,-0.00021219,0.
 00020406,0.00012772,-0.00029318,-0.00008358,0.00019959,-0.07013509,0.0
 7567541,0.09698191,0.00053276,-0.00001764,-0.00045585,-0.00024439,0.00
 044674,-0.00045838,0.00018281,-0.00051863,0.00067702,-0.00021869,0.000
 15068,-0.00003565,0.00036677,0.00122512,-0.00068914,0.00791059,0.00368
 953,-0.00104398,0.00077000,-0.00029377,-0.00027647,-0.25158443,-0.1008
 7802,0.06120028,-0.00095679,-0.00092984,-0.00237527,0.00208935,0.00057
 224,-0.00005764,0.00166251,0.00167430,-0.00082440,-0.01386750,-0.00618
 953,0.00350950,-0.00004226,-0.00007007,-0.00005338,-0.00004420,0.00000
 836,-0.00007897,-0.00002537,-0.00002874,0.00000823,0.00015918,-0.00004
 656,-0.00019143,-0.00012193,-0.00032885,-0.00005523,-0.00007629,0.0000
 1563,0.00005324,-0.00005233,0.00002286,0.00001911,0.00018937,0.0002009
 8,0.00013548,-0.01489127,-0.00827969,0.00347624,0.26830419,-0.00011973
 ,-0.00019641,0.00003245,0.00002841,0.00048002,0.00075722,0.00015318,0.
 00030936,0.00023076,0.00106448,-0.00284228,0.00042973,-0.00054450,0.00
 154308,0.00056314,-0.02008829,-0.00965432,0.00733326,0.00036477,-0.000
 13755,-0.00029947,-0.10064568,-0.09951416,0.03143096,-0.00113886,-0.00
 059157,-0.00167737,0.00171899,0.00050850,0.00018897,0.00098323,0.00038
 645,0.00004641,-0.01136865,-0.00498967,-0.00047479,0.00002038,-0.00000
 550,-0.00005166,0.00009432,-0.00013887,0.00020129,0.00001164,0.0000158
 5,-0.00003868,-0.00025507,0.00001363,0.00001906,0.00042231,-0.00056192
 ,-0.00053212,-0.00012421,0.00004479,0.00000253,-0.00009148,0.00010875,
 0.00011884,-0.00017969,0.00002665,0.00018022,0.02027855,0.01129236,-0.
 00441863,0.10935156,0.10373922,0.00008363,0.00003685,-0.00000736,-0.00
 045254,-0.00021982,-0.00118533,-0.00022852,-0.00014947,-0.00073377,-0.
 00090393,0.00306922,-0.00051591,0.00040849,-0.00186937,0.00038356,0.01
 775251,0.01102260,-0.00707844,0.00154175,-0.00092945,-0.00096740,0.059
 89728,0.02784097,-0.05748879,-0.00494810,-0.00312538,-0.00495067,0.002
 41790,0.00155278,0.00028025,0.00264553,0.00135120,-0.00053928,-0.02693
 298,-0.01302075,0.00511417,0.00006538,0.00013325,0.00008655,-0.0000503
 3,0.00017841,-0.00024605,-0.00001784,0.00004550,0.00002140,0.00019545,
 0.00025933,0.00039756,0.00002539,0.00028106,0.00057812,-0.00013043,0.0
 0009404,0.00007625,-0.00022755,0.00015302,0.00025029,-0.00010668,0.000
 43128,0.00052736,0.01142751,0.00652076,-0.00241376,-0.06239272,-0.0341
 4765,0.06862682,-0.00008881,0.00004144,-0.00003407,0.00003937,-0.00006
 484,-0.00000548,0.00003612,0.00024462,-0.00009715,0.00009821,0.0001545
 8,-0.00048677,-0.00018764,0.00030142,0.00021026,-0.00030077,-0.0004798
 1,-0.00043419,-0.00222276,0.02492044,-0.01501071,-0.00087815,0.0006911
 8,-0.00011962,-0.06986618,0.07435262,-0.01374888,-0.00059112,0.0033058
 8,-0.00167942,-0.00482386,-0.00601050,0.00265895,0.00837508,-0.0293462
 4,0.01164773,0.00000363,-0.00002220,0.00002500,-0.00000221,0.00000597,
 0.00004942,-0.00000395,-0.00001955,-0.00000720,-0.00003677,0.00003687,
 0.00001785,-0.00009480,-0.00006627,-0.00002365,-0.00531471,0.00238541,
 0.00332412,0.00011414,-0.00033388,-0.00049603,0.00062200,-0.00040560,0
 .00058111,0.00007787,0.00012969,0.00020370,-0.00004208,0.00006432,-0.0
 0006919,0.07508740,0.00004636,-0.00020708,-0.00000429,0.00000453,0.000
 20788,-0.00011131,-0.00007234,-0.00013584,0.00005537,0.00043450,0.0000
 9990,-0.00003437,-0.00016621,0.00041405,0.00011213,-0.00004661,0.00017
 582,-0.00013917,0.00129575,-0.00832193,0.00606735,0.00048758,0.0008172
 8,-0.00104599,0.06799902,-0.35419766,0.13777925,0.00117158,0.00151155,
 -0.00198180,-0.00182319,0.00047637,0.00033884,-0.00021378,-0.01742293,
 0.01005277,0.00002623,-0.00003163,0.00003788,-0.00001330,-0.00001462,0
 .00005118,0.00005841,-0.00003859,0.00002565,-0.00003283,-0.00010018,-0
 .00015747,-0.00000984,0.00002987,-0.00002938,0.00145775,0.00044720,-0.
 00125296,-0.00005135,0.00048643,0.00002714,-0.00094368,0.00017998,0.00
 033676,0.00005360,-0.00003744,0.00014056,0.00022338,0.00016358,0.00049
 163,-0.06988556,0.37549799,0.00001330,-0.00000080,-0.00012847,0.000083
 14,0.00037611,-0.00022205,-0.00007011,-0.00007741,0.00003905,0.0005532
 5,0.00006083,-0.00017627,-0.00033471,0.00038543,0.00014183,-0.00041647
 ,-0.00033452,0.00017585,0.00346397,-0.01709009,0.00282556,-0.00065557,
 -0.00050304,-0.00011005,-0.00937021,0.16905722,-0.07976335,0.00053962,
 -0.00352469,-0.00108644,0.00297330,0.00203224,0.00185331,-0.01149382,0
 .00213123,-0.00256838,0.00002120,-0.00003793,0.00002522,-0.00002691,-0
 .00002472,0.00000762,0.00005473,-0.00003893,0.00001876,-0.00005878,-0.
 00014068,-0.00014010,0.00009003,-0.00000082,-0.00000894,0.00161942,-0.
 00108317,-0.00059227,-0.00049177,0.00072821,0.00038397,0.00003302,-0.0
 0125193,0.00018259,0.00006975,-0.00000828,-0.00001266,-0.00009061,0.00
 010551,-0.00021558,0.01349422,-0.15075975,0.07937080\\0.00000087,0.000
 00365,0.00000152,0.00000222,0.00000314,-0.00000051,0.00000055,0.000000
 41,-0.00000164,0.00000205,-0.00000114,0.00000260,-0.00000576,-0.000003
 39,0.00000127,0.00000202,0.00000731,-0.00001595,-0.00000643,0.00001156
 ,0.00001696,0.00001030,0.00000785,0.00003193,-0.00000080,-0.00001042,-
 0.00001351,-0.00000133,-0.00000403,-0.00000430,-0.00000112,-0.00000349
 ,-0.00000742,-0.00000722,-0.00000063,-0.00000914,0.00000210,0.00000121
 ,0.00000086,0.00000288,0.00000328,0.00000233,0.00000017,-0.00000136,0.
 00000026,0.00000186,0.00000185,0.00000121,0.00000224,-0.00000200,-0.00
 000326,-0.00000165,-0.00000173,-0.00000062,-0.00000180,0.00000074,0.00
 000141,0.00000182,-0.00000506,-0.00000388,-0.00000052,-0.00000085,-0.0
 0000686,-0.00000029,-0.00000340,-0.00000395,-0.00000215,-0.00000350,0.
 00001069\\\@


 ERROR IS A HARDY PLANT... IT FLOURISHETH IN EVERY SOIL.
            MARTIN FARQUHAR TUPPER
 Job cpu time:  0 days  1 hours 35 minutes 26.7 seconds.
 File lengths (MBytes):  RWF=    136 Int=      0 D2E=      0 Chk=      4 Scr=      1
 Normal termination of Gaussian 09 at Fri Feb 16 19:41:22 2018.
