 Entering Gaussian System, Link 0=g09
 Initial command:
 /home/fb_chem/chemsoft/lx24-amd64/Gaussian_09_C.01_NBO_3.1_64_istanbul-64/g09/l1.exe /local/2400023.1.parallel_long/Gau-3129.inp -scrdir=/local/2400023.1.parallel_long/
 Entering Link 1 = /home/fb_chem/chemsoft/lx24-amd64/Gaussian_09_C.01_NBO_3.1_64_istanbul-64/g09/l1.exe PID=      3130.
  
 Copyright (c) 1988,1990,1992,1993,1995,1998,2003,2009,2011,
            Gaussian, Inc.  All Rights Reserved.
  
 This is part of the Gaussian(R) 09 program.  It is based on
 the Gaussian(R) 03 system (copyright 2003, Gaussian, Inc.),
 the Gaussian(R) 98 system (copyright 1998, Gaussian, Inc.),
 the Gaussian(R) 94 system (copyright 1995, Gaussian, Inc.),
 the Gaussian 92(TM) system (copyright 1992, Gaussian, Inc.),
 the Gaussian 90(TM) system (copyright 1990, Gaussian, Inc.),
 the Gaussian 88(TM) system (copyright 1988, Gaussian, Inc.),
 the Gaussian 86(TM) system (copyright 1986, Carnegie Mellon
 University), and the Gaussian 82(TM) system (copyright 1983,
 Carnegie Mellon University). Gaussian is a federally registered
 trademark of Gaussian, Inc.
  
 This software contains proprietary and confidential information,
 including trade secrets, belonging to Gaussian, Inc.
  
 This software is provided under written license and may be
 used, copied, transmitted, or stored only in accord with that
 written license.
  
 The following legend is applicable only to US Government
 contracts under FAR:
  
                    RESTRICTED RIGHTS LEGEND
  
 Use, reproduction and disclosure by the US Government is
 subject to restrictions as set forth in subparagraphs (a)
 and (c) of the Commercial Computer Software - Restricted
 Rights clause in FAR 52.227-19.
  
 Gaussian, Inc.
 340 Quinnipiac St., Bldg. 40, Wallingford CT 06492
  
  
 ---------------------------------------------------------------
 Warning -- This program may not be used in any manner that
 competes with the business of Gaussian, Inc. or will provide
 assistance to any competitor of Gaussian, Inc.  The licensee
 of this program is prohibited from giving any competitor of
 Gaussian, Inc. access to this program.  By using this program,
 the user acknowledges that Gaussian, Inc. is engaged in the
 business of creating and licensing software in the field of
 computational chemistry and represents and warrants to the
 licensee that it is not a competitor of Gaussian, Inc. and that
 it will not use this program in any manner prohibited above.
 ---------------------------------------------------------------
  

 Cite this work as:
 Gaussian 09, Revision C.01,
 M. J. Frisch, G. W. Trucks, H. B. Schlegel, G. E. Scuseria, 
 M. A. Robb, J. R. Cheeseman, G. Scalmani, V. Barone, B. Mennucci, 
 G. A. Petersson, H. Nakatsuji, M. Caricato, X. Li, H. P. Hratchian, 
 A. F. Izmaylov, J. Bloino, G. Zheng, J. L. Sonnenberg, M. Hada, 
 M. Ehara, K. Toyota, R. Fukuda, J. Hasegawa, M. Ishida, T. Nakajima, 
 Y. Honda, O. Kitao, H. Nakai, T. Vreven, J. A. Montgomery, Jr., 
 J. E. Peralta, F. Ogliaro, M. Bearpark, J. J. Heyd, E. Brothers, 
 K. N. Kudin, V. N. Staroverov, T. Keith, R. Kobayashi, J. Normand, 
 K. Raghavachari, A. Rendell, J. C. Burant, S. S. Iyengar, J. Tomasi, 
 M. Cossi, N. Rega, J. M. Millam, M. Klene, J. E. Knox, J. B. Cross, 
 V. Bakken, C. Adamo, J. Jaramillo, R. Gomperts, R. E. Stratmann, 
 O. Yazyev, A. J. Austin, R. Cammi, C. Pomelli, J. W. Ochterski, 
 R. L. Martin, K. Morokuma, V. G. Zakrzewski, G. A. Voth, 
 P. Salvador, J. J. Dannenberg, S. Dapprich, A. D. Daniels, 
 O. Farkas, J. B. Foresman, J. V. Ortiz, J. Cioslowski, 
 and D. J. Fox, Gaussian, Inc., Wallingford CT, 2010.
 
 ******************************************
 Gaussian 09:  AM64L-G09RevC.01 23-Sep-2011
                17-Feb-2018 
 ******************************************
 %nprocs=2
 Will use up to    2 processors via shared memory.
 %chk=frag22-conf2.chk
 ----------------------------------------------------------------------
 #HF/6-31G* Geom=AllCheck Guess=Read Pop=(MK,ReadRadii) Integral=(Grid=
 UltraFine) iop(6/33=2)
 ----------------------------------------------------------------------
 1/29=7,38=1/1;
 2/12=2,40=1/2;
 3/5=1,6=6,7=1,11=9,14=-4,16=1,25=1,30=1,75=-5,116=-2/1,2,3;
 4/5=1/1;
 5/5=2,38=6/2;
 6/7=2,8=2,9=2,10=2,15=8,20=101,28=1,33=2/1,2;
 99/5=1,9=1/99;
 Structure from the checkpoint file:  frag22-conf2.chk
 -----------------------------
 Optimization for frag22-conf2
 -----------------------------
 Charge =  0 Multiplicity = 1
 Redundant internal coordinates found in file.
 C,0,-4.0800950765,3.1394625308,-3.7495098052
 C,0,-3.0839614435,2.1940333615,-3.9965944884
 C,0,-4.905335443,2.9999191201,-2.6309716748
 C,0,-2.9147509949,1.1159407571,-3.1265448248
 C,0,-4.7383919359,1.9214590756,-1.7632896725
 C,0,-3.739463562,0.9656051039,-2.0029904123
 C,0,-0.2365530704,0.3901612164,-0.2930597752
 C,0,-3.5427122441,-0.1971779455,-1.0686455528
 N,0,-1.3935945279,1.0947786196,0.2587033068
 O,0,-3.7200652897,1.2287646024,1.1848749566
 O,0,-2.4464177739,-0.996425411,1.2133655786
 S,0,-2.8150846114,0.2616752481,0.5604735647
 H,0,-4.2152934691,3.9789503643,-4.4259834049
 H,0,-2.4408120628,2.2917430034,-4.8669942166
 H,0,-5.6832128177,3.7323661971,-2.4336013442
 H,0,-2.1446936717,0.3748438869,-3.3303144515
 H,0,-5.3713089536,1.8235013831,-0.8867744608
 H,0,-0.1091145701,-0.5431933388,0.2579246151
 H,0,0.6498058144,1.0101599714,-0.1309235332
 H,0,-0.3208673217,0.169621121,-1.3671043381
 H,0,-2.8791135727,-0.9582034068,-1.4881571349
 H,0,-4.4845863449,-0.6825291274,-0.7924395513
 H,0,-1.5881399413,2.0106001174,-0.1363999585
 Recover connectivity data from disk.
                          Input orientation:                          
 ---------------------------------------------------------------------
 Center     Atomic      Atomic             Coordinates (Angstroms)
 Number     Number       Type             X           Y           Z
 ---------------------------------------------------------------------
      1          6           0       -4.080095    3.139463   -3.749510
      2          6           0       -3.083961    2.194033   -3.996594
      3          6           0       -4.905335    2.999919   -2.630972
      4          6           0       -2.914751    1.115941   -3.126545
      5          6           0       -4.738392    1.921459   -1.763290
      6          6           0       -3.739464    0.965605   -2.002990
      7          6           0       -0.236553    0.390161   -0.293060
      8          6           0       -3.542712   -0.197178   -1.068646
      9          7           0       -1.393595    1.094779    0.258703
     10          8           0       -3.720065    1.228765    1.184875
     11          8           0       -2.446418   -0.996425    1.213366
     12         16           0       -2.815085    0.261675    0.560474
     13          1           0       -4.215293    3.978950   -4.425983
     14          1           0       -2.440812    2.291743   -4.866994
     15          1           0       -5.683213    3.732366   -2.433601
     16          1           0       -2.144694    0.374844   -3.330314
     17          1           0       -5.371309    1.823501   -0.886774
     18          1           0       -0.109115   -0.543193    0.257925
     19          1           0        0.649806    1.010160   -0.130924
     20          1           0       -0.320867    0.169621   -1.367104
     21          1           0       -2.879114   -0.958203   -1.488157
     22          1           0       -4.484586   -0.682529   -0.792440
     23          1           0       -1.588140    2.010600   -0.136400
 ---------------------------------------------------------------------
                    Distance matrix (angstroms):
                    1          2          3          4          5
     1  C    0.000000
     2  C    1.395410   0.000000
     3  C    1.397005   2.414908   0.000000
     4  C    2.416765   1.395673   2.785210   0.000000
     5  C    2.421148   2.792685   1.394209   2.415159   0.000000
     6  C    2.809273   2.431702   2.427355   1.401830   1.403200
     7  C    5.854786   5.007780   5.837311   3.965872   4.977248
     8  C    4.313813   3.808048   3.810385   2.520628   2.529981
     9  N    5.240591   4.708849   4.930731   3.711370   3.994938
    10  O    5.303635   5.308860   4.370645   4.387437   3.195073
    11  O    6.663678   6.142408   6.065969   4.849356   4.756855
    12  S    5.334592   4.957133   4.696004   3.786002   3.442945
    13  H    1.086570   2.156436   2.157945   3.402466   3.405413
    14  H    2.157463   1.086639   3.402232   2.153205   3.879300
    15  H    2.157113   3.400812   1.086521   3.871722   2.149742
    16  H    3.400679   2.153045   3.873144   1.087996   3.402184
    17  H    3.405032   3.878174   2.154835   3.398807   1.085568
    18  H    6.737223   5.868821   6.625942   4.698825   5.620501
    19  H    6.324560   5.503270   6.408508   4.657360   5.703311
    20  H    5.350477   4.318235   5.534013   3.274047   4.768692
    21  H    4.831867   4.033710   4.591115   2.643418   3.438760
    22  H    4.849278   4.528021   4.137349   3.338701   2.790649
    23  H    4.531968   4.143939   4.266782   3.391354   3.546661
                    6          7          8          9         10
     6  C    0.000000
     7  C    3.940226   0.000000
     8  C    1.504585   3.446330   0.000000
     9  N    3.261142   1.462762   2.837202   0.000000
    10  O    3.198768   3.875875   2.672662   2.507631   0.000000
    11  O    3.983275   3.012547   2.654851   2.528429   2.564071
    12  S    2.814488   2.719164   1.842286   1.675040   1.464284
    13  H    3.895839   6.766893   5.400382   6.182776   6.268214
    14  H    3.412866   5.421775   4.672940   5.366765   6.276267
    15  H    3.408600   6.739314   4.678265   5.710184   4.818230
    16  H    2.157331   3.586942   2.719708   3.736777   4.857768
    17  H    2.155190   5.364017   2.731298   4.203019   2.715152
    18  H    4.535156   1.091318   3.697176   2.081548   4.127716
    19  H    4.772034   1.093764   4.462532   2.081935   4.568904
    20  H    3.567176   1.099690   3.256364   2.156365   4.380517
    21  H    2.169400   3.198354   1.093395   3.077828   3.554593
    22  H    2.176462   4.409743   1.094981   3.717251   2.854349
    23  H    3.033870   2.115928   3.092526   1.016210   2.627192
                   11         12         13         14         15
    11  O    0.000000
    12  S    1.464582   0.000000
    13  H    7.725642   6.375223   0.000000
    14  H    6.912515   5.806777   2.487960   0.000000
    15  H    6.792546   5.407064   2.487002   4.302320   0.000000
    16  H    4.755675   3.949742   4.298541   2.474585   4.959654
    17  H    4.573572   3.326877   4.302131   4.964797   2.476635
    18  H    2.565399   2.839300   7.697369   6.303846   7.522984
    19  H    3.926843   3.611610   7.136557   5.798684   7.267727
    20  H    3.540686   3.153593   6.247742   4.609425   6.525743
    21  H    2.736222   2.385182   5.898448   4.708588   5.546015
    22  H    2.876789   2.347154   5.916464   5.442913   4.860187
    23  H    3.405982   2.247168   5.401561   4.815040   5.001123
                   16         17         18         19         20
    16  H    0.000000
    17  H    4.298900   0.000000
    18  H    4.226326   5.882369   0.000000
    19  H    4.295225   6.122635   1.772024   0.000000
    20  H    2.687499   5.336010   1.787082   1.782373   0.000000
    21  H    2.389546   3.782933   3.300595   4.262606   2.798440
    22  H    3.610255   2.659956   4.501937   5.446539   4.288701
    23  H    3.631328   3.861403   2.977393   2.451390   2.551434
                   21         22         23
    21  H    0.000000
    22  H    1.771316   0.000000
    23  H    3.508227   4.009082   0.000000
 Stoichiometry    C8H11NO2S
 Framework group  C1[X(C8H11NO2S)]
 Deg. of freedom    63
 Full point group                 C1      NOp   1
 Largest Abelian subgroup         C1      NOp   1
 Largest concise Abelian subgroup C1      NOp   1
                         Standard orientation:                         
 ---------------------------------------------------------------------
 Center     Atomic      Atomic             Coordinates (Angstroms)
 Number     Number       Type             X           Y           Z
 ---------------------------------------------------------------------
      1          6           0        3.557104    0.184302   -0.448952
      2          6           0        2.915695    1.252840    0.178735
      3          6           0        2.921499   -1.057448   -0.524343
      4          6           0        1.643756    1.078249    0.726084
      5          6           0        1.652109   -1.232875    0.024924
      6          6           0        0.998771   -0.164523    0.657967
      7          6           0       -1.958706    2.145275   -0.543508
      8          6           0       -0.375306   -0.338415    1.245715
      9          7           0       -1.612868    0.811247   -1.033853
     10          8           0       -1.393968   -1.678500   -0.830248
     11          8           0       -2.977511   -0.391488    0.722315
     12         16           0       -1.713814   -0.509473   -0.008540
     13          1           0        4.548042    0.316757   -0.874548
     14          1           0        3.404659    2.220876    0.246588
     15          1           0        3.416062   -1.893478   -1.011156
     16          1           0        1.153021    1.911164    1.225249
     17          1           0        1.154317   -2.194813   -0.048128
     18          1           0       -2.893217    2.073171    0.015478
     19          1           0       -2.123221    2.794658   -1.408120
     20          1           0       -1.186830    2.598031    0.095663
     21          1           0       -0.665180    0.504927    1.878376
     22          1           0       -0.470031   -1.255121    1.837035
     23          1           0       -0.784212    0.752147   -1.619105
 ---------------------------------------------------------------------
 Rotational constants (GHZ):      1.6096408      0.5398000      0.4714255
 Standard basis: 6-31G(d) (6D, 7F)
 There are   206 symmetry adapted basis functions of A   symmetry.
 Integral buffers will be    131072 words long.
 Raffenetti 1 integral format.
 Two-electron integral symmetry is turned on.
   206 basis functions,   404 primitive gaussians,   206 cartesian basis functions
    49 alpha electrons       49 beta electrons
       nuclear repulsion energy       837.1938917689 Hartrees.
 NAtoms=   23 NActive=   23 NUniq=   23 SFac= 1.00D+00 NAtFMM=   60 NAOKFM=F Big=F
 One-electron integrals computed using PRISM.
 NBasis=   206 RedAO= T  NBF=   206
 NBsUse=   206 1.00D-06 NBFU=   206
 Initial guess read from the checkpoint file:  frag22-conf2.chk
 B after Tr=     0.000000    0.000000    0.000000
         Rot=    1.000000    0.000000    0.000000    0.000000 Ang=   0.00 deg.
 Initial guess orbital symmetries:
       Occupied  (A) (A) (A) (A) (A) (A) (A) (A) (A) (A) (A) (A)
                 (A) (A) (A) (A) (A) (A) (A) (A) (A) (A) (A) (A)
                 (A) (A) (A) (A) (A) (A) (A) (A) (A) (A) (A) (A)
                 (A) (A) (A) (A) (A) (A) (A) (A) (A) (A) (A) (A)
                 (A)
       Virtual   (A) (A) (A) (A) (A) (A) (A) (A) (A) (A) (A) (A)
                 (A) (A) (A) (A) (A) (A) (A) (A) (A) (A) (A) (A)
                 (A) (A) (A) (A) (A) (A) (A) (A) (A) (A) (A) (A)
                 (A) (A) (A) (A) (A) (A) (A) (A) (A) (A) (A) (A)
                 (A) (A) (A) (A) (A) (A) (A) (A) (A) (A) (A) (A)
                 (A) (A) (A) (A) (A) (A) (A) (A) (A) (A) (A) (A)
                 (A) (A) (A) (A) (A) (A) (A) (A) (A) (A) (A) (A)
                 (A) (A) (A) (A) (A) (A) (A) (A) (A) (A) (A) (A)
                 (A) (A) (A) (A) (A) (A) (A) (A) (A) (A) (A) (A)
                 (A) (A) (A) (A) (A) (A) (A) (A) (A) (A) (A) (A)
                 (A) (A) (A) (A) (A) (A) (A) (A) (A) (A) (A) (A)
                 (A) (A) (A) (A) (A) (A) (A) (A) (A) (A) (A) (A)
                 (A) (A) (A) (A) (A) (A) (A) (A) (A) (A) (A) (A)
                 (A)
 Requested convergence on RMS density matrix=1.00D-08 within 128 cycles.
 Requested convergence on MAX density matrix=1.00D-06.
 Requested convergence on             energy=1.00D-06.
 No special actions if energy rises.
 SCF Done:  E(RHF) =  -910.954703276     A.U. after   14 cycles
             Convg  =    0.5941D-08             -V/T =  2.0021

 **********************************************************************

            Population analysis using the SCF density.

 **********************************************************************

 Orbital symmetries:
 BldTbl:  Degeneracy threshold= 1.00D-02
       Occupied  (A) (A) (A) (A) (A) (A) (A) (A) (A) (A) (A) (A)
                 (A) (A) (A) (A) (A) (A) (A) (A) (A) (A) (A) (A)
                 (A) (A) (A) (A) (A) (A) (A) (A) (A) (A) (A) (A)
                 (A) (A) (A) (A) (A) (A) (A) (A) (A) (A) (A) (A)
                 (A)
       Virtual   (A) (A) (A) (A) (A) (A) (A) (A) (A) (A) (A) (A)
                 (A) (A) (A) (A) (A) (A) (A) (A) (A) (A) (A) (A)
                 (A) (A) (A) (A) (A) (A) (A) (A) (A) (A) (A) (A)
                 (A) (A) (A) (A) (A) (A) (A) (A) (A) (A) (A) (A)
                 (A) (A) (A) (A) (A) (A) (A) (A) (A) (A) (A) (A)
                 (A) (A) (A) (A) (A) (A) (A) (A) (A) (A) (A) (A)
                 (A) (A) (A) (A) (A) (A) (A) (A) (A) (A) (A) (A)
                 (A) (A) (A) (A) (A) (A) (A) (A) (A) (A) (A) (A)
                 (A) (A) (A) (A) (A) (A) (A) (A) (A) (A) (A) (A)
                 (A) (A) (A) (A) (A) (A) (A) (A) (A) (A) (A) (A)
                 (A) (A) (A) (A) (A) (A) (A) (A) (A) (A) (A) (A)
                 (A) (A) (A) (A) (A) (A) (A) (A) (A) (A) (A) (A)
                 (A) (A) (A) (A) (A) (A) (A) (A) (A) (A) (A) (A)
                 (A)
 The electronic state is 1-A.
 Alpha  occ. eigenvalues --  -92.20599 -20.55349 -20.55255 -15.60805 -11.28786
 Alpha  occ. eigenvalues --  -11.28003 -11.26804 -11.25846 -11.25426 -11.25312
 Alpha  occ. eigenvalues --  -11.25199 -11.25065  -9.17710  -6.86296  -6.86286
 Alpha  occ. eigenvalues --   -6.86179  -1.44917  -1.33200  -1.23132  -1.17191
 Alpha  occ. eigenvalues --   -1.07938  -1.02890  -0.98850  -0.95287  -0.84511
 Alpha  occ. eigenvalues --   -0.84280  -0.80842  -0.72771  -0.70755  -0.67736
 Alpha  occ. eigenvalues --   -0.67055  -0.66016  -0.64811  -0.62088  -0.60763
 Alpha  occ. eigenvalues --   -0.60014  -0.59578  -0.57957  -0.56349  -0.52431
 Alpha  occ. eigenvalues --   -0.51070  -0.50661  -0.49553  -0.48610  -0.46262
 Alpha  occ. eigenvalues --   -0.45321  -0.42505  -0.34970  -0.34386
 Alpha virt. eigenvalues --    0.11258   0.12362   0.19694   0.22260   0.23872
 Alpha virt. eigenvalues --    0.24722   0.25831   0.26029   0.27851   0.28677
 Alpha virt. eigenvalues --    0.29259   0.30065   0.31108   0.32613   0.33006
 Alpha virt. eigenvalues --    0.34273   0.35569   0.37681   0.38435   0.41907
 Alpha virt. eigenvalues --    0.46098   0.47781   0.49728   0.50843   0.51483
 Alpha virt. eigenvalues --    0.56661   0.60737   0.63225   0.68221   0.69597
 Alpha virt. eigenvalues --    0.72615   0.73370   0.74991   0.75835   0.76349
 Alpha virt. eigenvalues --    0.76559   0.78894   0.81722   0.82174   0.82523
 Alpha virt. eigenvalues --    0.82997   0.84838   0.85411   0.87855   0.89548
 Alpha virt. eigenvalues --    0.90699   0.91694   0.97495   0.98595   1.00096
 Alpha virt. eigenvalues --    1.04545   1.06304   1.06571   1.08597   1.08940
 Alpha virt. eigenvalues --    1.09920   1.10363   1.11764   1.13599   1.14296
 Alpha virt. eigenvalues --    1.14609   1.16999   1.17175   1.18595   1.18824
 Alpha virt. eigenvalues --    1.21349   1.21708   1.22515   1.24450   1.28680
 Alpha virt. eigenvalues --    1.29957   1.30158   1.33723   1.34794   1.37421
 Alpha virt. eigenvalues --    1.39185   1.39887   1.41938   1.44519   1.48809
 Alpha virt. eigenvalues --    1.49161   1.50863   1.55650   1.58474   1.60998
 Alpha virt. eigenvalues --    1.63453   1.67093   1.68725   1.69899   1.72807
 Alpha virt. eigenvalues --    1.74304   1.75610   1.77717   1.78704   1.90574
 Alpha virt. eigenvalues --    1.96726   1.98274   2.06409   2.09171   2.09922
 Alpha virt. eigenvalues --    2.10847   2.11690   2.13055   2.14656   2.16336
 Alpha virt. eigenvalues --    2.17464   2.19806   2.22208   2.25623   2.26612
 Alpha virt. eigenvalues --    2.29141   2.30857   2.34086   2.35460   2.38080
 Alpha virt. eigenvalues --    2.39623   2.40654   2.43700   2.44754   2.46506
 Alpha virt. eigenvalues --    2.48342   2.53392   2.56784   2.58494   2.61744
 Alpha virt. eigenvalues --    2.62038   2.63366   2.67178   2.68376   2.71653
 Alpha virt. eigenvalues --    2.73521   2.78455   2.89345   2.90017   2.98011
 Alpha virt. eigenvalues --    2.99776   3.05536   3.08008   3.08337   3.11361
 Alpha virt. eigenvalues --    3.12812   3.18606   3.22415   3.40781   3.76716
 Alpha virt. eigenvalues --    4.16966   4.36840   4.39522   4.41674   4.50201
 Alpha virt. eigenvalues --    4.52482   4.59656   4.67687   4.70900   4.75230
 Alpha virt. eigenvalues --    4.82243   5.11190
          Condensed to atoms (all electrons):
              1          2          3          4          5          6
     1  C    4.892972   0.550817   0.543838  -0.044835  -0.043674  -0.030651
     2  C    0.550817   4.895326  -0.041945   0.543986  -0.035392  -0.042775
     3  C    0.543838  -0.041945   4.902869  -0.036269   0.542234  -0.040754
     4  C   -0.044835   0.543986  -0.036269   4.921369  -0.037255   0.560699
     5  C   -0.043674  -0.035392   0.542234  -0.037255   4.910179   0.544503
     6  C   -0.030651  -0.042775  -0.040754   0.560699   0.544503   4.947471
     7  C    0.000000  -0.000015  -0.000001  -0.000851   0.000025   0.000607
     8  C    0.000066   0.003256   0.002794  -0.042291  -0.047758   0.232542
     9  N   -0.000001  -0.000010   0.000005   0.001651  -0.000780   0.001422
    10  O    0.000003   0.000001  -0.000022   0.000150   0.001072  -0.001371
    11  O    0.000000   0.000000   0.000000   0.000002  -0.000026   0.002903
    12  S    0.000028  -0.000111  -0.000012  -0.001887  -0.001908  -0.032191
    13  H    0.381790  -0.029786  -0.029038   0.002537   0.002407   0.000186
    14  H   -0.028528   0.381726   0.002347  -0.029892   0.000217   0.002227
    15  H   -0.029451   0.002374   0.381954   0.000256  -0.028217   0.002052
    16  H    0.002393  -0.026665   0.000095   0.379501   0.002627  -0.034474
    17  H    0.002222   0.000102  -0.024870   0.002352   0.377985  -0.029566
    18  H    0.000000   0.000000   0.000000   0.000020  -0.000001  -0.000003
    19  H    0.000000  -0.000001   0.000000   0.000027   0.000000  -0.000006
    20  H   -0.000001   0.000015  -0.000003   0.000397   0.000034   0.000702
    21  H   -0.000010   0.000238  -0.000002   0.000508   0.002629  -0.046054
    22  H    0.000009  -0.000028   0.000048   0.000814  -0.001100  -0.031566
    23  H   -0.000027   0.000022  -0.000015   0.000921   0.000525   0.002414
              7          8          9         10         11         12
     1  C    0.000000   0.000066  -0.000001   0.000003   0.000000   0.000028
     2  C   -0.000015   0.003256  -0.000010   0.000001   0.000000  -0.000111
     3  C   -0.000001   0.002794   0.000005  -0.000022   0.000000  -0.000012
     4  C   -0.000851  -0.042291   0.001651   0.000150   0.000002  -0.001887
     5  C    0.000025  -0.047758  -0.000780   0.001072  -0.000026  -0.001908
     6  C    0.000607   0.232542   0.001422  -0.001371   0.002903  -0.032191
     7  C    4.972253   0.000826   0.204566   0.001266  -0.002149  -0.021796
     8  C    0.000826   5.601930  -0.066578  -0.058765  -0.053491   0.281947
     9  N    0.204566  -0.066578   7.413062  -0.053101  -0.052566   0.207228
    10  O    0.001266  -0.058765  -0.053101   8.352439  -0.034928   0.477678
    11  O   -0.002149  -0.053491  -0.052566  -0.034928   8.357260   0.470701
    12  S   -0.021796   0.281947   0.207228   0.477678   0.470701  13.060138
    13  H    0.000000   0.000005   0.000000   0.000000   0.000000   0.000000
    14  H    0.000000  -0.000113  -0.000001   0.000000   0.000000  -0.000001
    15  H    0.000000  -0.000108   0.000000  -0.000003   0.000000  -0.000002
    16  H    0.000013  -0.002645  -0.000208   0.000002   0.000002   0.000000
    17  H    0.000000  -0.001258   0.000029   0.003746   0.000003  -0.000321
    18  H    0.396399  -0.000174  -0.035716   0.000009   0.005739  -0.002224
    19  H    0.398234  -0.000178  -0.036731  -0.000035   0.000026   0.002360
    20  H    0.393087   0.001465  -0.049233  -0.000043  -0.000073  -0.006757
    21  H    0.000245   0.376989  -0.000342   0.001582   0.001632  -0.017904
    22  H   -0.000033   0.372867   0.001972   0.000030   0.001178  -0.021051
    23  H   -0.023738  -0.000638   0.310698   0.001008   0.001343  -0.007519
             13         14         15         16         17         18
     1  C    0.381790  -0.028528  -0.029451   0.002393   0.002222   0.000000
     2  C   -0.029786   0.381726   0.002374  -0.026665   0.000102   0.000000
     3  C   -0.029038   0.002347   0.381954   0.000095  -0.024870   0.000000
     4  C    0.002537  -0.029892   0.000256   0.379501   0.002352   0.000020
     5  C    0.002407   0.000217  -0.028217   0.002627   0.377985  -0.000001
     6  C    0.000186   0.002227   0.002052  -0.034474  -0.029566  -0.000003
     7  C    0.000000   0.000000   0.000000   0.000013   0.000000   0.396399
     8  C    0.000005  -0.000113  -0.000108  -0.002645  -0.001258  -0.000174
     9  N    0.000000  -0.000001   0.000000  -0.000208   0.000029  -0.035716
    10  O    0.000000   0.000000  -0.000003   0.000002   0.003746   0.000009
    11  O    0.000000   0.000000   0.000000   0.000002   0.000003   0.005739
    12  S    0.000000  -0.000001  -0.000002   0.000000  -0.000321  -0.002224
    13  H    0.463314  -0.001390  -0.001359  -0.000101  -0.000089   0.000000
    14  H   -0.001390   0.465146  -0.000101  -0.001407   0.000008   0.000000
    15  H   -0.001359  -0.000101   0.459157   0.000009  -0.001261   0.000000
    16  H   -0.000101  -0.001407   0.000009   0.473425  -0.000101  -0.000004
    17  H   -0.000089   0.000008  -0.001261  -0.000101   0.424658   0.000000
    18  H    0.000000   0.000000   0.000000  -0.000004   0.000000   0.452055
    19  H    0.000000   0.000000   0.000000  -0.000006   0.000000  -0.019498
    20  H    0.000000   0.000000   0.000000   0.000999   0.000001  -0.029146
    21  H    0.000000  -0.000007   0.000001   0.002079   0.000008   0.000074
    22  H    0.000000   0.000002  -0.000002  -0.000037   0.000958   0.000002
    23  H    0.000000   0.000001   0.000000  -0.000017   0.000007   0.002841
             19         20         21         22         23
     1  C    0.000000  -0.000001  -0.000010   0.000009  -0.000027
     2  C   -0.000001   0.000015   0.000238  -0.000028   0.000022
     3  C    0.000000  -0.000003  -0.000002   0.000048  -0.000015
     4  C    0.000027   0.000397   0.000508   0.000814   0.000921
     5  C    0.000000   0.000034   0.002629  -0.001100   0.000525
     6  C   -0.000006   0.000702  -0.046054  -0.031566   0.002414
     7  C    0.398234   0.393087   0.000245  -0.000033  -0.023738
     8  C   -0.000178   0.001465   0.376989   0.372867  -0.000638
     9  N   -0.036731  -0.049233  -0.000342   0.001972   0.310698
    10  O   -0.000035  -0.000043   0.001582   0.000030   0.001008
    11  O    0.000026  -0.000073   0.001632   0.001178   0.001343
    12  S    0.002360  -0.006757  -0.017904  -0.021051  -0.007519
    13  H    0.000000   0.000000   0.000000   0.000000   0.000000
    14  H    0.000000   0.000000  -0.000007   0.000002   0.000001
    15  H    0.000000   0.000000   0.000001  -0.000002   0.000000
    16  H   -0.000006   0.000999   0.002079  -0.000037  -0.000017
    17  H    0.000000   0.000001   0.000008   0.000958   0.000007
    18  H   -0.019498  -0.029146   0.000074   0.000002   0.002841
    19  H    0.493629  -0.033995   0.000003   0.000002  -0.002610
    20  H   -0.033995   0.567112   0.000601  -0.000032  -0.000599
    21  H    0.000003   0.000601   0.458467  -0.014401   0.000163
    22  H    0.000002  -0.000032  -0.014401   0.439673   0.000018
    23  H   -0.002610  -0.000599   0.000163   0.000018   0.309581
 Mulliken atomic charges:
              1
     1  C   -0.196962
     2  C   -0.201135
     3  C   -0.203254
     4  C   -0.221911
     5  C   -0.188327
     6  C   -0.008317
     7  C   -0.318941
     8  C   -0.600689
     9  N   -0.845366
    10  O   -0.690717
    11  O   -0.697556
    12  S    1.613603
    13  H    0.211526
    14  H    0.209766
    15  H    0.214701
    16  H    0.204519
    17  H    0.245388
    18  H    0.229627
    19  H    0.198778
    20  H    0.155469
    21  H    0.233499
    22  H    0.250677
    23  H    0.405622
 Sum of Mulliken atomic charges =   0.00000
 Mulliken charges with hydrogens summed into heavy atoms:
              1
     1  C    0.014564
     2  C    0.008631
     3  C    0.011447
     4  C   -0.017393
     5  C    0.057061
     6  C   -0.008317
     7  C    0.264934
     8  C   -0.116513
     9  N   -0.439745
    10  O   -0.690717
    11  O   -0.697556
    12  S    1.613603
 Sum of Mulliken charges with hydrogens summed into heavy atoms =   0.00000
 DipInt: DoE/N= T F RetVal/Mat= T F Init=T NMatP=  1 IDeriv=0 Min/MaxMlt=  0  4
 Entering OneElI...
 OneElI was handed    33443025 working-precision words.
 Multipole integrals L=0 to 4 MinM= 0 MaxM= 0.
 Requested accuracy = 0.1000D-12
 PrsmSu:  NPrtUS=   1 ThrOK=F IAlg=1 NPAlg=1 LenDen=           0.
 Prism:   IPart=     0 DynPar=F LinDyn=F Incr=          23.
 PRISM was handed    33232283 working-precision words and  2318 shell-pairs
 IPart=  0 NShTot=        2318 NBatch=          65 AvBLen=        35.7
 PrSmSu:  NxtVal=             24.
 Electronic moments (au):
        -98.00000000          1.86130892          1.58099070          0.25321114
      -1687.41813518       -525.45948174       -244.20005483         -5.58610961
         -1.94872795         -2.00267058      -2499.29321262       -462.69667296
        -68.81978232        192.54730012       -311.01340397        367.74344572
        143.70841751        -22.82297365        270.99754613       -346.27207969
     -52581.64804215      -7377.70704569      -1741.34990732       -955.30425035
       4067.54110723       1715.52928812         87.92701879       -102.84317451
        144.19480179      -8372.65881625      -3266.47864123      -1310.36920770
       -127.07747132      -1052.34808263        123.02592287
 Electronic spatial extent (au):  <R**2>=           2457.0777
 DipInt: DoE/N= F T RetVal/Mat= T F Init=T NMatP=  1 IDeriv=0 Min/MaxMlt=  0  4
 Nuclear    moments (au):
         98.00000000          0.00000000          0.00000000          0.00000000
       1622.76935659        470.50726438        185.47458544          0.00000000
          0.00000000          0.00000000       2564.61192859        477.53573169
         66.88704247       -192.96406907        337.09736039       -400.66202264
       -155.00250586         26.42853687       -265.79226561        358.86316668
      46591.95311632       5622.08656215        905.08122252        915.04888599
      -4164.94679465      -1771.84955364       -110.84814007         77.41162197
       -163.77676026       7173.99029748       2050.40539087        880.53720886
        161.61752503       1033.71308419       -140.29943695
 Total      moments (au):
          0.00000000          1.86130892          1.58099070          0.25321114
        -64.64877859        -54.95221736        -58.72546939         -5.58610961
         -1.94872795         -2.00267058         65.31871596         14.83905873
         -1.93273985         -0.41676895         26.08395641        -32.91857691
        -11.29408835          3.60556322          5.20528051         12.59108700
      -5989.69492582      -1755.62048354       -836.26868480        -40.25536436
        -97.40568743        -56.32026553        -22.92112128        -25.43155254
        -19.58195847      -1198.66851876      -1216.07325036       -429.83199884
         34.54005371        -18.63499844        -17.27351407
 Traceless Quadrup. (au):
         -5.20662348          4.48993775          0.71668573         -5.58610961
         -1.94872795         -2.00267058
 Charge=              0.0000 electrons
 Dipole moment (field-independent basis, Debye):
    X=              4.7310    Y=              4.0185    Z=              0.6436  Tot=              6.2406
 Quadrupole moment (field-independent basis, Debye-Ang):
   XX=            -86.9548   YY=            -73.9126   ZZ=            -78.9878
   XY=             -7.5135   XZ=             -2.6211   YZ=             -2.6937
 Traceless Quadrupole moment (field-independent basis, Debye-Ang):
   XX=             -7.0031   YY=              6.0391   ZZ=              0.9640
   XY=             -7.5135   XZ=             -2.6211   YZ=             -2.6937
 Octapole moment (field-independent basis, Debye-Ang**2):
  XXX=             46.4913  YYY=             10.5619  ZZZ=             -1.3756  XYY=             -0.2966
  XXY=             18.5656  XXZ=            -23.4302  XZZ=             -8.0387  YZZ=              2.5663
  YYZ=              3.7049  XYZ=              8.9619
 Hexadecapole moment (field-independent basis, Debye-Ang**3):
 XXXX=          -2256.0062 YYYY=           -661.2508 ZZZZ=           -314.9789 XXXY=            -15.1621
 XXXZ=            -36.6877 YYYX=            -21.2129 YYYZ=             -8.6332 ZZZX=             -9.5787
 ZZZY=             -7.3755 XXYY=           -451.4760 XXZZ=           -458.0315 YYZZ=           -161.8953
 XXYZ=             13.0094 YYXZ=             -7.0188 ZZXY=             -6.5060
 N-N= 8.371938917689D+02 E-N=-3.819880952297D+03  KE= 9.090561951290D+02
 Entering OneElI...
 OneElI was handed    33357372 working-precision words.
 Calculate electrostatic properties
    NBasis =   206  MinDer = 0  MaxDer = 0
    NGrid  =    23  NMatD  =   1
 Requested accuracy = 0.1000D-12
 PrsmSu:  NPrtUS=   2 ThrOK=T IAlg=1 NPAlg=1 LenDen=           0.
 Prism:   IPart=     0 DynPar=F LinDyn=F Incr=         248.
 PRISM was handed    16546235 working-precision words and  2157 shell-pairs
 PRISM was handed    16546235 working-precision words and  2157 shell-pairs
 IPart=  0 NShTot=       25162 NBatch=        1094 AvBLen=        23.0
 IPart=  1 NShTot=       24449 NBatch=        1063 AvBLen=        23.0
 PrSmSu:  NxtVal=            497.
 --------------------------------------------------------
       Center         ----      EFG at Nuclei      ----
                      3XX-RR        3YY-RR        3ZZ-RR
 --------------------------------------------------------
     1   Atom        0.061713      0.165554     -0.227267
     2   Atom        0.087747      0.114705     -0.202452
     3   Atom        0.093761      0.127547     -0.221309
     4   Atom        0.106991      0.099619     -0.206610
     5   Atom        0.102069      0.122490     -0.224559
     6   Atom       -0.011047      0.178369     -0.167322
     7   Atom        0.131910     -0.239191      0.107281
     8   Atom       -0.057932      0.132643     -0.074711
     9   Atom        0.516811     -0.577106      0.060295
    10   Atom        0.664867     -0.746963      0.082096
    11   Atom       -0.928729      0.691820      0.236910
    12   Atom        0.263470     -0.237702     -0.025768
    13   Atom       -0.227913      0.137728      0.090185
    14   Atom        0.055278     -0.213418      0.158141
    15   Atom        0.052776     -0.121924      0.069148
    16   Atom        0.051831     -0.118026      0.066195
    17   Atom        0.055330     -0.209899      0.154569
    18   Atom       -0.170750      0.134195      0.036555
    19   Atom        0.145381     -0.015854     -0.129527
    20   Atom       -0.068679      0.064233      0.004445
    21   Atom        0.110542     -0.115068      0.004526
    22   Atom        0.135694     -0.156574      0.020880
    23   Atom       -0.174798      0.154758      0.020041
 --------------------------------------------------------
                        XY            XZ            YZ
 --------------------------------------------------------
     1   Atom        0.055675     -0.177565      0.130660
     2   Atom        0.031144     -0.187460      0.120063
     3   Atom        0.076118     -0.182316      0.106555
     4   Atom        0.083244     -0.175954      0.095187
     5   Atom        0.066639     -0.197914      0.121076
     6   Atom        0.029893     -0.114945      0.125424
     7   Atom        0.112136     -0.000738     -0.130755
     8   Atom       -0.013378     -0.159368     -0.017035
     9   Atom        0.274425      0.757221      0.389170
    10   Atom        0.411534      0.405400     -1.070888
    11   Atom        0.189494      1.103866     -0.108184
    12   Atom       -0.121151     -0.093385      0.462954
    13   Atom       -0.052536      0.168585      0.016670
    14   Atom       -0.182703     -0.004376     -0.030308
    15   Atom        0.155238      0.100077     -0.159883
    16   Atom        0.151847      0.101843     -0.161796
    17   Atom       -0.180175     -0.000710     -0.030268
    18   Atom       -0.016222      0.194520      0.007802
    19   Atom        0.043821     -0.048733      0.201772
    20   Atom       -0.115796     -0.178919     -0.103690
    21   Atom        0.088688      0.061874     -0.196193
    22   Atom       -0.032676      0.014546      0.196250
    23   Atom        0.036964      0.285328      0.000279
 --------------------------------------------------------


 ---------------------------------------------------------------------------------
              Nuclear Quadrupole in Principal Axis System
 ---------------------------------------------------------------------------------

       Atom             a.u.   MegaHertz   Gauss  10(-4) cm-1        Axes

              Baa    -0.3507   -47.062   -16.793   -15.698  0.4113 -0.2651  0.8721
     1 C(13)  Bbb     0.1456    19.540     6.973     6.518  0.9111  0.0907 -0.4021
              Bcc     0.2051    27.522     9.821     9.180  0.0275  0.9600  0.2788
 
              Baa    -0.3279   -43.996   -15.699   -14.675  0.4129 -0.2654  0.8713
     2 C(13)  Bbb     0.1351    18.135     6.471     6.049  0.5310  0.8474  0.0065
              Bcc     0.1927    25.861     9.228     8.626  0.7400 -0.4599 -0.4908
 
              Baa    -0.3402   -45.645   -16.287   -15.226  0.4127 -0.2657  0.8713
     3 C(13)  Bbb     0.1450    19.462     6.944     6.492 -0.4513  0.7713  0.4489
              Bcc     0.1951    26.183     9.343     8.734  0.7912  0.5784 -0.1984
 
              Baa    -0.3205   -43.010   -15.347   -14.347  0.4114 -0.2782  0.8680
     4 C(13)  Bbb     0.1163    15.607     5.569     5.206 -0.3093  0.8532  0.4200
              Bcc     0.2042    27.403     9.778     9.141  0.8574  0.4412 -0.2650
 
              Baa    -0.3575   -47.972   -17.117   -16.002  0.4137 -0.2763  0.8675
     5 C(13)  Bbb     0.1602    21.492     7.669     7.169 -0.0931  0.9350  0.3422
              Bcc     0.1973    26.480     9.449     8.833  0.9057  0.2223 -0.3611
 
              Baa    -0.2637   -35.385   -12.626   -11.803  0.4250 -0.2736  0.8629
     6 C(13)  Bbb     0.0444     5.953     2.124     1.986  0.9045  0.1659 -0.3928
              Bcc     0.2193    29.432    10.502     9.818 -0.0357  0.9474  0.3179
 
              Baa    -0.3087   -41.426   -14.782   -13.818 -0.2355  0.9273  0.2910
     7 C(13)  Bbb     0.1189    15.957     5.694     5.323  0.6532 -0.0707  0.7539
              Bcc     0.1898    25.469     9.088     8.496  0.7197  0.3676 -0.5890
 
              Baa    -0.2272   -30.488   -10.879   -10.170  0.6868  0.0598  0.7244
     8 C(13)  Bbb     0.0932    12.502     4.461     4.170  0.7269 -0.0493 -0.6850
              Bcc     0.1340    17.986     6.418     6.000 -0.0053  0.9970 -0.0773
 
              Baa    -0.7703   -29.708   -10.601    -9.910  0.1152  0.8550 -0.5056
     9 N(14)  Bbb    -0.4254   -16.408    -5.855    -5.473  0.6346 -0.4549 -0.6248
              Bcc     1.1957    46.116    16.455    15.383  0.7642  0.2489  0.5950
 
              Baa    -1.6224   117.395    41.889    39.159 -0.2417  0.7947  0.5568
    10 O(17)  Bbb     0.7123   -51.540   -18.391   -17.192  0.7014  0.5396 -0.4657
              Bcc     0.9101   -65.855   -23.499   -21.967  0.6706 -0.2780  0.6878
 
              Baa    -1.6148   116.847    41.694    38.976  0.8527 -0.0942 -0.5138
    11 O(17)  Bbb     0.7123   -51.542   -18.392   -17.193  0.0666  0.9952 -0.0718
              Bcc     0.9025   -65.305   -23.302   -21.783  0.5181  0.0270  0.8549
 
              Baa    -0.6082   -24.937    -8.898    -8.318  0.0430  0.7855 -0.6174
    12 S(33)  Bbb     0.1506     6.176     2.204     2.060  0.7912  0.3506  0.5011
              Bcc     0.4576    18.761     6.694     6.258  0.6100 -0.5101 -0.6064
 
              Baa    -0.3074  -164.010   -58.523   -54.708  0.9119  0.1223 -0.3918
    13 H(1)   Bbb     0.1430    76.292    27.223    25.448 -0.0039  0.9571  0.2896
              Bcc     0.1644    87.718    31.300    29.260  0.4104 -0.2626  0.8733
 
              Baa    -0.3077  -164.153   -58.574   -54.756  0.4494  0.8912  0.0622
    14 H(1)   Bbb     0.1423    75.931    27.094    25.328  0.7949 -0.3671 -0.4831
              Bcc     0.1653    88.222    31.480    29.428  0.4077 -0.2666  0.8733
 
              Baa    -0.3072  -163.893   -58.481   -54.669 -0.4562  0.7689  0.4480
    15 H(1)   Bbb     0.1424    75.952    27.101    25.335  0.7845  0.5851 -0.2054
              Bcc     0.1648    87.941    31.380    29.334  0.4201 -0.2577  0.8701
 
              Baa    -0.3054  -162.933   -58.138   -54.349 -0.4552  0.7639  0.4574
    16 H(1)   Bbb     0.1398    74.565    26.607    24.872  0.7917  0.5823 -0.1848
              Bcc     0.1656    88.367    31.532    29.476  0.4076 -0.2780  0.8698
 
              Baa    -0.3026  -161.473   -57.618   -53.862  0.4489  0.8916  0.0597
    17 H(1)   Bbb     0.1374    73.327    26.165    24.459  0.7496 -0.3393 -0.5683
              Bcc     0.1652    88.146    31.453    29.402  0.4864 -0.2998  0.8207
 
              Baa    -0.2883  -153.808   -54.882   -51.305  0.8567  0.0424 -0.5141
    18 H(1)   Bbb     0.1348    71.926    25.665    23.992  0.0097  0.9951  0.0982
              Bcc     0.1535    81.881    29.217    27.313  0.5157 -0.0891  0.8521
 
              Baa    -0.2921  -155.832   -55.605   -51.980  0.1477 -0.5986  0.7873
    19 H(1)   Bbb     0.1354    72.256    25.783    24.102 -0.2636  0.7434  0.6147
              Bcc     0.1566    83.576    29.822    27.878  0.9533  0.2983  0.0480
 
              Baa    -0.2840  -151.525   -54.068   -50.543  0.7033  0.4074  0.5827
    20 H(1)   Bbb     0.1313    70.049    24.995    23.366 -0.5026  0.8645  0.0021
              Bcc     0.1527    81.476    29.073    27.178 -0.5029 -0.2943  0.8127
 
              Baa    -0.2896  -154.505   -55.131   -51.537 -0.2608  0.7769  0.5731
    21 H(1)   Bbb     0.1389    74.133    26.453    24.728  0.9315  0.0467  0.3606
              Bcc     0.1506    80.372    28.679    26.809 -0.2534 -0.6279  0.7359
 
              Baa    -0.2862  -152.694   -54.485   -50.933  0.0835  0.8379 -0.5395
    22 H(1)   Bbb     0.1360    72.586    25.901    24.212  0.8994  0.1697  0.4028
              Bcc     0.1501    80.108    28.584    26.721 -0.4290  0.5188  0.7394
 
              Baa    -0.3806  -203.045   -72.451   -67.728  0.8133 -0.0559 -0.5792
    23 H(1)   Bbb     0.1501    80.071    28.571    26.709 -0.1195  0.9581 -0.2602
              Bcc     0.2305   122.974    43.880    41.020  0.5695  0.2808  0.7725
 

 ---------------------------------------------------------------------------------

 No NMR shielding tensors so no spin-rotation constants.
 Leave Link  601 at Sat Feb 17 21:00:13 2018, MaxMem=   33554432 cpu:       0.5
 Merz-Kollman atomic radii used.
 Read replacement radii for each type of atom:
 Atom Element Radius
    1     6    1.50
    2     6    1.50
    3     6    1.50
    4     6    1.50
    5     6    1.50
    6     6    1.50
    7     6    1.50
    8     6    1.50
    9     7    1.50
   10     8    1.40
   11     8    1.40
   12    16    1.75
   13     1    1.20
   14     1    1.20
   15     1    1.20
   16     1    1.20
   17     1    1.20
   18     1    1.20
   19     1    1.20
   20     1    1.20
   21     1    1.20
   22     1    1.20
   23     1    1.20
 Generate VDW surfaces: Layer= 4 Dens= 1 Start= 1.400 Inc= 0.200

 **********************************************************************

            Electrostatic Properties Using The SCF Density

 **********************************************************************

       Atomic Center    1 is at   3.557104  0.184302 -0.448952
       Atomic Center    2 is at   2.915695  1.252840  0.178735
       Atomic Center    3 is at   2.921499 -1.057448 -0.524343
       Atomic Center    4 is at   1.643756  1.078249  0.726084
       Atomic Center    5 is at   1.652109 -1.232875  0.024924
       Atomic Center    6 is at   0.998771 -0.164523  0.657967
       Atomic Center    7 is at  -1.958706  2.145275 -0.543508
       Atomic Center    8 is at  -0.375306 -0.338415  1.245715
       Atomic Center    9 is at  -1.612868  0.811247 -1.033853
       Atomic Center   10 is at  -1.393968 -1.678500 -0.830248
       Atomic Center   11 is at  -2.977511 -0.391488  0.722315
       Atomic Center   12 is at  -1.713814 -0.509473 -0.008540
       Atomic Center   13 is at   4.548042  0.316757 -0.874548
       Atomic Center   14 is at   3.404659  2.220876  0.246588
       Atomic Center   15 is at   3.416062 -1.893478 -1.011156
       Atomic Center   16 is at   1.153021  1.911164  1.225249
       Atomic Center   17 is at   1.154317 -2.194813 -0.048128
       Atomic Center   18 is at  -2.893217  2.073171  0.015478
       Atomic Center   19 is at  -2.123221  2.794658 -1.408120
       Atomic Center   20 is at  -1.186830  2.598031  0.095663
       Atomic Center   21 is at  -0.665180  0.504927  1.878376
       Atomic Center   22 is at  -0.470031 -1.255121  1.837035
       Atomic Center   23 is at  -0.784212  0.752147 -1.619105
      ESP Fit Center   24 is at   4.607104  0.184302  1.369702
      ESP Fit Center   25 is at   4.082104 -0.725024  1.369702
      ESP Fit Center   26 is at   5.375758  0.184302  0.601048
      ESP Fit Center   27 is at   5.087053  1.167541  0.601048
      ESP Fit Center   28 is at   5.087053 -0.798936  0.601048
      ESP Fit Center   29 is at   3.032104  1.093629 -2.267605
      ESP Fit Center   30 is at   2.507104  0.184302 -2.267605
      ESP Fit Center   31 is at   4.082104 -0.725024 -2.267605
      ESP Fit Center   32 is at   3.557104  0.184302 -2.548952
      ESP Fit Center   33 is at   3.965695  1.252840  1.997388
      ESP Fit Center   34 is at   3.440695  2.162167  1.997388
      ESP Fit Center   35 is at   3.440695  0.343513  1.997388
      ESP Fit Center   36 is at   4.734348  1.252840  1.228735
      ESP Fit Center   37 is at   1.724730  2.627286 -0.871265
      ESP Fit Center   38 is at   3.440695  2.162167 -1.639918
      ESP Fit Center   39 is at   2.390695  2.162167 -1.639918
      ESP Fit Center   40 is at   1.865695  1.252840 -1.639918
      ESP Fit Center   41 is at   3.971499 -1.057448  1.294311
      ESP Fit Center   42 is at   3.446499 -1.966774  1.294311
      ESP Fit Center   43 is at   3.676994 -2.711753  0.525657
      ESP Fit Center   44 is at   4.451447 -2.040686  0.525657
      ESP Fit Center   45 is at   1.730534  0.316999 -1.574343
      ESP Fit Center   46 is at   2.396499 -0.148121 -2.342996
      ESP Fit Center   47 is at   1.871499 -1.057448 -2.342996
      ESP Fit Center   48 is at   2.921499 -1.057448 -2.624343
      ESP Fit Center   49 is at   1.643756  1.078249  2.826084
      ESP Fit Center   50 is at   2.693756  1.078249  2.544737
      ESP Fit Center   51 is at   2.168756  0.168922  2.544737
      ESP Fit Center   52 is at   1.384934  2.878391 -0.323916
      ESP Fit Center   53 is at   0.452791  2.452695 -0.323916
      ESP Fit Center   54 is at   1.118756  1.987576 -1.092569
      ESP Fit Center   55 is at   2.702109 -1.232875  1.843577
      ESP Fit Center   56 is at   1.127109 -2.142202  1.843577
      ESP Fit Center   57 is at   2.177109 -2.142202  1.843577
      ESP Fit Center   58 is at   2.407605 -2.887181  1.074924
      ESP Fit Center   59 is at   1.127109 -0.323549 -1.793729
      ESP Fit Center   60 is at   0.602109 -1.232875 -1.793729
      ESP Fit Center   61 is at   1.127109 -2.142202 -1.793729
      ESP Fit Center   62 is at   2.048771 -0.164523  2.476620
      ESP Fit Center   63 is at   1.523771 -1.073849  2.476620
      ESP Fit Center   64 is at  -1.958706  2.145275  1.556492
      ESP Fit Center   65 is at  -2.217527  3.945417  0.506492
      ESP Fit Center   66 is at  -1.705579  4.229964 -0.543508
      ESP Fit Center   67 is at  -3.530579  3.537833 -0.543508
      ESP Fit Center   68 is at  -0.428757  3.128513 -1.593508
      ESP Fit Center   69 is at  -3.703691  1.632901 -1.593508
      ESP Fit Center   70 is at  -0.375306 -0.338415  3.345715
      ESP Fit Center   71 is at   0.674694 -0.338415  3.064368
      ESP Fit Center   72 is at  -3.357854  1.323621 -2.083853
      ESP Fit Center   73 is at  -3.357854  0.298873 -2.083853
      ESP Fit Center   74 is at  -2.137868  1.720574 -2.852507
      ESP Fit Center   75 is at  -2.662868  0.811247 -2.852507
      ESP Fit Center   76 is at  -2.137868 -0.098080 -2.852507
      ESP Fit Center   77 is at  -1.612868  0.811247 -3.133853
      ESP Fit Center   78 is at  -1.918497 -3.292832  0.149752
      ESP Fit Center   79 is at  -0.869440 -3.292832  0.149752
      ESP Fit Center   80 is at  -3.091378 -2.658500 -0.830248
      ESP Fit Center   81 is at  -2.373968 -3.375910 -0.830248
      ESP Fit Center   82 is at  -1.393968 -3.638500 -0.830248
      ESP Fit Center   83 is at  -0.413968 -3.375910 -0.830248
      ESP Fit Center   84 is at   0.303441 -1.678500 -1.810248
      ESP Fit Center   85 is at  -3.091378 -1.678500 -1.810248
      ESP Fit Center   86 is at  -2.767202 -2.676212 -1.810248
      ESP Fit Center   87 is at  -1.918497 -3.292832 -1.810248
      ESP Fit Center   88 is at  -0.869440 -3.292832 -1.810248
      ESP Fit Center   89 is at  -0.020735 -2.676212 -1.810248
      ESP Fit Center   90 is at  -0.413968 -1.678500 -2.527658
      ESP Fit Center   91 is at  -0.903968 -0.829795 -2.527658
      ESP Fit Center   92 is at  -1.883968 -0.829795 -2.527658
      ESP Fit Center   93 is at  -2.373968 -1.678500 -2.527658
      ESP Fit Center   94 is at  -1.883968 -2.527205 -2.527658
      ESP Fit Center   95 is at  -0.903968 -2.527205 -2.527658
      ESP Fit Center   96 is at  -1.393968 -1.678500 -2.790248
      ESP Fit Center   97 is at  -2.977511 -0.391488  2.682315
      ESP Fit Center   98 is at  -2.487511  0.457216  2.419725
      ESP Fit Center   99 is at  -3.467511  0.457216  2.419725
      ESP Fit Center  100 is at  -3.957511 -0.391488  2.419725
      ESP Fit Center  101 is at  -3.467511 -1.240193  2.419725
      ESP Fit Center  102 is at  -2.487511 -1.240193  2.419725
      ESP Fit Center  103 is at  -2.452983  1.222844  1.702315
      ESP Fit Center  104 is at  -3.502040  1.222844  1.702315
      ESP Fit Center  105 is at  -4.350745  0.606224  1.702315
      ESP Fit Center  106 is at  -4.674921 -0.391488  1.702315
      ESP Fit Center  107 is at  -4.350745 -1.389201  1.702315
      ESP Fit Center  108 is at  -3.502040 -2.005821  1.702315
      ESP Fit Center  109 is at  -4.674921  0.588512  0.722315
      ESP Fit Center  110 is at  -4.937511 -0.391488  0.722315
      ESP Fit Center  111 is at  -4.674921 -1.371488  0.722315
      ESP Fit Center  112 is at  -3.957511 -2.088898  0.722315
      ESP Fit Center  113 is at  -4.350745  0.606224 -0.257685
      ESP Fit Center  114 is at  -4.674921 -0.391488 -0.257685
      ESP Fit Center  115 is at  -4.350745 -1.389201 -0.257685
      ESP Fit Center  116 is at  -1.986416 -2.405464  1.519010
      ESP Fit Center  117 is at  -3.203065 -2.376935  0.536637
      ESP Fit Center  118 is at  -2.245322 -2.838160  0.536637
      ESP Fit Center  119 is at  -3.551710  0.030182 -1.536090
      ESP Fit Center  120 is at  -3.551710 -1.049128 -1.536090
      ESP Fit Center  121 is at  -2.776829 -0.509473 -2.215913
      ESP Fit Center  122 is at   5.535522  0.316757  0.484600
      ESP Fit Center  123 is at   6.145817  0.316757 -0.355400
      ESP Fit Center  124 is at   5.772009  1.343787 -0.355400
      ESP Fit Center  125 is at   5.772009 -0.710273 -0.355400
      ESP Fit Center  126 is at   6.145817  0.316757 -1.393697
      ESP Fit Center  127 is at   5.772009  1.343787 -1.393697
      ESP Fit Center  128 is at   4.825493  1.890258 -1.393697
      ESP Fit Center  129 is at   5.772009 -0.710273 -1.393697
      ESP Fit Center  130 is at   5.535522  0.316757 -2.233697
      ESP Fit Center  131 is at   4.853190  1.255906 -2.233697
      ESP Fit Center  132 is at   4.853190 -0.622391 -2.233697
      ESP Fit Center  133 is at   4.548042  0.316757 -2.554548
      ESP Fit Center  134 is at   4.392138  2.220876  1.605737
      ESP Fit Center  135 is at   3.709807  3.160025  1.605737
      ESP Fit Center  136 is at   2.605771  2.801302  1.605737
      ESP Fit Center  137 is at   5.002434  2.220876  0.765737
      ESP Fit Center  138 is at   4.628625  3.247906  0.765737
      ESP Fit Center  139 is at   3.682109  3.794377  0.765737
      ESP Fit Center  140 is at   2.605771  3.604590  0.765737
      ESP Fit Center  141 is at   5.002434  2.220876 -0.272560
      ESP Fit Center  142 is at   4.628625  3.247906 -0.272560
      ESP Fit Center  143 is at   3.682109  3.794377 -0.272560
      ESP Fit Center  144 is at   2.605771  3.604590 -0.272560
      ESP Fit Center  145 is at   4.392138  2.220876 -1.112560
      ESP Fit Center  146 is at   3.709807  3.160025 -1.112560
      ESP Fit Center  147 is at   3.721210 -2.832626  0.347992
      ESP Fit Center  148 is at   5.013837 -1.893478 -0.492008
      ESP Fit Center  149 is at   2.617175 -3.277191 -0.492008
      ESP Fit Center  150 is at   3.693513 -3.466979 -0.492008
      ESP Fit Center  151 is at   4.640029 -2.920507 -0.492008
      ESP Fit Center  152 is at   5.013837 -1.893478 -1.530305
      ESP Fit Center  153 is at   2.617175 -3.277191 -1.530305
      ESP Fit Center  154 is at   3.693513 -3.466979 -1.530305
      ESP Fit Center  155 is at   4.640029 -2.920507 -1.530305
      ESP Fit Center  156 is at   4.403542 -1.893478 -2.370305
      ESP Fit Center  157 is at   2.617175 -2.473903 -2.370305
      ESP Fit Center  158 is at   3.721210 -2.832626 -2.370305
      ESP Fit Center  159 is at   3.416062 -1.893478 -2.691156
      ESP Fit Center  160 is at   1.153021  1.911164  2.905249
      ESP Fit Center  161 is at   1.458168  2.850313  2.584398
      ESP Fit Center  162 is at   0.354133  2.491590  2.584398
      ESP Fit Center  163 is at   2.376987  2.938194  1.744398
      ESP Fit Center  164 is at   1.430471  3.484665  1.744398
      ESP Fit Center  165 is at   0.354133  3.294878  1.744398
      ESP Fit Center  166 is at  -0.348397  2.457636  1.744398
      ESP Fit Center  167 is at   1.430471  3.484665  0.706101
      ESP Fit Center  168 is at   0.354133  3.294878  0.706101
      ESP Fit Center  169 is at   0.355429 -2.775239  1.311021
      ESP Fit Center  170 is at   1.459464 -3.133962  1.311021
      ESP Fit Center  171 is at  -0.347101 -2.741285  0.471021
      ESP Fit Center  172 is at   0.355429 -3.578527  0.471021
      ESP Fit Center  173 is at   1.431767 -3.768314  0.471021
      ESP Fit Center  174 is at   2.378283 -3.221843  0.471021
      ESP Fit Center  175 is at   0.355429 -3.578527 -0.567276
      ESP Fit Center  176 is at   1.431767 -3.768314 -0.567276
      ESP Fit Center  177 is at   2.378283 -3.221843 -0.567276
      ESP Fit Center  178 is at   0.355429 -2.775239 -1.407276
      ESP Fit Center  179 is at   1.459464 -3.133962 -1.407276
      ESP Fit Center  180 is at  -2.893217  2.073171  1.695478
      ESP Fit Center  181 is at  -2.588069  3.012320  1.374626
      ESP Fit Center  182 is at  -3.692105  2.653597  1.374626
      ESP Fit Center  183 is at  -3.692105  1.492746  1.374626
      ESP Fit Center  184 is at  -3.692105  3.456885  0.534626
      ESP Fit Center  185 is at  -4.394635  2.619643  0.534626
      ESP Fit Center  186 is at  -4.394635  1.526700  0.534626
      ESP Fit Center  187 is at  -3.692105  3.456885 -0.503671
      ESP Fit Center  188 is at  -4.394635  2.619643 -0.503671
      ESP Fit Center  189 is at  -4.394635  1.526700 -0.503671
      ESP Fit Center  190 is at  -1.845770  4.368159 -0.888972
      ESP Fit Center  191 is at  -2.922108  4.178372 -0.888972
      ESP Fit Center  192 is at  -0.899254  3.821688 -1.927269
      ESP Fit Center  193 is at  -1.845770  4.368159 -1.927269
      ESP Fit Center  194 is at  -2.922108  4.178372 -1.927269
      ESP Fit Center  195 is at  -3.624638  3.341129 -1.927269
      ESP Fit Center  196 is at  -3.624638  2.248187 -1.927269
      ESP Fit Center  197 is at  -1.135742  2.794658 -2.767269
      ESP Fit Center  198 is at  -1.818073  3.733807 -2.767269
      ESP Fit Center  199 is at  -2.922108  3.375084 -2.767269
      ESP Fit Center  200 is at  -2.922108  2.214232 -2.767269
      ESP Fit Center  201 is at  -2.123221  2.794658 -3.088120
      ESP Fit Center  202 is at  -1.186830  2.598031  1.775663
      ESP Fit Center  203 is at  -0.881683  3.537179  1.454812
      ESP Fit Center  204 is at  -1.985718  3.178456  1.454812
      ESP Fit Center  205 is at   0.037136  3.625060  0.614812
      ESP Fit Center  206 is at  -0.909380  4.171532  0.614812
      ESP Fit Center  207 is at  -1.985718  3.981744  0.614812
      ESP Fit Center  208 is at   0.410944  2.598031 -0.423485
      ESP Fit Center  209 is at   0.037136  3.625060 -0.423485
      ESP Fit Center  210 is at  -0.909380  4.171532 -0.423485
      ESP Fit Center  211 is at  -0.665180  0.504927  3.558376
      ESP Fit Center  212 is at   0.322299  0.504927  3.237524
      ESP Fit Center  213 is at  -0.360032  1.444076  3.237524
      ESP Fit Center  214 is at  -1.464067  1.085353  3.237524
      ESP Fit Center  215 is at  -1.464067 -0.075499  3.237524
      ESP Fit Center  216 is at  -0.387729  2.078428  2.397524
      ESP Fit Center  217 is at  -1.464067  1.888641  2.397524
      ESP Fit Center  218 is at  -2.166597  1.051398  2.397524
      ESP Fit Center  219 is at  -0.470031 -1.255121  3.517035
      ESP Fit Center  220 is at   0.517448 -1.255121  3.196184
      ESP Fit Center  221 is at  -1.268919 -0.674696  3.196184
      ESP Fit Center  222 is at  -1.268919 -1.835547  3.196184
      ESP Fit Center  223 is at  -0.164884 -2.194270  3.196184
      ESP Fit Center  224 is at  -1.971449 -1.801593  2.356184
      ESP Fit Center  225 is at  -1.268919 -2.638835  2.356184
      ESP Fit Center  226 is at  -0.192581 -2.828622  2.356184
      ESP Fit Center  227 is at   0.753935 -2.282151  2.356184
      ESP Fit Center  228 is at  -1.268919 -2.638835  1.317886
      ESP Fit Center  229 is at  -0.192581 -2.828622  1.317886
      ESP Fit Center  230 is at   0.439755  1.779177 -1.099956
      ESP Fit Center  231 is at   0.813563  0.752147 -2.138253
      ESP Fit Center  232 is at   0.439755  1.779177 -2.138253
      ESP Fit Center  233 is at  -0.506761  2.325648 -2.138253
      ESP Fit Center  234 is at   0.439755 -0.274883 -2.138253
      ESP Fit Center  235 is at   0.203267  0.752147 -2.978253
      ESP Fit Center  236 is at  -0.479064  1.691295 -2.978253
      ESP Fit Center  237 is at  -0.479064 -0.187002 -2.978253
      ESP Fit Center  238 is at  -0.784212  0.752147 -3.299105
      ESP Fit Center  239 is at   4.598425  0.184302  1.713374
      ESP Fit Center  240 is at   4.077765 -0.717508  1.713374
      ESP Fit Center  241 is at   5.433500  0.184302  1.047424
      ESP Fit Center  242 is at   5.135629 -0.830154  1.047424
      ESP Fit Center  243 is at   1.756716  0.712944 -1.945327
      ESP Fit Center  244 is at   4.077765  1.086113 -2.611277
      ESP Fit Center  245 is at   3.036444  1.086113 -2.611277
      ESP Fit Center  246 is at   2.515783  0.184302 -2.611277
      ESP Fit Center  247 is at   4.077765 -0.717508 -2.611277
      ESP Fit Center  248 is at   3.557104  0.184302 -2.848952
      ESP Fit Center  249 is at   3.957016  1.252840  2.341060
      ESP Fit Center  250 is at   3.436355  2.154650  2.341060
      ESP Fit Center  251 is at   3.436355  0.351030  2.341060
      ESP Fit Center  252 is at   4.792090  1.252840  1.675111
      ESP Fit Center  253 is at   2.648656  3.110137 -1.317640
      ESP Fit Center  254 is at   1.686917  2.670925 -1.317640
      ESP Fit Center  255 is at   3.436355  2.154650 -1.983590
      ESP Fit Center  256 is at   2.395034  2.154650 -1.983590
      ESP Fit Center  257 is at   1.874374  1.252840 -1.983590
      ESP Fit Center  258 is at   3.962820 -1.057448  1.637983
      ESP Fit Center  259 is at   3.442159 -1.959258  1.637983
      ESP Fit Center  260 is at   3.700981 -2.764277  0.972033
      ESP Fit Center  261 is at   4.500023 -2.071904  0.972033
      ESP Fit Center  262 is at   1.692721  0.360638 -2.020718
      ESP Fit Center  263 is at   3.962820 -1.057448 -2.686668
      ESP Fit Center  264 is at   2.400838 -0.155637 -2.686668
      ESP Fit Center  265 is at   1.880178 -1.057448 -2.686668
      ESP Fit Center  266 is at   2.400838 -1.959258 -2.686668
      ESP Fit Center  267 is at   2.921499 -1.057448 -2.924343
      ESP Fit Center  268 is at   1.643756  1.078249  3.126084
      ESP Fit Center  269 is at   2.685077  1.078249  2.888409
      ESP Fit Center  270 is at   2.164416  1.980059  2.888409
      ESP Fit Center  271 is at   2.164416  0.176438  2.888409
      ESP Fit Center  272 is at   1.376717  2.935545 -0.770292
      ESP Fit Center  273 is at   1.123095  1.980059 -1.436241
      ESP Fit Center  274 is at   2.693430 -1.232875  2.187249
      ESP Fit Center  275 is at   2.172770 -2.134686  2.187249
      ESP Fit Center  276 is at   2.431592 -2.939705  1.521300
      ESP Fit Center  277 is at   1.131449 -0.331065 -2.137401
      ESP Fit Center  278 is at   0.610788 -1.232875 -2.137401
      ESP Fit Center  279 is at   1.131449 -2.134686 -2.137401
      ESP Fit Center  280 is at   2.040092 -0.164523  2.820292
      ESP Fit Center  281 is at   1.519432 -1.066333  2.820292
      ESP Fit Center  282 is at  -1.958706  2.145275  1.856492
      ESP Fit Center  283 is at  -2.479366  3.047086  1.618818
      ESP Fit Center  284 is at  -2.225745  4.002572  0.952868
      ESP Fit Center  285 is at  -2.479366  4.426438 -0.009457
      ESP Fit Center  286 is at  -3.417564  3.974626 -0.009457
      ESP Fit Center  287 is at  -0.499848  3.974626 -1.077558
      ESP Fit Center  288 is at  -4.066817  3.160488 -1.077558
      ESP Fit Center  289 is at  -3.759094  1.616633 -2.039883
      ESP Fit Center  290 is at  -0.375306 -0.338415  3.645715
      ESP Fit Center  291 is at   0.666015 -0.338415  3.408040
      ESP Fit Center  292 is at  -3.952695  0.811247 -1.567903
      ESP Fit Center  293 is at  -3.413257  1.339889 -2.530229
      ESP Fit Center  294 is at  -3.413257  0.282605 -2.530229
      ESP Fit Center  295 is at  -2.133529  1.713058 -3.196178
      ESP Fit Center  296 is at  -2.654189  0.811247 -3.196178
      ESP Fit Center  297 is at  -2.133529 -0.090563 -3.196178
      ESP Fit Center  298 is at  -1.612868  0.811247 -3.433853
      ESP Fit Center  299 is at  -1.935151 -3.344088  0.566369
      ESP Fit Center  300 is at  -0.852786 -3.344088  0.566369
      ESP Fit Center  301 is at  -3.028595 -3.126653 -0.331801
      ESP Fit Center  302 is at  -2.168368 -3.720424 -0.331801
      ESP Fit Center  303 is at  -1.130736 -3.846416 -0.331801
      ESP Fit Center  304 is at  -3.514349 -2.201127 -1.328695
      ESP Fit Center  305 is at  -3.028595 -3.126653 -1.328695
      ESP Fit Center  306 is at  -2.168368 -3.720424 -1.328695
      ESP Fit Center  307 is at  -1.130736 -3.846416 -1.328695
      ESP Fit Center  308 is at  -0.153407 -3.475764 -1.328695
      ESP Fit Center  309 is at   0.357334 -1.678500 -2.226865
      ESP Fit Center  310 is at  -3.145271 -1.678500 -2.226865
      ESP Fit Center  311 is at  -2.810802 -2.707890 -2.226865
      ESP Fit Center  312 is at  -1.935151 -3.344088 -2.226865
      ESP Fit Center  313 is at  -0.852786 -3.344088 -2.226865
      ESP Fit Center  314 is at   0.022865 -2.707890 -2.226865
      ESP Fit Center  315 is at  -0.422069 -1.678500 -2.848419
      ESP Fit Center  316 is at  -0.908019 -0.836810 -2.848419
      ESP Fit Center  317 is at  -1.879918 -0.836810 -2.848419
      ESP Fit Center  318 is at  -2.365868 -1.678500 -2.848419
      ESP Fit Center  319 is at  -1.879918 -2.520190 -2.848419
      ESP Fit Center  320 is at  -0.908019 -2.520190 -2.848419
      ESP Fit Center  321 is at  -1.393968 -1.678500 -3.070248
      ESP Fit Center  322 is at  -2.977511 -0.391488  2.962315
      ESP Fit Center  323 is at  -2.491561  0.450201  2.740486
      ESP Fit Center  324 is at  -3.463461  0.450201  2.740486
      ESP Fit Center  325 is at  -3.949411 -0.391488  2.740486
      ESP Fit Center  326 is at  -3.463461 -1.233178  2.740486
      ESP Fit Center  327 is at  -2.491561 -1.233178  2.740486
      ESP Fit Center  328 is at  -2.436329  1.274099  2.118933
      ESP Fit Center  329 is at  -3.518693  1.274099  2.118933
      ESP Fit Center  330 is at  -4.394345  0.637901  2.118933
      ESP Fit Center  331 is at  -4.728814 -0.391488  2.118933
      ESP Fit Center  332 is at  -4.394345 -1.420878  2.118933
      ESP Fit Center  333 is at  -3.518693 -2.057076  2.118933
      ESP Fit Center  334 is at  -4.612138  1.056664  1.220762
      ESP Fit Center  335 is at  -5.097891  0.131138  1.220762
      ESP Fit Center  336 is at  -5.097891 -0.914115  1.220762
      ESP Fit Center  337 is at  -4.612138 -1.839641  1.220762
      ESP Fit Center  338 is at  -3.751911 -2.433413  1.220762
      ESP Fit Center  339 is at  -4.612138  1.056664  0.223869
      ESP Fit Center  340 is at  -5.097891  0.131138  0.223869
      ESP Fit Center  341 is at  -5.097891 -0.914115  0.223869
      ESP Fit Center  342 is at  -4.612138 -1.839641  0.223869
      ESP Fit Center  343 is at  -3.751911 -2.433413  0.223869
      ESP Fit Center  344 is at  -4.394345  0.637901 -0.674302
      ESP Fit Center  345 is at  -4.728814 -0.391488 -0.674302
      ESP Fit Center  346 is at  -4.394345 -1.420878 -0.674302
      ESP Fit Center  347 is at  -2.249571 -1.437431  2.578323
      ESP Fit Center  348 is at  -3.007245 -2.749762  1.062974
      ESP Fit Center  349 is at  -1.984215 -3.082165  1.062974
      ESP Fit Center  350 is at  -0.914429 -2.969726  1.062974
      ESP Fit Center  351 is at  -3.401191 -2.743922 -0.008540
      ESP Fit Center  352 is at  -4.244147  0.028366 -1.080053
      ESP Fit Center  353 is at  -4.244147 -1.047312 -1.080053
      ESP Fit Center  354 is at  -3.806630 -2.029993 -1.080053
      ESP Fit Center  355 is at  -3.693713 -0.509473 -1.988439
      ESP Fit Center  356 is at  -3.428457 -1.499423 -1.988439
      ESP Fit Center  357 is at   6.210811  0.316757  0.085452
      ESP Fit Center  358 is at   5.893251  1.294108  0.085452
      ESP Fit Center  359 is at   5.893251 -0.660594  0.085452
      ESP Fit Center  360 is at   6.468042  0.316757 -0.874548
      ESP Fit Center  361 is at   6.210811  1.276757 -0.874548
      ESP Fit Center  362 is at   5.508042  1.979526 -0.874548
      ESP Fit Center  363 is at   5.508042 -1.346012 -0.874548
      ESP Fit Center  364 is at   6.210811 -0.643243 -0.874548
      ESP Fit Center  365 is at   6.210811  0.316757 -1.834548
      ESP Fit Center  366 is at   5.893251  1.294108 -1.834548
      ESP Fit Center  367 is at   5.061866  1.898144 -1.834548
      ESP Fit Center  368 is at   5.061866 -1.264630 -1.834548
      ESP Fit Center  369 is at   5.893251 -0.660594 -1.834548
      ESP Fit Center  370 is at   5.508042  0.316757 -2.537317
      ESP Fit Center  371 is at   5.028042  1.148141 -2.537317
      ESP Fit Center  372 is at   5.028042 -0.514627 -2.537317
      ESP Fit Center  373 is at   4.548042  0.316757 -2.794548
      ESP Fit Center  374 is at   4.364659  2.220876  1.909357
      ESP Fit Center  375 is at   3.884659  3.052261  1.909357
      ESP Fit Center  376 is at   2.924659  3.052261  1.909357
      ESP Fit Center  377 is at   5.067427  2.220876  1.206588
      ESP Fit Center  378 is at   4.749867  3.198227  1.206588
      ESP Fit Center  379 is at   3.918482  3.802263  1.206588
      ESP Fit Center  380 is at   2.890835  3.802263  1.206588
      ESP Fit Center  381 is at   5.324659  2.220876  0.246588
      ESP Fit Center  382 is at   5.067427  3.180876  0.246588
      ESP Fit Center  383 is at   4.364659  3.883645  0.246588
      ESP Fit Center  384 is at   3.404659  4.140876  0.246588
      ESP Fit Center  385 is at   2.444659  3.883645  0.246588
      ESP Fit Center  386 is at   5.067427  2.220876 -0.713412
      ESP Fit Center  387 is at   4.749867  3.198227 -0.713412
      ESP Fit Center  388 is at   3.918482  3.802263 -0.713412
      ESP Fit Center  389 is at   2.890835  3.802263 -0.713412
      ESP Fit Center  390 is at   3.884659  3.052261 -1.416181
      ESP Fit Center  391 is at   2.924659  3.052261 -1.416181
      ESP Fit Center  392 is at   2.902239 -3.474865 -0.051156
      ESP Fit Center  393 is at   3.929886 -3.474865 -0.051156
      ESP Fit Center  394 is at   4.761271 -2.870829 -0.051156
      ESP Fit Center  395 is at   5.336062 -1.893478 -1.011156
      ESP Fit Center  396 is at   2.456062 -3.556246 -1.011156
      ESP Fit Center  397 is at   3.416062 -3.813478 -1.011156
      ESP Fit Center  398 is at   4.376062 -3.556246 -1.011156
      ESP Fit Center  399 is at   5.078831 -2.853478 -1.011156
      ESP Fit Center  400 is at   5.078831 -1.893478 -1.971156
      ESP Fit Center  401 is at   2.070854 -2.870829 -1.971156
      ESP Fit Center  402 is at   2.902239 -3.474865 -1.971156
      ESP Fit Center  403 is at   3.929886 -3.474865 -1.971156
      ESP Fit Center  404 is at   4.761271 -2.870829 -1.971156
      ESP Fit Center  405 is at   4.376062 -1.893478 -2.673925
      ESP Fit Center  406 is at   2.936062 -2.724862 -2.673925
      ESP Fit Center  407 is at   3.896062 -2.724862 -2.673925
      ESP Fit Center  408 is at   3.416062 -1.893478 -2.931156
      ESP Fit Center  409 is at   1.153021  1.911164  3.145249
      ESP Fit Center  410 is at   1.633021  2.742549  2.888018
      ESP Fit Center  411 is at   0.673021  2.742549  2.888018
      ESP Fit Center  412 is at   0.193021  1.911164  2.888018
      ESP Fit Center  413 is at   2.498229  2.888515  2.185249
      ESP Fit Center  414 is at   1.666844  3.492551  2.185249
      ESP Fit Center  415 is at   0.639197  3.492551  2.185249
      ESP Fit Center  416 is at  -0.192188  2.888515  2.185249
      ESP Fit Center  417 is at   2.113021  3.573933  1.225249
      ESP Fit Center  418 is at   1.153021  3.831164  1.225249
      ESP Fit Center  419 is at   0.193021  3.573933  1.225249
      ESP Fit Center  420 is at   1.666844  3.492551  0.265249
      ESP Fit Center  421 is at   0.639197  3.492551  0.265249
      ESP Fit Center  422 is at   0.674317 -3.026198  1.614641
      ESP Fit Center  423 is at  -0.190892 -3.172164  0.911872
      ESP Fit Center  424 is at   0.640493 -3.776200  0.911872
      ESP Fit Center  425 is at   1.668140 -3.776200  0.911872
      ESP Fit Center  426 is at   0.194317 -3.857582 -0.048128
      ESP Fit Center  427 is at   1.154317 -4.114813 -0.048128
      ESP Fit Center  428 is at   2.114317 -3.857582 -0.048128
      ESP Fit Center  429 is at   0.640493 -3.776200 -1.008128
      ESP Fit Center  430 is at   1.668140 -3.776200 -1.008128
      ESP Fit Center  431 is at   0.674317 -3.026198 -1.710896
      ESP Fit Center  432 is at   1.634317 -3.026198 -1.710896
      ESP Fit Center  433 is at  -2.893217  2.073171  1.935478
      ESP Fit Center  434 is at  -3.373217  2.904556  1.678247
      ESP Fit Center  435 is at  -3.853217  2.073171  1.678247
      ESP Fit Center  436 is at  -3.407041  3.654558  0.975478
      ESP Fit Center  437 is at  -4.238425  3.050522  0.975478
      ESP Fit Center  438 is at  -4.555986  2.073171  0.975478
      ESP Fit Center  439 is at  -3.853217  3.735940  0.015478
      ESP Fit Center  440 is at  -4.555986  3.033171  0.015478
      ESP Fit Center  441 is at  -4.813217  2.073171  0.015478
      ESP Fit Center  442 is at  -4.555986  1.113171  0.015478
      ESP Fit Center  443 is at  -4.238425  3.050522 -0.944522
      ESP Fit Center  444 is at  -4.555986  2.073171 -0.944522
      ESP Fit Center  445 is at  -4.238425  1.095820 -0.944522
      ESP Fit Center  446 is at  -1.163221  4.457427 -1.408120
      ESP Fit Center  447 is at  -2.123221  4.714658 -1.408120
      ESP Fit Center  448 is at  -3.083221  4.457427 -1.408120
      ESP Fit Center  449 is at  -3.785990  3.754658 -1.408120
      ESP Fit Center  450 is at  -0.460452  2.794658 -2.368120
      ESP Fit Center  451 is at  -0.778013  3.772009 -2.368120
      ESP Fit Center  452 is at  -1.609397  4.376045 -2.368120
      ESP Fit Center  453 is at  -2.637045  4.376045 -2.368120
      ESP Fit Center  454 is at  -3.468429  3.772009 -2.368120
      ESP Fit Center  455 is at  -3.785990  2.794658 -2.368120
      ESP Fit Center  456 is at  -1.163221  2.794658 -3.070889
      ESP Fit Center  457 is at  -1.643221  3.626042 -3.070889
      ESP Fit Center  458 is at  -2.603221  3.626042 -3.070889
      ESP Fit Center  459 is at  -3.083221  2.794658 -3.070889
      ESP Fit Center  460 is at  -2.603221  1.963274 -3.070889
      ESP Fit Center  461 is at  -2.123221  2.794658 -3.328120
      ESP Fit Center  462 is at  -1.186830  2.598031  2.015663
      ESP Fit Center  463 is at  -0.706830  3.429415  1.758432
      ESP Fit Center  464 is at  -1.666830  3.429415  1.758432
      ESP Fit Center  465 is at   0.158378  3.575381  1.055663
      ESP Fit Center  466 is at  -0.673007  4.179418  1.055663
      ESP Fit Center  467 is at  -1.700654  4.179418  1.055663
      ESP Fit Center  468 is at   0.475938  3.558031  0.095663
      ESP Fit Center  469 is at  -0.226830  4.260799  0.095663
      ESP Fit Center  470 is at  -1.186830  4.518031  0.095663
      ESP Fit Center  471 is at   0.475938  2.598031 -0.864337
      ESP Fit Center  472 is at   0.158378  3.575381 -0.864337
      ESP Fit Center  473 is at  -0.673007  4.179418 -0.864337
      ESP Fit Center  474 is at  -0.665180  0.504927  3.798376
      ESP Fit Center  475 is at   0.294820  0.504927  3.541145
      ESP Fit Center  476 is at  -0.185180  1.336311  3.541145
      ESP Fit Center  477 is at  -1.145180  1.336311  3.541145
      ESP Fit Center  478 is at  -1.625180  0.504927  3.541145
      ESP Fit Center  479 is at  -1.145180 -0.326457  3.541145
      ESP Fit Center  480 is at  -0.151356  2.086314  2.838376
      ESP Fit Center  481 is at  -1.179004  2.086314  2.838376
      ESP Fit Center  482 is at  -2.010388  1.482278  2.838376
      ESP Fit Center  483 is at  -2.327949  0.504927  2.838376
      ESP Fit Center  484 is at  -0.470031 -1.255121  3.757035
      ESP Fit Center  485 is at   0.489969 -1.255121  3.499804
      ESP Fit Center  486 is at  -1.430031 -1.255121  3.499804
      ESP Fit Center  487 is at  -0.950031 -2.086506  3.499804
      ESP Fit Center  488 is at   0.009969 -2.086506  3.499804
      ESP Fit Center  489 is at  -2.132800 -1.255121  2.797035
      ESP Fit Center  490 is at  -1.815240 -2.232472  2.797035
      ESP Fit Center  491 is at  -0.983855 -2.836508  2.797035
      ESP Fit Center  492 is at   0.043792 -2.836508  2.797035
      ESP Fit Center  493 is at   0.875177 -2.232472  2.797035
      ESP Fit Center  494 is at  -1.430031 -2.917890  1.837035
      ESP Fit Center  495 is at  -0.470031 -3.175121  1.837035
      ESP Fit Center  496 is at   0.489969 -2.917890  1.837035
      ESP Fit Center  497 is at   1.135788  0.752147 -1.619105
      ESP Fit Center  498 is at   0.878557  1.712147 -1.619105
      ESP Fit Center  499 is at   0.175788  2.414916 -1.619105
      ESP Fit Center  500 is at   0.878557  0.752147 -2.579105
      ESP Fit Center  501 is at   0.560996  1.729498 -2.579105
      ESP Fit Center  502 is at  -0.270388  2.333534 -2.579105
      ESP Fit Center  503 is at  -0.270388 -0.829240 -2.579105
      ESP Fit Center  504 is at   0.560996 -0.225204 -2.579105
      ESP Fit Center  505 is at   0.175788  0.752147 -3.281873
      ESP Fit Center  506 is at  -0.304212  1.583531 -3.281873
      ESP Fit Center  507 is at  -1.264212  1.583531 -3.281873
      ESP Fit Center  508 is at  -1.264212 -0.079238 -3.281873
      ESP Fit Center  509 is at  -0.304212 -0.079238 -3.281873
      ESP Fit Center  510 is at  -0.784212  0.752147 -3.539105
      ESP Fit Center  511 is at   4.590350  0.184302  2.045523
      ESP Fit Center  512 is at   4.073727 -0.710514  2.045523
      ESP Fit Center  513 is at   5.466293  0.184302  1.460237
      ESP Fit Center  514 is at   5.163216 -0.847883  1.460237
      ESP Fit Center  515 is at   5.804549 -0.898010  0.584294
      ESP Fit Center  516 is at   4.350210  1.920961 -2.358140
      ESP Fit Center  517 is at   1.725252  0.722183 -2.358140
      ESP Fit Center  518 is at   4.073727  1.079119 -2.943426
      ESP Fit Center  519 is at   3.040482  1.079119 -2.943426
      ESP Fit Center  520 is at   2.523859  0.184302 -2.943426
      ESP Fit Center  521 is at   4.073727 -0.710514 -2.943426
      ESP Fit Center  522 is at   3.557104  0.184302 -3.148952
      ESP Fit Center  523 is at   3.948940  1.252840  2.673210
      ESP Fit Center  524 is at   3.432317  2.147657  2.673210
      ESP Fit Center  525 is at   3.432317  0.358023  2.673210
      ESP Fit Center  526 is at   4.824883  1.252840  2.087923
      ESP Fit Center  527 is at   4.521806  0.220655  2.087923
      ESP Fit Center  528 is at   5.410170  1.252840  1.211980
      ESP Fit Center  529 is at   2.643989  3.142595 -1.730453
      ESP Fit Center  530 is at   1.665442  2.695708 -1.730453
      ESP Fit Center  531 is at   3.432317  2.147657 -2.315740
      ESP Fit Center  532 is at   2.399072  2.147657 -2.315740
      ESP Fit Center  533 is at   1.882450  1.252840 -2.315740
      ESP Fit Center  534 is at   3.954744 -1.057448  1.970132
      ESP Fit Center  535 is at   3.438121 -1.952264  1.970132
      ESP Fit Center  536 is at   3.714604 -2.794106  1.384846
      ESP Fit Center  537 is at   4.527610 -2.089633  1.384846
      ESP Fit Center  538 is at   3.476571 -3.489381  0.508903
      ESP Fit Center  539 is at   4.476778 -3.007707  0.508903
      ESP Fit Center  540 is at   5.168943 -2.139760  0.508903
      ESP Fit Center  541 is at   1.671246  0.385421 -2.433531
      ESP Fit Center  542 is at   1.671246 -2.500316 -2.433531
      ESP Fit Center  543 is at   3.954744 -1.057448 -3.018817
      ESP Fit Center  544 is at   2.404876 -0.162631 -3.018817
      ESP Fit Center  545 is at   1.888253 -1.057448 -3.018817
      ESP Fit Center  546 is at   2.404876 -1.952264 -3.018817
      ESP Fit Center  547 is at   2.921499 -1.057448 -3.224343
      ESP Fit Center  548 is at   1.643756  1.078249  3.426084
      ESP Fit Center  549 is at   2.677001  1.078249  3.220559
      ESP Fit Center  550 is at   2.160378  1.973066  3.220559
      ESP Fit Center  551 is at   2.160378  0.183432  3.220559
      ESP Fit Center  552 is at   3.249867  0.046064  2.635272
      ESP Fit Center  553 is at   1.088683  3.510182 -0.307161
      ESP Fit Center  554 is at   1.127133  1.973066 -1.768391
      ESP Fit Center  555 is at   2.685354 -1.232875  2.519399
      ESP Fit Center  556 is at   2.168732 -2.127692  2.519399
      ESP Fit Center  557 is at   1.380403 -3.122631  1.934112
      ESP Fit Center  558 is at   2.445215 -2.969534  1.934112
[...]
  346 Fit      -0.050004
  347 Fit      -0.011075
  348 Fit      -0.036110
  349 Fit      -0.021091
  350 Fit      -0.004363
  351 Fit      -0.048249
  352 Fit      -0.039593
  353 Fit      -0.044487
  354 Fit      -0.047412
  355 Fit      -0.034335
  356 Fit      -0.043089
  357 Fit       0.014116
  358 Fit       0.016676
  359 Fit       0.011122
  360 Fit       0.018295
  361 Fit       0.019454
  362 Fit       0.021071
  363 Fit       0.017198
  364 Fit       0.016945
  365 Fit       0.019302
  366 Fit       0.019372
  367 Fit       0.017989
  368 Fit       0.020541
  369 Fit       0.018662
  370 Fit       0.017163
  371 Fit       0.015292
  372 Fit       0.016027
  373 Fit       0.011705
  374 Fit       0.010230
  375 Fit       0.016876
  376 Fit       0.020579
  377 Fit       0.014085
  378 Fit       0.018794
  379 Fit       0.021469
  380 Fit       0.023890
  381 Fit       0.019400
  382 Fit       0.020702
  383 Fit       0.021976
  384 Fit       0.022658
  385 Fit       0.023578
  386 Fit       0.023073
  387 Fit       0.020813
  388 Fit       0.020505
  389 Fit       0.019347
  390 Fit       0.016541
  391 Fit       0.012800
  392 Fit       0.011281
  393 Fit       0.010209
  394 Fit       0.009921
  395 Fit       0.016589
  396 Fit       0.012547
  397 Fit       0.012998
  398 Fit       0.014224
  399 Fit       0.014938
  400 Fit       0.017667
  401 Fit       0.004883
  402 Fit       0.010851
  403 Fit       0.014351
  404 Fit       0.016115
  405 Fit       0.014051
  406 Fit       0.007987
  407 Fit       0.012969
  408 Fit       0.007985
  409 Fit       0.020241
  410 Fit       0.020796
  411 Fit       0.026297
  412 Fit       0.031434
  413 Fit       0.020265
  414 Fit       0.024838
  415 Fit       0.028495
  416 Fit       0.033290
  417 Fit       0.027114
  418 Fit       0.027703
  419 Fit       0.032430
  420 Fit       0.025133
  421 Fit       0.028317
  422 Fit       0.013140
  423 Fit       0.001718
  424 Fit       0.005693
  425 Fit       0.007689
  426 Fit      -0.006541
  427 Fit       0.004691
  428 Fit       0.009629
  429 Fit      -0.006879
  430 Fit       0.006118
  431 Fit      -0.015412
  432 Fit       0.002033
  433 Fit       0.004907
  434 Fit       0.009666
  435 Fit      -0.003833
  436 Fit       0.014367
  437 Fit       0.007319
  438 Fit      -0.005486
  439 Fit       0.013001
  440 Fit       0.006128
  441 Fit      -0.004716
  442 Fit      -0.027149
  443 Fit       0.006875
  444 Fit      -0.003814
  445 Fit      -0.020767
  446 Fit       0.021104
  447 Fit       0.019470
  448 Fit       0.016614
  449 Fit       0.012005
  450 Fit       0.028439
  451 Fit       0.021780
  452 Fit       0.019903
  453 Fit       0.017477
  454 Fit       0.012902
  455 Fit       0.005451
  456 Fit       0.021218
  457 Fit       0.018854
  458 Fit       0.015421
  459 Fit       0.008738
  460 Fit       0.002018
  461 Fit       0.013965
  462 Fit       0.029917
  463 Fit       0.028689
  464 Fit       0.022037
  465 Fit       0.032657
  466 Fit       0.024995
  467 Fit       0.021396
  468 Fit       0.027420
  469 Fit       0.024106
  470 Fit       0.022066
  471 Fit       0.023576
  472 Fit       0.023197
  473 Fit       0.022363
  474 Fit       0.018099
  475 Fit       0.019864
  476 Fit       0.023614
  477 Fit       0.020149
  478 Fit       0.011769
  479 Fit       0.013932
  480 Fit       0.031949
  481 Fit       0.026261
  482 Fit       0.013908
  483 Fit      -0.004320
  484 Fit       0.014942
  485 Fit       0.015737
  486 Fit       0.009109
  487 Fit       0.012402
  488 Fit       0.015460
  489 Fit      -0.006041
  490 Fit       0.003189
  491 Fit       0.010656
  492 Fit       0.014738
  493 Fit       0.014524
  494 Fit       0.002374
  495 Fit       0.009249
  496 Fit       0.015069
  497 Fit       0.011790
  498 Fit       0.021640
  499 Fit       0.031588
  500 Fit       0.020733
  501 Fit       0.028035
  502 Fit       0.031501
  503 Fit      -0.012158
  504 Fit       0.010000
  505 Fit       0.021010
  506 Fit       0.024782
  507 Fit       0.015473
  508 Fit      -0.006681
  509 Fit       0.008060
  510 Fit       0.012662
  511 Fit      -0.004196
  512 Fit      -0.007775
  513 Fit       0.002092
  514 Fit      -0.001340
  515 Fit       0.006094
  516 Fit       0.011610
  517 Fit       0.002640
  518 Fit       0.007617
  519 Fit       0.002480
  520 Fit      -0.001383
  521 Fit       0.008278
  522 Fit       0.003608
  523 Fit       0.000688
  524 Fit       0.007659
  525 Fit      -0.005162
  526 Fit       0.002720
  527 Fit      -0.004427
  528 Fit       0.007679
  529 Fit       0.011336
  530 Fit       0.011275
  531 Fit       0.007073
  532 Fit       0.005565
  533 Fit       0.003493
  534 Fit      -0.008084
  535 Fit      -0.005805
  536 Fit      -0.000690
  537 Fit      -0.001808
  538 Fit       0.005979
  539 Fit       0.005402
  540 Fit       0.004640
  541 Fit       0.001209
  542 Fit      -0.004193
  543 Fit       0.007976
  544 Fit      -0.001849
  545 Fit      -0.004238
  546 Fit      -0.000017
  547 Fit       0.001102
  548 Fit       0.010252
  549 Fit       0.002971
  550 Fit       0.011455
  551 Fit       0.001997
  552 Fit      -0.006288
  553 Fit       0.021716
  554 Fit       0.015796
  555 Fit      -0.005083
  556 Fit       0.000920
  557 Fit       0.007346
  558 Fit       0.001377
  559 Fit      -0.004202
  560 Fit       0.009422
  561 Fit      -0.000052
  562 Fit      -0.014110
  563 Fit      -0.012092
  564 Fit       0.001932
  565 Fit       0.007038
  566 Fit      -0.004572
  567 Fit       0.014845
  568 Fit       0.017766
  569 Fit       0.016876
  570 Fit       0.013448
  571 Fit       0.018427
  572 Fit       0.015730
  573 Fit       0.011596
  574 Fit       0.022262
  575 Fit       0.020537
  576 Fit      -0.004217
  577 Fit      -0.010851
  578 Fit       0.014186
  579 Fit       0.013438
  580 Fit       0.009113
  581 Fit      -0.006536
  582 Fit      -0.022680
  583 Fit      -0.013242
  584 Fit      -0.025565
  585 Fit      -0.032846
  586 Fit       0.002153
  587 Fit      -0.013679
  588 Fit      -0.018558
  589 Fit      -0.001292
  590 Fit      -0.024929
  591 Fit      -0.011100
  592 Fit      -0.041499
  593 Fit      -0.035966
  594 Fit      -0.027531
  595 Fit      -0.045351
  596 Fit      -0.043557
  597 Fit      -0.039225
  598 Fit      -0.032576
  599 Fit      -0.022251
  600 Fit      -0.042723
  601 Fit      -0.042792
  602 Fit      -0.038898
  603 Fit      -0.032851
  604 Fit      -0.026176
  605 Fit      -0.025537
  606 Fit      -0.038473
  607 Fit      -0.039142
  608 Fit      -0.033893
  609 Fit      -0.032608
  610 Fit      -0.019860
  611 Fit      -0.022044
  612 Fit      -0.030379
  613 Fit      -0.028814
  614 Fit      -0.012659
  615 Fit      -0.010375
  616 Fit      -0.024372
  617 Fit      -0.032758
  618 Fit      -0.036899
  619 Fit      -0.036858
  620 Fit      -0.029102
  621 Fit      -0.031822
  622 Fit      -0.038140
  623 Fit      -0.041386
  624 Fit      -0.041661
  625 Fit      -0.037058
  626 Fit      -0.032071
  627 Fit      -0.039680
  628 Fit      -0.043482
  629 Fit      -0.044994
  630 Fit      -0.035110
  631 Fit      -0.041352
  632 Fit      -0.020202
  633 Fit      -0.023863
  634 Fit      -0.009453
  635 Fit      -0.037337
  636 Fit      -0.044157
  637 Fit      -0.033983
  638 Fit      -0.037961
  639 Fit      -0.031446
  640 Fit      -0.038380
  641 Fit       0.012178
  642 Fit       0.014468
  643 Fit       0.009815
  644 Fit       0.015638
  645 Fit       0.016769
  646 Fit       0.018470
  647 Fit       0.014800
  648 Fit       0.014603
  649 Fit       0.016464
  650 Fit       0.016738
  651 Fit       0.016301
  652 Fit       0.017523
  653 Fit       0.016050
  654 Fit       0.014704
  655 Fit       0.013326
  656 Fit       0.013873
  657 Fit       0.010144
  658 Fit       0.014975
  659 Fit       0.018932
  660 Fit       0.012401
  661 Fit       0.016088
  662 Fit       0.018432
  663 Fit       0.020658
  664 Fit       0.017357
  665 Fit       0.017998
  666 Fit       0.018977
  667 Fit       0.019822
  668 Fit       0.021031
  669 Fit       0.018410
  670 Fit       0.018104
  671 Fit       0.017782
  672 Fit       0.014867
  673 Fit       0.008639
  674 Fit       0.008339
  675 Fit       0.008280
  676 Fit       0.014693
  677 Fit       0.009586
  678 Fit       0.010612
  679 Fit       0.011760
  680 Fit       0.012664
  681 Fit       0.015454
  682 Fit       0.004431
  683 Fit       0.009114
  684 Fit       0.011894
  685 Fit       0.013548
  686 Fit       0.011968
  687 Fit       0.005636
  688 Fit       0.010435
  689 Fit       0.006356
  690 Fit       0.017976
  691 Fit       0.018338
  692 Fit       0.023125
  693 Fit       0.021509
  694 Fit       0.024201
  695 Fit       0.027751
  696 Fit       0.024415
  697 Fit       0.027451
  698 Fit       0.024606
  699 Fit       0.011597
  700 Fit       0.000221
  701 Fit       0.004295
  702 Fit       0.005828
  703 Fit      -0.004716
  704 Fit       0.003733
  705 Fit       0.008298
  706 Fit      -0.004702
  707 Fit       0.005836
  708 Fit      -0.017104
  709 Fit       0.000583
  710 Fit       0.003729
  711 Fit       0.007807
  712 Fit      -0.005858
  713 Fit       0.014217
  714 Fit       0.008000
  715 Fit      -0.000751
  716 Fit      -0.018280
  717 Fit       0.006945
  718 Fit      -0.001019
  719 Fit      -0.015006
  720 Fit      -0.000053
  721 Fit      -0.012407
  722 Fit       0.019501
  723 Fit       0.017664
  724 Fit       0.015267
  725 Fit       0.011741
  726 Fit       0.019826
  727 Fit       0.017700
  728 Fit       0.015604
  729 Fit       0.012234
  730 Fit       0.006867
  731 Fit      -0.001519
  732 Fit       0.018627
  733 Fit       0.016112
  734 Fit       0.012622
  735 Fit       0.006171
  736 Fit       0.011260
  737 Fit       0.027679
  738 Fit       0.026230
  739 Fit       0.019673
  740 Fit       0.023569
  741 Fit       0.019814
  742 Fit       0.022518
  743 Fit       0.020267
  744 Fit       0.021559
  745 Fit       0.015034
  746 Fit       0.016827
  747 Fit       0.020217
  748 Fit       0.016584
  749 Fit       0.008393
  750 Fit       0.024663
  751 Fit       0.015594
  752 Fit      -0.000360
  753 Fit       0.012068
  754 Fit       0.012914
  755 Fit       0.005831
  756 Fit       0.008851
  757 Fit       0.012124
  758 Fit      -0.007369
  759 Fit       0.002082
  760 Fit       0.008159
  761 Fit       0.011462
  762 Fit       0.010953
  763 Fit      -0.000459
  764 Fit       0.006926
  765 Fit       0.014687
  766 Fit       0.021894
  767 Fit       0.026183
  768 Fit       0.005441
  769 Fit       0.015691
  770 Fit       0.019879
  771 Fit       0.003368
  772 Fit       0.008640
  773 Fit      -0.005402
  774 Fit       0.001747
  775 Fit      -0.000993
  776 Fit       0.006730
  777 Fit       0.009319
  778 Fit       0.004255
  779 Fit       0.010138
  780 Fit       0.006641
  781 Fit       0.004916
  782 Fit       0.004778
  783 Fit       0.007174
  784 Fit       0.003736
  785 Fit       0.000660
  786 Fit       0.004111
  787 Fit       0.001980
  788 Fit       0.007447
  789 Fit       0.003018
  790 Fit       0.008248
  791 Fit      -0.006193
  792 Fit      -0.002262
  793 Fit       0.006018
  794 Fit       0.015239
  795 Fit       0.011566
  796 Fit       0.010608
  797 Fit       0.011887
  798 Fit       0.006613
  799 Fit      -0.005718
  800 Fit      -0.000661
  801 Fit      -0.001513
  802 Fit       0.003535
  803 Fit       0.003143
  804 Fit       0.002755
  805 Fit       0.008346
  806 Fit       0.003291
  807 Fit      -0.004927
  808 Fit       0.006710
  809 Fit       0.000008
  810 Fit      -0.002785
  811 Fit      -0.000223
  812 Fit       0.001532
  813 Fit       0.010048
  814 Fit       0.004457
  815 Fit       0.010769
  816 Fit       0.003895
  817 Fit      -0.002718
  818 Fit       0.018205
  819 Fit       0.002135
  820 Fit       0.006637
  821 Fit       0.001722
  822 Fit      -0.002388
  823 Fit       0.003462
  824 Fit       0.005889
  825 Fit      -0.005620
  826 Fit      -0.011582
  827 Fit      -0.010957
  828 Fit       0.003841
  829 Fit       0.007214
  830 Fit       0.004644
  831 Fit      -0.001466
  832 Fit       0.013023
  833 Fit       0.015757
  834 Fit       0.015857
  835 Fit       0.012456
  836 Fit       0.016969
  837 Fit       0.014331
  838 Fit       0.011175
  839 Fit       0.018327
  840 Fit       0.006304
  841 Fit       0.020544
  842 Fit      -0.000128
  843 Fit      -0.010852
  844 Fit       0.011673
  845 Fit       0.011563
  846 Fit       0.007406
  847 Fit      -0.004285
  848 Fit       0.009059
  849 Fit      -0.013357
  850 Fit      -0.023857
  851 Fit      -0.010379
  852 Fit      -0.020525
  853 Fit      -0.027060
  854 Fit       0.010565
  855 Fit       0.001714
  856 Fit      -0.010353
  857 Fit      -0.014802
  858 Fit      -0.004834
  859 Fit      -0.001452
  860 Fit      -0.032242
  861 Fit      -0.026038
  862 Fit      -0.016976
  863 Fit      -0.036896
  864 Fit      -0.032892
  865 Fit      -0.027423
  866 Fit      -0.018941
  867 Fit      -0.038568
  868 Fit      -0.036325
  869 Fit      -0.032383
  870 Fit      -0.026754
  871 Fit      -0.019043
  872 Fit      -0.016339
  873 Fit      -0.036575
  874 Fit      -0.035263
  875 Fit      -0.031762
  876 Fit      -0.026865
  877 Fit      -0.021587
  878 Fit      -0.020792
  879 Fit      -0.032005
  880 Fit      -0.032511
  881 Fit      -0.028045
  882 Fit      -0.026742
  883 Fit      -0.014712
  884 Fit      -0.016604
  885 Fit      -0.023859
  886 Fit      -0.022346
  887 Fit      -0.003852
  888 Fit      -0.015880
  889 Fit      -0.024011
  890 Fit      -0.028697
  891 Fit      -0.030371
  892 Fit      -0.028181
  893 Fit      -0.019588
  894 Fit      -0.022771
  895 Fit      -0.029373
  896 Fit      -0.033049
  897 Fit      -0.034495
  898 Fit      -0.033107
  899 Fit      -0.023867
  900 Fit      -0.030941
  901 Fit      -0.034934
  902 Fit      -0.037100
  903 Fit      -0.037676
  904 Fit      -0.021731
  905 Fit      -0.030982
  906 Fit      -0.035833
  907 Fit      -0.038701
  908 Fit      -0.015511
  909 Fit      -0.018834
  910 Fit      -0.005566
  911 Fit      -0.027309
  912 Fit      -0.020203
  913 Fit      -0.010258
  914 Fit      -0.038539
  915 Fit      -0.036206
  916 Fit      -0.037225
  917 Fit      -0.039226
  918 Fit      -0.028594
  919 Fit      -0.032850
  920 Fit      -0.027544
  921 Fit      -0.033170
  922 Fit       0.009481
  923 Fit       0.011788
  924 Fit       0.012713
  925 Fit       0.014091
  926 Fit       0.016384
  927 Fit       0.011544
  928 Fit       0.014226
  929 Fit       0.014959
  930 Fit       0.015889
  931 Fit       0.014192
  932 Fit       0.013663
  933 Fit       0.014154
  934 Fit       0.014312
  935 Fit       0.013810
  936 Fit       0.013920
  937 Fit       0.012479
  938 Fit       0.011469
  939 Fit       0.011719
  940 Fit       0.013033
  941 Fit       0.013592
  942 Fit       0.015925
  943 Fit       0.018403
  944 Fit       0.013670
  945 Fit       0.015158
  946 Fit       0.016419
  947 Fit       0.017611
  948 Fit       0.019305
  949 Fit       0.016572
  950 Fit       0.016732
  951 Fit       0.017188
  952 Fit       0.017919
  953 Fit       0.016240
  954 Fit       0.015655
  955 Fit       0.015380
  956 Fit       0.005836
  957 Fit       0.007930
  958 Fit       0.008339
  959 Fit       0.009059
  960 Fit       0.009758
  961 Fit       0.014109
  962 Fit       0.007108
  963 Fit       0.009107
  964 Fit       0.010538
  965 Fit       0.011789
  966 Fit       0.013088
  967 Fit       0.001784
  968 Fit       0.006639
  969 Fit       0.009521
  970 Fit       0.011317
  971 Fit       0.009777
  972 Fit       0.004029
  973 Fit       0.008207
  974 Fit       0.005217
  975 Fit       0.016138
  976 Fit       0.016205
  977 Fit       0.020055
  978 Fit       0.018574
  979 Fit       0.021008
  980 Fit       0.023799
  981 Fit       0.021390
  982 Fit       0.023172
  983 Fit       0.022302
  984 Fit       0.024096
  985 Fit       0.003110
  986 Fit       0.003986
  987 Fit       0.004517
  988 Fit      -0.010413
  989 Fit      -0.001060
  990 Fit       0.003735
  991 Fit      -0.005549
  992 Fit       0.002577
  993 Fit      -0.007336
  994 Fit       0.003354
  995 Fit      -0.017132
  996 Fit       0.003131
  997 Fit       0.006113
  998 Fit      -0.006120
  999 Fit       0.006052
 1000 Fit      -0.002392
 1001 Fit       0.007518
 1002 Fit       0.001210
 1003 Fit      -0.008682
 1004 Fit       0.001483
 1005 Fit      -0.007462
 1006 Fit       0.014852
 1007 Fit       0.017521
 1008 Fit       0.015770
 1009 Fit       0.013739
 1010 Fit       0.010941
 1011 Fit       0.006932
 1012 Fit       0.017419
 1013 Fit       0.015334
 1014 Fit       0.013228
 1015 Fit       0.010111
 1016 Fit       0.005338
 1017 Fit      -0.001916
 1018 Fit       0.015314
 1019 Fit       0.013560
 1020 Fit       0.010364
 1021 Fit       0.004890
 1022 Fit       0.009227
 1023 Fit       0.024212
 1024 Fit       0.018191
 1025 Fit       0.022117
 1026 Fit       0.018164
 1027 Fit       0.022572
 1028 Fit       0.019286
 1029 Fit       0.020243
 1030 Fit       0.018779
 1031 Fit       0.012691
 1032 Fit       0.014489
 1033 Fit       0.016803
 1034 Fit       0.013669
 1035 Fit       0.007341
 1036 Fit       0.022872
 1037 Fit       0.019972
 1038 Fit       0.012570
 1039 Fit       0.000846
 1040 Fit       0.009923
 1041 Fit       0.010977
 1042 Fit       0.004871
 1043 Fit       0.006836
 1044 Fit       0.009724
 1045 Fit      -0.005535
 1046 Fit       0.001135
 1047 Fit       0.006217
 1048 Fit       0.009081
 1049 Fit       0.009204
 1050 Fit      -0.005034
 1051 Fit       0.001725
 1052 Fit       0.006803
 1053 Fit       0.008994
 1054 Fit       0.021553
 1055 Fit       0.011896
 1056 Fit       0.017879
 1057 Fit       0.021137
 1058 Fit       0.003786
 1059 Fit       0.011494
 1060 Fit       0.015153
 1061 Fit       0.001388
 1062 Fit       0.005894
 -----------------------------------------------------------------
 Leave Link  602 at Sat Feb 17 21:00:13 2018, MaxMem=   33554432 cpu:       0.4

 Test job not archived.
 1\1\GINC-NODE092\SP\RHF\6-31G(d)\C8H11N1O2S1\WULSDORT\17-Feb-2018\0\\#
 HF/6-31G* Geom=AllCheck Guess=Read Pop=(MK,ReadRadii) Integral=(Grid=U
 ltraFine) iop(6/33=2)\\Optimization for frag22-conf2\\0,1\C,0,-4.08009
 50765,3.1394625308,-3.7495098052\C,0,-3.0839614435,2.1940333615,-3.996
 5944884\C,0,-4.905335443,2.9999191201,-2.6309716748\C,0,-2.9147509949,
 1.1159407571,-3.1265448248\C,0,-4.7383919359,1.9214590756,-1.763289672
 5\C,0,-3.739463562,0.9656051039,-2.0029904123\C,0,-0.2365530704,0.3901
 612164,-0.2930597752\C,0,-3.5427122441,-0.1971779455,-1.0686455528\N,0
 ,-1.3935945279,1.0947786196,0.2587033068\O,0,-3.7200652897,1.228764602
 4,1.1848749566\O,0,-2.4464177739,-0.996425411,1.2133655786\S,0,-2.8150
 846114,0.2616752481,0.5604735647\H,0,-4.2152934691,3.9789503643,-4.425
 9834049\H,0,-2.4408120628,2.2917430034,-4.8669942166\H,0,-5.6832128177
 ,3.7323661971,-2.4336013442\H,0,-2.1446936717,0.3748438869,-3.33031445
 15\H,0,-5.3713089536,1.8235013831,-0.8867744608\H,0,-0.1091145701,-0.5
 431933388,0.2579246151\H,0,0.6498058144,1.0101599714,-0.1309235332\H,0
 ,-0.3208673217,0.169621121,-1.3671043381\H,0,-2.8791135727,-0.95820340
 68,-1.4881571349\H,0,-4.4845863449,-0.6825291274,-0.7924395513\H,0,-1.
 5881399413,2.0106001174,-0.1363999585\\Version=AM64L-G09RevC.01\State=
 1-A\HF=-910.9547033\RMSD=5.941e-09\Dipole=0.6046488,0.5499446,-2.31518
 45\Quadrupole=7.0838785,1.1562744,-8.2401529,-0.616045,-0.8160458,1.46
 6032\PG=C01 [X(C8H11N1O2S1)]\\@


 IT IS IMPOSSIBLE TO MEDITATE ON TIME AND THE MYSTERY 
 OF NATURE WITHOUT AN OVERWHELMING EMOTION AT THE
 LIMITATIONS OF HUMAN INTELLIGENCE.

                                         -- ALFRED NORTH WHITEHEAD
 Job cpu time:  0 days  0 hours  2 minutes 10.0 seconds.
 File lengths (MBytes):  RWF=     27 Int=      0 D2E=      0 Chk=      4 Scr=      1
 Normal termination of Gaussian 09 at Sat Feb 17 21:00:13 2018.
