 Entering Gaussian System, Link 0=g09
 Initial command:
 /home/fb_chem/chemsoft/lx24-amd64/Gaussian_09_C.01_NBO_3.1_64_istanbul-64/g09/l1.exe /local/2399976.1.parallel/Gau-25438.inp -scrdir=/local/2399976.1.parallel/
 Entering Link 1 = /home/fb_chem/chemsoft/lx24-amd64/Gaussian_09_C.01_NBO_3.1_64_istanbul-64/g09/l1.exe PID=     25439.
  
 Copyright (c) 1988,1990,1992,1993,1995,1998,2003,2009,2011,
            Gaussian, Inc.  All Rights Reserved.
  
 This is part of the Gaussian(R) 09 program.  It is based on
 the Gaussian(R) 03 system (copyright 2003, Gaussian, Inc.),
 the Gaussian(R) 98 system (copyright 1998, Gaussian, Inc.),
 the Gaussian(R) 94 system (copyright 1995, Gaussian, Inc.),
 the Gaussian 92(TM) system (copyright 1992, Gaussian, Inc.),
 the Gaussian 90(TM) system (copyright 1990, Gaussian, Inc.),
 the Gaussian 88(TM) system (copyright 1988, Gaussian, Inc.),
 the Gaussian 86(TM) system (copyright 1986, Carnegie Mellon
 University), and the Gaussian 82(TM) system (copyright 1983,
 Carnegie Mellon University). Gaussian is a federally registered
 trademark of Gaussian, Inc.
  
 This software contains proprietary and confidential information,
 including trade secrets, belonging to Gaussian, Inc.
  
 This software is provided under written license and may be
 used, copied, transmitted, or stored only in accord with that
 written license.
  
 The following legend is applicable only to US Government
 contracts under FAR:
  
                    RESTRICTED RIGHTS LEGEND
  
 Use, reproduction and disclosure by the US Government is
 subject to restrictions as set forth in subparagraphs (a)
 and (c) of the Commercial Computer Software - Restricted
 Rights clause in FAR 52.227-19.
  
 Gaussian, Inc.
 340 Quinnipiac St., Bldg. 40, Wallingford CT 06492
  
  
 ---------------------------------------------------------------
 Warning -- This program may not be used in any manner that
 competes with the business of Gaussian, Inc. or will provide
 assistance to any competitor of Gaussian, Inc.  The licensee
 of this program is prohibited from giving any competitor of
 Gaussian, Inc. access to this program.  By using this program,
 the user acknowledges that Gaussian, Inc. is engaged in the
 business of creating and licensing software in the field of
 computational chemistry and represents and warrants to the
 licensee that it is not a competitor of Gaussian, Inc. and that
 it will not use this program in any manner prohibited above.
 ---------------------------------------------------------------
  

 Cite this work as:
 Gaussian 09, Revision C.01,
 M. J. Frisch, G. W. Trucks, H. B. Schlegel, G. E. Scuseria, 
 M. A. Robb, J. R. Cheeseman, G. Scalmani, V. Barone, B. Mennucci, 
 G. A. Petersson, H. Nakatsuji, M. Caricato, X. Li, H. P. Hratchian, 
 A. F. Izmaylov, J. Bloino, G. Zheng, J. L. Sonnenberg, M. Hada, 
 M. Ehara, K. Toyota, R. Fukuda, J. Hasegawa, M. Ishida, T. Nakajima, 
 Y. Honda, O. Kitao, H. Nakai, T. Vreven, J. A. Montgomery, Jr., 
 J. E. Peralta, F. Ogliaro, M. Bearpark, J. J. Heyd, E. Brothers, 
 K. N. Kudin, V. N. Staroverov, T. Keith, R. Kobayashi, J. Normand, 
 K. Raghavachari, A. Rendell, J. C. Burant, S. S. Iyengar, J. Tomasi, 
 M. Cossi, N. Rega, J. M. Millam, M. Klene, J. E. Knox, J. B. Cross, 
 V. Bakken, C. Adamo, J. Jaramillo, R. Gomperts, R. E. Stratmann, 
 O. Yazyev, A. J. Austin, R. Cammi, C. Pomelli, J. W. Ochterski, 
 R. L. Martin, K. Morokuma, V. G. Zakrzewski, G. A. Voth, 
 P. Salvador, J. J. Dannenberg, S. Dapprich, A. D. Daniels, 
 O. Farkas, J. B. Foresman, J. V. Ortiz, J. Cioslowski, 
 and D. J. Fox, Gaussian, Inc., Wallingford CT, 2010.
 
 ******************************************
 Gaussian 09:  AM64L-G09RevC.01 23-Sep-2011
                17-Feb-2018 
 ******************************************
 %nprocs=2
 Will use up to    2 processors via shared memory.
 %chk=frag5-conf2.chk
 ----------------------------------------------------------------------
 #HF/6-31G* Geom=AllCheck Guess=Read Pop=(MK,ReadRadii) Integral=(Grid=
 UltraFine) iop(6/33=2)
 ----------------------------------------------------------------------
 1/29=7,38=1/1;
 2/12=2,40=1/2;
 3/5=1,6=6,7=1,11=9,14=-4,16=1,25=1,30=1,75=-5,116=-2/1,2,3;
 4/5=1/1;
 5/5=2,38=6/2;
 6/7=2,8=2,9=2,10=2,15=8,20=101,28=1,33=2/1,2;
 99/5=1,9=1/99;
 Structure from the checkpoint file:  frag5-conf2.chk
 ----------------------------
 Optimization for frag5-conf2
 ----------------------------
 Charge =  0 Multiplicity = 1
 Redundant internal coordinates found in file.
 C,0,2.2446609853,-0.7952474753,0.2262188291
 C,0,1.0880308111,-0.2207233558,0.7584192117
 C,0,2.9057161545,-1.8135770705,0.9101964119
 C,0,1.2332967716,-1.6877474627,2.674170769
 C,0,0.5753011392,-0.6598163787,1.9824255382
 C,0,2.3859889523,-2.2467668263,2.131620019
 C,0,-0.6007774914,0.1948462315,5.0403929848
 C,0,-0.2247599239,1.1020510731,6.2020488937
 C,0,-0.6755198505,-0.0361442158,2.5768941295
 N,0,-0.4287164325,0.7335075715,3.792466426
 O,0,-1.0360331743,-0.9376089119,5.2167364255
 Cl,0,3.2087400325,-3.5377444168,3.0019032933
 H,0,2.6354437722,-0.4488197589,-0.7265971437
 H,0,0.578997211,0.5719047931,0.2148843251
 H,0,3.8047745044,-2.2682907828,0.5083476783
 H,0,0.8392977072,-2.0430981804,3.6210201429
 H,0,-1.0700969895,1.1515905003,6.8942252473
 H,0,0.6146206218,0.6537511022,6.743589609
 H,0,0.0495898623,2.1176575101,5.8998687052
 H,0,-1.1534786824,0.618206122,1.8395333235
 H,0,-1.3919443714,-0.8125579141,2.8572524663
 H,0,0.0599486398,1.6135416707,3.7062364988
 Recover connectivity data from disk.
                          Input orientation:                          
 ---------------------------------------------------------------------
 Center     Atomic      Atomic             Coordinates (Angstroms)
 Number     Number       Type             X           Y           Z
 ---------------------------------------------------------------------
      1          6           0        2.244661   -0.795247    0.226219
      2          6           0        1.088031   -0.220723    0.758419
      3          6           0        2.905716   -1.813577    0.910196
      4          6           0        1.233297   -1.687747    2.674171
      5          6           0        0.575301   -0.659816    1.982426
      6          6           0        2.385989   -2.246767    2.131620
      7          6           0       -0.600777    0.194846    5.040393
      8          6           0       -0.224760    1.102051    6.202049
      9          6           0       -0.675520   -0.036144    2.576894
     10          7           0       -0.428716    0.733508    3.792466
     11          8           0       -1.036033   -0.937609    5.216736
     12         17           0        3.208740   -3.537744    3.001903
     13          1           0        2.635444   -0.448820   -0.726597
     14          1           0        0.578997    0.571905    0.214884
     15          1           0        3.804775   -2.268291    0.508348
     16          1           0        0.839298   -2.043098    3.621020
     17          1           0       -1.070097    1.151591    6.894225
     18          1           0        0.614621    0.653751    6.743590
     19          1           0        0.049590    2.117658    5.899869
     20          1           0       -1.153479    0.618206    1.839533
     21          1           0       -1.391944   -0.812558    2.857252
     22          1           0        0.059949    1.613542    3.706236
 ---------------------------------------------------------------------
                    Distance matrix (angstroms):
                    1          2          3          4          5
     1  C    0.000000
     2  C    1.396821   0.000000
     3  C    1.393490   2.421611   0.000000
     4  C    2.794975   2.417306   2.434014   0.000000
     5  C    2.426802   1.397815   2.812770   1.402894   0.000000
     6  C    2.399466   2.770420   1.396297   1.391245   2.412314
     7  C    5.679179   4.621696   5.778216   3.536523   3.385967
     8  C    6.738570   5.753804   6.804739   4.728089   4.642143
     9  C    3.824836   2.539888   4.331559   2.526032   1.518853
    10  N    4.711917   3.523708   5.090536   3.142507   2.495125
    11  O    5.973984   4.990207   5.903473   3.489585   3.624132
    12  Cl   4.019348   4.531364   2.727602   2.726220   4.031973
    13  H    1.086546   2.156801   2.148186   3.881518   3.409914
    14  H    2.154918   1.087568   3.404057   3.403267   2.154380
    15  H    2.164118   3.411124   1.084690   3.411791   3.897383
    16  H    3.880316   3.402558   3.416333   1.085372   2.160591
    17  H    7.696760   6.647471   7.772253   5.583576   5.487650
    18  H    6.872609   6.067214   6.735377   4.735562   4.939199
    19  H    6.744898   5.742899   6.964833   5.127124   4.830848
    20  H    4.018456   2.626209   4.822271   3.422096   2.154632
    21  H    4.488601   3.302370   4.823168   2.773331   2.158404
    22  H    4.762957   3.620926   5.259408   3.652453   2.899184
                    6          7          8          9         10
     6  C    0.000000
     7  C    4.831481   0.000000
     8  C    5.882090   1.521136   0.000000
     9  C    3.802362   2.475433   3.826280   0.000000
    10  N    4.423009   1.370066   2.446121   1.459757   0.000000
    11  O    4.789788   1.225969   2.406079   2.812717   2.278159
    12  Cl   1.760947   5.709649   6.599815   5.246838   5.665657
    13  H    3.385889   6.644216   7.654548   4.695299   5.586494
    14  H    3.857979   4.981925   6.064093   2.742741   3.720309
    15  H    2.156022   6.783463   7.746908   5.416124   6.141553
    16  H    2.156861   3.016095   4.205460   2.722634   3.057253
    17  H    6.795276   2.138297   1.093690   4.495081   3.194851
    18  H    5.728963   2.142117   1.094897   4.416081   3.131141
    19  H    6.221468   2.204287   1.094549   4.025768   2.566280
    20  H    4.563027   3.275701   4.486443   1.095591   2.086270
    21  H    4.105640   2.531188   4.026874   1.093016   2.047621
    22  H    4.774082   2.056509   2.563545   2.130209   1.010292
                   11         12         13         14         15
    11  O    0.000000
    12  Cl   5.448329   0.000000
    13  H    7.002990   4.875637   0.000000
    14  H    5.468590   5.618918   2.481378   0.000000
    15  H    6.882809   2.860872   2.490562   4.307954   0.000000
    16  H    2.699126   2.869064   4.966854   4.302064   4.305054
    17  H    2.679530   7.446374   8.623762   6.904284   8.731517
    18  H    2.754699   6.188563   7.816846   6.529315   7.589048
    19  H    3.313593   7.096619   7.561977   5.915122   7.899776
    20  H    3.720196   6.136121   4.698883   2.375521   5.889668
    21  H    2.389451   5.349193   5.403345   3.575396   5.885779
    22  H    3.160879   6.078381   5.525986   3.680212   6.270473
                   16         17         18         19         20
    16  H    0.000000
    17  H    4.956379   0.000000
    18  H    4.132060   1.763181   0.000000
    19  H    4.809228   1.782058   1.781614   0.000000
    20  H    3.771922   5.083440   5.213176   4.492444   0.000000
    21  H    2.660077   4.500957   4.613023   4.463373   1.771921
    22  H    3.739741   3.413748   3.233322   2.250836   2.438786
                   21         22
    21  H    0.000000
    22  H    2.952072   0.000000
 Stoichiometry    C9H10ClNO
 Framework group  C1[X(C9H10ClNO)]
 Deg. of freedom    60
 Full point group                 C1      NOp   1
 Largest Abelian subgroup         C1      NOp   1
 Largest concise Abelian subgroup C1      NOp   1
                         Standard orientation:                         
 ---------------------------------------------------------------------
 Center     Atomic      Atomic             Coordinates (Angstroms)
 Number     Number       Type             X           Y           Z
 ---------------------------------------------------------------------
      1          6           0        2.251891    1.945292    0.414098
      2          6           0        0.924998    2.171554    0.040909
      3          6           0        2.776546    0.654361    0.407098
      4          6           0        0.628146   -0.193566   -0.360901
      5          6           0        0.105075    1.108095   -0.347251
      6          6           0        1.950802   -0.401844    0.016943
      7          6           0       -2.880403   -0.450923    0.000823
      8          6           0       -3.804728   -0.925008    1.112003
      9          6           0       -1.342347    1.339517   -0.745152
     10          7           0       -2.308048    0.778638    0.194916
     11          8           0       -2.673142   -1.125118   -1.001924
     12         17           0        2.604579   -2.036815   -0.002547
     13          1           0        2.882618    2.778006    0.713017
     14          1           0        0.526668    3.183527    0.047968
     15          1           0        3.805084    0.464649    0.694628
     16          1           0        0.003561   -1.025963   -0.669187
     17          1           0       -4.764775   -1.207578    0.670844
     18          1           0       -3.377675   -1.824306    1.567732
     19          1           0       -3.976646   -0.178356    1.893662
     20          1           0       -1.535153    2.413306   -0.845764
     21          1           0       -1.553637    0.864719   -1.706716
     22          1           0       -2.406309    1.223467    1.096670
 ---------------------------------------------------------------------
 Rotational constants (GHZ):      1.1993286      0.4692216      0.3654816
 Standard basis: 6-31G(d) (6D, 7F)
 There are   204 symmetry adapted basis functions of A   symmetry.
 Integral buffers will be    131072 words long.
 Raffenetti 1 integral format.
 Two-electron integral symmetry is turned on.
   204 basis functions,   400 primitive gaussians,   204 cartesian basis functions
    48 alpha electrons       48 beta electrons
       nuclear repulsion energy       736.1534090374 Hartrees.
 NAtoms=   22 NActive=   22 NUniq=   22 SFac= 1.00D+00 NAtFMM=   60 NAOKFM=F Big=F
 One-electron integrals computed using PRISM.
 NBasis=   204 RedAO= T  NBF=   204
 NBsUse=   204 1.00D-06 NBFU=   204
 Initial guess read from the checkpoint file:  frag5-conf2.chk
 B after Tr=     0.000000    0.000000    0.000000
         Rot=    1.000000    0.000000    0.000000    0.000000 Ang=   0.00 deg.
 Initial guess orbital symmetries:
       Occupied  (A) (A) (A) (A) (A) (A) (A) (A) (A) (A) (A) (A)
                 (A) (A) (A) (A) (A) (A) (A) (A) (A) (A) (A) (A)
                 (A) (A) (A) (A) (A) (A) (A) (A) (A) (A) (A) (A)
                 (A) (A) (A) (A) (A) (A) (A) (A) (A) (A) (A) (A)
       Virtual   (A) (A) (A) (A) (A) (A) (A) (A) (A) (A) (A) (A)
                 (A) (A) (A) (A) (A) (A) (A) (A) (A) (A) (A) (A)
                 (A) (A) (A) (A) (A) (A) (A) (A) (A) (A) (A) (A)
                 (A) (A) (A) (A) (A) (A) (A) (A) (A) (A) (A) (A)
                 (A) (A) (A) (A) (A) (A) (A) (A) (A) (A) (A) (A)
                 (A) (A) (A) (A) (A) (A) (A) (A) (A) (A) (A) (A)
                 (A) (A) (A) (A) (A) (A) (A) (A) (A) (A) (A) (A)
                 (A) (A) (A) (A) (A) (A) (A) (A) (A) (A) (A) (A)
                 (A) (A) (A) (A) (A) (A) (A) (A) (A) (A) (A) (A)
                 (A) (A) (A) (A) (A) (A) (A) (A) (A) (A) (A) (A)
                 (A) (A) (A) (A) (A) (A) (A) (A) (A) (A) (A) (A)
                 (A) (A) (A) (A) (A) (A) (A) (A) (A) (A) (A) (A)
                 (A) (A) (A) (A) (A) (A) (A) (A) (A) (A) (A) (A)
 Requested convergence on RMS density matrix=1.00D-08 within 128 cycles.
 Requested convergence on MAX density matrix=1.00D-06.
 Requested convergence on             energy=1.00D-06.
 No special actions if energy rises.
 SCF Done:  E(RHF) =  -935.450906990     A.U. after   14 cycles
             Convg  =    0.3339D-08             -V/T =  2.0015

 **********************************************************************

            Population analysis using the SCF density.

 **********************************************************************

 Orbital symmetries:
 BldTbl:  Degeneracy threshold= 1.00D-02
       Occupied  (A) (A) (A) (A) (A) (A) (A) (A) (A) (A) (A) (A)
                 (A) (A) (A) (A) (A) (A) (A) (A) (A) (A) (A) (A)
                 (A) (A) (A) (A) (A) (A) (A) (A) (A) (A) (A) (A)
                 (A) (A) (A) (A) (A) (A) (A) (A) (A) (A) (A) (A)
       Virtual   (A) (A) (A) (A) (A) (A) (A) (A) (A) (A) (A) (A)
                 (A) (A) (A) (A) (A) (A) (A) (A) (A) (A) (A) (A)
                 (A) (A) (A) (A) (A) (A) (A) (A) (A) (A) (A) (A)
                 (A) (A) (A) (A) (A) (A) (A) (A) (A) (A) (A) (A)
                 (A) (A) (A) (A) (A) (A) (A) (A) (A) (A) (A) (A)
                 (A) (A) (A) (A) (A) (A) (A) (A) (A) (A) (A) (A)
                 (A) (A) (A) (A) (A) (A) (A) (A) (A) (A) (A) (A)
                 (A) (A) (A) (A) (A) (A) (A) (A) (A) (A) (A) (A)
                 (A) (A) (A) (A) (A) (A) (A) (A) (A) (A) (A) (A)
                 (A) (A) (A) (A) (A) (A) (A) (A) (A) (A) (A) (A)
                 (A) (A) (A) (A) (A) (A) (A) (A) (A) (A) (A) (A)
                 (A) (A) (A) (A) (A) (A) (A) (A) (A) (A) (A) (A)
                 (A) (A) (A) (A) (A) (A) (A) (A) (A) (A) (A) (A)
 The electronic state is 1-A.
 Alpha  occ. eigenvalues -- -104.82224 -20.52638 -15.59699 -11.36032 -11.30600
 Alpha  occ. eigenvalues --  -11.27878 -11.25643 -11.25292 -11.25174 -11.24844
 Alpha  occ. eigenvalues --  -11.24743 -11.24334 -10.55530  -8.02467  -8.02137
 Alpha  occ. eigenvalues --   -8.02134  -1.37830  -1.23539  -1.18366  -1.11634
 Alpha  occ. eigenvalues --   -1.05122  -1.00946  -0.99571  -0.93312  -0.83374
 Alpha  occ. eigenvalues --   -0.81124  -0.78777  -0.70690  -0.69208  -0.65753
 Alpha  occ. eigenvalues --   -0.65091  -0.63649  -0.61855  -0.58997  -0.58368
 Alpha  occ. eigenvalues --   -0.58097  -0.56478  -0.55349  -0.53358  -0.52545
 Alpha  occ. eigenvalues --   -0.50529  -0.49845  -0.46178  -0.44920  -0.42371
 Alpha  occ. eigenvalues --   -0.39569  -0.34123  -0.33390
 Alpha virt. eigenvalues --    0.12254   0.12871   0.18816   0.20203   0.21168
 Alpha virt. eigenvalues --    0.24628   0.26879   0.28261   0.30422   0.30820
 Alpha virt. eigenvalues --    0.31211   0.32497   0.33149   0.34016   0.34298
 Alpha virt. eigenvalues --    0.39031   0.40796   0.42892   0.43469   0.46254
 Alpha virt. eigenvalues --    0.48176   0.50841   0.52993   0.59094   0.59914
 Alpha virt. eigenvalues --    0.60343   0.62293   0.64189   0.68705   0.71315
 Alpha virt. eigenvalues --    0.72840   0.73152   0.74727   0.75723   0.76200
 Alpha virt. eigenvalues --    0.77915   0.79567   0.81411   0.82640   0.82844
 Alpha virt. eigenvalues --    0.83170   0.84959   0.85481   0.87475   0.88747
 Alpha virt. eigenvalues --    0.91304   0.94479   0.94997   0.96487   0.98969
 Alpha virt. eigenvalues --    1.01183   1.01716   1.06154   1.06971   1.08245
 Alpha virt. eigenvalues --    1.09035   1.10568   1.12016   1.12831   1.13869
 Alpha virt. eigenvalues --    1.15638   1.15835   1.16663   1.17648   1.18641
 Alpha virt. eigenvalues --    1.19621   1.20105   1.20470   1.21078   1.22259
 Alpha virt. eigenvalues --    1.24614   1.29066   1.33371   1.35329   1.37763
 Alpha virt. eigenvalues --    1.39094   1.40098   1.42819   1.45986   1.48654
 Alpha virt. eigenvalues --    1.49112   1.52779   1.56791   1.60938   1.64304
 Alpha virt. eigenvalues --    1.65169   1.67977   1.70648   1.72050   1.73903
 Alpha virt. eigenvalues --    1.75708   1.76399   1.79780   1.83686   1.84136
 Alpha virt. eigenvalues --    1.93700   2.02164   2.03273   2.07101   2.10376
 Alpha virt. eigenvalues --    2.11384   2.12542   2.13120   2.15470   2.19864
 Alpha virt. eigenvalues --    2.22620   2.23974   2.25856   2.28948   2.30608
 Alpha virt. eigenvalues --    2.35550   2.37193   2.38588   2.41417   2.44426
 Alpha virt. eigenvalues --    2.45083   2.49436   2.53573   2.54253   2.54982
 Alpha virt. eigenvalues --    2.59667   2.61529   2.63870   2.65460   2.68864
 Alpha virt. eigenvalues --    2.72487   2.74111   2.78493   2.88007   2.90247
 Alpha virt. eigenvalues --    2.92740   2.97391   3.02016   3.03516   3.04861
 Alpha virt. eigenvalues --    3.08864   3.10330   3.14222   3.20697   3.25009
 Alpha virt. eigenvalues --    3.35890   3.42060   3.49771   3.74548   4.36755
 Alpha virt. eigenvalues --    4.46993   4.48122   4.51653   4.55762   4.60545
 Alpha virt. eigenvalues --    4.69754   4.73003   4.78655   4.83788   4.92130
 Alpha virt. eigenvalues --    5.11721
          Condensed to atoms (all electrons):
              1          2          3          4          5          6
     1  C    4.890501   0.536963   0.546174  -0.034430  -0.040859  -0.040095
     2  C    0.536963   4.928769  -0.045968  -0.044526   0.568093  -0.034514
     3  C    0.546174  -0.045968   4.944893  -0.046172  -0.029759   0.523494
     4  C   -0.034430  -0.044526  -0.046172   5.011819   0.536136   0.515453
     5  C   -0.040859   0.568093  -0.029759   0.536136   4.878160  -0.038308
     6  C   -0.040095  -0.034514   0.523494   0.515453  -0.038308   5.038516
     7  C   -0.000001  -0.000065   0.000000   0.001950  -0.002282   0.000073
     8  C    0.000000  -0.000005   0.000000   0.000012  -0.000408   0.000002
     9  C    0.002898  -0.034795   0.000237  -0.043025   0.326548   0.001766
    10  N   -0.000015  -0.000987  -0.000006   0.000121  -0.072251  -0.000024
    11  O    0.000000  -0.000031   0.000000  -0.001811  -0.002708   0.000115
    12  Cl   0.002735   0.000198  -0.064555  -0.064096   0.002599   0.216783
    13  H    0.381763  -0.028104  -0.029312   0.000188   0.001991   0.002492
    14  H   -0.028235   0.379293   0.002487   0.002957  -0.032303   0.000098
    15  H   -0.025628   0.002263   0.382045   0.002019   0.000157  -0.029667
    16  H    0.000036   0.002206   0.001923   0.368028  -0.023879  -0.025217
    17  H    0.000000   0.000000   0.000000   0.000001  -0.000004   0.000000
    18  H    0.000000   0.000000   0.000000   0.000012   0.000043   0.000000
    19  H    0.000000   0.000001   0.000000  -0.000006   0.000012   0.000000
    20  H    0.000262  -0.000758  -0.000020   0.003348  -0.060409  -0.000016
    21  H   -0.000060   0.001290   0.000001  -0.002740  -0.039378   0.000027
    22  H    0.000000   0.000655  -0.000006   0.000376   0.001461  -0.000006
              7          8          9         10         11         12
     1  C   -0.000001   0.000000   0.002898  -0.000015   0.000000   0.002735
     2  C   -0.000065  -0.000005  -0.034795  -0.000987  -0.000031   0.000198
     3  C    0.000000   0.000000   0.000237  -0.000006   0.000000  -0.064555
     4  C    0.001950   0.000012  -0.043025   0.000121  -0.001811  -0.064096
     5  C   -0.002282  -0.000408   0.326548  -0.072251  -0.002708   0.002599
     6  C    0.000073   0.000002   0.001766  -0.000024   0.000115   0.216783
     7  C    4.161937   0.360224  -0.025446   0.278641   0.568090  -0.000004
     8  C    0.360224   5.244765   0.004563  -0.101731  -0.067236   0.000000
     9  C   -0.025446   0.004563   4.937362   0.193231   0.002849  -0.000100
    10  N    0.278641  -0.101731   0.193231   7.349656  -0.095752   0.000008
    11  O    0.568090  -0.067236   0.002849  -0.095752   8.202912  -0.000006
    12  Cl  -0.000004   0.000000  -0.000100   0.000008  -0.000006  16.914002
    13  H    0.000000   0.000000  -0.000103   0.000001   0.000000  -0.000088
    14  H   -0.000001   0.000000  -0.002575   0.000092   0.000000   0.000007
    15  H    0.000000   0.000000   0.000005   0.000000   0.000000   0.000361
    16  H    0.001521   0.000145  -0.000296  -0.002403   0.008897   0.000181
    17  H   -0.027617   0.381195  -0.000117   0.001966   0.000951   0.000000
    18  H   -0.027370   0.379747  -0.000110   0.001158   0.000312   0.000000
    19  H   -0.039059   0.374583   0.000029   0.005325   0.002489   0.000000
    20  H    0.002292  -0.000030   0.416873  -0.041519   0.000396   0.000002
    21  H   -0.000648   0.000395   0.407521  -0.041633   0.008051  -0.000001
    22  H   -0.015227   0.000405  -0.021964   0.317297   0.002154   0.000000
             13         14         15         16         17         18
     1  C    0.381763  -0.028235  -0.025628   0.000036   0.000000   0.000000
     2  C   -0.028104   0.379293   0.002263   0.002206   0.000000   0.000000
     3  C   -0.029312   0.002487   0.382045   0.001923   0.000000   0.000000
     4  C    0.000188   0.002957   0.002019   0.368028   0.000001   0.000012
     5  C    0.001991  -0.032303   0.000157  -0.023879  -0.000004   0.000043
     6  C    0.002492   0.000098  -0.029667  -0.025217   0.000000   0.000000
     7  C    0.000000  -0.000001   0.000000   0.001521  -0.027617  -0.027370
     8  C    0.000000   0.000000   0.000000   0.000145   0.381195   0.379747
     9  C   -0.000103  -0.002575   0.000005  -0.000296  -0.000117  -0.000110
    10  N    0.000001   0.000092   0.000000  -0.002403   0.001966   0.001158
    11  O    0.000000   0.000000   0.000000   0.008897   0.000951   0.000312
    12  Cl  -0.000088   0.000007   0.000361   0.000181   0.000000   0.000000
    13  H    0.461620  -0.001282  -0.001576   0.000007   0.000000   0.000000
    14  H   -0.001282   0.473021  -0.000092  -0.000090   0.000000   0.000000
    15  H   -0.001576  -0.000092   0.439639  -0.000081   0.000000   0.000000
    16  H    0.000007  -0.000090  -0.000081   0.397149   0.000000  -0.000015
    17  H    0.000000   0.000000   0.000000   0.000000   0.472815  -0.019254
    18  H    0.000000   0.000000   0.000000  -0.000015  -0.019254   0.478630
    19  H    0.000000   0.000000   0.000000  -0.000008  -0.022714  -0.022928
    20  H   -0.000003   0.002686   0.000000  -0.000042   0.000006  -0.000001
    21  H    0.000002   0.000030   0.000000   0.000378   0.000003  -0.000009
    22  H    0.000000   0.000026   0.000000  -0.000048   0.000065  -0.000077
             19         20         21         22
     1  C    0.000000   0.000262  -0.000060   0.000000
     2  C    0.000001  -0.000758   0.001290   0.000655
     3  C    0.000000  -0.000020   0.000001  -0.000006
     4  C   -0.000006   0.003348  -0.002740   0.000376
     5  C    0.000012  -0.060409  -0.039378   0.001461
     6  C    0.000000  -0.000016   0.000027  -0.000006
     7  C   -0.039059   0.002292  -0.000648  -0.015227
     8  C    0.374583  -0.000030   0.000395   0.000405
     9  C    0.000029   0.416873   0.407521  -0.021964
    10  N    0.005325  -0.041519  -0.041633   0.317297
    11  O    0.002489   0.000396   0.008051   0.002154
    12  Cl   0.000000   0.000002  -0.000001   0.000000
    13  H    0.000000  -0.000003   0.000002   0.000000
    14  H    0.000000   0.002686   0.000030   0.000026
    15  H    0.000000   0.000000   0.000000   0.000000
    16  H   -0.000008  -0.000042   0.000378  -0.000048
    17  H   -0.022714   0.000006   0.000003   0.000065
    18  H   -0.022928  -0.000001  -0.000009  -0.000077
    19  H    0.532563  -0.000024  -0.000024   0.001186
    20  H   -0.000024   0.509925  -0.019581  -0.001670
    21  H   -0.000024  -0.019581   0.441446   0.002891
    22  H    0.001186  -0.001670   0.002891   0.327859
 Mulliken atomic charges:
              1
     1  C   -0.192009
     2  C   -0.229977
     3  C   -0.185458
     4  C   -0.205612
     5  C    0.027346
     6  C   -0.130971
     7  C    0.762992
     8  C   -0.576627
     9  C   -0.165351
    10  N   -0.791177
    11  O   -0.629673
    12  Cl  -0.008023
    13  H    0.212403
    14  H    0.203883
    15  H    0.230557
    16  H    0.271609
    17  H    0.212701
    18  H    0.209863
    19  H    0.168574
    20  H    0.188286
    21  H    0.242040
    22  H    0.384624
 Sum of Mulliken atomic charges =   0.00000
 Mulliken charges with hydrogens summed into heavy atoms:
              1
     1  C    0.020394
     2  C   -0.026094
     3  C    0.045099
     4  C    0.065997
     5  C    0.027346
     6  C   -0.130971
     7  C    0.762992
     8  C    0.014511
     9  C    0.264975
    10  N   -0.406553
    11  O   -0.629673
    12  Cl  -0.008023
 Sum of Mulliken charges with hydrogens summed into heavy atoms =   0.00000
 DipInt: DoE/N= T F RetVal/Mat= T F Init=T NMatP=  1 IDeriv=0 Min/MaxMlt=  0  4
 Entering OneElI...
 OneElI was handed    33445144 working-precision words.
 Multipole integrals L=0 to 4 MinM= 0 MaxM= 0.
 Requested accuracy = 0.1000D-12
 PrsmSu:  NPrtUS=   1 ThrOK=F IAlg=1 NPAlg=1 LenDen=           0.
 Prism:   IPart=     0 DynPar=F LinDyn=F Incr=          21.
 PRISM was handed    33247872 working-precision words and  2127 shell-pairs
 IPart=  0 NShTot=        2127 NBatch=          61 AvBLen=        34.9
 PrSmSu:  NxtVal=             22.
 Electronic moments (au):
        -96.00000000         -0.42758536          1.64088912          1.20164378
      -2010.72954196       -756.66731806       -185.46594781          0.04966968
         -5.19228089         -1.39961283       2207.55281542       -214.59125342
        -34.16639851      -1303.21564455       1865.44226098       -954.43149810
        522.86681282         44.38671349        -18.77781040       -287.57885319
     -69146.71602806     -12363.65158936      -1281.31866411      -4107.06314855
       4265.53273196       1357.68845861       -123.99402412        469.88185216
        159.70164139     -14445.22141905      -5233.73591024      -1196.70642301
        334.48778264       -508.41558206       -884.79787407
 Electronic spatial extent (au):  <R**2>=           2952.8628
 DipInt: DoE/N= F T RetVal/Mat= T F Init=T NMatP=  1 IDeriv=0 Min/MaxMlt=  0  4
 Nuclear    moments (au):
         96.00000000          0.00000000          0.00000000          0.00000000
       1956.45074655        700.47727419        126.24910805          0.00000000
          0.00000000          0.00000000      -2232.61093585        228.24927919
         34.80528811       1302.12650735      -1841.88519852       1003.55504917
       -533.41211964        -45.01966122         29.02515980        303.91208686
      62509.27255273       9882.45190819        635.88337195       4198.04789911
      -4370.00503308      -1388.55214456        140.20410008       -490.29731358
       -156.50502161      12830.30843440       3918.57483705        631.95049286
       -356.68794263        489.78768873        831.68712599
 Total      moments (au):
          0.00000000         -0.42758536          1.64088912          1.20164378
        -54.27879541        -56.19004387        -59.21683977          0.04966968
         -5.19228089         -1.39961283        -25.05812043         13.65802578
          0.63888960         -1.08913720         23.55706246         49.12355107
        -10.54530682         -0.63294773         10.24734940         16.33323367
      -6637.44347533      -2481.19968118       -645.43529216         90.98475056
       -104.47230112        -30.86368595         16.21007596        -20.41546141
          3.19661978      -1614.91298465      -1315.16107319       -564.75593015
        -22.20015999        -18.62789334        -53.11074808
 Traceless Quadrup. (au):
          2.28309761          0.37184914         -2.65494675          0.04966968
         -5.19228089         -1.39961283
 Charge=              0.0000 electrons
 Dipole moment (field-independent basis, Debye):
    X=             -1.0868    Y=              4.1707    Z=              3.0543  Tot=              5.2825
 Quadrupole moment (field-independent basis, Debye-Ang):
   XX=            -73.0068   YY=            -75.5775   ZZ=            -79.6487
   XY=              0.0668   XZ=             -6.9838   YZ=             -1.8825
 Traceless Quadrupole moment (field-independent basis, Debye-Ang):
   XX=              3.0708   YY=              0.5001   ZZ=             -3.5710
   XY=              0.0668   XZ=             -6.9838   YZ=             -1.8825
 Octapole moment (field-independent basis, Debye-Ang**2):
  XXX=            -17.8354  YYY=              9.7213  ZZZ=              0.4547  XYY=             -0.7752
  XXY=             16.7670  XXZ=             34.9642  XZZ=             -7.5057  YZZ=             -0.4505
  YYZ=              7.2937  XYZ=             11.6254
 Hexadecapole moment (field-independent basis, Debye-Ang**3):
 XXXX=          -2499.9793 YYYY=           -934.5387 ZZZZ=           -243.1019 XXXY=             34.2692
 XXXZ=            -39.3493 YYYX=            -11.6247 YYYZ=              6.1055 ZZZX=             -7.6894
 ZZZY=              1.2040 XXYY=           -608.2536 XXZZ=           -495.3527 YYZZ=           -212.7142
 XXYZ=             -8.3616 YYXZ=             -7.0162 ZZXY=            -20.0041
 N-N= 7.361534090374D+02 E-N=-3.677989627654D+03  KE= 9.340875720372D+02
 Entering OneElI...
 OneElI was handed    33361158 working-precision words.
 Calculate electrostatic properties
    NBasis =   204  MinDer = 0  MaxDer = 0
    NGrid  =    22  NMatD  =   1
 Requested accuracy = 0.1000D-12
 PrsmSu:  NPrtUS=   2 ThrOK=T IAlg=1 NPAlg=1 LenDen=           0.
 Prism:   IPart=     0 DynPar=F LinDyn=F Incr=         214.
 PRISM was handed    16557600 working-precision words and  1947 shell-pairs
 PRISM was handed    16557600 working-precision words and  1947 shell-pairs
 IPart=  0 NShTot=       21648 NBatch=         984 AvBLen=        22.0
 IPart=  1 NShTot=       21186 NBatch=         963 AvBLen=        22.0
 PrSmSu:  NxtVal=            429.
 --------------------------------------------------------
       Center         ----      EFG at Nuclei      ----
                      3XX-RR        3YY-RR        3ZZ-RR
 --------------------------------------------------------
     1   Atom        0.138863      0.149913     -0.288777
     2   Atom        0.143015      0.115457     -0.258472
     3   Atom        0.097119      0.156970     -0.254089
     4   Atom        0.087849      0.175552     -0.263401
     5   Atom        0.104801      0.189234     -0.294035
     6   Atom        0.266551     -0.204707     -0.061844
     7   Atom       -0.218660      0.022509      0.196151
     8   Atom        0.002886      0.023637     -0.026523
     9   Atom       -0.086895      0.087570     -0.000674
    10   Atom        0.387947     -0.119311     -0.268635
    11   Atom        0.237943      0.343701     -0.581644
    12   Atom        1.110633     -2.870514      1.759881
    13   Atom       -0.007000     -0.121665      0.128666
    14   Atom        0.081467     -0.245411      0.163944
    15   Atom       -0.261523      0.129262      0.132261
    16   Atom       -0.001564     -0.122055      0.123618
    17   Atom       -0.196828      0.123693      0.073135
    18   Atom        0.078011     -0.147687      0.069676
    19   Atom        0.139012     -0.064092     -0.074920
    20   Atom        0.125595     -0.271312      0.145717
    21   Atom        0.121586      0.075373     -0.196959
    22   Atom        0.202274      0.071967     -0.274241
 --------------------------------------------------------
                        XY            XZ            YZ
 --------------------------------------------------------
     1   Atom       -0.040848      0.140680      0.051038
     2   Atom        0.006497      0.134106      0.053023
     3   Atom       -0.045837      0.113351      0.045082
     4   Atom       -0.008748      0.122529      0.061406
     5   Atom        0.004393      0.122812      0.069506
     6   Atom        0.215288      0.143962      0.052277
     7   Atom        0.245254     -0.344225      0.179670
     8   Atom       -0.012072      0.053648      0.011021
     9   Atom       -0.068633      0.167118      0.157939
    10   Atom       -0.582957      0.470308     -0.290246
    11   Atom        1.050404     -0.451557     -0.698574
    12   Atom        1.905424      0.060934     -0.034055
    13   Atom       -0.199324     -0.077997     -0.097646
    14   Atom        0.153964     -0.005938     -0.005889
    15   Atom        0.073549     -0.120509      0.017474
    16   Atom       -0.190298     -0.075799     -0.097776
    17   Atom       -0.102544     -0.154764     -0.043259
    18   Atom        0.142719     -0.067511      0.155040
    19   Atom        0.038658      0.054030     -0.216280
    20   Atom        0.071634     -0.000852      0.039887
    21   Atom       -0.034421     -0.063854     -0.157092
    22   Atom       -0.009496      0.073274     -0.233688
 --------------------------------------------------------


 ---------------------------------------------------------------------------------
              Nuclear Quadrupole in Principal Axis System
 ---------------------------------------------------------------------------------

       Atom             a.u.   MegaHertz   Gauss  10(-4) cm-1        Axes

              Baa    -0.3384   -45.416   -16.206   -15.149 -0.2903 -0.1235  0.9490
     1 C(13)  Bbb     0.1422    19.084     6.809     6.366  0.4776  0.8406  0.2555
              Bcc     0.1962    26.333     9.396     8.784  0.8292 -0.5274  0.1850
 
              Baa    -0.3048   -40.906   -14.596   -13.645 -0.2834 -0.1157  0.9520
     2 C(13)  Bbb     0.1145    15.362     5.482     5.124 -0.3159  0.9485  0.0213
              Bcc     0.1904    25.544     9.115     8.521  0.9055  0.2947  0.3054
 
              Baa    -0.2945   -39.523   -14.103   -13.183 -0.2892 -0.1241  0.9492
     3 C(13)  Bbb     0.1121    15.038     5.366     5.016  0.8034  0.5076  0.3112
              Bcc     0.1825    24.485     8.737     8.167 -0.5205  0.8526 -0.0471
 
              Baa    -0.3096   -41.551   -14.826   -13.860 -0.2948 -0.1252  0.9473
     4 C(13)  Bbb     0.1247    16.729     5.969     5.580  0.9476 -0.1664  0.2729
              Bcc     0.1850    24.822     8.857     8.280  0.1234  0.9781  0.1677
 
              Baa    -0.3370   -45.227   -16.138   -15.086 -0.2646 -0.1241  0.9563
     5 C(13)  Bbb     0.1316    17.656     6.300     5.890  0.9211 -0.3263  0.2125
              Bcc     0.2055    27.570     9.838     9.196  0.2857  0.9371  0.2006
 
              Baa    -0.2883   -38.688   -13.805   -12.905 -0.3656  0.9306  0.0176
     6 C(13)  Bbb    -0.1125   -15.092    -5.385    -5.034 -0.2864 -0.1305  0.9492
              Bcc     0.4008    53.780    19.190    17.939  0.8856  0.3420  0.3142
 
              Baa    -0.5679   -76.204   -27.191   -25.419  0.7663 -0.4561  0.4525
     7 C(13)  Bbb     0.1723    23.125     8.252     7.714  0.4658  0.8795  0.0975
              Bcc     0.3955    53.079    18.940    17.705 -0.4425  0.1360  0.8864
 
              Baa    -0.0702    -9.421    -3.362    -3.142 -0.6012 -0.1691  0.7810
     8 C(13)  Bbb     0.0259     3.480     1.242     1.161  0.0245  0.9730  0.2295
              Bcc     0.0443     5.941     2.120     1.982  0.7987 -0.1571  0.5808
 
              Baa    -0.2811   -37.726   -13.462   -12.584  0.6756  0.3930 -0.6238
     9 C(13)  Bbb     0.0637     8.544     3.049     2.850  0.7067 -0.5865  0.3958
              Bcc     0.2175    29.182    10.413     9.734  0.2103  0.7083  0.6739
 
              Baa    -0.5187   -20.003    -7.138    -6.672 -0.6003 -0.3558  0.7162
    10 N(14)  Bbb    -0.4903   -18.910    -6.748    -6.308  0.2168  0.7897  0.5740
              Bcc     1.0090    38.914    13.885    12.980  0.7698 -0.4998  0.3969
 
              Baa    -0.9786    70.814    25.268    23.621 -0.2121  0.5829  0.7844
    11 O(17)  Bbb    -0.6654    48.151    17.182    16.061  0.7468 -0.4210  0.5148
              Bcc     1.6441  -118.965   -42.450   -39.682  0.6303  0.6950 -0.3460
 
              Baa    -3.6360  -190.301   -67.904   -63.478 -0.3726  0.9279  0.0101
    12 Cl(35) Bbb     1.7456    91.362    32.600    30.475 -0.2931 -0.1280  0.9475
              Bcc     1.8904    98.939    35.304    33.003  0.8805  0.3501  0.3197
 
              Baa    -0.3075  -164.077   -58.547   -54.730  0.5800  0.7667  0.2753
    13 H(1)   Bbb     0.1425    76.050    27.136    25.367  0.7623 -0.6300  0.1485
              Bcc     0.1650    88.027    31.410    29.363 -0.2873 -0.1238  0.9498
 
              Baa    -0.3065  -163.551   -58.359   -54.555 -0.3687  0.9295  0.0070
    14 H(1)   Bbb     0.1401    74.745    26.671    24.932  0.8856  0.3490  0.3066
              Bcc     0.1664    88.807    31.688    29.623 -0.2825 -0.1192  0.9518
 
              Baa    -0.3085  -164.605   -58.735   -54.906  0.9488 -0.1700  0.2662
    15 H(1)   Bbb     0.1419    75.713    27.016    25.255  0.1284  0.9776  0.1668
              Bcc     0.1666    88.892    31.719    29.651 -0.2885 -0.1241  0.9494
 
              Baa    -0.2977  -158.848   -56.681   -52.986  0.5687  0.7728  0.2817
    16 H(1)   Bbb     0.1373    73.274    26.146    24.442  0.7737 -0.6188  0.1359
              Bcc     0.1604    85.574    30.535    28.544 -0.2794 -0.1406  0.9498
 
              Baa    -0.2967  -158.279   -56.478   -52.796  0.8807  0.2559  0.3985
    17 H(1)   Bbb     0.1427    76.123    27.162    25.392 -0.3332 -0.2632  0.9054
              Bcc     0.1540    82.156    29.315    27.404 -0.3366  0.9302  0.1466
 
              Baa    -0.2951  -157.437   -56.178   -52.515 -0.3895  0.8195 -0.4204
    18 H(1)   Bbb     0.1414    75.422    26.912    25.158  0.7843  0.0559 -0.6178
              Bcc     0.1537    82.015    29.265    27.357  0.4828  0.5704  0.6645
 
              Baa    -0.2958  -157.813   -56.312   -52.641 -0.1494  0.6879  0.7102
    19 H(1)   Bbb     0.1379    73.576    26.254    24.542  0.6613  0.6035 -0.4454
              Bcc     0.1579    84.237    30.058    28.098  0.7351 -0.4031  0.5451
 
              Baa    -0.2874  -153.362   -54.723   -51.156 -0.1704  0.9812 -0.0907
    20 H(1)   Bbb     0.1355    72.302    25.799    24.117  0.9095  0.1212 -0.3976
              Bcc     0.1519    81.060    28.924    27.039  0.3791  0.1502  0.9131
 
              Baa    -0.2817  -150.291   -53.627   -50.132  0.1767  0.4106  0.8945
    21 H(1)   Bbb     0.1330    70.963    25.321    23.671  0.9333  0.2187 -0.2847
              Bcc     0.1487    79.328    28.306    26.461 -0.3125  0.8852 -0.3446
 
              Baa    -0.3982  -212.470   -75.814   -70.872 -0.1018  0.4411  0.8917
    22 H(1)   Bbb     0.1568    83.672    29.856    27.910  0.6198  0.7292 -0.2900
              Bcc     0.2414   128.797    45.958    42.962  0.7781 -0.5231  0.3477
 

 ---------------------------------------------------------------------------------

 No NMR shielding tensors so no spin-rotation constants.
 Leave Link  601 at Sat Feb 17 20:56:28 2018, MaxMem=   33554432 cpu:       0.5
 Merz-Kollman atomic radii used.
 Read replacement radii for each type of atom:
 Atom Element Radius
    1     6    1.50
    2     6    1.50
    3     6    1.50
    4     6    1.50
    5     6    1.50
    6     6    1.50
    7     6    1.50
    8     6    1.50
    9     6    1.50
   10     7    1.50
   11     8    1.40
   12    17    1.70
   13     1    1.20
   14     1    1.20
   15     1    1.20
   16     1    1.20
   17     1    1.20
   18     1    1.20
   19     1    1.20
   20     1    1.20
   21     1    1.20
   22     1    1.20
 Generate VDW surfaces: Layer= 4 Dens= 1 Start= 1.400 Inc= 0.200

 **********************************************************************

            Electrostatic Properties Using The SCF Density

 **********************************************************************

       Atomic Center    1 is at   2.251891  1.945292  0.414098
       Atomic Center    2 is at   0.924998  2.171554  0.040909
       Atomic Center    3 is at   2.776546  0.654361  0.407098
       Atomic Center    4 is at   0.628146 -0.193566 -0.360901
       Atomic Center    5 is at   0.105075  1.108095 -0.347251
       Atomic Center    6 is at   1.950802 -0.401844  0.016943
       Atomic Center    7 is at  -2.880403 -0.450923  0.000823
       Atomic Center    8 is at  -3.804728 -0.925008  1.112003
       Atomic Center    9 is at  -1.342347  1.339517 -0.745152
       Atomic Center   10 is at  -2.308048  0.778638  0.194916
       Atomic Center   11 is at  -2.673142 -1.125118 -1.001924
       Atomic Center   12 is at   2.604579 -2.036815 -0.002547
       Atomic Center   13 is at   2.882618  2.778006  0.713017
       Atomic Center   14 is at   0.526668  3.183527  0.047968
       Atomic Center   15 is at   3.805084  0.464649  0.694628
       Atomic Center   16 is at   0.003561 -1.025963 -0.669187
       Atomic Center   17 is at  -4.764775 -1.207578  0.670844
       Atomic Center   18 is at  -3.377675 -1.824306  1.567732
       Atomic Center   19 is at  -3.976646 -0.178356  1.893662
       Atomic Center   20 is at  -1.535153  2.413306 -0.845764
       Atomic Center   21 is at  -1.553637  0.864719 -1.706716
       Atomic Center   22 is at  -2.406309  1.223467  1.096670
      ESP Fit Center   23 is at   2.251891  1.945292  2.514098
      ESP Fit Center   24 is at   3.301891  1.945292  2.232752
      ESP Fit Center   25 is at   1.726891  2.854619  2.232752
      ESP Fit Center   26 is at   1.201891  1.945292  2.232752
      ESP Fit Center   27 is at   1.726891  1.035965  2.232752
      ESP Fit Center   28 is at   4.070544  1.945292 -0.635902
      ESP Fit Center   29 is at   3.301891  1.945292 -1.404555
      ESP Fit Center   30 is at   2.776891  2.854619 -1.404555
      ESP Fit Center   31 is at   2.251891  1.945292 -1.685902
      ESP Fit Center   32 is at   0.924998  2.171554  2.140909
      ESP Fit Center   33 is at   0.399998  3.080881  1.859562
      ESP Fit Center   34 is at  -0.125002  2.171554  1.859562
      ESP Fit Center   35 is at   0.399998  1.262228  1.859562
      ESP Fit Center   36 is at  -0.819987  2.683928  1.090909
      ESP Fit Center   37 is at   1.680494  3.825860 -1.009091
      ESP Fit Center   38 is at   1.974998  2.171554 -1.777745
      ESP Fit Center   39 is at   1.449998  3.080881 -1.777745
      ESP Fit Center   40 is at   0.399998  3.080881 -1.777745
      ESP Fit Center   41 is at   0.924998  2.171554 -2.059091
      ESP Fit Center   42 is at   2.776546  0.654361  2.507098
      ESP Fit Center   43 is at   3.301546  1.563688  2.225752
      ESP Fit Center   44 is at   1.726546  0.654361  2.225752
      ESP Fit Center   45 is at   2.251546 -0.254965  2.225752
      ESP Fit Center   46 is at   3.301546 -0.254965  2.225752
      ESP Fit Center   47 is at   4.306495  1.637600 -0.642902
      ESP Fit Center   48 is at   3.826546  0.654361 -1.411555
      ESP Fit Center   49 is at   3.301546  1.563688 -1.411555
      ESP Fit Center   50 is at   2.776546  0.654361 -1.692902
      ESP Fit Center   51 is at   0.628146 -0.193566  1.739099
      ESP Fit Center   52 is at  -0.421854 -0.193566  1.457752
      ESP Fit Center   53 is at   0.103146 -1.102893  1.457752
      ESP Fit Center   54 is at   1.678146 -0.193566 -2.179554
      ESP Fit Center   55 is at   1.153146  0.715761 -2.179554
      ESP Fit Center   56 is at   1.153146 -1.102893 -2.179554
      ESP Fit Center   57 is at   0.628146 -0.193566 -2.460901
      ESP Fit Center   58 is at   0.105075  1.108095  1.752749
      ESP Fit Center   59 is at  -0.419925  0.198769  1.471403
      ESP Fit Center   60 is at   1.155075  1.108095 -2.165904
      ESP Fit Center   61 is at   0.630075  2.017422 -2.165904
      ESP Fit Center   62 is at   0.105075  1.108095 -2.447251
      ESP Fit Center   63 is at   1.950802 -0.401844  2.116943
      ESP Fit Center   64 is at   0.900802 -0.401844  1.835596
      ESP Fit Center   65 is at   3.000802 -0.401844 -1.801711
      ESP Fit Center   66 is at   2.475802  0.507482 -1.801711
      ESP Fit Center   67 is at   1.950802 -0.401844 -2.083057
      ESP Fit Center   68 is at  -1.350454 -1.434161  1.050823
      ESP Fit Center   69 is at  -4.452275  0.941635  0.000823
      ESP Fit Center   70 is at  -4.071368  0.923524 -1.049177
      ESP Fit Center   71 is at  -4.625388  0.061451 -1.049177
      ESP Fit Center   72 is at  -2.754728 -0.925008  2.930656
      ESP Fit Center   73 is at  -1.986075 -0.925008  2.162003
      ESP Fit Center   74 is at  -5.549713 -1.437382  2.162003
      ESP Fit Center   75 is at  -4.995693 -2.299455  2.162003
      ESP Fit Center   76 is at  -5.376601  0.467549  1.112003
      ESP Fit Center   77 is at  -4.995693  0.449438  0.062003
      ESP Fit Center   78 is at  -4.063549 -2.725151  0.062003
      ESP Fit Center   79 is at  -3.087332  1.851891 -1.795152
      ESP Fit Center   80 is at  -0.817347  2.248844 -2.563805
      ESP Fit Center   81 is at  -1.783048 -0.130689  2.013570
      ESP Fit Center   82 is at  -0.778099 -0.204600  1.244916
      ESP Fit Center   83 is at  -3.052718  2.742172  0.194916
      ESP Fit Center   84 is at  -3.879920  2.171195  0.194916
      ESP Fit Center   85 is at  -4.347026  1.281201  0.194916
      ESP Fit Center   86 is at  -3.499012  2.153084 -0.855084
      ESP Fit Center   87 is at  -4.053033  1.291012 -0.855084
      ESP Fit Center   88 is at  -3.197670 -2.739451 -0.021924
      ESP Fit Center   89 is at  -2.148614 -2.739451 -0.021924
      ESP Fit Center   90 is at  -1.299909 -2.122831 -0.021924
      ESP Fit Center   91 is at  -4.370552 -2.105118 -1.001924
      ESP Fit Center   92 is at  -3.653142 -2.822528 -1.001924
      ESP Fit Center   93 is at  -2.673142 -3.085118 -1.001924
      ESP Fit Center   94 is at  -1.693142 -2.822528 -1.001924
      ESP Fit Center   95 is at  -3.197670  0.489214 -1.981924
      ESP Fit Center   96 is at  -4.046375 -0.127406 -1.981924
      ESP Fit Center   97 is at  -4.370552 -1.125118 -1.981924
      ESP Fit Center   98 is at  -4.046375 -2.122831 -1.981924
      ESP Fit Center   99 is at  -3.197670 -2.739451 -1.981924
      ESP Fit Center  100 is at  -2.148614 -2.739451 -1.981924
      ESP Fit Center  101 is at  -1.299909 -2.122831 -1.981924
      ESP Fit Center  102 is at  -1.693142 -1.125118 -2.699334
      ESP Fit Center  103 is at  -3.163142 -0.276413 -2.699334
      ESP Fit Center  104 is at  -3.653142 -1.125118 -2.699334
      ESP Fit Center  105 is at  -3.163142 -1.973823 -2.699334
      ESP Fit Center  106 is at  -2.183142 -1.973823 -2.699334
      ESP Fit Center  107 is at  -2.673142 -1.125118 -2.961924
      ESP Fit Center  108 is at   2.604579 -2.036815  2.377453
      ESP Fit Center  109 is at   3.637223 -2.036815  2.141759
      ESP Fit Center  110 is at   3.120901 -1.142520  2.141759
      ESP Fit Center  111 is at   2.088258 -1.142520  2.141759
      ESP Fit Center  112 is at   1.571936 -2.036815  2.141759
      ESP Fit Center  113 is at   2.088258 -2.931111  2.141759
      ESP Fit Center  114 is at   3.120901 -2.931111  2.141759
      ESP Fit Center  115 is at   4.465338 -2.036815  1.481359
      ESP Fit Center  116 is at   0.743820 -2.036815  1.481359
      ESP Fit Center  117 is at   1.099194 -3.130542  1.481359
      ESP Fit Center  118 is at   2.029573 -3.806502  1.481359
      ESP Fit Center  119 is at   3.179585 -3.806502  1.481359
      ESP Fit Center  120 is at   4.109965 -3.130542  1.481359
      ESP Fit Center  121 is at   4.924908 -2.036815  0.527053
      ESP Fit Center  122 is at   0.351675 -2.592106  0.527053
      ESP Fit Center  123 is at   0.867789 -3.575478  0.527053
      ESP Fit Center  124 is at   1.781780 -4.206360  0.527053
      ESP Fit Center  125 is at   2.884264 -4.340226  0.527053
      ESP Fit Center  126 is at   3.922676 -3.946408  0.527053
      ESP Fit Center  127 is at   4.659128 -3.115126  0.527053
      ESP Fit Center  128 is at   4.924908 -2.036815 -0.532146
      ESP Fit Center  129 is at   4.659128 -0.958505 -0.532146
      ESP Fit Center  130 is at   0.867789 -3.575478 -0.532146
      ESP Fit Center  131 is at   1.781780 -4.206360 -0.532146
      ESP Fit Center  132 is at   2.884264 -4.340226 -0.532146
      ESP Fit Center  133 is at   3.922676 -3.946408 -0.532146
      ESP Fit Center  134 is at   4.659128 -3.115126 -0.532146
      ESP Fit Center  135 is at   4.465338 -2.036815 -1.486452
      ESP Fit Center  136 is at   4.109965 -0.943089 -1.486452
      ESP Fit Center  137 is at   1.099194 -3.130542 -1.486452
      ESP Fit Center  138 is at   2.029573 -3.806502 -1.486452
      ESP Fit Center  139 is at   3.179585 -3.806502 -1.486452
      ESP Fit Center  140 is at   4.109965 -3.130542 -1.486452
      ESP Fit Center  141 is at   3.637223 -2.036815 -2.146853
      ESP Fit Center  142 is at   3.120901 -1.142520 -2.146853
      ESP Fit Center  143 is at   2.088258 -1.142520 -2.146853
      ESP Fit Center  144 is at   1.571936 -2.036815 -2.146853
      ESP Fit Center  145 is at   2.088258 -2.931111 -2.146853
      ESP Fit Center  146 is at   3.120901 -2.931111 -2.146853
      ESP Fit Center  147 is at   2.604579 -2.036815 -2.382547
      ESP Fit Center  148 is at   2.882618  2.778006  2.393017
      ESP Fit Center  149 is at   3.870097  2.778006  2.072166
      ESP Fit Center  150 is at   3.187766  3.717154  2.072166
      ESP Fit Center  151 is at   2.083731  3.358431  2.072166
      ESP Fit Center  152 is at   4.480393  2.778006  1.232166
      ESP Fit Center  153 is at   4.106585  3.805036  1.232166
      ESP Fit Center  154 is at   3.160069  4.351507  1.232166
      ESP Fit Center  155 is at   2.083731  4.161719  1.232166
      ESP Fit Center  156 is at   4.480393  2.778006  0.193869
      ESP Fit Center  157 is at   4.106585  3.805036  0.193869
      ESP Fit Center  158 is at   3.160069  4.351507  0.193869
      ESP Fit Center  159 is at   2.083731  4.161719  0.193869
      ESP Fit Center  160 is at   3.870097  2.778006 -0.646131
      ESP Fit Center  161 is at   3.187766  3.717154 -0.646131
      ESP Fit Center  162 is at   0.831816  4.122675  1.407117
      ESP Fit Center  163 is at  -0.272220  3.763952  1.407117
      ESP Fit Center  164 is at   1.750635  4.210557  0.567117
      ESP Fit Center  165 is at   0.804119  4.757028  0.567117
      ESP Fit Center  166 is at  -0.272220  4.567240  0.567117
      ESP Fit Center  167 is at  -0.974749  3.729998  0.567117
      ESP Fit Center  168 is at   1.750635  4.210557 -0.471180
      ESP Fit Center  169 is at   0.804119  4.757028 -0.471180
      ESP Fit Center  170 is at  -0.272220  4.567240 -0.471180
      ESP Fit Center  171 is at   0.831816  4.122675 -1.311180
      ESP Fit Center  172 is at  -0.272220  3.763952 -1.311180
      ESP Fit Center  173 is at   3.805084  0.464649  2.374628
      ESP Fit Center  174 is at   4.792563  0.464649  2.053776
      ESP Fit Center  175 is at   4.110231  1.403798  2.053776
      ESP Fit Center  176 is at   4.110231 -0.474499  2.053776
      ESP Fit Center  177 is at   5.402859  0.464649  1.213776
      ESP Fit Center  178 is at   5.029050  1.491679  1.213776
      ESP Fit Center  179 is at   5.029050 -0.562381  1.213776
      ESP Fit Center  180 is at   5.402859  0.464649  0.175479
      ESP Fit Center  181 is at   5.029050  1.491679  0.175479
      ESP Fit Center  182 is at   5.029050 -0.562381  0.175479
      ESP Fit Center  183 is at   4.792563  0.464649 -0.664521
      ESP Fit Center  184 is at  -0.795327 -1.606389  0.689961
      ESP Fit Center  185 is at  -0.795327 -2.409677 -0.150039
      ESP Fit Center  186 is at   0.281011 -2.599464 -0.150039
      ESP Fit Center  187 is at  -0.795327 -2.409677 -1.188336
      ESP Fit Center  188 is at   0.281011 -2.599464 -1.188336
      ESP Fit Center  189 is at  -0.795327 -1.606389 -2.028336
      ESP Fit Center  190 is at   0.308709 -1.965112 -2.028336
      ESP Fit Center  191 is at   0.003561 -1.025963 -2.349187
      ESP Fit Center  192 is at  -5.563663 -1.788003  2.029992
      ESP Fit Center  193 is at  -6.266193 -0.661106  1.189992
      ESP Fit Center  194 is at  -6.266193 -1.754049  1.189992
      ESP Fit Center  195 is at  -5.563663 -2.591291  1.189992
      ESP Fit Center  196 is at  -5.563663  0.176136  0.151695
      ESP Fit Center  197 is at  -6.266193 -0.661106  0.151695
      ESP Fit Center  198 is at  -6.266193 -1.754049  0.151695
      ESP Fit Center  199 is at  -5.563663 -2.591291  0.151695
      ESP Fit Center  200 is at  -4.487325 -2.781079  0.151695
      ESP Fit Center  201 is at  -5.563663 -0.627152 -0.688305
      ESP Fit Center  202 is at  -5.563663 -1.788003 -0.688305
      ESP Fit Center  203 is at  -4.459628 -2.146726 -0.688305
      ESP Fit Center  204 is at  -4.764775 -1.207578 -1.009156
      ESP Fit Center  205 is at  -3.377675 -1.824306  3.247732
      ESP Fit Center  206 is at  -2.390196 -1.824306  2.926881
      ESP Fit Center  207 is at  -4.176563 -2.404731  2.926881
      ESP Fit Center  208 is at  -3.072527 -2.763454  2.926881
      ESP Fit Center  209 is at  -1.779900 -1.824306  2.086881
      ESP Fit Center  210 is at  -4.176563 -3.208019  2.086881
      ESP Fit Center  211 is at  -3.100225 -3.397807  2.086881
      ESP Fit Center  212 is at  -2.153709 -2.851335  2.086881
      ESP Fit Center  213 is at  -4.176563 -3.208019  1.048584
      ESP Fit Center  214 is at  -3.100225 -3.397807  1.048584
      ESP Fit Center  215 is at  -2.153709 -2.851335  1.048584
      ESP Fit Center  216 is at  -3.072527 -2.763454  0.208584
      ESP Fit Center  217 is at  -3.976646 -0.178356  3.573662
      ESP Fit Center  218 is at  -2.989167 -0.178356  3.252810
      ESP Fit Center  219 is at  -3.671498  0.760793  3.252810
      ESP Fit Center  220 is at  -4.775533  0.402070  3.252810
      ESP Fit Center  221 is at  -4.775533 -0.758781  3.252810
      ESP Fit Center  222 is at  -3.671498 -1.117504  3.252810
      ESP Fit Center  223 is at  -3.699195  1.395146  2.412810
      ESP Fit Center  224 is at  -4.775533  1.205358  2.412810
      ESP Fit Center  225 is at  -5.478063  0.368116  2.412810
      ESP Fit Center  226 is at  -5.478063 -0.724827  2.412810
      ESP Fit Center  227 is at  -4.775533  1.205358  1.374513
      ESP Fit Center  228 is at  -5.478063  0.368116  1.374513
      ESP Fit Center  229 is at  -1.230005  3.352455  0.513385
      ESP Fit Center  230 is at  -2.334040  2.993732  0.513385
      ESP Fit Center  231 is at  -1.257702  3.986807 -0.326615
      ESP Fit Center  232 is at  -2.334040  3.797020 -0.326615
      ESP Fit Center  233 is at  -3.036570  2.959778 -0.326615
      ESP Fit Center  234 is at  -1.257702  3.986807 -1.364912
      ESP Fit Center  235 is at  -2.334040  3.797020 -1.364912
      ESP Fit Center  236 is at  -3.036570  2.959778 -1.364912
      ESP Fit Center  237 is at  -1.230005  3.352455 -2.204912
      ESP Fit Center  238 is at  -2.334040  2.993732 -2.204912
      ESP Fit Center  239 is at  -3.055055  1.411190 -2.225865
      ESP Fit Center  240 is at  -0.566158  0.864719 -3.065865
      ESP Fit Center  241 is at  -1.248489  1.803868 -3.065865
      ESP Fit Center  242 is at  -2.352525  1.445145 -3.065865
      ESP Fit Center  243 is at  -2.352525  0.284293 -3.065865
      ESP Fit Center  244 is at  -1.248489 -0.074430 -3.065865
      ESP Fit Center  245 is at  -1.553637  0.864719 -3.386716
      ESP Fit Center  246 is at  -2.406309  1.223467  2.776670
      ESP Fit Center  247 is at  -1.418829  1.223467  2.455819
      ESP Fit Center  248 is at  -2.101161  2.162616  2.455819
      ESP Fit Center  249 is at  -3.205196  1.803893  2.455819
      ESP Fit Center  250 is at  -2.101161  0.284319  2.455819
      ESP Fit Center  251 is at  -0.808534  1.223467  1.615819
      ESP Fit Center  252 is at  -1.182342  2.250497  1.615819
      ESP Fit Center  253 is at  -2.128858  2.796969  1.615819
      ESP Fit Center  254 is at  -3.205196  2.607181  1.615819
      ESP Fit Center  255 is at  -3.907726  1.769939  1.615819
      ESP Fit Center  256 is at   2.251891  1.945292  2.814098
      ESP Fit Center  257 is at   3.293212  1.945292  2.576424
      ESP Fit Center  258 is at   1.731230  2.847102  2.576424
      ESP Fit Center  259 is at   1.210570  1.945292  2.576424
      ESP Fit Center  260 is at   1.731230  1.043482  2.576424
      ESP Fit Center  261 is at   3.830415  2.959748 -1.082277
      ESP Fit Center  262 is at   3.031374  3.652121 -1.082277
      ESP Fit Center  263 is at   3.293212  1.945292 -1.748227
      ESP Fit Center  264 is at   2.772551  2.847102 -1.748227
      ESP Fit Center  265 is at   2.251891  1.945292 -1.985902
      ESP Fit Center  266 is at   0.924998  2.171554  2.440909
      ESP Fit Center  267 is at   0.404338  3.073365  2.203234
      ESP Fit Center  268 is at  -0.116323  2.171554  2.203234
      ESP Fit Center  269 is at   0.404338  1.269744  2.203234
      ESP Fit Center  270 is at  -0.875390  2.700196  1.537284
      ESP Fit Center  271 is at   1.704481  3.878384 -1.455467
      ESP Fit Center  272 is at   1.966319  2.171554 -2.121417
      ESP Fit Center  273 is at   1.445659  3.073365 -2.121417
      ESP Fit Center  274 is at   0.404338  3.073365 -2.121417
      ESP Fit Center  275 is at   0.924998  2.171554 -2.359091
      ESP Fit Center  276 is at   2.776546  0.654361  2.807098
      ESP Fit Center  277 is at   3.297207  1.556172  2.569424
      ESP Fit Center  278 is at   1.735225  0.654361  2.569424
      ESP Fit Center  279 is at   2.255886 -0.247449  2.569424
      ESP Fit Center  280 is at   3.297207 -0.247449  2.569424
      ESP Fit Center  281 is at   4.652942  0.654361 -1.089277
      ESP Fit Center  282 is at   4.355071  1.668817 -1.089277
      ESP Fit Center  283 is at   3.817867  0.654361 -1.755227
      ESP Fit Center  284 is at   3.297207  1.556172 -1.755227
      ESP Fit Center  285 is at   2.776546  0.654361 -1.992902
      ESP Fit Center  286 is at   0.628146 -0.193566  2.039099
      ESP Fit Center  287 is at  -0.413175 -0.193566  1.801424
      ESP Fit Center  288 is at   0.107486 -1.095376  1.801424
      ESP Fit Center  289 is at  -0.600631 -1.611651  1.135475
      ESP Fit Center  290 is at   1.669467 -0.193566 -2.523226
      ESP Fit Center  291 is at   1.148807  0.708244 -2.523226
      ESP Fit Center  292 is at   1.148807 -1.095376 -2.523226
      ESP Fit Center  293 is at   0.628146 -0.193566 -2.760901
      ESP Fit Center  294 is at   0.105075  1.108095  2.052749
      ESP Fit Center  295 is at  -0.415585  0.206285  1.815075
      ESP Fit Center  296 is at   1.146396  1.108095 -2.509576
      ESP Fit Center  297 is at   0.625736  2.009906 -2.509576
      ESP Fit Center  298 is at   0.105075  1.108095 -2.747251
      ESP Fit Center  299 is at   1.950802 -0.401844  2.416943
      ESP Fit Center  300 is at   0.909481 -0.401844  2.179268
      ESP Fit Center  301 is at   2.992123 -0.401844 -2.145382
      ESP Fit Center  302 is at   2.471462  0.499966 -2.145382
      ESP Fit Center  303 is at   1.950802 -0.401844 -2.383057
      ESP Fit Center  304 is at  -1.301878 -1.465379  1.497199
      ESP Fit Center  305 is at  -1.421545 -2.280273  0.534873
      ESP Fit Center  306 is at  -4.988514  0.564290 -0.533227
      ESP Fit Center  307 is at  -4.109181  0.967162 -1.495552
      ESP Fit Center  308 is at  -4.680791  0.077719 -1.495552
      ESP Fit Center  309 is at  -2.763407 -0.925008  3.274328
      ESP Fit Center  310 is at  -4.325389 -1.826819  3.274328
      ESP Fit Center  311 is at  -1.928333 -0.925008  2.608378
      ESP Fit Center  312 is at  -5.605116 -1.453650  2.608378
      ESP Fit Center  313 is at  -5.033506 -2.343094  2.608378
      ESP Fit Center  314 is at  -5.912839  0.090204  1.646053
      ESP Fit Center  315 is at  -5.263586  0.904342  0.577952
      ESP Fit Center  316 is at  -4.325389 -3.206171  0.577952
      ESP Fit Center  317 is at  -4.071767 -2.782305 -0.384373
      ESP Fit Center  318 is at  -3.450458  2.354730 -1.279202
      ESP Fit Center  319 is at  -3.142735  1.868159 -2.241527
      ESP Fit Center  320 is at  -0.821686  2.241328 -2.907477
      ESP Fit Center  321 is at  -1.787387 -0.123173  2.357242
      ESP Fit Center  322 is at  -0.729523 -0.235818  1.691292
      ESP Fit Center  323 is at  -3.766906  2.607988  0.728967
      ESP Fit Center  324 is at  -4.416159  1.793851  0.728967
      ESP Fit Center  325 is at  -3.766906  2.607988 -0.339134
      ESP Fit Center  326 is at  -4.416159  1.793851 -0.339134
      ESP Fit Center  327 is at  -3.536825  2.196723 -1.301459
      ESP Fit Center  328 is at  -4.108436  1.307280 -1.301459
      ESP Fit Center  329 is at  -2.131960 -2.790706  0.394693
      ESP Fit Center  330 is at  -3.447542 -3.167043 -0.503477
      ESP Fit Center  331 is at  -2.409909 -3.293034 -0.503477
      ESP Fit Center  332 is at  -1.432580 -2.922382 -0.503477
      ESP Fit Center  333 is at  -4.793522 -0.602492 -1.500371
      ESP Fit Center  334 is at  -4.793522 -1.647745 -1.500371
      ESP Fit Center  335 is at  -4.307769 -2.573271 -1.500371
      ESP Fit Center  336 is at  -3.447542 -3.167043 -1.500371
      ESP Fit Center  337 is at  -2.409909 -3.293034 -1.500371
      ESP Fit Center  338 is at  -1.432580 -2.922382 -1.500371
      ESP Fit Center  339 is at  -0.921840 -1.125118 -2.398542
      ESP Fit Center  340 is at  -4.089976 -0.095729 -2.398542
      ESP Fit Center  341 is at  -4.424445 -1.125118 -2.398542
      ESP Fit Center  342 is at  -4.089976 -2.154508 -2.398542
      ESP Fit Center  343 is at  -3.214324 -2.790706 -2.398542
      ESP Fit Center  344 is at  -2.131960 -2.790706 -2.398542
      ESP Fit Center  345 is at  -1.256309 -2.154508 -2.398542
      ESP Fit Center  346 is at  -1.701242 -1.125118 -3.020095
      ESP Fit Center  347 is at  -3.159092 -0.283429 -3.020095
      ESP Fit Center  348 is at  -3.645042 -1.125118 -3.020095
      ESP Fit Center  349 is at  -3.159092 -1.966808 -3.020095
      ESP Fit Center  350 is at  -2.187192 -1.966808 -3.020095
      ESP Fit Center  351 is at  -2.673142 -1.125118 -3.241924
      ESP Fit Center  352 is at   2.604579 -2.036815  2.717453
      ESP Fit Center  353 is at   3.645478 -2.036815  2.510406
      ESP Fit Center  354 is at   3.125029 -1.135371  2.510406
      ESP Fit Center  355 is at   2.084130 -1.135371  2.510406
      ESP Fit Center  356 is at   1.563680 -2.036815  2.510406
      ESP Fit Center  357 is at   2.084130 -2.938260  2.510406
      ESP Fit Center  358 is at   3.125029 -2.938260  2.510406
      ESP Fit Center  359 is at   4.527910 -2.036815  1.920784
      ESP Fit Center  360 is at   4.270232 -1.075150  1.920784
      ESP Fit Center  361 is at   0.681249 -2.036815  1.920784
      ESP Fit Center  362 is at   0.938926 -2.998481  1.920784
      ESP Fit Center  363 is at   1.642914 -3.702469  1.920784
      ESP Fit Center  364 is at   2.604579 -3.960146  1.920784
      ESP Fit Center  365 is at   3.566245 -3.702469  1.920784
      ESP Fit Center  366 is at   4.270232 -2.998481  1.920784
      ESP Fit Center  367 is at   5.117532 -2.036815  1.038352
      ESP Fit Center  368 is at   0.146541 -2.559288  1.038352
      ESP Fit Center  369 is at   0.571558 -3.513892  1.038352
      ESP Fit Center  370 is at   1.348103 -4.213096  1.038352
      ESP Fit Center  371 is at   2.341904 -4.536002  1.038352
      ESP Fit Center  372 is at   3.381124 -4.426775  1.038352
      ESP Fit Center  373 is at   4.286073 -3.904303  1.038352
      ESP Fit Center  374 is at   4.900275 -3.058925  1.038352
      ESP Fit Center  375 is at   5.324579 -2.036815 -0.002547
      ESP Fit Center  376 is at   5.140904 -1.054238 -0.002547
      ESP Fit Center  377 is at   0.291989 -3.468711 -0.002547
      ESP Fit Center  378 is at   0.965413 -4.207422 -0.002547
      ESP Fit Center  379 is at   1.860216 -4.652981 -0.002547
      ESP Fit Center  380 is at   2.855549 -4.745212 -0.002547
      ESP Fit Center  381 is at   3.816988 -4.471660 -0.002547
      ESP Fit Center  382 is at   4.614684 -3.869268 -0.002547
      ESP Fit Center  383 is at   5.140904 -3.019393 -0.002547
      ESP Fit Center  384 is at   5.117532 -2.036815 -1.043446
      ESP Fit Center  385 is at   4.900275 -1.014706 -1.043446
      ESP Fit Center  386 is at   0.571558 -3.513892 -1.043446
      ESP Fit Center  387 is at   1.348103 -4.213096 -1.043446
      ESP Fit Center  388 is at   2.341904 -4.536002 -1.043446
      ESP Fit Center  389 is at   3.381124 -4.426775 -1.043446
      ESP Fit Center  390 is at   4.286073 -3.904303 -1.043446
      ESP Fit Center  391 is at   4.900275 -3.058925 -1.043446
      ESP Fit Center  392 is at   4.527910 -2.036815 -1.925877
      ESP Fit Center  393 is at   4.270232 -1.075150 -1.925877
      ESP Fit Center  394 is at   3.566245 -0.371162 -1.925877
      ESP Fit Center  395 is at   0.938926 -2.998481 -1.925877
      ESP Fit Center  396 is at   1.642914 -3.702469 -1.925877
      ESP Fit Center  397 is at   2.604579 -3.960146 -1.925877
      ESP Fit Center  398 is at   3.566245 -3.702469 -1.925877
      ESP Fit Center  399 is at   4.270232 -2.998481 -1.925877
      ESP Fit Center  400 is at   3.645478 -2.036815 -2.515499
      ESP Fit Center  401 is at   3.125029 -1.135371 -2.515499
      ESP Fit Center  402 is at   2.084130 -1.135371 -2.515499
      ESP Fit Center  403 is at   1.563680 -2.036815 -2.515499
      ESP Fit Center  404 is at   2.084130 -2.938260 -2.515499
      ESP Fit Center  405 is at   3.125029 -2.938260 -2.515499
      ESP Fit Center  406 is at   2.604579 -2.036815 -2.722547
      ESP Fit Center  407 is at   2.882618  2.778006  2.633017
      ESP Fit Center  408 is at   3.842618  2.778006  2.375786
      ESP Fit Center  409 is at   3.362618  3.609390  2.375786
      ESP Fit Center  410 is at   2.402618  3.609390  2.375786
      ESP Fit Center  411 is at   4.545387  2.778006  1.673017
      ESP Fit Center  412 is at   4.227826  3.755357  1.673017
      ESP Fit Center  413 is at   3.396442  4.359393  1.673017
      ESP Fit Center  414 is at   2.368794  4.359393  1.673017
      ESP Fit Center  415 is at   4.802618  2.778006  0.713017
      ESP Fit Center  416 is at   4.545387  3.738006  0.713017
      ESP Fit Center  417 is at   3.842618  4.440774  0.713017
      ESP Fit Center  418 is at   2.882618  4.698006  0.713017
      ESP Fit Center  419 is at   1.922618  4.440774  0.713017
      ESP Fit Center  420 is at   4.545387  2.778006 -0.246983
      ESP Fit Center  421 is at   4.227826  3.755357 -0.246983
      ESP Fit Center  422 is at   3.396442  4.359393 -0.246983
      ESP Fit Center  423 is at   2.368794  4.359393 -0.246983
      ESP Fit Center  424 is at   3.362618  3.609390 -0.949751
      ESP Fit Center  425 is at   1.006668  4.014911  1.710737
      ESP Fit Center  426 is at   0.046668  4.014911  1.710737
      ESP Fit Center  427 is at   1.040492  4.764914  1.007968
      ESP Fit Center  428 is at   0.012844  4.764914  1.007968
      ESP Fit Center  429 is at  -0.818540  4.160878  1.007968
      ESP Fit Center  430 is at  -1.136101  3.183527  1.007968
      ESP Fit Center  431 is at   1.486668  4.846295  0.047968
      ESP Fit Center  432 is at   0.526668  5.103527  0.047968
      ESP Fit Center  433 is at  -0.433332  4.846295  0.047968
      ESP Fit Center  434 is at  -1.136101  4.143527  0.047968
      ESP Fit Center  435 is at   1.871876  4.160878 -0.912032
      ESP Fit Center  436 is at   1.040492  4.764914 -0.912032
      ESP Fit Center  437 is at   0.012844  4.764914 -0.912032
      ESP Fit Center  438 is at   1.006668  4.014911 -1.614800
      ESP Fit Center  439 is at   0.046668  4.014911 -1.614800
      ESP Fit Center  440 is at   3.805084  0.464649  2.614628
      ESP Fit Center  441 is at   4.765084  0.464649  2.357396
      ESP Fit Center  442 is at   4.285084  1.296034  2.357396
      ESP Fit Center  443 is at   4.285084 -0.366735  2.357396
      ESP Fit Center  444 is at   5.467852  0.464649  1.654628
      ESP Fit Center  445 is at   5.150292  1.442000  1.654628
      ESP Fit Center  446 is at   5.150292 -0.512702  1.654628
      ESP Fit Center  447 is at   5.725084  0.464649  0.694628
      ESP Fit Center  448 is at   5.467852  1.424649  0.694628
      ESP Fit Center  449 is at   4.765084  2.127418  0.694628
      ESP Fit Center  450 is at   5.467852 -0.495351  0.694628
      ESP Fit Center  451 is at   5.467852  0.464649 -0.265372
      ESP Fit Center  452 is at   5.150292  1.442000 -0.265372
      ESP Fit Center  453 is at   5.150292 -0.512702 -0.265372
      ESP Fit Center  454 is at   4.765084  0.464649 -0.968141
      ESP Fit Center  455 is at  -0.476439 -1.857348  0.993582
      ESP Fit Center  456 is at  -0.510263 -2.607350  0.290813
      ESP Fit Center  457 is at  -0.956439 -2.688732 -0.669187
      ESP Fit Center  458 is at   0.003561 -2.945963 -0.669187
      ESP Fit Center  459 is at  -0.510263 -2.607350 -1.629187
      ESP Fit Center  460 is at  -0.476439 -1.857348 -2.331956
      ESP Fit Center  461 is at   0.483561 -1.857348 -2.331956
      ESP Fit Center  462 is at   0.003561 -1.025963 -2.589187
      ESP Fit Center  463 is at  -6.109984 -0.230227  1.630844
      ESP Fit Center  464 is at  -6.427544 -1.207578  1.630844
      ESP Fit Center  465 is at  -6.109984 -2.184929  1.630844
      ESP Fit Center  466 is at  -5.278599 -2.788965  1.630844
      ESP Fit Center  467 is at  -5.724775  0.455191  0.670844
      ESP Fit Center  468 is at  -6.427544 -0.247578  0.670844
      ESP Fit Center  469 is at  -6.684775 -1.207578  0.670844
      ESP Fit Center  470 is at  -6.427544 -2.167578  0.670844
      ESP Fit Center  471 is at  -5.724775 -2.870346  0.670844
      ESP Fit Center  472 is at  -4.764775 -3.127578  0.670844
      ESP Fit Center  473 is at  -5.278599  0.373809 -0.289156
      ESP Fit Center  474 is at  -6.109984 -0.230227 -0.289156
      ESP Fit Center  475 is at  -6.427544 -1.207578 -0.289156
      ESP Fit Center  476 is at  -6.109984 -2.184929 -0.289156
      ESP Fit Center  477 is at  -5.278599 -2.788965 -0.289156
      ESP Fit Center  478 is at  -5.244775 -0.376193 -0.991925
      ESP Fit Center  479 is at  -5.724775 -1.207578 -0.991925
      ESP Fit Center  480 is at  -5.244775 -2.038962 -0.991925
      ESP Fit Center  481 is at  -3.377675 -1.824306  3.487732
      ESP Fit Center  482 is at  -2.417675 -1.824306  3.230501
      ESP Fit Center  483 is at  -3.857675 -2.655690  3.230501
      ESP Fit Center  484 is at  -2.897675 -2.655690  3.230501
      ESP Fit Center  485 is at  -1.714907 -1.824306  2.527732
      ESP Fit Center  486 is at  -4.722884 -2.801656  2.527732
      ESP Fit Center  487 is at  -3.891499 -3.405693  2.527732
      ESP Fit Center  488 is at  -2.863852 -3.405693  2.527732
      ESP Fit Center  489 is at  -2.032467 -2.801656  2.527732
      ESP Fit Center  490 is at  -1.457675 -1.824306  1.567732
      ESP Fit Center  491 is at  -4.337675 -3.487074  1.567732
      ESP Fit Center  492 is at  -3.377675 -3.744306  1.567732
      ESP Fit Center  493 is at  -2.417675 -3.487074  1.567732
      ESP Fit Center  494 is at  -1.714907 -2.784306  1.567732
      ESP Fit Center  495 is at  -3.891499 -3.405693  0.607732
      ESP Fit Center  496 is at  -2.863852 -3.405693  0.607732
      ESP Fit Center  497 is at  -2.032467 -2.801656  0.607732
      ESP Fit Center  498 is at  -3.976646 -0.178356  3.813662
      ESP Fit Center  499 is at  -3.016646 -0.178356  3.556430
      ESP Fit Center  500 is at  -3.496646  0.653029  3.556430
      ESP Fit Center  501 is at  -4.456646  0.653029  3.556430
      ESP Fit Center  502 is at  -4.936646 -0.178356  3.556430
      ESP Fit Center  503 is at  -4.456646 -1.009740  3.556430
      ESP Fit Center  504 is at  -3.496646 -1.009740  3.556430
      ESP Fit Center  505 is at  -2.313877 -0.178356  2.853662
      ESP Fit Center  506 is at  -3.462822  1.403031  2.853662
      ESP Fit Center  507 is at  -4.490470  1.403031  2.853662
      ESP Fit Center  508 is at  -5.321854  0.798995  2.853662
      ESP Fit Center  509 is at  -5.639415 -0.178356  2.853662
      ESP Fit Center  510 is at  -4.936646  1.484413  1.893662
      ESP Fit Center  511 is at  -5.639415  0.781644  1.893662
      ESP Fit Center  512 is at  -2.015153  3.244691  0.817005
      ESP Fit Center  513 is at  -2.048977  3.994693  0.114236
      ESP Fit Center  514 is at  -2.880361  3.390657  0.114236
      ESP Fit Center  515 is at  -1.535153  4.333306 -0.845764
      ESP Fit Center  516 is at  -2.495153  4.076075 -0.845764
      ESP Fit Center  517 is at  -3.197922  3.373306 -0.845764
      ESP Fit Center  518 is at  -0.189945  3.390657 -1.805764
      ESP Fit Center  519 is at  -1.021329  3.994693 -1.805764
      ESP Fit Center  520 is at  -2.048977  3.994693 -1.805764
      ESP Fit Center  521 is at  -2.880361  3.390657 -1.805764
      ESP Fit Center  522 is at  -1.055153  3.244691 -2.508533
      ESP Fit Center  523 is at  -2.015153  3.244691 -2.508533
      ESP Fit Center  524 is at  -2.898846  1.842070 -2.666716
      ESP Fit Center  525 is at  -3.216406  0.864719 -2.666716
      ESP Fit Center  526 is at  -1.039814 -0.716668 -2.666716
      ESP Fit Center  527 is at  -0.208429 -0.112632 -2.666716
      ESP Fit Center  528 is at  -0.593637  0.864719 -3.369485
      ESP Fit Center  529 is at  -1.073637  1.696103 -3.369485
      ESP Fit Center  530 is at  -2.033637  1.696103 -3.369485
      ESP Fit Center  531 is at  -2.513637  0.864719 -3.369485
      ESP Fit Center  532 is at  -2.033637  0.033335 -3.369485
      ESP Fit Center  533 is at  -1.073637  0.033335 -3.369485
      ESP Fit Center  534 is at  -1.553637  0.864719 -3.626716
      ESP Fit Center  535 is at  -2.406309  1.223467  3.016670
      ESP Fit Center  536 is at  -1.446309  1.223467  2.759439
      ESP Fit Center  537 is at  -1.926309  2.054852  2.759439
      ESP Fit Center  538 is at  -2.886309  2.054852  2.759439
      ESP Fit Center  539 is at  -1.926309  0.392083  2.759439
      ESP Fit Center  540 is at  -0.743540  1.223467  2.056670
      ESP Fit Center  541 is at  -1.061100  2.200818  2.056670
      ESP Fit Center  542 is at  -1.892485  2.804855  2.056670
      ESP Fit Center  543 is at  -2.920132  2.804855  2.056670
      ESP Fit Center  544 is at  -3.751517  2.200818  2.056670
      ESP Fit Center  545 is at  -1.446309  2.886236  1.096670
      ESP Fit Center  546 is at  -2.406309  3.143467  1.096670
      ESP Fit Center  547 is at  -3.366309  2.886236  1.096670
      ESP Fit Center  548 is at  -4.069077  2.183467  1.096670
      ESP Fit Center  549 is at   2.251891  1.945292  3.114098
      ESP Fit Center  550 is at   3.285136  1.945292  2.908573
      ESP Fit Center  551 is at   2.768513  2.840109  2.908573
      ESP Fit Center  552 is at   1.735268  2.840109  2.908573
      ESP Fit Center  553 is at   1.218645  1.945292  2.908573
      ESP Fit Center  554 is at   1.735268  1.050475  2.908573
      ESP Fit Center  555 is at   3.858002  2.977477 -1.495090
      ESP Fit Center  556 is at   3.044996  3.681951 -1.495090
      ESP Fit Center  557 is at   3.285136  1.945292 -2.080376
      ESP Fit Center  558 is at   2.768513  2.840109 -2.080376
      ESP Fit Center  559 is at   0.408376  3.066371  2.535383
      ESP Fit Center  560 is at  -0.108247  2.171554  2.535383
      ESP Fit Center  561 is at   0.408376  1.276738  2.535383
      ESP Fit Center  562 is at  -0.906854  2.709435  1.950097
      ESP Fit Center  563 is at   1.718104  3.908213 -1.868280
      ESP Fit Center  564 is at   1.958244  2.171554 -2.453566
      ESP Fit Center  565 is at   1.441621  3.066371 -2.453566
      ESP Fit Center  566 is at   0.408376  3.066371 -2.453566
      ESP Fit Center  567 is at   2.776546  0.654361  3.107098
      ESP Fit Center  568 is at   3.809791  0.654361  2.901573
      ESP Fit Center  569 is at   3.293169  1.549178  2.901573
      ESP Fit Center  570 is at   1.743301  0.654361  2.901573
      ESP Fit Center  571 is at   2.259924 -0.240455  2.901573
      ESP Fit Center  572 is at   3.293169 -0.240455  2.901573
      ESP Fit Center  573 is at   5.023990  1.736673 -0.626147
      ESP Fit Center  574 is at   4.685735  0.654361 -1.502090
      ESP Fit Center  575 is at   4.382658  1.686546 -1.502090
      ESP Fit Center  576 is at   3.809791  0.654361 -2.087376
      ESP Fit Center  577 is at   3.293169  1.549178 -2.087376
      ESP Fit Center  578 is at  -0.405099 -0.193566  2.133574
      ESP Fit Center  579 is at   0.111524 -1.088383  2.133574
      ESP Fit Center  580 is at  -0.622106 -1.636434  1.548287
      ESP Fit Center  581 is at   1.661392 -0.193566 -2.855376
      ESP Fit Center  582 is at   1.144769  0.701251 -2.855376
      ESP Fit Center  583 is at   0.111524 -1.088383 -2.855376
[...]
  446 Fit       0.006178
  447 Fit       0.010971
  448 Fit       0.013637
  449 Fit       0.017607
  450 Fit       0.005442
  451 Fit       0.006429
  452 Fit       0.008344
  453 Fit      -0.000245
  454 Fit      -0.001233
  455 Fit      -0.003927
  456 Fit      -0.010860
  457 Fit      -0.025779
  458 Fit      -0.016031
  459 Fit      -0.022583
  460 Fit      -0.023025
  461 Fit      -0.014892
  462 Fit      -0.014682
  463 Fit       0.014023
  464 Fit       0.012662
  465 Fit       0.010640
  466 Fit       0.008096
  467 Fit       0.013482
  468 Fit       0.012434
  469 Fit       0.011736
  470 Fit       0.009542
  471 Fit       0.005360
  472 Fit       0.000136
  473 Fit       0.010827
  474 Fit       0.009245
  475 Fit       0.008219
  476 Fit       0.004421
  477 Fit      -0.003899
  478 Fit       0.000426
  479 Fit      -0.000571
  480 Fit      -0.010650
  481 Fit       0.014408
  482 Fit       0.013904
  483 Fit       0.012663
  484 Fit       0.012809
  485 Fit       0.011825
  486 Fit       0.010469
  487 Fit       0.009982
  488 Fit       0.009895
  489 Fit       0.009844
  490 Fit       0.009088
  491 Fit       0.005163
  492 Fit       0.004245
  493 Fit       0.003451
  494 Fit       0.003853
  495 Fit      -0.005144
  496 Fit      -0.008774
  497 Fit      -0.010661
  498 Fit       0.020033
  499 Fit       0.021837
  500 Fit       0.026927
  501 Fit       0.023218
  502 Fit       0.018345
  503 Fit       0.015976
  504 Fit       0.016825
  505 Fit       0.025504
  506 Fit       0.038685
  507 Fit       0.027421
  508 Fit       0.020450
  509 Fit       0.016313
  510 Fit       0.023296
  511 Fit       0.017334
  512 Fit       0.033537
  513 Fit       0.025370
  514 Fit       0.022390
  515 Fit       0.022999
  516 Fit       0.019801
  517 Fit       0.014911
  518 Fit       0.015346
  519 Fit       0.018304
  520 Fit       0.016864
  521 Fit       0.012788
  522 Fit       0.012534
  523 Fit       0.011719
  524 Fit       0.002457
  525 Fit      -0.010274
  526 Fit      -0.025098
  527 Fit      -0.008016
  528 Fit      -0.000335
  529 Fit       0.004489
  530 Fit       0.003249
  531 Fit      -0.005461
  532 Fit      -0.015883
  533 Fit      -0.008840
  534 Fit      -0.001494
  535 Fit       0.037652
  536 Fit       0.029667
  537 Fit       0.036533
  538 Fit       0.039750
  539 Fit       0.030145
  540 Fit       0.016313
  541 Fit       0.029088
  542 Fit       0.036983
  543 Fit       0.037184
  544 Fit       0.036094
  545 Fit       0.036844
  546 Fit       0.034743
  547 Fit       0.028571
  548 Fit       0.023769
  549 Fit      -0.000514
  550 Fit       0.004013
  551 Fit       0.006741
  552 Fit       0.003885
  553 Fit      -0.001928
  554 Fit      -0.006880
  555 Fit      -0.000589
  556 Fit       0.001933
  557 Fit      -0.010447
  558 Fit      -0.006466
  559 Fit       0.008144
  560 Fit       0.008182
  561 Fit      -0.002345
  562 Fit       0.023855
  563 Fit       0.003086
  564 Fit      -0.010849
  565 Fit      -0.003158
  566 Fit       0.003488
  567 Fit      -0.003738
  568 Fit       0.002401
  569 Fit       0.002121
  570 Fit      -0.007722
  571 Fit      -0.008078
  572 Fit      -0.003743
  573 Fit       0.004610
  574 Fit      -0.005097
  575 Fit      -0.004336
  576 Fit      -0.011456
  577 Fit      -0.012320
  578 Fit       0.000160
  579 Fit      -0.005821
  580 Fit      -0.000992
  581 Fit      -0.015406
  582 Fit      -0.012590
  583 Fit      -0.015400
  584 Fit      -0.015463
  585 Fit      -0.012365
  586 Fit       0.001677
  587 Fit      -0.011124
  588 Fit      -0.003676
  589 Fit      -0.008825
  590 Fit      -0.015909
  591 Fit      -0.002367
  592 Fit       0.002080
  593 Fit      -0.007801
  594 Fit      -0.014100
  595 Fit       0.015873
  596 Fit       0.012505
  597 Fit       0.014914
  598 Fit       0.011650
  599 Fit       0.010267
  600 Fit       0.007822
  601 Fit       0.014048
  602 Fit       0.002032
  603 Fit       0.010405
  604 Fit      -0.010371
  605 Fit       0.003905
  606 Fit       0.009273
  607 Fit       0.005183
  608 Fit       0.003989
  609 Fit       0.021465
  610 Fit       0.018195
  611 Fit       0.011088
  612 Fit       0.009343
  613 Fit       0.006254
  614 Fit       0.001646
  615 Fit      -0.004413
  616 Fit      -0.028494
  617 Fit      -0.029753
  618 Fit      -0.025586
  619 Fit      -0.016753
  620 Fit      -0.026034
  621 Fit      -0.033969
  622 Fit      -0.037756
  623 Fit      -0.037713
  624 Fit      -0.033345
  625 Fit      -0.019696
  626 Fit      -0.026075
  627 Fit      -0.032733
  628 Fit      -0.038325
  629 Fit      -0.040659
  630 Fit      -0.039332
  631 Fit      -0.033744
  632 Fit      -0.031971
  633 Fit      -0.027473
  634 Fit      -0.034383
  635 Fit      -0.039059
  636 Fit      -0.038576
  637 Fit      -0.034926
  638 Fit      -0.011890
  639 Fit      -0.011103
  640 Fit      -0.008519
  641 Fit      -0.010012
  642 Fit      -0.011486
  643 Fit      -0.013534
  644 Fit      -0.013186
  645 Fit      -0.009743
  646 Fit      -0.003912
  647 Fit      -0.009861
  648 Fit      -0.012883
  649 Fit      -0.014139
  650 Fit      -0.013230
  651 Fit      -0.012319
  652 Fit      -0.011891
  653 Fit      -0.008925
  654 Fit      -0.007506
  655 Fit      -0.012186
  656 Fit      -0.014763
  657 Fit      -0.013947
  658 Fit      -0.011751
  659 Fit      -0.010323
  660 Fit      -0.010439
  661 Fit      -0.010895
  662 Fit      -0.009537
  663 Fit      -0.002134
  664 Fit      -0.013744
  665 Fit      -0.016551
  666 Fit      -0.015295
  667 Fit      -0.012273
  668 Fit      -0.009610
  669 Fit      -0.008742
  670 Fit      -0.009671
  671 Fit      -0.010825
  672 Fit      -0.011418
  673 Fit      -0.006926
  674 Fit      -0.018981
  675 Fit      -0.016687
  676 Fit      -0.013152
  677 Fit      -0.010269
  678 Fit      -0.009353
  679 Fit      -0.010383
  680 Fit      -0.011853
  681 Fit      -0.013770
  682 Fit      -0.011417
  683 Fit      -0.009125
  684 Fit      -0.019222
  685 Fit      -0.019867
  686 Fit      -0.017139
  687 Fit      -0.013982
  688 Fit      -0.012228
  689 Fit      -0.012500
  690 Fit      -0.013712
  691 Fit      -0.015917
  692 Fit      -0.014558
  693 Fit      -0.014325
  694 Fit      -0.019843
  695 Fit      -0.019196
  696 Fit      -0.016940
  697 Fit      -0.015687
  698 Fit      -0.015924
  699 Fit      -0.017470
  700 Fit      -0.016496
  701 Fit      -0.016817
  702 Fit      -0.018179
  703 Fit      -0.019239
  704 Fit      -0.018149
  705 Fit      -0.018259
  706 Fit       0.011350
  707 Fit       0.012791
  708 Fit       0.011104
  709 Fit       0.014346
  710 Fit       0.014735
  711 Fit       0.015444
  712 Fit       0.015871
  713 Fit       0.015826
  714 Fit       0.013703
  715 Fit       0.013853
  716 Fit       0.014832
  717 Fit       0.015935
  718 Fit       0.018386
  719 Fit       0.008401
  720 Fit       0.010292
  721 Fit       0.011893
  722 Fit       0.013745
  723 Fit       0.014644
  724 Fit       0.016936
  725 Fit       0.018149
  726 Fit       0.018992
  727 Fit       0.021538
  728 Fit       0.026815
  729 Fit       0.017160
  730 Fit       0.017970
  731 Fit       0.020086
  732 Fit       0.023617
  733 Fit       0.013337
  734 Fit       0.016606
  735 Fit       0.020607
  736 Fit       0.013761
  737 Fit       0.007197
  738 Fit       0.008763
  739 Fit       0.001046
  740 Fit       0.009218
  741 Fit       0.012118
  742 Fit       0.004174
  743 Fit       0.008190
  744 Fit       0.010957
  745 Fit       0.014598
  746 Fit       0.003237
  747 Fit       0.004159
  748 Fit       0.006410
  749 Fit      -0.001842
  750 Fit      -0.022112
  751 Fit      -0.021028
  752 Fit      -0.024798
  753 Fit      -0.016416
  754 Fit       0.011769
  755 Fit       0.010145
  756 Fit       0.008071
  757 Fit       0.011112
  758 Fit       0.010096
  759 Fit       0.008659
  760 Fit       0.006012
  761 Fit       0.002068
  762 Fit       0.007435
  763 Fit       0.006563
  764 Fit       0.004459
  765 Fit      -0.000284
  766 Fit      -0.009258
  767 Fit      -0.002495
  768 Fit      -0.003113
  769 Fit      -0.013260
  770 Fit       0.012935
  771 Fit       0.011993
  772 Fit       0.010745
  773 Fit       0.010477
  774 Fit       0.009216
  775 Fit       0.008381
  776 Fit       0.007615
  777 Fit       0.007106
  778 Fit       0.007038
  779 Fit       0.002869
  780 Fit       0.001544
  781 Fit       0.000450
  782 Fit       0.000792
  783 Fit      -0.008391
  784 Fit      -0.012360
  785 Fit       0.017757
  786 Fit       0.019517
  787 Fit       0.024093
  788 Fit       0.020549
  789 Fit       0.016194
  790 Fit       0.014262
  791 Fit       0.027106
  792 Fit       0.020033
  793 Fit       0.015877
  794 Fit       0.013567
  795 Fit       0.023625
  796 Fit       0.017118
  797 Fit       0.014092
  798 Fit       0.023887
  799 Fit       0.021726
  800 Fit       0.021268
  801 Fit       0.018364
  802 Fit       0.015135
  803 Fit       0.008915
  804 Fit       0.015739
  805 Fit       0.015074
  806 Fit       0.012430
  807 Fit       0.007673
  808 Fit       0.010316
  809 Fit       0.009727
  810 Fit      -0.004059
  811 Fit      -0.021420
  812 Fit      -0.002423
  813 Fit       0.002735
  814 Fit       0.001727
  815 Fit      -0.006993
  816 Fit      -0.017345
  817 Fit      -0.010704
  818 Fit      -0.003398
  819 Fit       0.031779
  820 Fit       0.024264
  821 Fit       0.030624
  822 Fit       0.033748
  823 Fit       0.025142
  824 Fit       0.022166
  825 Fit       0.030794
  826 Fit       0.032031
  827 Fit       0.030992
  828 Fit       0.031516
  829 Fit       0.026630
  830 Fit       0.000775
  831 Fit       0.003634
  832 Fit       0.005946
  833 Fit       0.004386
  834 Fit       0.000345
  835 Fit      -0.003958
  836 Fit       0.010192
  837 Fit       0.003650
  838 Fit       0.007693
  839 Fit      -0.001514
  840 Fit       0.000723
  841 Fit      -0.009014
  842 Fit      -0.005575
  843 Fit       0.008329
  844 Fit       0.008865
  845 Fit       0.000284
  846 Fit       0.012808
  847 Fit       0.015566
  848 Fit       0.021818
  849 Fit       0.013360
  850 Fit       0.008706
  851 Fit       0.002189
  852 Fit       0.007111
  853 Fit      -0.008642
  854 Fit      -0.002429
  855 Fit       0.002685
  856 Fit      -0.002402
  857 Fit       0.001620
  858 Fit       0.002106
  859 Fit      -0.004928
  860 Fit      -0.006129
  861 Fit      -0.003252
  862 Fit       0.008369
  863 Fit       0.001349
  864 Fit      -0.006179
  865 Fit      -0.004911
  866 Fit      -0.010706
  867 Fit      -0.010630
  868 Fit       0.002317
  869 Fit      -0.004096
  870 Fit       0.000160
  871 Fit      -0.013740
  872 Fit      -0.010728
  873 Fit      -0.015420
  874 Fit      -0.014776
  875 Fit      -0.011632
  876 Fit       0.004020
  877 Fit      -0.009284
  878 Fit      -0.003146
  879 Fit      -0.006441
  880 Fit      -0.013962
  881 Fit       0.006092
  882 Fit      -0.001476
  883 Fit      -0.003751
  884 Fit      -0.008742
  885 Fit       0.014280
  886 Fit       0.011396
  887 Fit       0.013196
  888 Fit       0.010841
  889 Fit       0.009493
  890 Fit       0.009712
  891 Fit       0.011996
  892 Fit       0.010050
  893 Fit       0.008294
  894 Fit       0.007238
  895 Fit       0.012462
  896 Fit       0.004904
  897 Fit       0.011723
  898 Fit       0.010311
  899 Fit      -0.003687
  900 Fit      -0.019035
  901 Fit       0.006618
  902 Fit       0.005612
  903 Fit      -0.001035
  904 Fit       0.006522
  905 Fit       0.005275
  906 Fit       0.003151
  907 Fit       0.005861
  908 Fit       0.021923
  909 Fit       0.016661
  910 Fit       0.013767
  911 Fit       0.010140
  912 Fit       0.006503
  913 Fit       0.002392
  914 Fit      -0.005177
  915 Fit      -0.018328
  916 Fit      -0.019849
  917 Fit      -0.023486
  918 Fit      -0.027503
  919 Fit      -0.028869
  920 Fit      -0.027849
  921 Fit      -0.015152
  922 Fit      -0.020747
  923 Fit      -0.026737
  924 Fit      -0.031122
  925 Fit      -0.033067
  926 Fit      -0.032681
  927 Fit      -0.029352
  928 Fit      -0.022264
  929 Fit      -0.015260
  930 Fit      -0.020657
  931 Fit      -0.025386
  932 Fit      -0.029922
  933 Fit      -0.033176
  934 Fit      -0.034278
  935 Fit      -0.033018
  936 Fit      -0.028990
  937 Fit      -0.026754
  938 Fit      -0.022969
  939 Fit      -0.028586
  940 Fit      -0.032447
  941 Fit      -0.032165
  942 Fit      -0.028839
  943 Fit      -0.009275
  944 Fit      -0.008702
  945 Fit      -0.006887
  946 Fit      -0.007903
  947 Fit      -0.008904
  948 Fit      -0.010598
  949 Fit      -0.010482
  950 Fit      -0.007638
  951 Fit      -0.003533
  952 Fit      -0.007316
  953 Fit      -0.007448
  954 Fit      -0.009911
  955 Fit      -0.011327
  956 Fit      -0.011102
  957 Fit      -0.010469
  958 Fit      -0.009724
  959 Fit      -0.006821
  960 Fit      -0.005200
  961 Fit      -0.009089
  962 Fit      -0.011681
  963 Fit      -0.011746
  964 Fit      -0.010609
  965 Fit      -0.009667
  966 Fit      -0.009407
  967 Fit      -0.009048
  968 Fit      -0.006952
  969 Fit      -0.012155
  970 Fit      -0.013372
  971 Fit      -0.012372
  972 Fit      -0.010532
  973 Fit      -0.009038
  974 Fit      -0.008540
  975 Fit      -0.008841
  976 Fit      -0.008879
  977 Fit      -0.008163
  978 Fit      -0.003781
  979 Fit      -0.016694
  980 Fit      -0.016002
  981 Fit      -0.014220
  982 Fit      -0.011922
  983 Fit      -0.009846
  984 Fit      -0.008655
  985 Fit      -0.008564
  986 Fit      -0.009155
  987 Fit      -0.009456
  988 Fit      -0.010013
  989 Fit      -0.007194
  990 Fit      -0.020092
  991 Fit      -0.017543
  992 Fit      -0.014766
  993 Fit      -0.012118
  994 Fit      -0.010279
  995 Fit      -0.009707
  996 Fit      -0.010167
  997 Fit      -0.010699
  998 Fit      -0.011974
  999 Fit      -0.010401
 1000 Fit      -0.009399
 1001 Fit      -0.020141
 1002 Fit      -0.018546
 1003 Fit      -0.015941
 1004 Fit      -0.013527
 1005 Fit      -0.012114
 1006 Fit      -0.011944
 1007 Fit      -0.012307
 1008 Fit      -0.013700
 1009 Fit      -0.012836
 1010 Fit      -0.013007
 1011 Fit      -0.018436
 1012 Fit      -0.017260
 1013 Fit      -0.015414
 1014 Fit      -0.014282
 1015 Fit      -0.014036
 1016 Fit      -0.015030
 1017 Fit      -0.014580
 1018 Fit      -0.015265
 1019 Fit      -0.016584
 1020 Fit      -0.016920
 1021 Fit      -0.015791
 1022 Fit      -0.015951
 1023 Fit       0.009379
 1024 Fit       0.010721
 1025 Fit       0.009559
 1026 Fit       0.011952
 1027 Fit       0.012446
 1028 Fit       0.013094
 1029 Fit       0.013486
 1030 Fit       0.012619
 1031 Fit       0.012467
 1032 Fit       0.013172
 1033 Fit       0.014052
 1034 Fit       0.015508
 1035 Fit       0.010243
 1036 Fit       0.010672
 1037 Fit       0.011700
 1038 Fit       0.012913
 1039 Fit       0.015177
 1040 Fit       0.007300
 1041 Fit       0.008933
 1042 Fit       0.015152
 1043 Fit       0.016049
 1044 Fit       0.016761
 1045 Fit       0.019210
 1046 Fit       0.024571
 1047 Fit       0.017019
 1048 Fit       0.016293
 1049 Fit       0.017545
 1050 Fit       0.019992
 1051 Fit       0.013556
 1052 Fit       0.014679
 1053 Fit       0.016559
 1054 Fit       0.019407
 1055 Fit       0.010504
 1056 Fit       0.013642
 1057 Fit       0.017310
 1058 Fit       0.011190
 1059 Fit       0.005230
 1060 Fit       0.000153
 1061 Fit       0.007073
 1062 Fit       0.009798
 1063 Fit       0.002686
 1064 Fit       0.006993
 1065 Fit       0.009695
 1066 Fit       0.013031
 1067 Fit       0.002849
 1068 Fit       0.004998
 1069 Fit       0.007563
 1070 Fit       0.000511
 1071 Fit       0.001102
 1072 Fit      -0.022159
 1073 Fit      -0.021946
 1074 Fit      -0.023834
 1075 Fit      -0.016825
 1076 Fit       0.009340
 1077 Fit       0.010152
 1078 Fit       0.008811
 1079 Fit       0.007175
 1080 Fit       0.004954
 1081 Fit       0.009002
 1082 Fit       0.007842
 1083 Fit       0.006625
 1084 Fit       0.004611
 1085 Fit       0.001335
 1086 Fit      -0.003517
 1087 Fit       0.004009
 1088 Fit       0.003156
 1089 Fit       0.000878
 1090 Fit      -0.004040
 1091 Fit      -0.013782
 1092 Fit      -0.006760
 1093 Fit      -0.016656
 1094 Fit       0.011777
 1095 Fit       0.010791
 1096 Fit       0.009649
 1097 Fit       0.009177
 1098 Fit       0.008307
 1099 Fit       0.007900
 1100 Fit       0.006930
 1101 Fit       0.006334
 1102 Fit       0.006300
 1103 Fit       0.004285
 1104 Fit       0.004989
 1105 Fit       0.003536
 1106 Fit       0.002463
 1107 Fit       0.001553
 1108 Fit       0.001589
 1109 Fit      -0.002419
 1110 Fit      -0.004557
 1111 Fit      -0.006292
 1112 Fit      -0.005768
 1113 Fit       0.015938
 1114 Fit       0.017271
 1115 Fit       0.020634
 1116 Fit       0.018130
 1117 Fit       0.014720
 1118 Fit       0.013188
 1119 Fit       0.029378
 1120 Fit       0.023353
 1121 Fit       0.018071
 1122 Fit       0.014649
 1123 Fit       0.012612
 1124 Fit       0.024672
 1125 Fit       0.017913
 1126 Fit       0.014343
 1127 Fit       0.015790
 1128 Fit       0.023287
 1129 Fit       0.022629
 1130 Fit       0.018956
 1131 Fit       0.016732
 1132 Fit       0.013369
 1133 Fit       0.017266
 1134 Fit       0.015367
 1135 Fit       0.013081
 1136 Fit       0.009458
 1137 Fit       0.012096
 1138 Fit       0.011950
 1139 Fit       0.009853
 1140 Fit       0.005994
 1141 Fit       0.008084
 1142 Fit       0.007719
 1143 Fit       0.002546
 1144 Fit      -0.004660
 1145 Fit      -0.019431
 1146 Fit      -0.003678
 1147 Fit       0.000855
 1148 Fit       0.000073
 1149 Fit      -0.007194
 1150 Fit      -0.015076
 1151 Fit      -0.010560
 1152 Fit      -0.004543
 1153 Fit       0.027275
 1154 Fit       0.021470
 1155 Fit       0.026295
 1156 Fit       0.029139
 1157 Fit       0.022355
 1158 Fit       0.011632
 1159 Fit       0.019711
 1160 Fit       0.026508
 1161 Fit       0.028200
 1162 Fit       0.028130
 1163 Fit       0.028204
 1164 Fit       0.026389
 1165 Fit       0.023903
 1166 Fit       0.022956
 -----------------------------------------------------------------
 Leave Link  602 at Sat Feb 17 20:56:28 2018, MaxMem=   33554432 cpu:       0.3

 Test job not archived.
 1\1\GINC-NODE036\SP\RHF\6-31G(d)\C9H10Cl1N1O1\WULSDORT\17-Feb-2018\0\\
 #HF/6-31G* Geom=AllCheck Guess=Read Pop=(MK,ReadRadii) Integral=(Grid=
 UltraFine) iop(6/33=2)\\Optimization for frag5-conf2\\0,1\C,0,2.244660
 9853,-0.7952474753,0.2262188291\C,0,1.0880308111,-0.2207233558,0.75841
 92117\C,0,2.9057161545,-1.8135770705,0.9101964119\C,0,1.2332967716,-1.
 6877474627,2.674170769\C,0,0.5753011392,-0.6598163787,1.9824255382\C,0
 ,2.3859889523,-2.2467668263,2.131620019\C,0,-0.6007774914,0.1948462315
 ,5.0403929848\C,0,-0.2247599239,1.1020510731,6.2020488937\C,0,-0.67551
 98505,-0.0361442158,2.5768941295\N,0,-0.4287164325,0.7335075715,3.7924
 66426\O,0,-1.0360331743,-0.9376089119,5.2167364255\Cl,0,3.2087400325,-
 3.5377444168,3.0019032933\H,0,2.6354437722,-0.4488197589,-0.7265971437
 \H,0,0.578997211,0.5719047931,0.2148843251\H,0,3.8047745044,-2.2682907
 828,0.5083476783\H,0,0.8392977072,-2.0430981804,3.6210201429\H,0,-1.07
 00969895,1.1515905003,6.8942252473\H,0,0.6146206218,0.6537511022,6.743
 589609\H,0,0.0495898623,2.1176575101,5.8998687052\H,0,-1.1534786824,0.
 618206122,1.8395333235\H,0,-1.3919443714,-0.8125579141,2.8572524663\H,
 0,0.0599486398,1.6135416707,3.7062364988\\Version=AM64L-G09RevC.01\Sta
 te=1-A\HF=-935.450907\RMSD=3.339e-09\Dipole=0.1902341,1.929493,-0.7484
 395\Quadrupole=-4.773863,1.9856324,2.7882306,-2.4356287,1.245266,3.222
 514\PG=C01 [X(C9H10Cl1N1O1)]\\@


 NOTHING WILL BE ATTEMPTED IF ALL POSSIBLE OBJECTIONS
 MUST FIRST BE OVERCOME.

                               -- THE GOLDEN PRINCIPLE,
                    PAUL DICKSON'S "THE OFFICIAL RULES"
 Job cpu time:  0 days  0 hours  1 minutes 42.8 seconds.
 File lengths (MBytes):  RWF=     27 Int=      0 D2E=      0 Chk=      4 Scr=      1
 Normal termination of Gaussian 09 at Sat Feb 17 20:56:28 2018.
