 Entering Gaussian System, Link 0=g09
 Initial command:
 /home/fb_chem/chemsoft/lx24-amd64/Gaussian_09_C.01_NBO_3.1_64_istanbul-64/g09/l1.exe /local/2426251.1.parallel/Gau-7554.inp -scrdir=/local/2426251.1.parallel/
 Entering Link 1 = /home/fb_chem/chemsoft/lx24-amd64/Gaussian_09_C.01_NBO_3.1_64_istanbul-64/g09/l1.exe PID=      7559.
  
 Copyright (c) 1988,1990,1992,1993,1995,1998,2003,2009,2011,
            Gaussian, Inc.  All Rights Reserved.
  
 This is part of the Gaussian(R) 09 program.  It is based on
 the Gaussian(R) 03 system (copyright 2003, Gaussian, Inc.),
 the Gaussian(R) 98 system (copyright 1998, Gaussian, Inc.),
 the Gaussian(R) 94 system (copyright 1995, Gaussian, Inc.),
 the Gaussian 92(TM) system (copyright 1992, Gaussian, Inc.),
 the Gaussian 90(TM) system (copyright 1990, Gaussian, Inc.),
 the Gaussian 88(TM) system (copyright 1988, Gaussian, Inc.),
 the Gaussian 86(TM) system (copyright 1986, Carnegie Mellon
 University), and the Gaussian 82(TM) system (copyright 1983,
 Carnegie Mellon University). Gaussian is a federally registered
 trademark of Gaussian, Inc.
  
 This software contains proprietary and confidential information,
 including trade secrets, belonging to Gaussian, Inc.
  
 This software is provided under written license and may be
 used, copied, transmitted, or stored only in accord with that
 written license.
  
 The following legend is applicable only to US Government
 contracts under FAR:
  
                    RESTRICTED RIGHTS LEGEND
  
 Use, reproduction and disclosure by the US Government is
 subject to restrictions as set forth in subparagraphs (a)
 and (c) of the Commercial Computer Software - Restricted
 Rights clause in FAR 52.227-19.
  
 Gaussian, Inc.
 340 Quinnipiac St., Bldg. 40, Wallingford CT 06492
  
  
 ---------------------------------------------------------------
 Warning -- This program may not be used in any manner that
 competes with the business of Gaussian, Inc. or will provide
 assistance to any competitor of Gaussian, Inc.  The licensee
 of this program is prohibited from giving any competitor of
 Gaussian, Inc. access to this program.  By using this program,
 the user acknowledges that Gaussian, Inc. is engaged in the
 business of creating and licensing software in the field of
 computational chemistry and represents and warrants to the
 licensee that it is not a competitor of Gaussian, Inc. and that
 it will not use this program in any manner prohibited above.
 ---------------------------------------------------------------
  

 Cite this work as:
 Gaussian 09, Revision C.01,
 M. J. Frisch, G. W. Trucks, H. B. Schlegel, G. E. Scuseria, 
 M. A. Robb, J. R. Cheeseman, G. Scalmani, V. Barone, B. Mennucci, 
 G. A. Petersson, H. Nakatsuji, M. Caricato, X. Li, H. P. Hratchian, 
 A. F. Izmaylov, J. Bloino, G. Zheng, J. L. Sonnenberg, M. Hada, 
 M. Ehara, K. Toyota, R. Fukuda, J. Hasegawa, M. Ishida, T. Nakajima, 
 Y. Honda, O. Kitao, H. Nakai, T. Vreven, J. A. Montgomery, Jr., 
 J. E. Peralta, F. Ogliaro, M. Bearpark, J. J. Heyd, E. Brothers, 
 K. N. Kudin, V. N. Staroverov, T. Keith, R. Kobayashi, J. Normand, 
 K. Raghavachari, A. Rendell, J. C. Burant, S. S. Iyengar, J. Tomasi, 
 M. Cossi, N. Rega, J. M. Millam, M. Klene, J. E. Knox, J. B. Cross, 
 V. Bakken, C. Adamo, J. Jaramillo, R. Gomperts, R. E. Stratmann, 
 O. Yazyev, A. J. Austin, R. Cammi, C. Pomelli, J. W. Ochterski, 
 R. L. Martin, K. Morokuma, V. G. Zakrzewski, G. A. Voth, 
 P. Salvador, J. J. Dannenberg, S. Dapprich, A. D. Daniels, 
 O. Farkas, J. B. Foresman, J. V. Ortiz, J. Cioslowski, 
 and D. J. Fox, Gaussian, Inc., Wallingford CT, 2010.
 
 ******************************************
 Gaussian 09:  AM64L-G09RevC.01 23-Sep-2011
                26-Feb-2018 
 ******************************************
 %nprocs=4
 Will use up to    4 processors via shared memory.
 %chk=frag1-conf2.chk
 ---------------------------------------------------------
 #B3LYP/6-31G* Integral=(Grid=UltraFine) freq Opt pop=none
 ---------------------------------------------------------
 1/14=-1,18=20,19=15,26=3,38=1/1,3;
 2/9=110,12=2,17=6,18=5,40=1/2;
 3/5=1,6=6,7=1,11=2,16=1,25=1,30=1,71=1,74=-5,75=-5/1,2,3;
 4//1;
 5/5=2,38=5/2;
 7//1,2,3,16;
 1/14=-1,18=20,19=15/3(2);
 2/9=110/2;
 99//99;
 2/9=110/2;
 3/5=1,6=6,7=1,11=2,16=1,25=1,30=1,71=1,74=-5,75=-5/1,2,3;
 4/5=5,16=3/1;
 5/5=2,38=5/2;
 7//1,2,3,16;
 1/14=-1,18=20,19=15/3(-5);
 2/9=110/2;
 99/9=1/99;
 ----------------------------
 Optimization for frag1-conf2
 ----------------------------
 Charge =  0 Multiplicity = 1
 Symbolic Z-Matrix:
 C                     0.9718   -0.98853  -0.2826 
 C                    -0.58441  -2.64855   1.97435 
 C                     1.05522  -0.64003  -1.74776 
 C                     0.70967  -0.55861   2.70043 
 C                    -1.11325  -4.5867    3.39892 
 C                    -1.59833  -2.33992   4.2805 
 C                    -1.44087  -0.28046  -0.30434 
 C                    -0.40303  -1.11133   1.8067 
 N                    -1.07654  -3.14515   3.18061 
 N                    -0.23267  -0.75132   0.37011 
 O                     1.96001  -1.46133   0.28558 
 O                    -0.28756  -3.42566   1.05555 
 H                     0.85228   0.4238   -1.89636 
 H                     2.06561  -0.84785  -2.11337 
 H                     0.35282  -1.25031  -2.32148 
 H                     1.61251  -1.1759    2.66286 
 H                     0.97517   0.46412   2.41264 
 H                     0.40193  -0.53408   3.74983 
 H                    -0.59915  -4.81363   4.33778 
 H                    -0.62935  -5.143     2.59254 
 H                    -2.15822  -4.90288   3.46946 
 H                    -2.55507  -2.76163   4.60413 
 H                    -1.76539  -1.29978   4.00617 
 H                    -0.88579  -2.38545   5.10919 
 H                    -2.1989   -1.06746  -0.24633 
 H                    -1.2814   -0.02956  -1.35266 
 H                    -1.80316   0.61308   0.21298 
 H                    -1.33953  -0.63144   2.11115 
 

 GradGradGradGradGradGradGradGradGradGradGradGradGradGradGradGradGradGrad
 Berny optimization.
 Initialization pass.
                           ----------------------------
                           !    Initial Parameters    !
                           ! (Angstroms and Degrees)  !
 --------------------------                            --------------------------
 ! Name  Definition              Value          Derivative Info.                !
 --------------------------------------------------------------------------------
 ! R1    R(1,3)                  1.5083         estimate D2E/DX2                !
 ! R2    R(1,10)                 1.3903         estimate D2E/DX2                !
 ! R3    R(1,11)                 1.2341         estimate D2E/DX2                !
 ! R4    R(2,8)                  1.5569         estimate D2E/DX2                !
 ! R5    R(2,9)                  1.3942         estimate D2E/DX2                !
 ! R6    R(2,12)                 1.2394         estimate D2E/DX2                !
 ! R7    R(3,13)                 1.0932         estimate D2E/DX2                !
 ! R8    R(3,14)                 1.0944         estimate D2E/DX2                !
 ! R9    R(3,15)                 1.0931         estimate D2E/DX2                !
 ! R10   R(4,8)                  1.5305         estimate D2E/DX2                !
 ! R11   R(4,16)                 1.0943         estimate D2E/DX2                !
 ! R12   R(4,17)                 1.0951         estimate D2E/DX2                !
 ! R13   R(4,18)                 1.0939         estimate D2E/DX2                !
 ! R14   R(5,9)                  1.4584         estimate D2E/DX2                !
 ! R15   R(5,19)                 1.0942         estimate D2E/DX2                !
 ! R16   R(5,20)                 1.0926         estimate D2E/DX2                !
 ! R17   R(5,21)                 1.094          estimate D2E/DX2                !
 ! R18   R(6,9)                  1.4596         estimate D2E/DX2                !
 ! R19   R(6,22)                 1.0945         estimate D2E/DX2                !
 ! R20   R(6,23)                 1.0886         estimate D2E/DX2                !
 ! R21   R(6,24)                 1.0938         estimate D2E/DX2                !
 ! R22   R(7,10)                 1.4616         estimate D2E/DX2                !
 ! R23   R(7,25)                 1.0942         estimate D2E/DX2                !
 ! R24   R(7,26)                 1.0897         estimate D2E/DX2                !
 ! R25   R(7,27)                 1.0942         estimate D2E/DX2                !
 ! R26   R(8,10)                 1.4908         estimate D2E/DX2                !
 ! R27   R(8,28)                 1.0955         estimate D2E/DX2                !
 ! A1    A(3,1,10)             117.6784         estimate D2E/DX2                !
 ! A2    A(3,1,11)             119.4371         estimate D2E/DX2                !
 ! A3    A(10,1,11)            122.8839         estimate D2E/DX2                !
 ! A4    A(8,2,9)              119.0751         estimate D2E/DX2                !
 ! A5    A(8,2,12)             120.7517         estimate D2E/DX2                !
 ! A6    A(9,2,12)             120.1709         estimate D2E/DX2                !
 ! A7    A(1,3,13)             110.281          estimate D2E/DX2                !
 ! A8    A(1,3,14)             109.3711         estimate D2E/DX2                !
 ! A9    A(1,3,15)             110.1994         estimate D2E/DX2                !
 ! A10   A(13,3,14)            108.1059         estimate D2E/DX2                !
 ! A11   A(13,3,15)            110.6507         estimate D2E/DX2                !
 ! A12   A(14,3,15)            108.1723         estimate D2E/DX2                !
 ! A13   A(8,4,16)             112.0886         estimate D2E/DX2                !
 ! A14   A(8,4,17)             111.1047         estimate D2E/DX2                !
 ! A15   A(8,4,18)             111.3327         estimate D2E/DX2                !
 ! A16   A(16,4,17)            108.5265         estimate D2E/DX2                !
 ! A17   A(16,4,18)            106.1224         estimate D2E/DX2                !
 ! A18   A(17,4,18)            107.4202         estimate D2E/DX2                !
 ! A19   A(9,5,19)             108.7599         estimate D2E/DX2                !
 ! A20   A(9,5,20)             112.4343         estimate D2E/DX2                !
 ! A21   A(9,5,21)             108.6237         estimate D2E/DX2                !
 ! A22   A(19,5,20)            108.6365         estimate D2E/DX2                !
 ! A23   A(19,5,21)            109.4816         estimate D2E/DX2                !
 ! A24   A(20,5,21)            108.8718         estimate D2E/DX2                !
 ! A25   A(9,6,22)             108.8287         estimate D2E/DX2                !
 ! A26   A(9,6,23)             113.0844         estimate D2E/DX2                !
 ! A27   A(9,6,24)             108.3639         estimate D2E/DX2                !
 ! A28   A(22,6,23)            107.9699         estimate D2E/DX2                !
 ! A29   A(22,6,24)            109.2306         estimate D2E/DX2                !
 ! A30   A(23,6,24)            109.3084         estimate D2E/DX2                !
 ! A31   A(10,7,25)            108.45           estimate D2E/DX2                !
 ! A32   A(10,7,26)            113.3992         estimate D2E/DX2                !
 ! A33   A(10,7,27)            108.5786         estimate D2E/DX2                !
 ! A34   A(25,7,26)            108.5413         estimate D2E/DX2                !
 ! A35   A(25,7,27)            109.4446         estimate D2E/DX2                !
 ! A36   A(26,7,27)            108.3772         estimate D2E/DX2                !
 ! A37   A(2,8,4)              112.2338         estimate D2E/DX2                !
 ! A38   A(2,8,10)             110.8247         estimate D2E/DX2                !
 ! A39   A(2,8,28)             107.6385         estimate D2E/DX2                !
 ! A40   A(4,8,10)             113.1062         estimate D2E/DX2                !
 ! A41   A(4,8,28)             107.5196         estimate D2E/DX2                !
 ! A42   A(10,8,28)            105.0534         estimate D2E/DX2                !
 ! A43   A(2,9,5)              119.3697         estimate D2E/DX2                !
 ! A44   A(2,9,6)              125.5665         estimate D2E/DX2                !
 ! A45   A(5,9,6)              115.0558         estimate D2E/DX2                !
 ! A46   A(1,10,7)             123.6724         estimate D2E/DX2                !
 ! A47   A(1,10,8)             120.6767         estimate D2E/DX2                !
 ! A48   A(7,10,8)             115.3407         estimate D2E/DX2                !
 ! D1    D(10,1,3,13)           59.3027         estimate D2E/DX2                !
 ! D2    D(10,1,3,14)          178.0613         estimate D2E/DX2                !
 ! D3    D(10,1,3,15)          -63.1482         estimate D2E/DX2                !
 ! D4    D(11,1,3,13)         -120.4284         estimate D2E/DX2                !
 ! D5    D(11,1,3,14)           -1.6698         estimate D2E/DX2                !
 ! D6    D(11,1,3,15)          117.1208         estimate D2E/DX2                !
 ! D7    D(3,1,10,7)             4.7198         estimate D2E/DX2                !
 ! D8    D(3,1,10,8)           178.021          estimate D2E/DX2                !
 ! D9    D(11,1,10,7)         -175.559          estimate D2E/DX2                !
 ! D10   D(11,1,10,8)           -2.2579         estimate D2E/DX2                !
 ! D11   D(9,2,8,4)             67.9392         estimate D2E/DX2                !
 ! D12   D(9,2,8,10)          -164.5382         estimate D2E/DX2                !
 ! D13   D(9,2,8,28)           -50.175          estimate D2E/DX2                !
 ! D14   D(12,2,8,4)          -111.5131         estimate D2E/DX2                !
 ! D15   D(12,2,8,10)           16.0095         estimate D2E/DX2                !
 ! D16   D(12,2,8,28)          130.3726         estimate D2E/DX2                !
 ! D17   D(8,2,9,5)           -173.4052         estimate D2E/DX2                !
 ! D18   D(8,2,9,6)              7.6753         estimate D2E/DX2                !
 ! D19   D(12,2,9,5)             6.0504         estimate D2E/DX2                !
 ! D20   D(12,2,9,6)          -172.8691         estimate D2E/DX2                !
 ! D21   D(16,4,8,2)            45.6647         estimate D2E/DX2                !
 ! D22   D(16,4,8,10)          -80.6327         estimate D2E/DX2                !
 ! D23   D(16,4,8,28)          163.8494         estimate D2E/DX2                !
 ! D24   D(17,4,8,2)           167.2792         estimate D2E/DX2                !
 ! D25   D(17,4,8,10)           40.9819         estimate D2E/DX2                !
 ! D26   D(17,4,8,28)          -74.5361         estimate D2E/DX2                !
 ! D27   D(18,4,8,2)           -73.0352         estimate D2E/DX2                !
 ! D28   D(18,4,8,10)          160.6675         estimate D2E/DX2                !
 ! D29   D(18,4,8,28)           45.1495         estimate D2E/DX2                !
 ! D30   D(19,5,9,2)           126.6581         estimate D2E/DX2                !
 ! D31   D(19,5,9,6)           -54.3121         estimate D2E/DX2                !
 ! D32   D(20,5,9,2)             6.3031         estimate D2E/DX2                !
 ! D33   D(20,5,9,6)          -174.6671         estimate D2E/DX2                !
 ! D34   D(21,5,9,2)          -114.2548         estimate D2E/DX2                !
 ! D35   D(21,5,9,6)            64.775          estimate D2E/DX2                !
 ! D36   D(22,6,9,2)           131.8714         estimate D2E/DX2                !
 ! D37   D(22,6,9,5)           -47.0892         estimate D2E/DX2                !
 ! D38   D(23,6,9,2)            11.8935         estimate D2E/DX2                !
 ! D39   D(23,6,9,5)          -167.0671         estimate D2E/DX2                !
 ! D40   D(24,6,9,2)          -109.4525         estimate D2E/DX2                !
 ! D41   D(24,6,9,5)            71.5869         estimate D2E/DX2                !
 ! D42   D(25,7,10,1)          114.4576         estimate D2E/DX2                !
 ! D43   D(25,7,10,8)          -59.1689         estimate D2E/DX2                !
 ! D44   D(26,7,10,1)           -6.1812         estimate D2E/DX2                !
 ! D45   D(26,7,10,8)         -179.8078         estimate D2E/DX2                !
 ! D46   D(27,7,10,1)         -126.7024         estimate D2E/DX2                !
 ! D47   D(27,7,10,8)           59.6711         estimate D2E/DX2                !
 ! D48   D(2,8,10,1)           -75.7146         estimate D2E/DX2                !
 ! D49   D(2,8,10,7)            98.1191         estimate D2E/DX2                !
 ! D50   D(4,8,10,1)            51.3294         estimate D2E/DX2                !
 ! D51   D(4,8,10,7)          -134.837          estimate D2E/DX2                !
 ! D52   D(28,8,10,1)          168.3086         estimate D2E/DX2                !
 ! D53   D(28,8,10,7)          -17.8577         estimate D2E/DX2                !
 --------------------------------------------------------------------------------
 Trust Radius=3.00D-01 FncErr=1.00D-07 GrdErr=1.00D-06
 Number of steps in this run=    138 maximum allowed number of steps=    168.
 GradGradGradGradGradGradGradGradGradGradGradGradGradGradGradGradGradGrad

                          Input orientation:                          
 ---------------------------------------------------------------------
 Center     Atomic      Atomic             Coordinates (Angstroms)
 Number     Number       Type             X           Y           Z
 ---------------------------------------------------------------------
      1          6           0        0.971805   -0.988533   -0.282602
      2          6           0       -0.584408   -2.648555    1.974351
      3          6           0        1.055220   -0.640031   -1.747760
      4          6           0        0.709666   -0.558609    2.700431
      5          6           0       -1.113246   -4.586698    3.398916
      6          6           0       -1.598328   -2.339916    4.280503
      7          6           0       -1.440870   -0.280460   -0.304339
      8          6           0       -0.403030   -1.111331    1.806700
      9          7           0       -1.076537   -3.145155    3.180614
     10          7           0       -0.232670   -0.751323    0.370110
     11          8           0        1.960011   -1.461326    0.285579
     12          8           0       -0.287558   -3.425661    1.055552
     13          1           0        0.852279    0.423799   -1.896356
     14          1           0        2.065607   -0.847845   -2.113367
     15          1           0        0.352825   -1.250306   -2.321484
     16          1           0        1.612510   -1.175903    2.662857
     17          1           0        0.975174    0.464117    2.412637
     18          1           0        0.401927   -0.534077    3.749830
     19          1           0       -0.599147   -4.813631    4.337775
     20          1           0       -0.629346   -5.143004    2.592539
     21          1           0       -2.158224   -4.902884    3.469463
     22          1           0       -2.555066   -2.761630    4.604126
     23          1           0       -1.765386   -1.299780    4.006172
     24          1           0       -0.885794   -2.385447    5.109188
     25          1           0       -2.198897   -1.067458   -0.246333
     26          1           0       -1.281400   -0.029560   -1.352656
     27          1           0       -1.803165    0.613083    0.212983
     28          1           0       -1.339530   -0.631437    2.111147
 ---------------------------------------------------------------------
                    Distance matrix (angstroms):
                    1          2          3          4          5
     1  C    0.000000
     2  C    3.204888   0.000000
     3  C    1.508344   4.536150   0.000000
     4  C    3.025234   2.563141   4.462336   0.000000
     5  C    5.554080   2.462814   6.838619   4.476203   0.000000
     6  C    5.408673   2.538036   6.802270   3.316100   2.461814
     7  C    2.514526   3.396149   2.905723   3.705511   5.689035
     8  C    2.504084   1.556940   3.870763   1.530473   3.888153
     9  N    4.565149   1.394228   5.925277   3.179830   1.458441
    10  N    1.390346   2.509342   2.481214   2.521018   4.965801
    11  O    1.234064   3.276511   2.372265   2.865270   5.376404
    12  O    3.052252   1.239438   4.173889   3.452546   2.742466
    13  H    2.147830   5.146436   1.093160   4.702757   7.550383
    14  H    2.137263   5.193705   1.094412   5.009480   7.380338
    15  H    2.146788   4.613859   1.093140   5.081871   6.782613
    16  H    3.020156   2.732982   4.477865   1.094346   4.427759
    17  H    3.061784   3.509005   4.305167   1.095120   5.553825
    18  H    4.097780   2.931927   5.537285   1.093866   4.340809
    19  H    6.200576   3.205237   7.562381   4.743321   1.094190
    20  H    5.299976   2.570302   6.477093   4.777162   1.092648
    21  H    6.260768   3.129578   7.464420   5.262027   1.094043
    22  H    6.281942   3.288160   7.608009   4.374452   2.619589
    23  H    5.097321   2.709650   6.441959   2.894854   3.405565
    24  H    5.871409   3.160263   7.337012   3.418324   2.796831
    25  H    3.171891   3.168261   3.609190   4.171581   5.181846
    26  H    2.672373   4.291143   2.447157   4.546620   6.585835
    27  H    3.242104   3.902059   3.685807   3.724860   6.137090
    28  H    3.346614   2.158167   4.541593   2.133487   4.165770
                    6          7          8          9         10
     6  C    0.000000
     7  C    5.028610   0.000000
     8  C    3.009628   2.494783   0.000000
     9  N    1.459600   4.525937   2.545131   0.000000
    10  N    4.436194   1.461623   1.490778   3.787014   0.000000
    11  O    5.421541   3.648073   2.832007   4.520744   2.306317
    12  O    3.646542   3.615484   2.435915   2.284088   2.761328
    13  H    7.197026   2.879068   4.200601   6.498722   2.773967
    14  H    7.518794   3.986213   4.640099   6.570915   3.385122
    15  H    6.969969   2.868243   4.199111   5.992212   2.799369
    16  H    3.779046   4.350770   2.190794   3.372981   2.973491
    17  H    4.239626   3.711283   2.179138   4.222102   2.666102
    18  H    2.746577   4.460550   2.181039   3.054110   3.445638
    19  H    2.668503   6.542733   4.489079   2.085842   5.690256
    20  H    3.412543   5.717937   4.113776   2.130073   4.937956
    21  H    2.745920   6.010239   4.496817   2.084009   5.527134
    22  H    1.094496   5.611654   3.896195   2.087948   5.230846
    23  H    1.088599   4.441264   2.594071   2.135760   3.983839
    24  H    1.093845   5.834839   3.572514   2.081570   5.055274
    25  H    4.740472   1.094228   2.728005   4.161788   2.084704
    26  H    6.096775   1.089656   3.453012   5.504492   2.142125
    27  H    5.030594   1.094211   2.733846   4.843467   2.086324
    28  H    2.773441   2.442954   1.095454   2.744394   2.066573
                   11         12         13         14         15
    11  O    0.000000
    12  O    3.082699   0.000000
    13  H    3.088950   4.983105   0.000000
    14  H    2.478397   4.714294   1.770971   0.000000
    15  H    3.069911   4.067755   1.798003   1.771697   0.000000
    16  H    2.419436   3.354862   4.891158   4.808870   5.141594
    17  H    3.033416   4.308892   4.310935   4.836838   5.073309
    18  H    3.910045   4.011955   5.744542   6.102734   6.113612
    19  H    5.848720   3.577224   8.270532   8.027802   7.612441
    20  H    5.057824   2.329896   7.303061   6.917855   6.345500
    21  H    6.240296   3.392424   8.138101   8.090246   7.292582
    22  H    6.381736   4.263204   8.000827   8.374837   7.661853
    23  H    5.267589   3.925495   6.683019   7.233914   6.672967
    24  H    5.676249   4.227516   7.745348   7.952376   7.618241
    25  H    4.211244   3.302915   3.775725   4.660476   3.294080
    26  H    3.903910   4.280268   2.248051   3.528559   2.258216
    27  H    4.297666   4.395275   3.396546   4.744851   3.813664
    28  H    3.861138   3.166799   4.688031   5.430314   4.784901
                   16         17         18         19         20
    16  H    0.000000
    17  H    1.777209   0.000000
    18  H    1.748989   1.764394   0.000000
    19  H    4.574914   5.834317   4.434231   0.000000
    20  H    4.557275   5.834951   4.862618   1.776302   0.000000
    21  H    5.362782   6.303948   5.071435   1.786800   1.778797
    22  H    4.863306   5.260291   3.799424   2.847326   3.664126
    23  H    3.637310   3.627858   2.312847   3.717152   4.249625
    24  H    3.699872   4.342188   2.633182   2.563848   3.742112
    25  H    4.796037   4.414813   4.797719   6.132459   5.208912
    26  H    5.080666   4.417384   5.396619   7.465508   6.491306
    27  H    4.568281   3.546807   4.322927   6.921907   6.338192
    28  H    3.052109   2.578564   2.393206   4.795496   4.592421
                   21         22         23         24         25
    21  H    0.000000
    22  H    2.455588   0.000000
    23  H    3.663978   1.765828   0.000000
    24  H    3.262708   1.784115   1.780168   0.000000
    25  H    5.340345   5.150149   4.280854   5.669474   0.000000
    26  H    6.911652   6.676053   5.528539   6.889277   1.772846
    27  H    6.415343   5.588934   4.248383   5.814256   1.786559
    28  H    4.556373   3.497169   2.054058   3.502952   2.546829
                   26         27         28
    26  H    0.000000
    27  H    1.771004   0.000000
    28  H    3.516187   2.316639   0.000000
 Stoichiometry    C8H16N2O2
 Framework group  C1[X(C8H16N2O2)]
 Deg. of freedom    78
 Full point group                 C1      NOp   1
 Largest Abelian subgroup         C1      NOp   1
 Largest concise Abelian subgroup C1      NOp   1
                         Standard orientation:                         
 ---------------------------------------------------------------------
 Center     Atomic      Atomic             Coordinates (Angstroms)
 Number     Number       Type             X           Y           Z
 ---------------------------------------------------------------------
      1          6           0        2.172696   -0.335182    0.382162
      2          6           0       -0.981800   -0.380350   -0.182124
      3          6           0        3.545777   -0.657520   -0.152484
      4          6           0       -0.089167    1.331525    1.503813
      5          6           0       -3.261033   -1.312445   -0.223924
      6          6           0       -3.016386    1.130367   -0.041323
      7          6           0        1.725662    0.988377   -1.708577
      8          6           0       -0.024285    0.822866    0.061799
      9          7           0       -2.359328   -0.169155   -0.141071
     10          7           0        1.361032    0.496103   -0.381531
     11          8           0        1.817766   -0.806685    1.465963
     12          8           0       -0.531694   -1.514412   -0.400101
     13          1           0        4.123464    0.260118   -0.291108
     14          1           0        4.076733   -1.288217    0.567269
     15          1           0        3.464800   -1.207947   -1.093455
     16          1           0       -0.059987    0.513691    2.230373
     17          1           0        0.737829    2.016772    1.717822
     18          1           0       -1.020529    1.873031    1.693235
     19          1           0       -3.950858   -1.278784    0.624758
     20          1           0       -2.728180   -2.266130   -0.203162
     21          1           0       -3.827413   -1.243789   -1.157429
     22          1           0       -3.807717    1.184896   -0.795474
     23          1           0       -2.337731    1.965519   -0.205628
     24          1           0       -3.461071    1.216169    0.954362
     25          1           0        1.032893    0.559992   -2.439257
     26          1           0        2.742593    0.729230   -2.001915
     27          1           0        1.632340    2.078589   -1.713777
     28          1           0       -0.346455    1.641175   -0.591344
 ---------------------------------------------------------------------
 Rotational constants (GHZ):      1.6635048      0.5518726      0.5304717
 Standard basis: 6-31G(d) (6D, 7F)
 There are   212 symmetry adapted basis functions of A   symmetry.
 Integral buffers will be    131072 words long.
 Raffenetti 2 integral format.
 Two-electron integral symmetry is turned on.
   212 basis functions,   400 primitive gaussians,   212 cartesian basis functions
    47 alpha electrons       47 beta electrons
       nuclear repulsion energy       772.5100484706 Hartrees.
 NAtoms=   28 NActive=   28 NUniq=   28 SFac= 1.00D+00 NAtFMM=   60 NAOKFM=F Big=F
 One-electron integrals computed using PRISM.
 NBasis=   212 RedAO= T  NBF=   212
 NBsUse=   212 1.00D-06 NBFU=   212
 Harris functional with IExCor=  402 diagonalized for initial guess.
 ExpMin= 1.61D-01 ExpMax= 5.48D+03 ExpMxC= 8.25D+02 IAcc=3 IRadAn=         5 AccDes= 0.00D+00
 HarFok:  IExCor=  402 AccDes= 0.00D+00 IRadAn=         5 IDoV= 1
 ScaDFX=  1.000000  1.000000  1.000000  1.000000
 FoFCou: FMM=F IPFlag=           0 FMFlag=      100000 FMFlg1=           0
         NFxFlg=           0 DoJE=T BraDBF=F KetDBF=T FulRan=T
         Omega=  0.000000  0.000000  1.000000  0.000000  0.000000 ICntrl=     500 IOpCl=  0
         NMat0=    1 NMatS0=    1 NMatT0=    0 NMatD0=    1 NMtDS0=    0 NMtDT0=    0
         I1Cent=           4 NGrid=           0.
 Petite list used in FoFCou.
 Initial guess orbital symmetries:
       Occupied  (A) (A) (A) (A) (A) (A) (A) (A) (A) (A) (A) (A)
                 (A) (A) (A) (A) (A) (A) (A) (A) (A) (A) (A) (A)
                 (A) (A) (A) (A) (A) (A) (A) (A) (A) (A) (A) (A)
                 (A) (A) (A) (A) (A) (A) (A) (A) (A) (A) (A)
       Virtual   (A) (A) (A) (A) (A) (A) (A) (A) (A) (A) (A) (A)
                 (A) (A) (A) (A) (A) (A) (A) (A) (A) (A) (A) (A)
                 (A) (A) (A) (A) (A) (A) (A) (A) (A) (A) (A) (A)
                 (A) (A) (A) (A) (A) (A) (A) (A) (A) (A) (A) (A)
                 (A) (A) (A) (A) (A) (A) (A) (A) (A) (A) (A) (A)
                 (A) (A) (A) (A) (A) (A) (A) (A) (A) (A) (A) (A)
                 (A) (A) (A) (A) (A) (A) (A) (A) (A) (A) (A) (A)
                 (A) (A) (A) (A) (A) (A) (A) (A) (A) (A) (A) (A)
                 (A) (A) (A) (A) (A) (A) (A) (A) (A) (A) (A) (A)
                 (A) (A) (A) (A) (A) (A) (A) (A) (A) (A) (A) (A)
                 (A) (A) (A) (A) (A) (A) (A) (A) (A) (A) (A) (A)
                 (A) (A) (A) (A) (A) (A) (A) (A) (A) (A) (A) (A)
                 (A) (A) (A) (A) (A) (A) (A) (A) (A) (A) (A) (A)
                 (A) (A) (A) (A) (A) (A) (A) (A) (A)
 The electronic state of the initial guess is 1-A.
 Requested convergence on RMS density matrix=1.00D-08 within 128 cycles.
 Requested convergence on MAX density matrix=1.00D-06.
 Requested convergence on             energy=1.00D-06.
 No special actions if energy rises.
 Integral accuracy reduced to 1.0D-05 until final iterations.
 Initial convergence to 1.0D-05 achieved.  Increase integral accuracy.
 SCF Done:  E(RB3LYP) =  -574.443167889     A.U. after   14 cycles
             Convg  =    0.8884D-08             -V/T =  2.0098
 Calling FoFJK, ICntrl=      2127 FMM=F ISym2X=0 I1Cent= 0 IOpClX= 0 NMat=1 NMatS=1 NMatT=0.
 ***** Axes restored to original set *****
 -------------------------------------------------------------------
 Center     Atomic                   Forces (Hartrees/Bohr)
 Number     Number              X              Y              Z
 -------------------------------------------------------------------
      1        6           0.010068591   -0.012119836    0.016025969
      2        6           0.001057029   -0.025593278   -0.011898799
      3        6           0.000894723    0.001920569   -0.004837948
      4        6           0.010387703   -0.002248290    0.008973191
      5        6          -0.000982648    0.002314098    0.000545216
      6        6           0.005632906   -0.008313041   -0.003439702
      7        6           0.002274592   -0.005034815    0.008301865
      8        6          -0.000745357   -0.000687477   -0.011513160
      9        7           0.005897725    0.014723104   -0.017531000
     10        7           0.010511310   -0.001065906    0.003935502
     11        8          -0.012704491    0.007038217   -0.001572628
     12        8          -0.005700381    0.016878215    0.015664604
     13        1          -0.003105324    0.000981238   -0.004756223
     14        1          -0.001720524   -0.000827818    0.004494430
     15        1          -0.002094950    0.002638877   -0.003573489
     16        1          -0.002111000    0.002725512   -0.004864394
     17        1          -0.000963328   -0.001172835   -0.001510474
     18        1          -0.004095466    0.000992081    0.000491793
     19        1          -0.000788564   -0.002331942    0.002905918
     20        1          -0.000564511    0.007621908   -0.001179773
     21        1          -0.001744761   -0.004384893    0.002033942
     22        1          -0.001439744    0.000105316    0.002311015
     23        1           0.001138491   -0.000242413   -0.001709943
     24        1          -0.002059718    0.003180278    0.006443083
     25        1          -0.005082591    0.000828791   -0.002213190
     26        1           0.002959584   -0.001347128    0.001809925
     27        1          -0.004379023    0.001973441   -0.001187484
     28        1          -0.000540275    0.001448024   -0.002148244
 -------------------------------------------------------------------
 Cartesian Forces:  Max     0.025593278 RMS     0.006657458

 GradGradGradGradGradGradGradGradGradGradGradGradGradGradGradGradGradGrad
 Berny optimization.
 Internal  Forces:  Max     0.023559902 RMS     0.004563380
 Search for a local minimum.
 Step number   1 out of a maximum of  138
 All quantities printed in internal units (Hartrees-Bohrs-Radians)
 Mixed Optimization -- RFO/linear search
 Second derivative matrix not updated -- first step.
 ITU=  0
     Eigenvalues ---    0.00230   0.00363   0.00491   0.00656   0.00841
     Eigenvalues ---    0.00877   0.00903   0.00919   0.01020   0.01142
     Eigenvalues ---    0.01149   0.01768   0.01819   0.03853   0.05149
     Eigenvalues ---    0.05362   0.05492   0.06506   0.07189   0.07230
     Eigenvalues ---    0.07259   0.07321   0.07496   0.07720   0.07725
     Eigenvalues ---    0.07731   0.16000   0.16000   0.16000   0.16000
     Eigenvalues ---    0.16000   0.16000   0.16000   0.16000   0.16000
     Eigenvalues ---    0.16000   0.16000   0.16000   0.16000   0.16000
     Eigenvalues ---    0.16000   0.18216   0.18875   0.24826   0.24904
     Eigenvalues ---    0.24995   0.24998   0.24999   0.25000   0.25000
     Eigenvalues ---    0.25000   0.27069   0.29380   0.31518   0.33364
     Eigenvalues ---    0.34190   0.34228   0.34298   0.34308   0.34315
     Eigenvalues ---    0.34329   0.34330   0.34333   0.34350   0.34370
     Eigenvalues ---    0.34372   0.34450   0.34452   0.34508   0.34852
     Eigenvalues ---    0.34975   0.36762   0.37014   0.37160   0.46591
     Eigenvalues ---    0.47259   0.87265   0.89414
 RFO step:  Lambda=-1.06298770D-02 EMin= 2.30000000D-03
 Linear search not attempted -- first point.
 Iteration  1 RMS(Cart)=  0.09789386 RMS(Int)=  0.00319034
 Iteration  2 RMS(Cart)=  0.00427189 RMS(Int)=  0.00031150
 Iteration  3 RMS(Cart)=  0.00000740 RMS(Int)=  0.00031146
 Iteration  4 RMS(Cart)=  0.00000000 RMS(Int)=  0.00031146
 Variable       Old X    -DE/DX   Delta X   Delta X   Delta X     New X
                                 (Linear)    (Quad)   (Total)
    R1        2.85036   0.00918   0.00000   0.02818   0.02818   2.87853
    R2        2.62737  -0.01015   0.00000  -0.02101  -0.02101   2.60636
    R3        2.33204  -0.01359   0.00000  -0.01502  -0.01502   2.31702
    R4        2.94219  -0.00459   0.00000  -0.01632  -0.01632   2.92587
    R5        2.63471  -0.01463   0.00000  -0.03071  -0.03071   2.60400
    R6        2.34220  -0.02356   0.00000  -0.02667  -0.02667   2.31552
    R7        2.06577   0.00218   0.00000   0.00613   0.00613   2.07191
    R8        2.06814  -0.00293   0.00000  -0.00829  -0.00829   2.05985
    R9        2.06573   0.00175   0.00000   0.00492   0.00492   2.07066
   R10        2.89218   0.00425   0.00000   0.01397   0.01397   2.90614
   R11        2.06801  -0.00311   0.00000  -0.00880  -0.00880   2.05922
   R12        2.06948  -0.00093   0.00000  -0.00264  -0.00264   2.06683
   R13        2.06711   0.00165   0.00000   0.00465   0.00465   2.07175
   R14        2.75605  -0.00244   0.00000  -0.00637  -0.00637   2.74968
   R15        2.06772   0.00261   0.00000   0.00736   0.00736   2.07508
   R16        2.06481  -0.00326   0.00000  -0.00917  -0.00917   2.05564
   R17        2.06744   0.00307   0.00000   0.00866   0.00866   2.07610
   R18        2.75824  -0.00136   0.00000  -0.00357  -0.00357   2.75467
   R19        2.06830   0.00190   0.00000   0.00538   0.00538   2.07368
   R20        2.05715   0.00002   0.00000   0.00007   0.00007   2.05722
   R21        2.06707   0.00341   0.00000   0.00961   0.00961   2.07668
   R22        2.76207  -0.00076   0.00000  -0.00200  -0.00200   2.76007
   R23        2.06779   0.00281   0.00000   0.00793   0.00793   2.07572
   R24        2.05915  -0.00162   0.00000  -0.00451  -0.00451   2.05465
   R25        2.06776   0.00250   0.00000   0.00706   0.00706   2.07482
   R26        2.81716  -0.01731   0.00000  -0.05029  -0.05029   2.76688
   R27        2.07011   0.00050   0.00000   0.00142   0.00142   2.07152
    A1        2.05388  -0.00159   0.00000  -0.00615  -0.00645   2.04742
    A2        2.08457   0.00646   0.00000   0.02475   0.02443   2.10900
    A3        2.14473  -0.00488   0.00000  -0.01879  -0.01907   2.12566
    A4        2.07825  -0.00719   0.00000  -0.02757  -0.02759   2.05066
    A5        2.10752   0.00051   0.00000   0.00200   0.00198   2.10949
    A6        2.09738   0.00668   0.00000   0.02567   0.02565   2.12303
    A7        1.92477   0.00596   0.00000   0.03526   0.03523   1.95999
    A8        1.90889  -0.00702   0.00000  -0.04036  -0.04005   1.86884
    A9        1.92334   0.00471   0.00000   0.02650   0.02642   1.94976
   A10        1.88680   0.00105   0.00000   0.00842   0.00878   1.89558
   A11        1.93122  -0.00599   0.00000  -0.03659  -0.03695   1.89427
   A12        1.88796   0.00104   0.00000   0.00538   0.00564   1.89360
   A13        1.95632  -0.00205   0.00000  -0.00997  -0.01014   1.94618
   A14        1.93914  -0.00215   0.00000  -0.02088  -0.02117   1.91797
   A15        1.94312  -0.00289   0.00000  -0.01069  -0.01076   1.93236
   A16        1.89415   0.00080   0.00000  -0.00657  -0.00695   1.88720
   A17        1.85218   0.00470   0.00000   0.04309   0.04314   1.89532
   A18        1.87484   0.00211   0.00000   0.00845   0.00826   1.88310
   A19        1.89822   0.00408   0.00000   0.02542   0.02507   1.92329
   A20        1.96235  -0.01205   0.00000  -0.07393  -0.07351   1.88884
   A21        1.89584   0.00709   0.00000   0.04323   0.04310   1.93894
   A22        1.89606   0.00313   0.00000   0.01498   0.01517   1.91123
   A23        1.91081  -0.00379   0.00000  -0.01518  -0.01602   1.89480
   A24        1.90017   0.00154   0.00000   0.00584   0.00645   1.90662
   A25        1.89942   0.00174   0.00000   0.00896   0.00854   1.90796
   A26        1.97370  -0.00527   0.00000  -0.03333  -0.03317   1.94053
   A27        1.89131   0.01012   0.00000   0.06285   0.06272   1.95403
   A28        1.88443   0.00027   0.00000  -0.00519  -0.00530   1.87913
   A29        1.90643  -0.00450   0.00000  -0.02118  -0.02186   1.88457
   A30        1.90779  -0.00253   0.00000  -0.01288  -0.01249   1.89530
   A31        1.89281   0.00731   0.00000   0.04481   0.04435   1.93716
   A32        1.97919  -0.00771   0.00000  -0.04948  -0.04902   1.93017
   A33        1.89505   0.00635   0.00000   0.03931   0.03881   1.93387
   A34        1.89440  -0.00110   0.00000  -0.01074  -0.01027   1.88413
   A35        1.91017  -0.00446   0.00000  -0.01693  -0.01827   1.89190
   A36        1.89154  -0.00051   0.00000  -0.00706  -0.00666   1.88487
   A37        1.95885   0.00220   0.00000   0.01236   0.01238   1.97123
   A38        1.93426  -0.00434   0.00000  -0.02711  -0.02716   1.90709
   A39        1.87865   0.00040   0.00000   0.00195   0.00165   1.88030
   A40        1.97408   0.00222   0.00000   0.01040   0.01048   1.98456
   A41        1.87657  -0.00033   0.00000   0.01096   0.01092   1.88749
   A42        1.83353  -0.00026   0.00000  -0.00894  -0.00909   1.82444
   A43        2.08339  -0.00308   0.00000  -0.01183  -0.01183   2.07156
   A44        2.19155   0.00424   0.00000   0.01628   0.01628   2.20783
   A45        2.00810  -0.00116   0.00000  -0.00446  -0.00446   2.00365
   A46        2.15849   0.00471   0.00000   0.01648   0.01598   2.17447
   A47        2.10621  -0.00272   0.00000  -0.01212  -0.01248   2.09373
   A48        2.01307  -0.00210   0.00000  -0.00958  -0.00997   2.00311
    D1        1.03503  -0.00090   0.00000  -0.03103  -0.03098   1.00405
    D2        3.10776  -0.00033   0.00000  -0.02423  -0.02450   3.08325
    D3       -1.10214  -0.00052   0.00000  -0.02640  -0.02687  -1.12902
    D4       -2.10187   0.00009   0.00000   0.01347   0.01399  -2.08788
    D5       -0.02914   0.00067   0.00000   0.02027   0.02047  -0.00868
    D6        2.04414   0.00048   0.00000   0.01810   0.01809   2.06224
    D7        0.08238   0.00006   0.00000   0.01347   0.01324   0.09561
    D8        3.10705  -0.00125   0.00000  -0.04327  -0.04375   3.06330
    D9       -3.06408  -0.00093   0.00000  -0.03255  -0.03207  -3.09615
   D10       -0.03941  -0.00225   0.00000  -0.08929  -0.08905  -0.12846
   D11        1.18576  -0.00062   0.00000  -0.04189  -0.04189   1.14387
   D12       -2.87173   0.00061   0.00000  -0.04004  -0.04012  -2.91185
   D13       -0.87572  -0.00174   0.00000  -0.06372  -0.06376  -0.93948
   D14       -1.94627  -0.00087   0.00000  -0.05483  -0.05475  -2.00102
   D15        0.27942   0.00035   0.00000  -0.05298  -0.05299   0.22643
   D16        2.27543  -0.00200   0.00000  -0.07666  -0.07662   2.19881
   D17       -3.02649  -0.00067   0.00000  -0.02593  -0.02599  -3.05248
   D18        0.13396  -0.00065   0.00000  -0.02539  -0.02545   0.10851
   D19        0.10560  -0.00045   0.00000  -0.01320  -0.01315   0.09245
   D20       -3.01714  -0.00042   0.00000  -0.01267  -0.01261  -3.02975
   D21        0.79700   0.00057   0.00000   0.03358   0.03345   0.83045
   D22       -1.40731   0.00282   0.00000   0.05172   0.05161  -1.35569
   D23        2.85971   0.00212   0.00000   0.05004   0.04993   2.90965
   D24        2.91957  -0.00138   0.00000   0.00320   0.00324   2.92281
   D25        0.71527   0.00088   0.00000   0.02135   0.02140   0.73667
   D26       -1.30090   0.00017   0.00000   0.01967   0.01972  -1.28118
   D27       -1.27470  -0.00208   0.00000  -0.00722  -0.00717  -1.28187
   D28        2.80418   0.00018   0.00000   0.01092   0.01099   2.81517
   D29        0.78801  -0.00053   0.00000   0.00924   0.00931   0.79732
   D30        2.21060  -0.00099   0.00000  -0.01195  -0.01236   2.19824
   D31       -0.94792  -0.00095   0.00000  -0.01220  -0.01261  -0.96054
   D32        0.11001  -0.00003   0.00000  -0.00099  -0.00116   0.10885
   D33       -3.04852   0.00001   0.00000  -0.00124  -0.00141  -3.04993
   D34       -1.99412   0.00088   0.00000   0.00931   0.00990  -1.98422
   D35        1.13054   0.00092   0.00000   0.00906   0.00965   1.14019
   D36        2.30159  -0.00126   0.00000  -0.02125  -0.02147   2.28012
   D37       -0.82186  -0.00121   0.00000  -0.02065  -0.02087  -0.84273
   D38        0.20758   0.00058   0.00000   0.00044   0.00024   0.20782
   D39       -2.91587   0.00063   0.00000   0.00104   0.00085  -2.91503
   D40       -1.91031   0.00011   0.00000  -0.00573  -0.00531  -1.91561
   D41        1.24943   0.00015   0.00000  -0.00513  -0.00470   1.24473
   D42        1.99766  -0.00199   0.00000  -0.04715  -0.04804   1.94962
   D43       -1.03269  -0.00067   0.00000   0.00711   0.00658  -1.02612
   D44       -0.10788  -0.00076   0.00000  -0.03307  -0.03322  -0.14111
   D45       -3.13824   0.00056   0.00000   0.02118   0.02139  -3.11684
   D46       -2.21137   0.00041   0.00000  -0.01974  -0.01924  -2.23061
   D47        1.04146   0.00173   0.00000   0.03451   0.03538   1.07683
   D48       -1.32147  -0.00188   0.00000  -0.06265  -0.06285  -1.38432
   D49        1.71250  -0.00264   0.00000  -0.11317  -0.11276   1.59974
   D50        0.89587  -0.00069   0.00000  -0.05995  -0.06024   0.83562
   D51       -2.35335  -0.00146   0.00000  -0.11047  -0.11016  -2.46351
   D52        2.93754  -0.00009   0.00000  -0.04685  -0.04726   2.89028
   D53       -0.31168  -0.00086   0.00000  -0.09737  -0.09717  -0.40885
         Item               Value     Threshold  Converged?
 Maximum Force            0.023560     0.000450     NO 
 RMS     Force            0.004563     0.000300     NO 
 Maximum Displacement     0.324098     0.001800     NO 
 RMS     Displacement     0.098709     0.001200     NO 
 Predicted change in Energy=-6.028978D-03
 GradGradGradGradGradGradGradGradGradGradGradGradGradGradGradGradGradGrad

                          Input orientation:                          
 ---------------------------------------------------------------------
 Center     Atomic      Atomic             Coordinates (Angstroms)
 Number     Number       Type             X           Y           Z
 ---------------------------------------------------------------------
      1          6           0        0.982446   -0.944035   -0.212845
      2          6           0       -0.619502   -2.624437    1.937247
      3          6           0        1.064552   -0.654515   -1.706076
      4          6           0        0.719676   -0.573673    2.724391
      5          6           0       -1.175204   -4.549270    3.325593
      6          6           0       -1.494707   -2.317185    4.293718
      7          6           0       -1.467735   -0.384407   -0.290456
      8          6           0       -0.405514   -1.095842    1.815374
      9          7           0       -1.072266   -3.109112    3.145104
     10          7           0       -0.234269   -0.742886    0.404742
     11          8           0        1.976656   -1.289821    0.415910
     12          8           0       -0.395730   -3.368048    0.989415
     13          1           0        0.781084    0.377069   -1.946040
     14          1           0        2.101180   -0.809013   -2.005554
     15          1           0        0.430180   -1.333969   -2.286223
     16          1           0        1.617145   -1.186087    2.641169
     17          1           0        0.979615    0.450940    2.443627
     18          1           0        0.398651   -0.564559    3.772622
     19          1           0       -0.621612   -4.859559    4.221724
     20          1           0       -0.748889   -5.033208    2.449601
     21          1           0       -2.223114   -4.859898    3.436809
     22          1           0       -2.467368   -2.681447    4.647841
     23          1           0       -1.611996   -1.268342    4.026698
     24          1           0       -0.781789   -2.389012    5.126929
     25          1           0       -2.193129   -1.208473   -0.255024
     26          1           0       -1.266474   -0.159770   -1.335058
     27          1           0       -1.928198    0.502387    0.164584
     28          1           0       -1.339270   -0.603388    2.110753
 ---------------------------------------------------------------------
                    Distance matrix (angstroms):
                    1          2          3          4          5
     1  C    0.000000
     2  C    3.164315   0.000000
     3  C    1.523253   4.471066   0.000000
     4  C    2.972132   2.572669   4.444605   0.000000
     5  C    5.493061   2.437476   6.745615   4.444928   0.000000
     6  C    5.322682   2.532458   6.731405   3.225851   2.453884
     7  C    2.514477   3.271070   2.913660   3.729596   5.523357
     8  C    2.462347   1.548304   3.841416   1.537863   3.846992
     9  N    4.492797   1.377978   5.841660   3.133131   1.455069
    10  N    1.379228   2.457074   2.479979   2.513844   4.889303
    11  O    1.226114   3.291763   2.395490   2.724326   5.387437
    12  O    3.036550   1.225323   4.094064   3.473154   2.731409
    13  H    2.188568   5.103979   1.096405   4.766613   7.475694
    14  H    2.117452   5.122847   1.090025   4.933185   7.290085
    15  H    2.180812   4.539256   1.095744   5.076229   6.663925
    16  H    2.933740   2.750809   4.414348   1.089691   4.424551
    17  H    3.000468   3.503076   4.295263   1.093722   5.515723
    18  H    4.045833   2.940805   5.519751   1.096325   4.307526
    19  H    6.129416   3.196030   7.460855   4.733908   1.098086
    20  H    5.177593   2.466054   6.303266   4.703152   1.087798
    21  H    6.239357   3.133296   7.412372   5.247788   1.098624
    22  H    6.208550   3.281033   7.546865   4.277805   2.628077
    23  H    4.980967   2.681388   6.356524   2.759577   3.383315
    24  H    5.806348   3.202473   7.287484   3.364824   2.840123
    25  H    3.186846   3.047509   3.609004   4.214774   5.001791
    26  H    2.632884   4.147426   2.411662   4.538197   6.402946
    27  H    3.272070   3.825187   3.714074   3.836893   6.006515
    28  H    3.302350   2.152397   4.511004   2.148649   4.131917
                    6          7          8          9         10
     6  C    0.000000
     7  C    4.975039   0.000000
     8  C    2.969884   2.463529   0.000000
     9  N    1.457710   4.402669   2.503197   0.000000
    10  N    4.380783   1.460564   1.464167   3.716295   0.000000
    11  O    5.305020   3.630779   2.769632   4.478197   2.277598
    12  O    3.637373   3.418974   2.417689   2.274147   2.694325
    13  H    7.167483   2.894476   4.210192   6.442679   2.794891
    14  H    7.408496   3.982337   4.578786   6.472287   3.356817
    15  H    6.925860   2.913217   4.192635   5.908282   2.834107
    16  H    3.700530   4.330543   2.186603   3.344385   2.936965
    17  H    4.148207   3.763315   2.169290   4.168484   2.656273
    18  H    2.632118   4.474869   2.181688   3.005350   3.431472
    19  H    2.689078   6.411137   4.472447   2.103869   5.627289
    20  H    3.366570   5.443896   4.002873   2.071338   4.780496
    21  H    2.780334   5.873085   4.483396   2.115371   5.486230
    22  H    1.097342   5.537367   3.845550   2.094618   5.171909
    23  H    1.088636   4.409079   2.524938   2.111149   3.910602
    24  H    1.098932   5.816961   3.574950   2.128509   5.030762
    25  H    4.733719   1.098425   2.737664   4.053349   2.118773
    26  H    6.032384   1.087272   3.397456   5.367327   2.105321
    27  H    5.018730   1.097949   2.756449   4.760152   2.116076
    28  H    2.779676   2.414593   1.096203   2.723936   2.037391
                   11         12         13         14         15
    11  O    0.000000
    12  O    3.205644   0.000000
    13  H    3.128374   4.901805   0.000000
    14  H    2.471876   4.664018   1.775666   0.000000
    15  H    3.113689   3.943274   1.779469   1.773864   0.000000
    16  H    2.256499   3.397192   4.917819   4.687058   5.070498
    17  H    2.852363   4.311725   4.394775   4.758214   5.085200
    18  H    3.779368   4.029495   5.808271   6.028738   6.107584
    19  H    5.829086   3.566994   8.211647   7.911985   7.475923
    20  H    5.057414   2.242681   7.136776   6.768686   6.123936
    21  H    6.285646   3.399218   8.088640   8.045403   7.226704
    22  H    6.292473   4.259951   7.961547   8.285246   7.634967
    23  H    5.090842   3.887564   6.641372   7.098361   6.635342
    24  H    5.568747   4.269260   7.753752   7.853676   7.585302
    25  H    4.224202   3.072953   3.770865   4.654570   3.320131
    26  H    3.854971   4.056405   2.203177   3.494593   2.272024
    27  H    4.303843   4.243710   3.436662   4.760794   3.865308
    28  H    3.786694   3.129059   4.681321   5.368702   4.795633
                   16         17         18         19         20
    16  H    0.000000
    17  H    1.767858   0.000000
    18  H    1.775165   1.770588   0.000000
    19  H    4.583076   5.824685   4.437303   0.000000
    20  H    4.520526   5.750099   4.799589   1.785154   0.000000
    21  H    5.373781   6.280834   5.043448   1.783508   1.782683
    22  H    4.790207   5.152872   3.668963   2.886618   3.649138
    23  H    3.514799   3.489770   2.145360   3.730380   4.172098
    24  H    3.657994   4.285788   2.560511   2.636031   3.763103
    25  H    4.786087   4.483601   4.832586   5.986766   4.901981
    26  H    5.017865   4.438056   5.387475   7.306278   6.192087
    27  H    4.642615   3.694869   4.423860   6.849673   6.103678
    28  H    3.059619   2.568976   2.404930   4.804813   4.481816
                   21         22         23         24         25
    21  H    0.000000
    22  H    2.504378   0.000000
    23  H    3.690624   1.764750   0.000000
    24  H    3.322530   1.776576   1.776415   0.000000
    25  H    5.192633   5.126690   4.321394   5.687792   0.000000
    26  H    6.765877   6.602733   5.486051   6.852863   1.767751
    27  H    6.288763   5.525133   4.260445   5.856561   1.781377
    28  H    4.545051   3.468105   2.046312   3.549163   2.586910
                   26         27         28
    26  H    0.000000
    27  H    1.767840   0.000000
    28  H    3.475012   2.314551   0.000000
 Stoichiometry    C8H16N2O2
 Framework group  C1[X(C8H16N2O2)]
 Deg. of freedom    78
 Full point group                 C1      NOp   1
 Largest Abelian subgroup         C1      NOp   1
 Largest concise Abelian subgroup C1      NOp   1
                         Standard orientation:                         
 ---------------------------------------------------------------------
 Center     Atomic      Atomic             Coordinates (Angstroms)
 Number     Number       Type             X           Y           Z
 ---------------------------------------------------------------------
      1          6           0        2.144785   -0.085985    0.494658
      2          6           0       -0.955469   -0.444121   -0.027887
      3          6           0        3.505840   -0.678058    0.152198
      4          6           0       -0.101195    1.836103    0.802427
      5          6           0       -3.208307   -1.306075    0.322889
      6          6           0       -2.982314    1.027316   -0.402203
      7          6           0        1.636139    0.037657   -1.964729
      8          6           0       -0.025938    0.764320   -0.297865
      9          7           0       -2.314421   -0.216155   -0.038036
     10          7           0        1.331677    0.281170   -0.557160
     11          8           0        1.816710    0.102184    1.660983
     12          8           0       -0.492244   -1.558831    0.182500
     13          1           0        4.110618   -0.001940   -0.463604
     14          1           0        4.026464   -0.849698    1.094348
     15          1           0        3.411089   -1.635582   -0.372040
     16          1           0       -0.028131    1.394520    1.795953
     17          1           0        0.720705    2.548118    0.685196
     18          1           0       -1.042449    2.394316    0.736341
     19          1           0       -3.884184   -0.990959    1.128920
     20          1           0       -2.603339   -2.143776    0.662851
     21          1           0       -3.813706   -1.622347   -0.537598
     22          1           0       -3.781692    0.812528   -1.122634
     23          1           0       -2.289909    1.722097   -0.874415
     24          1           0       -3.434628    1.521240    0.469062
     25          1           0        0.947974   -0.703256   -2.393699
     26          1           0        2.649025   -0.341360   -2.076840
     27          1           0        1.554413    0.964652   -2.547391
     28          1           0       -0.340012    1.222565   -1.242868
 ---------------------------------------------------------------------
 Rotational constants (GHZ):      1.6689016      0.5634713      0.5477920
 Standard basis: 6-31G(d) (6D, 7F)
 There are   212 symmetry adapted basis functions of A   symmetry.
 Integral buffers will be    131072 words long.
 Raffenetti 2 integral format.
 Two-electron integral symmetry is turned on.
   212 basis functions,   400 primitive gaussians,   212 cartesian basis functions
    47 alpha electrons       47 beta electrons
       nuclear repulsion energy       778.7588591278 Hartrees.
 NAtoms=   28 NActive=   28 NUniq=   28 SFac= 1.00D+00 NAtFMM=   60 NAOKFM=F Big=F
 One-electron integrals computed using PRISM.
 NBasis=   212 RedAO= T  NBF=   212
 NBsUse=   212 1.00D-06 NBFU=   212
 Initial guess read from the read-write file.
 B after Tr=     0.000000    0.000000    0.000000
         Rot=    1.000000    0.000000    0.000000    0.000000 Ang=   0.00 deg.
 Initial guess orbital symmetries:
       Occupied  (A) (A) (A) (A) (A) (A) (A) (A) (A) (A) (A) (A)
                 (A) (A) (A) (A) (A) (A) (A) (A) (A) (A) (A) (A)
                 (A) (A) (A) (A) (A) (A) (A) (A) (A) (A) (A) (A)
                 (A) (A) (A) (A) (A) (A) (A) (A) (A) (A) (A)
       Virtual   (A) (A) (A) (A) (A) (A) (A) (A) (A) (A) (A) (A)
                 (A) (A) (A) (A) (A) (A) (A) (A) (A) (A) (A) (A)
                 (A) (A) (A) (A) (A) (A) (A) (A) (A) (A) (A) (A)
                 (A) (A) (A) (A) (A) (A) (A) (A) (A) (A) (A) (A)
                 (A) (A) (A) (A) (A) (A) (A) (A) (A) (A) (A) (A)
                 (A) (A) (A) (A) (A) (A) (A) (A) (A) (A) (A) (A)
                 (A) (A) (A) (A) (A) (A) (A) (A) (A) (A) (A) (A)
                 (A) (A) (A) (A) (A) (A) (A) (A) (A) (A) (A) (A)
                 (A) (A) (A) (A) (A) (A) (A) (A) (A) (A) (A) (A)
                 (A) (A) (A) (A) (A) (A) (A) (A) (A) (A) (A) (A)
                 (A) (A) (A) (A) (A) (A) (A) (A) (A) (A) (A) (A)
                 (A) (A) (A) (A) (A) (A) (A) (A) (A) (A) (A) (A)
                 (A) (A) (A) (A) (A) (A) (A) (A) (A) (A) (A) (A)
                 (A) (A) (A) (A) (A) (A) (A) (A) (A)
 Harris functional with IExCor=  402 diagonalized for initial guess.
 ExpMin= 1.61D-01 ExpMax= 5.48D+03 ExpMxC= 8.25D+02 IAcc=3 IRadAn=         5 AccDes= 0.00D+00
 HarFok:  IExCor=  402 AccDes= 0.00D+00 IRadAn=         5 IDoV= 1
 ScaDFX=  1.000000  1.000000  1.000000  1.000000
 FoFCou: FMM=F IPFlag=           0 FMFlag=      100000 FMFlg1=           0
         NFxFlg=           0 DoJE=T BraDBF=F KetDBF=T FulRan=T
         Omega=  0.000000  0.000000  1.000000  0.000000  0.000000 ICntrl=     500 IOpCl=  0
         NMat0=    1 NMatS0=    1 NMatT0=    0 NMatD0=    1 NMtDS0=    0 NMtDT0=    0
         I1Cent=           4 NGrid=           0.
 Petite list used in FoFCou.
 Requested convergence on RMS density matrix=1.00D-08 within 128 cycles.
 Requested convergence on MAX density matrix=1.00D-06.
 Requested convergence on             energy=1.00D-06.
 No special actions if energy rises.
 Integral accuracy reduced to 1.0D-05 until final iterations.
 Initial convergence to 1.0D-05 achieved.  Increase integral accuracy.
 SCF Done:  E(RB3LYP) =  -574.447899005     A.U. after   15 cycles
             Convg  =    0.4370D-08             -V/T =  2.0095
 Calling FoFJK, ICntrl=      2127 FMM=F ISym2X=0 I1Cent= 0 IOpClX= 0 NMat=1 NMatS=1 NMatT=0.
 ***** Axes restored to original set *****
 -------------------------------------------------------------------
 Center     Atomic                   Forces (Hartrees/Bohr)
 Number     Number              X              Y              Z
 -------------------------------------------------------------------
      1        6          -0.000360761    0.001849872    0.002449474
      2        6          -0.001528376   -0.004104237    0.000988136
      3        6           0.001461876   -0.000839312   -0.001113630
      4        6           0.002433042   -0.000582543    0.007099300
      5        6           0.001023922   -0.001083272   -0.000276317
      6        6          -0.000726431   -0.000609844   -0.003366001
      7        6           0.002718577   -0.003743868   -0.000119366
      8        6           0.000421784    0.001273626   -0.003245661
      9        7          -0.000234321    0.001658441    0.002925443
     10        7          -0.001717194    0.004879114    0.000895364
     11        8          -0.000169131   -0.001975396   -0.006038700
     12        8          -0.000269567    0.001335728    0.000465934
     13        1          -0.000448969   -0.000538580   -0.000070284
     14        1           0.000586443   -0.000144378    0.000185884
     15        1          -0.000475543    0.000480352    0.000006524
     16        1          -0.001431197    0.001551825   -0.000515998
     17        1          -0.000149274    0.000039604   -0.000374817
     18        1          -0.000483070    0.000929497   -0.001543629
     19        1          -0.000533791    0.000140552    0.000085262
     20        1          -0.000047285   -0.000769235   -0.000640674
     21        1          -0.000034675    0.000277474    0.000341268
     22        1          -0.000122178   -0.000372606    0.000219132
     23        1          -0.000558602   -0.000086937    0.001177362
     24        1           0.000323842   -0.000304649   -0.000411361
     25        1           0.000232340   -0.000396043   -0.000089292
     26        1          -0.000491494    0.000269305   -0.000649092
     27        1           0.000531963   -0.000019118    0.000584924
     28        1           0.000048070    0.000884629    0.001030814
 -------------------------------------------------------------------
 Cartesian Forces:  Max     0.007099300 RMS     0.001679912

 GradGradGradGradGradGradGradGradGradGradGradGradGradGradGradGradGradGrad
 Berny optimization.
 Using GEDIIS/GDIIS optimizer.
 Internal  Forces:  Max     0.010166704 RMS     0.001936297
 Search for a local minimum.
 Step number   2 out of a maximum of  138
 All quantities printed in internal units (Hartrees-Bohrs-Radians)
 Mixed Optimization -- RFO/linear search
 Update second derivatives using D2CorX and points    1    2
 DE= -4.73D-03 DEPred=-6.03D-03 R= 7.85D-01
 SS=  1.41D+00  RLast= 3.65D-01 DXNew= 5.0454D-01 1.0948D+00
 Trust test= 7.85D-01 RLast= 3.65D-01 DXMaxT set to 5.05D-01
 ITU=  1  0
 Use linear search instead of GDIIS.
     Eigenvalues ---    0.00241   0.00366   0.00549   0.00656   0.00851
     Eigenvalues ---    0.00876   0.00906   0.00919   0.00999   0.01150
     Eigenvalues ---    0.01183   0.01778   0.01899   0.03876   0.04990
     Eigenvalues ---    0.05395   0.05670   0.06689   0.06974   0.07177
     Eigenvalues ---    0.07326   0.07372   0.07448   0.07558   0.07587
     Eigenvalues ---    0.07683   0.13782   0.16000   0.16000   0.16000
     Eigenvalues ---    0.16000   0.16000   0.16000   0.16000   0.16000
     Eigenvalues ---    0.16000   0.16000   0.16000   0.16000   0.16000
     Eigenvalues ---    0.16155   0.18454   0.18739   0.24243   0.24727
     Eigenvalues ---    0.24906   0.24989   0.24997   0.24998   0.25000
     Eigenvalues ---    0.26754   0.28996   0.29132   0.31528   0.34094
     Eigenvalues ---    0.34183   0.34206   0.34232   0.34300   0.34316
     Eigenvalues ---    0.34329   0.34331   0.34343   0.34354   0.34368
     Eigenvalues ---    0.34439   0.34451   0.34488   0.34833   0.34972
     Eigenvalues ---    0.35771   0.36925   0.37066   0.38129   0.46590
     Eigenvalues ---    0.48191   0.85339   0.89004
 RFO step:  Lambda=-3.07828305D-03 EMin= 2.41101372D-03
 Quartic linear search produced a step of -0.10966.
 Iteration  1 RMS(Cart)=  0.12406581 RMS(Int)=  0.00388474
 Iteration  2 RMS(Cart)=  0.00785392 RMS(Int)=  0.00051865
 Iteration  3 RMS(Cart)=  0.00001280 RMS(Int)=  0.00051855
 Iteration  4 RMS(Cart)=  0.00000002 RMS(Int)=  0.00051855
 Variable       Old X    -DE/DX   Delta X   Delta X   Delta X     New X
                                 (Linear)    (Quad)   (Total)
    R1        2.87853   0.00083  -0.00309   0.01493   0.01184   2.89038
    R2        2.60636   0.00275   0.00230  -0.00425  -0.00195   2.60441
    R3        2.31702  -0.00268   0.00165  -0.00937  -0.00772   2.30930
    R4        2.92587   0.00436   0.00179   0.00688   0.00867   2.93454
    R5        2.60400   0.00075   0.00337  -0.01230  -0.00894   2.59507
    R6        2.31552  -0.00122   0.00293  -0.01316  -0.01023   2.30529
    R7        2.07191  -0.00038  -0.00067   0.00178   0.00111   2.07301
    R8        2.05985   0.00053   0.00091  -0.00235  -0.00144   2.05841
    R9        2.07066  -0.00003  -0.00054   0.00213   0.00159   2.07225
   R10        2.90614   0.00368  -0.00153   0.01729   0.01576   2.92190
   R11        2.05922  -0.00201   0.00096  -0.00911  -0.00814   2.05108
   R12        2.06683   0.00010   0.00029  -0.00093  -0.00064   2.06620
   R13        2.07175  -0.00133  -0.00051  -0.00133  -0.00184   2.06992
   R14        2.74968   0.00133   0.00070   0.00031   0.00101   2.75069
   R15        2.07508  -0.00024  -0.00081   0.00268   0.00187   2.07695
   R16        2.05564   0.00084   0.00101  -0.00195  -0.00095   2.05469
   R17        2.07610  -0.00001  -0.00095   0.00384   0.00289   2.07899
   R18        2.75467  -0.00231   0.00039  -0.00710  -0.00671   2.74796
   R19        2.07368   0.00030  -0.00059   0.00318   0.00259   2.07627
   R20        2.05722  -0.00031  -0.00001  -0.00076  -0.00076   2.05646
   R21        2.07668  -0.00008  -0.00105   0.00409   0.00303   2.07971
   R22        2.76007  -0.00335   0.00022  -0.00894  -0.00872   2.75135
   R23        2.07572   0.00014  -0.00087   0.00391   0.00304   2.07876
   R24        2.05465   0.00059   0.00049  -0.00053  -0.00003   2.05462
   R25        2.07482   0.00000  -0.00077   0.00317   0.00239   2.07722
   R26        2.76688   0.00399   0.00551  -0.01195  -0.00643   2.76044
   R27        2.07152   0.00063  -0.00016   0.00227   0.00211   2.07364
    A1        2.04742  -0.00121   0.00071  -0.00584  -0.00627   2.04115
    A2        2.10900  -0.00508  -0.00268  -0.00570  -0.00950   2.09950
    A3        2.12566   0.00636   0.00209   0.01526   0.01619   2.14185
    A4        2.05066   0.00520   0.00303   0.00590   0.00890   2.05956
    A5        2.10949  -0.00343  -0.00022  -0.01119  -0.01144   2.09805
    A6        2.12303  -0.00177  -0.00281   0.00524   0.00240   2.12542
    A7        1.95999   0.00008  -0.00386   0.01558   0.01173   1.97172
    A8        1.86884  -0.00034   0.00439  -0.01858  -0.01419   1.85465
    A9        1.94976   0.00006  -0.00290   0.01160   0.00872   1.95848
   A10        1.89558   0.00034  -0.00096   0.00689   0.00593   1.90151
   A11        1.89427  -0.00049   0.00405  -0.02126  -0.01718   1.87709
   A12        1.89360   0.00039  -0.00062   0.00592   0.00531   1.89891
   A13        1.94618   0.00025   0.00111  -0.00140  -0.00031   1.94586
   A14        1.91797  -0.00070   0.00232  -0.01628  -0.01402   1.90395
   A15        1.93236  -0.00052   0.00118  -0.00661  -0.00548   1.92688
   A16        1.88720  -0.00002   0.00076  -0.00542  -0.00468   1.88252
   A17        1.89532   0.00085  -0.00473   0.02930   0.02455   1.91988
   A18        1.88310   0.00016  -0.00091   0.00095  -0.00003   1.88306
   A19        1.92329  -0.00007  -0.00275   0.01065   0.00793   1.93122
   A20        1.88884   0.00091   0.00806  -0.02664  -0.01859   1.87025
   A21        1.93894  -0.00064  -0.00473   0.01466   0.00995   1.94889
   A22        1.91123   0.00009  -0.00166   0.00960   0.00795   1.91918
   A23        1.89480  -0.00019   0.00176  -0.01079  -0.00897   1.88582
   A24        1.90662  -0.00009  -0.00071   0.00270   0.00196   1.90859
   A25        1.90796  -0.00035  -0.00094   0.00128   0.00039   1.90835
   A26        1.94053   0.00214   0.00364  -0.00177   0.00183   1.94235
   A27        1.95403  -0.00127  -0.00688   0.02031   0.01342   1.96745
   A28        1.87913  -0.00051   0.00058  -0.00356  -0.00297   1.87616
   A29        1.88457   0.00023   0.00240  -0.01141  -0.00895   1.87562
   A30        1.89530  -0.00027   0.00137  -0.00604  -0.00475   1.89055
   A31        1.93716  -0.00046  -0.00486   0.01710   0.01227   1.94943
   A32        1.93017   0.00122   0.00538  -0.01479  -0.00945   1.92072
   A33        1.93387  -0.00124  -0.00426   0.01022   0.00599   1.93985
   A34        1.88413  -0.00023   0.00113  -0.00518  -0.00408   1.88005
   A35        1.89190   0.00063   0.00200  -0.00607  -0.00399   1.88791
   A36        1.88487   0.00011   0.00073  -0.00201  -0.00131   1.88356
   A37        1.97123   0.00097  -0.00136   0.01777   0.01632   1.98755
   A38        1.90709  -0.00360   0.00298  -0.01980  -0.01740   1.88969
   A39        1.88030   0.00097  -0.00018  -0.00222  -0.00247   1.87783
   A40        1.98456   0.00457  -0.00115   0.03368   0.03254   2.01710
   A41        1.88749  -0.00247  -0.00120  -0.01718  -0.01812   1.86937
   A42        1.82444  -0.00068   0.00100  -0.01665  -0.01556   1.80888
   A43        2.07156  -0.00157   0.00130  -0.01091  -0.00966   2.06190
   A44        2.20783   0.00261  -0.00179   0.01637   0.01452   2.22236
   A45        2.00365  -0.00105   0.00049  -0.00577  -0.00533   1.99832
   A46        2.17447  -0.00622  -0.00175  -0.02041  -0.02399   2.15047
   A47        2.09373   0.01017   0.00137   0.02556   0.02406   2.11779
   A48        2.00311  -0.00419   0.00109  -0.02398  -0.02498   1.97813
    D1        1.00405   0.00068   0.00340   0.03710   0.04022   1.04427
    D2        3.08325   0.00092   0.00269   0.04268   0.04510   3.12836
    D3       -1.12902   0.00121   0.00295   0.04493   0.04761  -1.08141
    D4       -2.08788  -0.00115  -0.00153  -0.04679  -0.04807  -2.13595
    D5       -0.00868  -0.00091  -0.00224  -0.04121  -0.04319  -0.05187
    D6        2.06224  -0.00062  -0.00198  -0.03897  -0.04068   2.02156
    D7        0.09561   0.00114  -0.00145   0.04566   0.04434   0.13995
    D8        3.06330  -0.00093   0.00480  -0.09313  -0.08921   2.97409
    D9       -3.09615   0.00264   0.00352   0.12976   0.13415  -2.96200
   D10       -0.12846   0.00057   0.00977  -0.00903   0.00061  -0.12785
   D11        1.14387  -0.00134   0.00459   0.04713   0.05181   1.19569
   D12       -2.91185   0.00258   0.00440   0.08964   0.09389  -2.81796
   D13       -0.93948   0.00050   0.00699   0.05921   0.06619  -0.87328
   D14       -2.00102  -0.00148   0.00600   0.03044   0.03657  -1.96445
   D15        0.22643   0.00244   0.00581   0.07295   0.07866   0.30509
   D16        2.19881   0.00036   0.00840   0.04252   0.05096   2.24977
   D17       -3.05248   0.00059   0.00285   0.00818   0.01097  -3.04151
   D18        0.10851   0.00093   0.00279   0.02859   0.03138   0.13990
   D19        0.09245   0.00073   0.00144   0.02505   0.02649   0.11893
   D20       -3.02975   0.00108   0.00138   0.04545   0.04690  -2.98285
   D21        0.83045   0.00013  -0.00367   0.01854   0.01509   0.84554
   D22       -1.35569   0.00047  -0.00566   0.00289  -0.00300  -1.35869
   D23        2.90965   0.00028  -0.00548   0.01517   0.00970   2.91934
   D24        2.92281  -0.00020  -0.00036   0.00006  -0.00008   2.92273
   D25        0.73667   0.00014  -0.00235  -0.01558  -0.01817   0.71850
   D26       -1.28118  -0.00004  -0.00216  -0.00331  -0.00548  -1.28665
   D27       -1.28187  -0.00077   0.00079  -0.01321  -0.01218  -1.29406
   D28        2.81517  -0.00042  -0.00121  -0.02885  -0.03027   2.78490
   D29        0.79732  -0.00061  -0.00102  -0.01658  -0.01758   0.77974
   D30        2.19824   0.00051   0.00136   0.00356   0.00484   2.20308
   D31       -0.96054   0.00025   0.00138  -0.01425  -0.01276  -0.97330
   D32        0.10885  -0.00011   0.00013   0.00189   0.00195   0.11079
   D33       -3.04993  -0.00037   0.00015  -0.01593  -0.01566  -3.06559
   D34       -1.98422  -0.00019  -0.00109   0.00665   0.00544  -1.97879
   D35        1.14019  -0.00045  -0.00106  -0.01117  -0.01217   1.12802
   D36        2.28012   0.00044   0.00235   0.00033   0.00265   2.28276
   D37       -0.84273   0.00078   0.00229   0.02011   0.02248  -0.82025
   D38        0.20782  -0.00001  -0.00003   0.00500   0.00495   0.21277
   D39       -2.91503   0.00033  -0.00009   0.02478   0.02479  -2.89024
   D40       -1.91561  -0.00030   0.00058  -0.00025   0.00022  -1.91539
   D41        1.24473   0.00004   0.00052   0.01953   0.02005   1.26478
   D42        1.94962  -0.00029   0.00527  -0.08275  -0.07622   1.87340
   D43       -1.02612   0.00038  -0.00072   0.04518   0.04328  -0.98283
   D44       -0.14111  -0.00050   0.00364  -0.07768  -0.07282  -0.21393
   D45       -3.11684   0.00017  -0.00235   0.05024   0.04668  -3.07016
   D46       -2.23061  -0.00063   0.00211  -0.07217  -0.06889  -2.29950
   D47        1.07683   0.00004  -0.00388   0.05576   0.05062   1.12745
   D48       -1.38432   0.00079   0.00689   0.06977   0.07749  -1.30683
   D49        1.59974  -0.00146   0.01237  -0.05620  -0.04435   1.55539
   D50        0.83562   0.00267   0.00661   0.10337   0.11062   0.94624
   D51       -2.46351   0.00042   0.01208  -0.02260  -0.01122  -2.47473
   D52        2.89028   0.00164   0.00518   0.08968   0.09541   2.98569
   D53       -0.40885  -0.00061   0.01066  -0.03629  -0.02643  -0.43528
         Item               Value     Threshold  Converged?
 Maximum Force            0.010167     0.000450     NO 
 RMS     Force            0.001936     0.000300     NO 
 Maximum Displacement     0.384649     0.001800     NO 
 RMS     Displacement     0.125049     0.001200     NO 
 Predicted change in Energy=-1.816162D-03
 GradGradGradGradGradGradGradGradGradGradGradGradGradGradGradGradGradGrad

                          Input orientation:                          
 ---------------------------------------------------------------------
 Center     Atomic      Atomic             Coordinates (Angstroms)
 Number     Number       Type             X           Y           Z
 ---------------------------------------------------------------------
      1          6           0        0.997186   -0.951412   -0.233724
      2          6           0       -0.521414   -2.577075    1.958224
      3          6           0        0.965677   -0.743122   -1.748668
      4          6           0        0.791059   -0.503760    2.809622
      5          6           0       -1.141727   -4.532349    3.255179
      6          6           0       -1.615411   -2.339059    4.231742
      7          6           0       -1.430583   -0.384048   -0.195264
      8          6           0       -0.309930   -1.041389    1.866476
      9          7           0       -1.059658   -3.085875    3.114611
     10          7           0       -0.164114   -0.682511    0.458011
     11          8           0        2.005653   -1.377767    0.309020
     12          8           0       -0.231376   -3.294067    1.014836
     13          1           0        0.728020    0.289094   -2.034046
     14          1           0        1.962763   -0.989707   -2.111305
     15          1           0        0.238058   -1.398492   -2.242190
     16          1           0        1.701115   -1.090323    2.733473
     17          1           0        1.030986    0.525420    2.529065
     18          1           0        0.435928   -0.496013    3.845780
     19          1           0       -0.661788   -4.858950    4.188431
     20          1           0       -0.627656   -4.967250    2.401477
     21          1           0       -2.185248   -4.880525    3.268535
     22          1           0       -2.598769   -2.753531    4.493266
     23          1           0       -1.759856   -1.291703    3.974008
     24          1           0       -0.985336   -2.389906    5.132632
     25          1           0       -2.139681   -1.220598   -0.109023
     26          1           0       -1.268644   -0.195299   -1.253695
     27          1           0       -1.900192    0.509579    0.239676
     28          1           0       -1.250640   -0.558923    2.160427
 ---------------------------------------------------------------------
                    Distance matrix (angstroms):
                    1          2          3          4          5
     1  C    0.000000
     2  C    3.123070   0.000000
     3  C    1.529521   4.394983   0.000000
     4  C    3.082992   2.597326   4.567910   0.000000
     5  C    5.437877   2.426927   6.621018   4.490402   0.000000
     6  C    5.356456   2.534239   6.706291   3.343926   2.447156
     7  C    2.493480   3.205225   2.878204   3.738899   5.403462
     8  C    2.475377   1.552892   3.845180   1.546204   3.848010
     9  N    4.471900   1.373250   5.765584   3.191471   1.455604
    10  N    1.378196   2.442882   2.479826   2.544481   4.858099
    11  O    1.222029   3.247196   2.391319   2.914128   5.342026
    12  O    2.925115   1.219909   3.946798   3.471663   2.716840
    13  H    2.202831   5.070920   1.096992   4.908534   7.397173
    14  H    2.111662   5.025131   1.089262   5.081787   7.140540
    15  H    2.193192   4.428242   1.096587   5.160151   6.476567
    16  H    3.052715   2.784076   4.555327   1.085383   4.494605
    17  H    3.132919   3.515862   4.462339   1.093384   5.552383
    18  H    4.143036   2.968197   5.624904   1.095354   4.373764
    19  H    6.129968   3.193820   7.405258   4.793700   1.099077
    20  H    5.070637   2.433248   6.132347   4.701285   1.087297
    21  H    6.150742   3.129079   7.226255   5.312727   1.100155
    22  H    6.206687   3.282222   7.463830   4.403073   2.611518
    23  H    5.042032   2.692454   6.362271   2.912699   3.376476
    24  H    5.898936   3.213585   7.339663   3.479871   2.852955
    25  H    3.150865   2.955051   3.543963   4.197806   4.825087
    26  H    2.597312   4.067878   2.353146   4.565968   6.257480
    27  H    3.279238   3.792343   3.706208   3.856722   5.923645
    28  H    3.307375   2.155364   4.497445   2.143135   4.122919
                    6          7          8          9         10
     6  C    0.000000
     7  C    4.842997   0.000000
     8  C    2.997117   2.436952   0.000000
     9  N    1.454158   4.288675   2.509951   0.000000
    10  N    4.369377   1.455950   1.460763   3.692652   0.000000
    11  O    5.424383   3.612409   2.810827   4.492784   2.283303
    12  O    3.629886   3.372039   2.409568   2.266815   2.671105
    13  H    7.187416   2.914413   4.249894   6.410529   2.819622
    14  H    7.406640   3.943708   4.581544   6.390551   3.349532
    15  H    6.799397   2.829021   4.160402   5.764255   2.822314
    16  H    3.847531   4.345556   2.190520   3.427734   2.970373
    17  H    4.255322   3.782648   2.166096   4.213681   2.678923
    18  H    2.784561   4.452688   2.184349   3.078761   3.445549
    19  H    2.694647   6.311306   4.482081   2.110731   5.621953
    20  H    3.351554   5.328556   3.974866   2.057853   4.727676
    21  H    2.776964   5.725882   4.496837   2.124008   5.441263
    22  H    1.098715   5.381582   3.882040   2.092846   5.147810
    23  H    1.088231   4.279613   2.570337   2.109003   3.908930
    24  H    1.100537   5.710358   3.597561   2.135956   5.043975
    25  H    4.513098   1.100034   2.698648   3.877825   2.124601
    26  H    5.899658   1.087256   3.372012   5.242251   2.094588
    27  H    4.912477   1.099215   2.753346   4.679641   2.117242
    28  H    2.755411   2.369017   1.097322   2.707846   2.023371
                   11         12         13         14         15
    11  O    0.000000
    12  O    3.028974   0.000000
    13  H    3.146543   4.801579   0.000000
    14  H    2.451612   4.460614   1.779296   0.000000
    15  H    3.103787   3.797602   1.769558   1.777314   0.000000
[...]
 525,0.00000158,-0.00000374,-0.00000623,-0.00001081,-0.00000801,-0.0000
 0961,0.00002938,0.00002441,0.00002303,-0.00002248,-0.00000934,0.000000
 16,-0.02727366,-0.00626717,0.00277085,0.02650596,0.00733173,0.00093427
 ,-0.02272085,-0.00848143,0.04973175,0.00015701,0.00008290,-0.00020877,
 -0.00081481,0.00225188,-0.00451774,0.00000638,0.00000133,0.00003251,0.
 00019307,-0.00011687,-0.00019195,0.00134996,-0.00152353,-0.00042731,-0
 .25157314,-0.08443406,0.06006757,-0.00012027,0.00005376,-0.00001025,-0
 .00000298,0.00015518,-0.00016877,-0.00575139,-0.00015899,0.01345416,0.
 00005103,-0.00016707,0.00017487,-0.00007947,-0.00004809,0.00011669,-0.
 00007603,0.00059289,0.00179880,0.00000228,-0.00001030,0.00000891,-0.00
 000691,0.00000018,0.00000297,-0.00000034,0.00000458,-0.00000343,0.0000
 5137,0.00002172,-0.00002379,-0.00002672,-0.00004553,0.00006903,-0.0001
 4139,0.00007711,0.00014441,-0.00061736,0.00019277,-0.00023663,0.000354
 89,-0.00000478,0.00006113,0.00006552,0.00123002,0.00035934,0.27143577,
 -0.00001505,-0.00008848,-0.00002595,0.00125323,-0.00277321,0.00149349,
 -0.00002960,-0.00000470,0.00002397,-0.00016948,-0.00010166,-0.00054749
 ,0.00295223,0.00171485,-0.00070267,-0.08663381,-0.08795005,0.02919798,
 -0.00016953,-0.00003458,-0.00002093,-0.00000859,-0.00052351,-0.0002579
 1,0.01805098,0.00591623,-0.01189076,-0.00008447,0.00021616,0.00017160,
 0.00001846,0.00006143,0.00016425,-0.00028505,0.00005734,-0.00204177,0.
 00000221,-0.00000330,0.00000614,-0.00000028,-0.00000123,0.00001212,0.0
 0000418,0.00000088,0.00001813,-0.00005349,-0.00006467,0.00013034,-0.00
 007737,0.00001621,0.00024209,0.00003867,0.00005760,0.00067936,-0.00005
 676,-0.00031713,-0.00013631,-0.00002670,0.00021131,0.00012815,-0.00090
 219,0.00052778,0.00021419,0.09086138,0.08985874,-0.00031946,-0.0001133
 8,0.00009225,0.00294898,-0.00500252,0.00395242,0.00000816,-0.00001210,
 -0.00001863,-0.00006190,-0.00021175,-0.00042738,0.00037895,0.00278671,
 0.00053010,0.05697244,0.02552440,-0.06761562,0.00012016,-0.00006787,0.
 00003018,-0.00038947,-0.00001290,0.00011794,0.03011176,0.00785400,-0.0
 2160120,0.00018121,0.00021939,-0.00012168,0.00014052,0.00008869,0.0000
 3408,-0.00058822,0.00003470,-0.00326909,-0.00000032,0.00001127,-0.0000
 0504,0.00000591,0.00000089,-0.00000937,0.00000559,-0.00000674,0.000015
 45,-0.00000040,-0.00001879,-0.00002913,0.00003300,0.00004307,0.0001677
 2,-0.00002200,0.00018680,0.00018131,-0.00031085,-0.00036689,0.00008546
 ,-0.00022793,0.00033712,-0.00018482,-0.00081404,-0.00083084,0.00014841
 ,-0.07309351,-0.02415758,0.08160937,-0.00005593,0.00006703,0.00011610,
 0.00124272,0.00112887,-0.00109674,0.00002210,0.00001046,-0.00003973,-0
 .00089500,-0.00069591,0.00119673,-0.00093448,-0.00039531,0.00125745,-0
 .05191581,0.02627323,-0.00514898,0.00027698,-0.00001992,0.00001246,-0.
 00022091,0.00000656,0.00094956,-0.00223815,0.01098981,-0.00172412,-0.0
 0008532,-0.00016622,-0.00030739,0.00002534,-0.00006425,-0.00023081,-0.
 00026003,-0.00013311,0.00031073,-0.00000176,0.00000826,-0.00001273,0.0
 0000340,0.00000231,-0.00001295,-0.00000476,-0.00000311,-0.00001743,0.0
 0004168,0.00007645,-0.00025342,-0.00005619,0.00000489,-0.00015667,-0.0
 0184759,-0.00071612,0.00001149,-0.00002624,-0.00031147,0.00006114,0.00
 050590,0.00048488,0.00007857,0.00042483,0.00019285,0.00005686,0.005600
 89,-0.02883480,0.00635874,0.05162370,0.00016189,-0.00013987,0.00005678
 ,-0.00139162,-0.00187437,0.00258462,-0.00006599,0.00000474,0.00002491,
 -0.00065618,-0.00040496,0.00007208,0.00258253,0.00029807,-0.00379029,0
 .03068383,-0.30992820,0.05640533,-0.00005636,-0.00008689,-0.00002969,-
 0.00045816,-0.00042871,0.00111106,0.00079801,-0.01702568,0.00027477,-0
 .00046818,0.00045957,0.00018407,-0.00008096,0.00010779,0.00009680,0.00
 028465,0.00038291,-0.00084917,0.00000438,0.00000519,0.00000227,-0.0000
 0643,-0.00000468,0.00002174,0.00000998,-0.00000627,0.00001272,-0.00007
 356,-0.00004962,0.00000805,-0.00021171,-0.00003751,0.00040889,-0.00078
 764,0.00001637,0.00092781,-0.00006145,0.00022558,0.00022189,-0.0001784
 7,-0.00110760,0.00038886,0.00000104,0.00027042,0.00013680,0.00103357,-
 0.00909513,0.00296741,-0.02992957,0.33948125,0.00058823,-0.00016507,0.
 00005839,-0.00044265,-0.00082771,0.00195527,-0.00008031,0.00002276,0.0
 0002222,0.00027324,0.00059454,0.00021965,0.00256085,-0.00092095,-0.004
 66090,-0.00653398,0.06686051,-0.06700648,-0.00006623,-0.00009816,-0.00
 005979,0.00235282,0.00004604,-0.00186810,0.00153554,-0.03305480,0.0062
 9848,-0.00067217,0.00008062,0.00029503,-0.00021380,0.00004858,-0.00014
 536,-0.00007579,0.00017403,-0.00013807,0.00000571,0.00000219,0.0000014
 6,-0.00000939,-0.00000037,0.00002684,0.00000376,-0.00000481,0.00000397
 ,-0.00014840,-0.00008273,-0.00013350,0.00008151,-0.00002208,-0.0001742
 9,0.00024598,0.00005596,-0.00019767,0.00024877,-0.00018237,0.00022477,
 -0.00006190,-0.00174513,0.00022282,-0.00020308,0.00014429,0.00000357,-
 0.00217384,0.00780506,-0.00202583,0.00308356,-0.06408701,0.07332590,-0
 .00006891,0.00003224,0.00002483,0.00117528,0.00072407,0.00138015,0.000
 00422,-0.00000601,-0.00000556,0.00022988,0.00003064,-0.00013658,0.0001
 8365,-0.00053528,0.00020452,-0.16470714,0.01984606,-0.12529869,-0.0000
 4405,0.00001713,-0.00000401,-0.00017950,0.00003742,0.00020827,0.014354
 56,-0.00239593,0.01258763,0.00008778,-0.00001739,-0.00001640,0.0000311
 2,-0.00000697,-0.00000164,-0.00113408,0.00001439,0.00042389,-0.0000026
 2,-0.00000193,0.00000115,0.00000311,-0.00000050,-0.00000129,-0.0000018
 6,0.00000311,0.00000037,-0.00005639,-0.00000512,0.00008059,0.00001677,
 0.00004819,-0.00002667,-0.00012637,-0.00017634,0.00013179,-0.00010686,
 -0.00045473,-0.00051411,0.00013783,-0.00016378,0.00008157,-0.00033268,
 0.00040679,0.00002312,-0.02007699,0.00456003,-0.02165737,-0.00163869,-
 0.00028217,-0.00056265,0.17219873,0.00023338,-0.00013002,0.00018611,-0
 .00249336,-0.00219197,0.00132415,-0.00005094,0.00001237,-0.00000312,0.
 00000934,0.00024048,0.00038386,-0.00108444,0.00268301,-0.00157749,0.01
 901252,-0.05606997,0.02356816,0.00005970,-0.00008623,-0.00002824,0.000
 63430,-0.00001888,0.00025023,-0.00832234,0.00097680,-0.01978867,-0.000
 45442,0.00023001,0.00012881,-0.00007557,0.00004861,-0.00016444,0.00133
 930,-0.00014782,-0.00135127,0.00000202,0.00000680,-0.00000529,-0.00000
 224,-0.00000067,0.00001389,0.00000236,-0.00000540,0.00000194,-0.000060
 62,-0.00002639,-0.00006915,0.00005097,0.00000764,-0.00017156,0.0000248
 8,-0.00030428,-0.00007754,0.00048059,0.00000082,0.00105120,0.00019793,
 0.00011564,0.00011079,0.00007155,-0.00009082,0.00025051,-0.00988858,0.
 00205442,-0.00948870,0.02219164,-0.00160484,0.02349589,-0.02162441,0.0
 5377587,-0.00052701,-0.00016542,0.00012328,-0.00636900,-0.00468696,0.0
 0346660,0.00000972,-0.00002677,-0.00001279,-0.00001193,-0.00011038,-0.
 00082938,-0.00008843,0.00284802,-0.00025140,-0.12364267,0.02320697,-0.
 18219415,0.00001800,-0.00009151,0.00001890,-0.00023425,-0.00039357,0.0
 0006140,-0.00555224,-0.00259025,-0.03434691,0.00039583,0.00036493,-0.0
 0011089,0.00026090,0.00014648,0.00016243,0.00266631,-0.00059887,-0.003
 27081,-0.00000283,0.00001075,-0.00000165,0.00000951,-0.00000210,-0.000
 01066,0.00000953,-0.00000683,0.00002668,0.00007949,-0.00003288,-0.0000
 5642,0.00010683,0.00004686,0.00035365,-0.00007010,0.00043064,0.0003121
 1,0.00002878,-0.00107944,0.00053469,0.00023446,0.00003094,0.00002974,-
 0.00027040,-0.00050637,0.00011372,0.00474695,-0.00066734,0.00842301,-0
 .00496114,0.00156850,-0.00406683,0.13306632,-0.01780613,0.21139130,0.0
 0548483,-0.00512037,-0.00483435,0.00044102,-0.00147908,-0.00319646,-0.
 00001780,-0.00028982,-0.00011921,0.00002685,0.00024024,-0.00071826,0.0
 0006553,0.00013552,-0.00005575,-0.00005677,-0.00017916,-0.00012971,-0.
 08425959,-0.08612132,-0.01198893,-0.00048356,-0.00127709,0.00290781,-0
 .00025270,0.00035550,0.00081812,-0.02835235,-0.02247790,-0.01066816,-0
 .00297078,0.00247110,-0.00046151,0.00074684,0.00074003,0.00234622,0.00
 008163,0.00000150,0.00006820,0.00009372,0.00019007,0.00011653,-0.00000
 669,0.00015310,0.00063411,0.00002170,-0.00003335,0.00017424,0.00012220
 ,0.00018012,0.00021358,-0.00007093,0.00002678,-0.00025732,-0.00000191,
 -0.00000830,0.00004667,-0.00000521,0.00006155,-0.00003648,-0.00001209,
 -0.00000813,-0.00000542,-0.00002823,0.00006041,0.00006524,-0.00005271,
 0.00004696,0.00001627,0.00000565,0.00000809,0.00007958,0.10093689,0.00
 119883,0.00068934,-0.00108993,0.00005904,0.00020142,0.00017160,-0.0001
 1584,-0.00009740,0.00039718,-0.00005944,0.00006651,-0.00002094,-0.0000
 7542,-0.00007578,-0.00007091,0.00000732,0.00002890,0.00005197,-0.08847
 929,-0.26160156,-0.03770996,-0.00048793,0.00042138,0.00060422,0.000018
 96,0.00022760,-0.00022149,-0.00179511,0.01058029,-0.00104456,-0.000299
 62,-0.00051038,0.00037240,0.00095673,-0.00046631,0.00000847,0.00005604
 ,0.00003067,-0.00009675,-0.00000068,0.00009810,0.00004721,-0.00029888,
 0.00001137,0.00022473,-0.00000708,0.00001355,-0.00001765,0.00004812,0.
 00001250,0.00002135,-0.00000725,-0.00001552,-0.00002348,0.00001410,0.0
 0003998,-0.00002220,-0.00000167,-0.00002298,0.00000338,0.00003103,0.00
 003461,-0.00002113,0.00002813,0.00000893,-0.00003989,-0.00002721,-0.00
 000919,-0.00000538,0.00000663,-0.00000647,-0.00001302,0.09879120,0.278
 34073,0.00356606,-0.00165867,-0.00230994,0.00000966,-0.00045090,-0.001
 91887,0.00003398,0.00026352,0.00051551,-0.00008917,0.00011264,-0.00048
 748,-0.00004549,0.00016661,-0.00002072,0.00001040,-0.00016682,-0.00017
 401,-0.01183124,-0.03724796,-0.06051808,-0.00045951,-0.00175467,0.0021
 9063,-0.00015103,0.00004467,0.00043777,-0.01681352,-0.01188219,-0.0034
 8610,-0.00150103,0.00102108,-0.00029708,0.00063608,0.00061745,0.001023
 90,-0.00019243,-0.00014980,0.00034997,-0.00002366,-0.00026006,-0.00001
 504,-0.00001458,-0.00016130,-0.00012834,0.00003663,0.00000671,0.000129
 92,0.00010104,0.00016096,0.00008294,-0.00002628,0.00000556,-0.00012728
 ,0.00001619,-0.00002094,0.00004858,-0.00001128,0.00005300,-0.00002497,
 -0.00001295,-0.00002111,-0.00000765,-0.00002501,0.00004479,0.00003081,
 -0.00004283,0.00001552,-0.00000409,0.00002071,0.00000345,0.00007811,0.
 02248667,0.04302631,0.06038736,0.00191157,0.00037023,-0.00191629,-0.00
 002647,-0.00057910,-0.00080979,-0.00241340,0.00167093,0.00094572,0.000
 63240,0.00044479,-0.00104798,0.00003176,-0.00000575,-0.00004181,-0.000
 02832,-0.00001861,-0.00000063,-0.05884055,-0.02565533,0.04532297,-0.00
 527331,0.00121903,-0.00034806,0.00009619,0.00031254,0.00007640,0.00353
 050,0.01468135,-0.03142300,-0.00041457,-0.00019800,0.00051291,0.000130
 55,0.00026723,0.00036949,-0.00188244,-0.00039570,0.00135172,-0.0002108
 6,-0.00035821,-0.00015013,-0.00074266,-0.00000632,0.00049697,0.0000091
 0,0.00003863,-0.00003259,0.00005923,-0.00002917,0.00007607,-0.00032443
 ,-0.00012914,-0.00022745,0.00000672,0.00000942,0.00000380,-0.00000603,
 0.00000176,-0.00000101,0.00001069,0.00003180,-0.00001571,0.00000943,0.
 00002729,-0.00000877,-0.00004932,0.00000190,-0.00000408,0.00001061,-0.
 00001253,0.00001703,-0.00145070,-0.00396374,0.01109321,0.06734365,-0.0
 0114200,0.00077171,0.00230167,-0.00007388,-0.00025375,-0.00119979,-0.0
 0055901,0.00048046,-0.00007984,-0.00030780,0.00010123,-0.00008073,-0.0
 0000230,0.00008250,-0.00000186,0.00000266,-0.00008752,-0.00008254,-0.0
 2178022,-0.11313366,0.11416354,0.00043998,0.00018523,-0.00138882,-0.00
 012539,-0.00002123,0.00028180,0.00265255,-0.00091577,0.00041833,0.0004
 2096,-0.00010354,-0.00055791,0.00054546,0.00004072,0.00075504,-0.00018
 720,0.00061116,0.00030067,-0.00038283,0.00001484,-0.00032907,0.0007409
 9,-0.00107290,-0.00053590,-0.00002994,-0.00002502,0.00000655,0.0000327
 0,0.00001811,0.00001235,0.00004381,0.00000459,-0.00000822,0.00000548,-
 0.00001316,0.00002360,-0.00000176,0.00002861,-0.00001630,-0.00000788,-
 0.00000942,-0.00000569,-0.00001834,0.00001463,0.00001955,-0.00000415,0
 .00000886,0.00000802,0.00000326,0.00000927,0.00003365,-0.00580090,-0.0
 1252964,0.02701389,0.02395344,0.11508832,0.00180897,-0.00014076,-0.001
 71008,-0.00024595,-0.00091367,-0.00053176,0.00265663,-0.00093197,-0.00
 078134,0.00024354,0.00072807,-0.00028846,0.00003580,-0.00011881,-0.000
 03625,-0.00003613,-0.00000332,0.00007003,0.03529714,0.11348613,-0.2542
 3226,-0.00294679,0.00069333,-0.00019800,0.00012669,0.00039983,-0.00008
 181,-0.00032610,0.00570111,-0.01672445,-0.00064816,-0.00002326,0.00039
 172,0.00014781,0.00038937,0.00037213,0.00098834,-0.00050696,0.00010069
 ,0.00050778,-0.00025974,0.00035296,0.00104787,0.00016158,-0.00015213,-
 0.00011992,-0.00007649,-0.00014967,0.00002725,-0.00005305,0.00003914,-
 0.00018325,-0.00006146,-0.00015034,0.00000152,0.00003010,-0.00001764,-
 0.00000818,-0.00001218,0.00001621,0.00002661,0.00004802,-0.00001867,0.
 00002614,0.00002625,-0.00001998,-0.00003484,0.00002864,0.00004292,-0.0
 0000547,0.00000351,-0.00001572,-0.00015076,-0.00287638,0.00704711,-0.0
 4075601,-0.12414584,0.27998972,0.00142517,0.00272451,-0.00610757,0.000
 16693,0.00027493,-0.00011108,-0.00010091,-0.00021385,0.00009255,0.0004
 0953,-0.00031043,-0.00025927,0.00001834,0.00000916,-0.00004006,-0.0000
 3208,0.00007272,0.00002393,-0.14712181,0.08635237,0.08710552,-0.000613
 99,-0.00052954,0.00359796,0.00004515,0.00015670,-0.00004996,-0.0308914
 4,0.01430675,0.01446670,-0.00344511,0.00011425,0.00039846,0.00024307,-
 0.00017002,-0.00011271,-0.00000644,0.00007895,0.00016107,0.00007189,0.
 00006061,0.00003690,-0.00000821,0.00000161,0.00021446,0.00016197,0.000
 03302,0.00030595,-0.00006516,0.00004337,0.00006310,-0.00001475,-0.0000
 0982,-0.00010650,-0.00000065,0.00000854,0.00000268,-0.00000761,-0.0000
 1089,-0.00000258,0.00000900,0.00000963,-0.00000664,0.00000807,-0.00000
 404,-0.00000417,-0.00000531,-0.00001195,-0.00002707,0.00000461,-0.0000
 1744,-0.00000458,0.00996179,-0.00577873,-0.00692088,-0.00248211,0.0020
 3084,0.00303134,0.17127823,-0.00194477,-0.00007561,0.00090214,0.000348
 35,-0.00078518,-0.00087446,-0.00045829,-0.00015290,0.00015107,-0.00037
 924,0.00022384,0.00031580,0.00000898,-0.00000622,0.00002144,0.00002718
 ,-0.00012365,-0.00003456,0.08910852,-0.13202448,-0.08131182,0.00094595
 ,0.00023618,-0.00110379,-0.00024764,-0.00006297,0.00035384,0.00343165,
 0.00116140,0.00156050,0.00074552,-0.00007562,0.00022350,0.00023175,0.0
 0024005,0.00092749,-0.00004582,0.00026723,-0.00002372,-0.00006319,0.00
 014291,-0.00003267,-0.00007086,-0.00006624,0.00014724,-0.00012412,-0.0
 0008664,-0.00013417,-0.00005172,-0.00005614,-0.00006009,0.00005083,-0.
 00000978,0.00007620,-0.00000415,0.00000089,0.00000337,0.00000296,0.000
 02592,-0.00001233,-0.00001127,-0.00002156,0.00000568,-0.00002177,-0.00
 000509,0.00004485,0.00003543,0.00005133,0.00006607,-0.00002426,0.00004
 540,0.00001362,0.01906342,-0.01520119,-0.01852513,-0.01122661,0.010500
 02,0.00824642,-0.09917677,0.13550998,-0.00143973,0.00089224,-0.0033774
 8,0.00057910,-0.00000749,-0.00050616,0.00074273,-0.00010021,-0.0004835
 1,-0.00040135,0.00021552,0.00054152,0.00000133,0.00006270,-0.00000424,
 0.00001673,-0.00002637,-0.00004423,0.09477277,-0.08241171,-0.13244970,
 -0.00263183,0.00124080,0.00092328,-0.00013671,-0.00004467,0.00016211,-
 0.01514684,0.01084311,0.00878495,-0.00155306,-0.00017182,0.00094375,0.
 00001411,-0.00007403,0.00009262,-0.00001149,-0.00047026,-0.00001686,0.
 00018842,-0.00004912,0.00024293,0.00007876,0.00046773,0.00022833,-0.00
 006189,0.00003698,-0.00003959,0.00001255,0.00000376,-0.00001460,0.0001
 1181,0.00002837,0.00011005,-0.00000015,-0.00000910,0.00001160,0.000001
 59,0.00001280,-0.00001438,-0.00001349,-0.00002083,0.00000592,-0.000016
 75,-0.00001162,0.00002278,0.00001593,-0.00000131,-0.00001805,-0.000000
 53,0.00000392,0.00001761,0.00314548,-0.00165954,-0.00267329,0.01666549
 ,-0.01695455,-0.01365588,-0.09447786,0.08806533,0.14181617,0.00193470,
 0.00025779,0.00033510,0.00529609,-0.00188320,-0.00020060,-0.00024810,-
 0.00005879,0.00007370,-0.02390911,0.01194363,0.00313209,-0.00014674,0.
 00006404,-0.00042081,-0.00014694,0.00036254,0.00127797,0.00025908,0.00
 009436,-0.00354730,-0.21966218,0.09956660,0.06404619,0.00002583,0.0009
 8716,-0.00004158,-0.00833762,0.00192266,0.00569669,0.00022951,0.000050
 09,0.00006819,-0.00086397,-0.00098879,-0.00133251,-0.00004005,-0.00003
 266,0.00013168,0.00004922,-0.00003128,0.00012998,0.00004491,0.00004199
 ,0.00007741,-0.00255717,-0.00287855,-0.00330347,0.00067730,-0.00021302
 ,0.00071438,0.00130827,0.00007999,0.00010564,-0.00002604,0.00008255,-0
 .00001755,-0.00002826,-0.00008375,0.00004210,-0.00001856,-0.00003078,-
 0.00000015,0.00003034,-0.00047787,0.00016774,0.00052065,-0.00088835,0.
 00027912,0.00003235,-0.00023167,0.00000532,0.00003339,0.00018175,0.000
 15027,0.00036277,-0.00044852,-0.00051187,0.00099184,-0.00015007,-0.000
 45509,0.24418851,0.00027962,-0.00059372,0.00212918,0.03097939,-0.01241
 957,-0.01232381,-0.00060297,0.00008336,0.00018353,-0.01058186,0.006501
 76,0.00237031,-0.00083518,0.00003368,0.00000769,0.00003281,-0.00120561
 ,-0.00003865,-0.00058807,0.00051424,0.00092984,0.10547139,-0.10970933,
 -0.03479892,-0.00216506,-0.00048595,0.00097184,-0.00898101,0.00495269,
 0.00627403,0.00002574,0.00033852,-0.00013537,-0.00442064,-0.00633247,-
 0.00087116,0.00002144,0.00001389,-0.00004224,-0.00005042,-0.00002659,0
 .00017440,0.00002828,-0.00001313,-0.00003448,-0.00173208,-0.00016080,-
 0.00153450,0.00032700,0.00055872,0.00065451,0.00063382,0.00066637,0.00
 061319,0.00002385,0.00014793,0.00010414,0.00001015,0.00028318,-0.00018
 918,-0.00005532,-0.00031490,0.00000924,-0.00014952,0.00024623,0.000211
 12,-0.00017155,0.00049141,0.00179199,-0.00003515,0.00047665,0.00007647
 ,0.00026982,-0.00026947,-0.00025661,-0.00045213,0.00020534,0.00018152,
 -0.00004447,0.00034813,0.00013938,-0.10723787,0.11566946,-0.00433496,0
 .00110910,-0.00585925,-0.00146006,-0.00335080,0.00111826,0.00190521,-0
 .00010915,-0.00033798,-0.01896567,0.00915794,0.00366864,0.00009586,-0.
 00000728,-0.00005510,-0.00014250,0.00167667,-0.00115807,0.00363959,-0.
 00148837,-0.00114173,0.05620420,-0.02955621,-0.06339372,0.00046419,-0.
 00020771,-0.00059242,0.03263627,-0.01148574,-0.02297460,0.00025625,-0.
 00027613,0.00122390,-0.00002899,0.00008265,0.00045824,-0.00001833,0.00
 011593,-0.00004120,0.00004975,0.00011654,-0.00063946,-0.00004083,-0.00
 007217,0.00006192,-0.00320910,-0.00181929,-0.00180708,0.00072976,-0.00
 003034,0.00038786,0.00011917,0.00061143,0.00078263,0.00000031,0.000031
 20,0.00005596,0.00000447,-0.00004947,-0.00004038,0.00005180,0.00001208
 ,0.00000383,0.00003429,0.00010243,-0.00011354,0.00053043,0.00123797,-0
 .00220234,-0.00000394,-0.00024482,0.00005438,-0.00049638,0.00000440,-0
 .00012968,-0.00014847,0.00004841,0.00034182,-0.00126968,0.00098819,-0.
 00060564,-0.06660263,0.03340252,0.09293473\\-0.00010330,0.00006323,-0.
 00001486,-0.00002269,-0.00002894,0.00002786,0.00002108,-0.00004183,-0.
 00002956,-0.00000552,0.00000766,-0.00000503,-0.00000183,-0.00001917,-0
 .00000569,0.00000605,-0.00001863,-0.00003418,0.00003808,-0.00000084,0.
 00003923,0.00001198,0.00002299,0.00000009,0.00001828,0.00000441,0.0000
 4278,-0.00001150,0.00003127,-0.00001857,0.00006515,-0.00003423,0.00003
 293,0.00000306,-0.00001630,-0.00003441,0.00000457,0.00000637,0.0000144
 1,-0.00000323,0.00000156,0.00000707,0.00000552,0.00000461,0.00000054,0
 .00000697,-0.00000268,0.00000115,0.00000244,-0.00000115,-0.00000768,-0
 .00000731,-0.00000174,-0.00000882,-0.00000154,0.00001047,-0.00000292,-
 0.00000357,-0.00000545,0.00000705,-0.00000025,0.00000292,-0.00000650,-
 0.00000356,0.00000751,0.00000101,0.00000054,0.00001196,-0.00000619,0.0
 0000106,0.00000307,0.00000016,-0.00000331,-0.00000542,-0.00001019,-0.0
 0001590,-0.00000799,0.00000531,0.00000066,0.00000503,0.00000291,-0.000
 00194,0.00000132,0.00000207\\\@


 IN NATURE THERE ARE NEITHER REWARDS OR
 PUNISHMENTS -- THERE ARE CONSEQUENCES.

                            -- ROBERT GREEN INGERSOLL
 Job cpu time:  0 days  1 hours 23 minutes 34.9 seconds.
 File lengths (MBytes):  RWF=    163 Int=      0 D2E=      0 Chk=      5 Scr=      1
 Normal termination of Gaussian 09 at Mon Feb 26 22:46:13 2018.
