 Entering Gaussian System, Link 0=g09
 Initial command:
 /home/fb_chem/chemsoft/lx24-amd64/Gaussian_09_C.01_NBO_3.1_64_istanbul-64/g09/l1.exe /local/2426265.1.parallel/Gau-20610.inp -scrdir=/local/2426265.1.parallel/
 Entering Link 1 = /home/fb_chem/chemsoft/lx24-amd64/Gaussian_09_C.01_NBO_3.1_64_istanbul-64/g09/l1.exe PID=     20614.
  
 Copyright (c) 1988,1990,1992,1993,1995,1998,2003,2009,2011,
            Gaussian, Inc.  All Rights Reserved.
  
 This is part of the Gaussian(R) 09 program.  It is based on
 the Gaussian(R) 03 system (copyright 2003, Gaussian, Inc.),
 the Gaussian(R) 98 system (copyright 1998, Gaussian, Inc.),
 the Gaussian(R) 94 system (copyright 1995, Gaussian, Inc.),
 the Gaussian 92(TM) system (copyright 1992, Gaussian, Inc.),
 the Gaussian 90(TM) system (copyright 1990, Gaussian, Inc.),
 the Gaussian 88(TM) system (copyright 1988, Gaussian, Inc.),
 the Gaussian 86(TM) system (copyright 1986, Carnegie Mellon
 University), and the Gaussian 82(TM) system (copyright 1983,
 Carnegie Mellon University). Gaussian is a federally registered
 trademark of Gaussian, Inc.
  
 This software contains proprietary and confidential information,
 including trade secrets, belonging to Gaussian, Inc.
  
 This software is provided under written license and may be
 used, copied, transmitted, or stored only in accord with that
 written license.
  
 The following legend is applicable only to US Government
 contracts under FAR:
  
                    RESTRICTED RIGHTS LEGEND
  
 Use, reproduction and disclosure by the US Government is
 subject to restrictions as set forth in subparagraphs (a)
 and (c) of the Commercial Computer Software - Restricted
 Rights clause in FAR 52.227-19.
  
 Gaussian, Inc.
 340 Quinnipiac St., Bldg. 40, Wallingford CT 06492
  
  
 ---------------------------------------------------------------
 Warning -- This program may not be used in any manner that
 competes with the business of Gaussian, Inc. or will provide
 assistance to any competitor of Gaussian, Inc.  The licensee
 of this program is prohibited from giving any competitor of
 Gaussian, Inc. access to this program.  By using this program,
 the user acknowledges that Gaussian, Inc. is engaged in the
 business of creating and licensing software in the field of
 computational chemistry and represents and warrants to the
 licensee that it is not a competitor of Gaussian, Inc. and that
 it will not use this program in any manner prohibited above.
 ---------------------------------------------------------------
  

 Cite this work as:
 Gaussian 09, Revision C.01,
 M. J. Frisch, G. W. Trucks, H. B. Schlegel, G. E. Scuseria, 
 M. A. Robb, J. R. Cheeseman, G. Scalmani, V. Barone, B. Mennucci, 
 G. A. Petersson, H. Nakatsuji, M. Caricato, X. Li, H. P. Hratchian, 
 A. F. Izmaylov, J. Bloino, G. Zheng, J. L. Sonnenberg, M. Hada, 
 M. Ehara, K. Toyota, R. Fukuda, J. Hasegawa, M. Ishida, T. Nakajima, 
 Y. Honda, O. Kitao, H. Nakai, T. Vreven, J. A. Montgomery, Jr., 
 J. E. Peralta, F. Ogliaro, M. Bearpark, J. J. Heyd, E. Brothers, 
 K. N. Kudin, V. N. Staroverov, T. Keith, R. Kobayashi, J. Normand, 
 K. Raghavachari, A. Rendell, J. C. Burant, S. S. Iyengar, J. Tomasi, 
 M. Cossi, N. Rega, J. M. Millam, M. Klene, J. E. Knox, J. B. Cross, 
 V. Bakken, C. Adamo, J. Jaramillo, R. Gomperts, R. E. Stratmann, 
 O. Yazyev, A. J. Austin, R. Cammi, C. Pomelli, J. W. Ochterski, 
 R. L. Martin, K. Morokuma, V. G. Zakrzewski, G. A. Voth, 
 P. Salvador, J. J. Dannenberg, S. Dapprich, A. D. Daniels, 
 O. Farkas, J. B. Foresman, J. V. Ortiz, J. Cioslowski, 
 and D. J. Fox, Gaussian, Inc., Wallingford CT, 2010.
 
 ******************************************
 Gaussian 09:  AM64L-G09RevC.01 23-Sep-2011
                26-Feb-2018 
 ******************************************
 %nprocs=4
 Will use up to    4 processors via shared memory.
 %chk=frag1-conf2.chk
 ----------------------------------------------------------------------
 #HF/6-31G* Geom=AllCheck Guess=Read Pop=(MK,ReadRadii) Integral=(Grid=
 UltraFine) iop(6/33=2)
 ----------------------------------------------------------------------
 1/29=7,38=1/1;
 2/12=2,40=1/2;
 3/5=1,6=6,7=1,11=9,14=-4,16=1,25=1,30=1,75=-5,116=-2/1,2,3;
 4/5=1/1;
 5/5=2,38=6/2;
 6/7=2,8=2,9=2,10=2,15=8,20=101,28=1,33=2/1,2;
 99/5=1,9=1/99;
 Structure from the checkpoint file:  frag1-conf2.chk
 ----------------------------
 Optimization for frag1-conf2
 ----------------------------
 Charge =  0 Multiplicity = 1
 Redundant internal coordinates found in file.
 C,0,0.9967977521,-0.9109508503,-0.1971556882
 C,0,-0.6107579087,-2.5337164258,1.9369597103
 C,0,1.0103048553,-0.7422710274,-1.7122529149
 C,0,0.7813722209,-0.5262429873,2.7953453197
 C,0,-1.2063408199,-4.5094843903,3.2328774455
 C,0,-1.5163101884,-2.3154458679,4.2855277493
 C,0,-1.441724936,-0.4795360439,-0.2737088857
 C,0,-0.3545891143,-0.9986328951,1.8654740002
 N,0,-1.0750495978,-3.0620102916,3.1192141193
 N,0,-0.1853805829,-0.6034452752,0.4628269922
 O,0,2.0114253523,-1.2594478777,0.3906231151
 O,0,-0.4000691806,-3.2388155453,0.9563090603
 H,0,0.7289225517,0.2707391524,-2.0220163977
 H,0,2.0276390861,-0.94671148,-2.0474273034
 H,0,0.3269112925,-1.4475466665,-2.1981738643
 H,0,1.6771010622,-1.130364377,2.6709436738
 H,0,1.0346834109,0.5104287271,2.5534541487
 H,0,0.4576065403,-0.5600091274,3.839878961
 H,0,-0.667315696,-4.8681718001,4.1190874285
 H,0,-0.7890542566,-4.9667186794,2.3374339695
 H,0,-2.2619014222,-4.7982533604,3.3298749834
 H,0,-2.4898116907,-2.7006143764,4.6157578597
 H,0,-1.6385990059,-1.2561368944,4.0645803293
 H,0,-0.8120538356,-2.4173079856,5.1231819729
 H,0,-1.8976343586,-1.4588921097,-0.4742386265
 H,0,-1.2871769662,0.03723329,-1.2206700177
 H,0,-2.1446086168,0.1202875488,0.3142746285
 H,0,-1.2699644598,-0.4875230315,2.1885947219
 Recover connectivity data from disk.
                          Input orientation:                          
 ---------------------------------------------------------------------
 Center     Atomic      Atomic             Coordinates (Angstroms)
 Number     Number       Type             X           Y           Z
 ---------------------------------------------------------------------
      1          6           0        0.996798   -0.910951   -0.197156
      2          6           0       -0.610758   -2.533716    1.936960
      3          6           0        1.010305   -0.742271   -1.712253
      4          6           0        0.781372   -0.526243    2.795345
      5          6           0       -1.206341   -4.509484    3.232877
      6          6           0       -1.516310   -2.315446    4.285528
      7          6           0       -1.441725   -0.479536   -0.273709
      8          6           0       -0.354589   -0.998633    1.865474
      9          7           0       -1.075050   -3.062010    3.119214
     10          7           0       -0.185381   -0.603445    0.462827
     11          8           0        2.011425   -1.259448    0.390623
     12          8           0       -0.400069   -3.238816    0.956309
     13          1           0        0.728923    0.270739   -2.022016
     14          1           0        2.027639   -0.946711   -2.047427
     15          1           0        0.326911   -1.447547   -2.198174
     16          1           0        1.677101   -1.130364    2.670944
     17          1           0        1.034683    0.510429    2.553454
     18          1           0        0.457607   -0.560009    3.839879
     19          1           0       -0.667316   -4.868172    4.119087
     20          1           0       -0.789054   -4.966719    2.337434
     21          1           0       -2.261901   -4.798253    3.329875
     22          1           0       -2.489812   -2.700614    4.615758
     23          1           0       -1.638599   -1.256137    4.064580
     24          1           0       -0.812054   -2.417308    5.123182
     25          1           0       -1.897634   -1.458892   -0.474239
     26          1           0       -1.287177    0.037233   -1.220670
     27          1           0       -2.144609    0.120288    0.314275
     28          1           0       -1.269964   -0.487523    2.188595
 ---------------------------------------------------------------------
                    Distance matrix (angstroms):
                    1          2          3          4          5
     1  C    0.000000
     2  C    3.126028   0.000000
     3  C    1.524518   4.376514   0.000000
     4  C    3.024809   2.589363   4.518575   0.000000
     5  C    5.437682   2.436756   6.599979   4.473103   0.000000
     6  C    5.327548   2.526547   6.695673   3.271274   2.453153
     7  C    2.477574   3.130051   2.854976   3.789912   5.347152
     8  C    2.467463   1.557952   3.837810   1.542148   3.862817
     9  N    4.462949   1.375640   5.750910   3.159321   1.457854
    10  N    1.388410   2.465757   2.485942   2.526106   4.896190
    11  O    1.223276   3.300115   2.385750   2.798805   5.384716
    12  O    2.949690   1.226063   3.917029   3.483663   2.728999
    13  H    2.190494   5.033210   1.096047   4.883125   7.362723
    14  H    2.118353   5.035381   1.090462   5.018209   7.143780
    15  H    2.177328   4.377022   1.095701   5.098095   6.420486
    16  H    2.955833   2.782522   4.450578   1.087552   4.477551
    17  H    3.096387   3.514877   4.445909   1.094242   5.539254
    18  H    4.087975   2.942452   5.582550   1.094082   4.328455
    19  H    6.087596   3.196023   7.337711   4.764802   1.097530
    20  H    5.105161   2.472179   6.122386   4.732203   1.088582
    21  H    6.178203   3.129635   7.251302   5.272315   1.098637
    22  H    6.206728   3.276379   7.491972   4.329254   2.613746
    23  H    5.022635   2.686156   6.375935   2.828421   3.385683
    24  H    5.817822   3.194696   7.269794   3.396168   2.847089
    25  H    2.958843   2.936865   3.240731   4.328636   4.850434
    26  H    2.676411   4.127705   2.475420   4.552448   6.365003
    27  H    3.345661   3.468363   3.847636   3.890383   5.552781
    28  H    3.318028   2.164435   4.525609   2.139539   4.155809
                    6          7          8          9         10
     6  C    0.000000
     7  C    4.915564   0.000000
     8  C    2.990025   2.455082   0.000000
     9  N    1.453395   4.279667   2.519614   0.000000
    10  N    4.394924   1.461588   1.467046   3.727257   0.000000
    11  O    5.360068   3.601923   2.800220   4.496751   2.293798
    12  O    3.630744   3.195562   2.418071   2.272667   2.689757
    13  H    7.177363   2.886382   4.230589   6.387001   2.788296
    14  H    7.385075   3.924387   4.581321   6.387124   3.364025
    15  H    6.796256   2.787236   4.144780   5.731196   2.838287
    16  H    3.769506   4.338390   2.189498   3.392128   2.936369
    17  H    4.182489   3.886577   2.163484   4.187288   2.664581
    18  H    2.678901   4.531616   2.179525   3.021325   3.437993
    19  H    2.695349   6.257515   4.488864   2.104332   5.638120
    20  H    3.369454   5.232481   4.019603   2.078674   4.787142
    21  H    2.762881   5.684173   4.496602   2.113654   5.488927
    22  H    1.097776   5.471614   3.875562   2.090885   5.191855
    23  H    1.088994   4.411646   2.559504   2.114825   3.938334
    24  H    1.099098   5.768698   3.582537   2.121484   5.040012
    25  H    4.851234   1.098728   2.840261   4.019893   2.131125
    26  H    5.992146   1.089803   3.386299   5.337125   2.111537
    27  H    4.700894   1.095244   2.619613   4.374776   2.093903
    28  H    2.792690   2.468300   1.097065   2.744454   2.041576
                   11         12         13         14         15
    11  O    0.000000
    12  O    3.170679   0.000000
    13  H    3.131631   4.739411   0.000000
    14  H    2.458080   4.491096   1.780308   0.000000
    15  H    3.094324   3.699717   1.773457   1.779336   0.000000
    16  H    2.308310   3.420552   4.988588   4.734937   5.062798
    17  H    2.960460   4.320442   4.591935   4.927203   5.187733
    18  H    3.847198   4.028224   5.926683   6.105319   6.104333
    19  H    5.839520   3.567827   8.128410   7.788873   7.252376
    20  H    5.037521   2.245989   6.981406   6.581886   5.848221
    21  H    6.278827   3.395892   7.955027   7.883522   6.963369
    22  H    6.339547   4.248323   7.952939   8.239027   7.478888
    23  H    5.178866   3.889257   6.706949   7.133981   6.566731
    24  H    5.631144   4.267017   7.788072   7.851379   7.472612
    25  H    4.008555   2.730805   3.505145   4.259698   2.814371
    26  H    3.893382   4.032207   2.182049   3.555233   2.401118
    27  H    4.379739   3.839167   3.706491   4.911596   3.857319
    28  H    3.820483   3.137651   4.722262   5.387850   4.766067
                   16         17         18         19         20
    16  H    0.000000
    17  H    1.765986   0.000000
    18  H    1.782942   1.770238   0.000000
    19  H    4.643772   5.854686   4.461353   0.000000
    20  H    4.572829   5.776835   4.819813   1.788525   0.000000
    21  H    5.422485   6.297016   5.061476   1.780575   1.783984
    22  H    4.859130   5.194801   3.724440   2.875148   3.635734
    23  H    3.598876   3.542696   2.220172   3.740743   4.180093
    24  H    3.723653   4.311100   2.590070   2.652525   3.776297
    25  H    4.772718   4.652272   4.996675   5.851112   4.630259
    26  H    5.029402   4.456340   5.386105   7.277378   6.160176
    27  H    4.660846   3.908201   4.434435   6.445442   5.639888
    28  H    3.054685   2.537801   2.390919   4.824943   4.507396
                   21         22         23         24         25
    21  H    0.000000
    22  H    2.470936   0.000000
    23  H    3.670816   1.764901   0.000000
    24  H    3.314651   1.775560   1.775425   0.000000
    25  H    5.074968   5.272629   4.550724   5.781709   0.000000
    26  H    6.711146   6.557898   5.452538   6.818722   1.779946
    27  H    5.770585   5.155522   4.026833   5.598275   1.782290
    28  H    4.568244   3.503844   2.060578   3.541970   2.903138
                   26         27         28
    26  H    0.000000
    27  H    1.760154   0.000000
    28  H    3.449457   2.155809   0.000000
 Stoichiometry    C8H16N2O2
 Framework group  C1[X(C8H16N2O2)]
 Deg. of freedom    78
 Full point group                 C1      NOp   1
 Largest Abelian subgroup         C1      NOp   1
 Largest concise Abelian subgroup C1      NOp   1
                         Standard orientation:                         
 ---------------------------------------------------------------------
 Center     Atomic      Atomic             Coordinates (Angstroms)
 Number     Number       Type             X           Y           Z
 ---------------------------------------------------------------------
      1          6           0        2.143676    0.037452    0.473069
      2          6           0       -0.920697   -0.405337    0.042251
      3          6           0        3.441436   -0.717878    0.209535
      4          6           0       -0.141254    2.019164    0.510295
      5          6           0       -3.122397   -1.315430    0.554139
      6          6           0       -3.018040    0.874747   -0.545949
      7          6           0        1.539390   -0.381617   -1.892854
      8          6           0       -0.032101    0.790014   -0.414636
      9          7           0       -2.287012   -0.247089    0.019241
     10          7           0        1.340640    0.316982   -0.624509
     11          8           0        1.869098    0.409216    1.605678
     12          8           0       -0.400748   -1.453346    0.409075
     13          1           0        4.076496   -0.212331   -0.526971
     14          1           0        3.975340   -0.776521    1.158542
     15          1           0        3.245432   -1.733475   -0.151996
     16          1           0       -0.012049    1.746010    1.555026
     17          1           0        0.642435    2.736145    0.247360
     18          1           0       -1.108812    2.512024    0.376377
     19          1           0       -3.810887   -0.913431    1.308428
     20          1           0       -2.477161   -2.066267    1.006824
     21          1           0       -3.717171   -1.781063   -0.243629
     22          1           0       -3.816393    0.496199   -1.197443
     23          1           0       -2.374717    1.513138   -1.149688
     24          1           0       -3.484768    1.490497    0.235738
     25          1           0        1.064565   -1.372447   -1.893881
     26          1           0        2.601045   -0.499913   -2.108641
     27          1           0        1.106450    0.215156   -2.702782
     28          1           0       -0.372079    1.103366   -1.409512
 ---------------------------------------------------------------------
 Rotational constants (GHZ):      1.6449969      0.5767773      0.5534767
 Standard basis: 6-31G(d) (6D, 7F)
 There are   212 symmetry adapted basis functions of A   symmetry.
 Integral buffers will be    131072 words long.
 Raffenetti 1 integral format.
 Two-electron integral symmetry is turned on.
   212 basis functions,   400 primitive gaussians,   212 cartesian basis functions
    47 alpha electrons       47 beta electrons
       nuclear repulsion energy       780.3730420896 Hartrees.
 NAtoms=   28 NActive=   28 NUniq=   28 SFac= 1.00D+00 NAtFMM=   60 NAOKFM=F Big=F
 One-electron integrals computed using PRISM.
 NBasis=   212 RedAO= T  NBF=   212
 NBsUse=   212 1.00D-06 NBFU=   212
 Initial guess read from the checkpoint file:  frag1-conf2.chk
 B after Tr=     0.000000    0.000000    0.000000
         Rot=    1.000000    0.000000    0.000000    0.000000 Ang=   0.00 deg.
 Initial guess orbital symmetries:
       Occupied  (A) (A) (A) (A) (A) (A) (A) (A) (A) (A) (A) (A)
                 (A) (A) (A) (A) (A) (A) (A) (A) (A) (A) (A) (A)
                 (A) (A) (A) (A) (A) (A) (A) (A) (A) (A) (A) (A)
                 (A) (A) (A) (A) (A) (A) (A) (A) (A) (A) (A)
       Virtual   (A) (A) (A) (A) (A) (A) (A) (A) (A) (A) (A) (A)
                 (A) (A) (A) (A) (A) (A) (A) (A) (A) (A) (A) (A)
                 (A) (A) (A) (A) (A) (A) (A) (A) (A) (A) (A) (A)
                 (A) (A) (A) (A) (A) (A) (A) (A) (A) (A) (A) (A)
                 (A) (A) (A) (A) (A) (A) (A) (A) (A) (A) (A) (A)
                 (A) (A) (A) (A) (A) (A) (A) (A) (A) (A) (A) (A)
                 (A) (A) (A) (A) (A) (A) (A) (A) (A) (A) (A) (A)
                 (A) (A) (A) (A) (A) (A) (A) (A) (A) (A) (A) (A)
                 (A) (A) (A) (A) (A) (A) (A) (A) (A) (A) (A) (A)
                 (A) (A) (A) (A) (A) (A) (A) (A) (A) (A) (A) (A)
                 (A) (A) (A) (A) (A) (A) (A) (A) (A) (A) (A) (A)
                 (A) (A) (A) (A) (A) (A) (A) (A) (A) (A) (A) (A)
                 (A) (A) (A) (A) (A) (A) (A) (A) (A) (A) (A) (A)
                 (A) (A) (A) (A) (A) (A) (A) (A) (A)
 Requested convergence on RMS density matrix=1.00D-08 within 128 cycles.
 Requested convergence on MAX density matrix=1.00D-06.
 Requested convergence on             energy=1.00D-06.
 No special actions if energy rises.
 SCF Done:  E(RHF) =  -570.887156324     A.U. after   14 cycles
             Convg  =    0.4124D-08             -V/T =  2.0025

 **********************************************************************

            Population analysis using the SCF density.

 **********************************************************************

 Orbital symmetries:
 BldTbl:  Degeneracy threshold= 1.00D-02
       Occupied  (A) (A) (A) (A) (A) (A) (A) (A) (A) (A) (A) (A)
                 (A) (A) (A) (A) (A) (A) (A) (A) (A) (A) (A) (A)
                 (A) (A) (A) (A) (A) (A) (A) (A) (A) (A) (A) (A)
                 (A) (A) (A) (A) (A) (A) (A) (A) (A) (A) (A)
       Virtual   (A) (A) (A) (A) (A) (A) (A) (A) (A) (A) (A) (A)
                 (A) (A) (A) (A) (A) (A) (A) (A) (A) (A) (A) (A)
                 (A) (A) (A) (A) (A) (A) (A) (A) (A) (A) (A) (A)
                 (A) (A) (A) (A) (A) (A) (A) (A) (A) (A) (A) (A)
                 (A) (A) (A) (A) (A) (A) (A) (A) (A) (A) (A) (A)
                 (A) (A) (A) (A) (A) (A) (A) (A) (A) (A) (A) (A)
                 (A) (A) (A) (A) (A) (A) (A) (A) (A) (A) (A) (A)
                 (A) (A) (A) (A) (A) (A) (A) (A) (A) (A) (A) (A)
                 (A) (A) (A) (A) (A) (A) (A) (A) (A) (A) (A) (A)
                 (A) (A) (A) (A) (A) (A) (A) (A) (A) (A) (A) (A)
                 (A) (A) (A) (A) (A) (A) (A) (A) (A) (A) (A) (A)
                 (A) (A) (A) (A) (A) (A) (A) (A) (A) (A) (A) (A)
                 (A) (A) (A) (A) (A) (A) (A) (A) (A) (A) (A) (A)
                 (A) (A) (A) (A) (A) (A) (A) (A) (A)
 The electronic state is 1-A.
 Alpha  occ. eigenvalues --  -20.52106 -20.51242 -15.59379 -15.58370 -11.35077
 Alpha  occ. eigenvalues --  -11.34408 -11.28632 -11.27632 -11.26337 -11.25475
 Alpha  occ. eigenvalues --  -11.22677 -11.21863  -1.37787  -1.36172  -1.24162
 Alpha  occ. eigenvalues --   -1.23595  -1.04850  -0.98629  -0.97460  -0.94368
 Alpha  occ. eigenvalues --   -0.93243  -0.87159  -0.76276  -0.71581  -0.69779
 Alpha  occ. eigenvalues --   -0.66424  -0.65623  -0.65303  -0.63341  -0.61851
 Alpha  occ. eigenvalues --   -0.59186  -0.57533  -0.57188  -0.56692  -0.56360
 Alpha  occ. eigenvalues --   -0.56042  -0.54959  -0.53507  -0.53074  -0.52385
 Alpha  occ. eigenvalues --   -0.51779  -0.49311  -0.48643  -0.41690  -0.40135
 Alpha  occ. eigenvalues --   -0.36870  -0.36564
 Alpha virt. eigenvalues --    0.18721   0.20425   0.21661   0.23455   0.25065
 Alpha virt. eigenvalues --    0.27427   0.28444   0.29205   0.30046   0.30592
 Alpha virt. eigenvalues --    0.31526   0.32062   0.32144   0.33064   0.33149
 Alpha virt. eigenvalues --    0.34172   0.34486   0.35275   0.37313   0.38401
 Alpha virt. eigenvalues --    0.40358   0.41897   0.42833   0.46200   0.48724
 Alpha virt. eigenvalues --    0.51274   0.54894   0.60086   0.61151   0.68883
 Alpha virt. eigenvalues --    0.69775   0.71496   0.72644   0.73771   0.75259
 Alpha virt. eigenvalues --    0.76171   0.78427   0.80449   0.82180   0.83193
 Alpha virt. eigenvalues --    0.84440   0.88511   0.89841   0.91003   0.93182
 Alpha virt. eigenvalues --    0.94456   0.95357   0.97375   0.97850   1.00255
 Alpha virt. eigenvalues --    1.01365   1.03345   1.05159   1.07771   1.08374
 Alpha virt. eigenvalues --    1.10160   1.11921   1.12779   1.13239   1.13895
 Alpha virt. eigenvalues --    1.14260   1.14962   1.15778   1.16734   1.17693
 Alpha virt. eigenvalues --    1.18709   1.19200   1.21061   1.21378   1.22383
 Alpha virt. eigenvalues --    1.23987   1.25353   1.26349   1.28039   1.28323
 Alpha virt. eigenvalues --    1.30317   1.31545   1.33328   1.38773   1.40936
 Alpha virt. eigenvalues --    1.42649   1.49900   1.52493   1.54652   1.58284
 Alpha virt. eigenvalues --    1.59074   1.62747   1.64910   1.65729   1.69281
 Alpha virt. eigenvalues --    1.71517   1.73518   1.77038   1.80323   1.83519
 Alpha virt. eigenvalues --    1.90593   1.92095   1.97311   1.98381   2.04659
 Alpha virt. eigenvalues --    2.05186   2.08352   2.09921   2.12884   2.15215
 Alpha virt. eigenvalues --    2.18507   2.19123   2.20777   2.24077   2.25454
 Alpha virt. eigenvalues --    2.26120   2.27164   2.28847   2.30945   2.32244
 Alpha virt. eigenvalues --    2.32823   2.35264   2.37078   2.39121   2.39890
 Alpha virt. eigenvalues --    2.43607   2.45577   2.46742   2.48656   2.52198
 Alpha virt. eigenvalues --    2.53791   2.59018   2.60441   2.61951   2.63955
 Alpha virt. eigenvalues --    2.65244   2.66966   2.69303   2.71964   2.75674
 Alpha virt. eigenvalues --    2.76401   2.80895   2.84961   2.86110   2.91766
 Alpha virt. eigenvalues --    2.95458   2.97931   2.99384   3.00316   3.03478
 Alpha virt. eigenvalues --    3.09274   3.15002   3.30111   3.33197   3.39400
 Alpha virt. eigenvalues --    3.42995   3.53728   3.56013   4.37546   4.44744
 Alpha virt. eigenvalues --    4.53689   4.56800   4.64295   4.65940   4.69425
 Alpha virt. eigenvalues --    4.77505   4.80206   4.87204   4.95373   5.06893
          Condensed to atoms (all electrons):
              1          2          3          4          5          6
     1  C    4.136984  -0.002718   0.368239  -0.003220  -0.000003  -0.000016
     2  C   -0.002718   4.205297  -0.000092  -0.044212  -0.028381  -0.024805
     3  C    0.368239  -0.000092   5.284231  -0.000087   0.000000   0.000000
     4  C   -0.003220  -0.044212  -0.000087   5.122969  -0.000262  -0.004854
     5  C   -0.000003  -0.028381   0.000000  -0.000262   4.965616  -0.049524
     6  C   -0.000016  -0.024805   0.000000  -0.004854  -0.049524   4.942155
     7  C   -0.027064   0.000966  -0.006410   0.003563   0.000001   0.000017
     8  C   -0.034705   0.349265   0.003282   0.331568   0.003149  -0.000306
     9  N    0.000184   0.281008   0.000000   0.006623   0.216676   0.226422
    10  N    0.262324  -0.069856  -0.107616  -0.043028  -0.000098   0.000177
    11  O    0.583075   0.000918  -0.069378  -0.009435   0.000002   0.000000
    12  O    0.010750   0.582447  -0.000535  -0.000061  -0.007302   0.001780
    13  H   -0.030936   0.000003   0.373425  -0.000011   0.000000   0.000000
    14  H   -0.033430  -0.000001   0.384332   0.000002   0.000000   0.000000
    15  H   -0.027387   0.000000   0.374358  -0.000001   0.000000   0.000000
    16  H    0.000417  -0.002786   0.000103   0.392511  -0.000007   0.000043
    17  H   -0.000256   0.003815  -0.000074   0.392479   0.000003   0.000071
    18  H    0.000244  -0.002224   0.000010   0.378215   0.000009  -0.002472
    19  H    0.000000   0.001957   0.000000  -0.000005   0.398875  -0.001858
    20  H   -0.000003  -0.004726   0.000000  -0.000026   0.395730   0.003170
    21  H    0.000000   0.000256   0.000000   0.000002   0.398888  -0.002311
    22  H    0.000000   0.000541   0.000000   0.000216  -0.003340   0.400239
    23  H   -0.000005  -0.002750   0.000000  -0.003659   0.003473   0.399400
    24  H    0.000001   0.000742   0.000000  -0.000579  -0.000359   0.399416
    25  H   -0.000943   0.004337  -0.000083  -0.000166   0.000022  -0.000002
    26  H   -0.005000  -0.000084  -0.002016  -0.000057   0.000000   0.000000
    27  H    0.002039  -0.000619  -0.000029   0.000245  -0.000001  -0.000005
    28  H    0.003768  -0.048760  -0.000057  -0.037020  -0.000197  -0.003463
              7          8          9         10         11         12
     1  C   -0.027064  -0.034705   0.000184   0.262324   0.583075   0.010750
     2  C    0.000966   0.349265   0.281008  -0.069856   0.000918   0.582447
     3  C   -0.006410   0.003282   0.000000  -0.107616  -0.069378  -0.000535
     4  C    0.003563   0.331568   0.006623  -0.043028  -0.009435  -0.000061
     5  C    0.000001   0.003149   0.216676  -0.000098   0.000002  -0.007302
     6  C    0.000017  -0.000306   0.226422   0.000177   0.000000   0.001780
     7  C    4.964579  -0.056832  -0.000180   0.234045   0.001875  -0.001305
     8  C   -0.056832   5.065898  -0.102221   0.259015   0.006147  -0.076519
     9  N   -0.000180  -0.102221   7.391042   0.002693  -0.000017  -0.095106
    10  N    0.234045   0.259015   0.002693   7.382103  -0.091894  -0.006138
    11  O    0.001875   0.006147  -0.000017  -0.091894   8.194530  -0.002473
    12  O   -0.001305  -0.076519  -0.095106  -0.006138  -0.002473   8.205175
    13  H   -0.004676   0.000015   0.000000   0.004386   0.001209   0.000004
    14  H    0.000386  -0.000080   0.000000   0.003692   0.004452   0.000000
    15  H   -0.001854  -0.000272   0.000000   0.001490   0.000982   0.000334
    16  H   -0.000117  -0.031466   0.000237  -0.001324   0.003398   0.000505
    17  H   -0.000017  -0.036466  -0.000082  -0.000820  -0.000790  -0.000051
    18  H   -0.000091  -0.037478   0.000004   0.003427   0.000748  -0.000027
    19  H    0.000000   0.000027  -0.048926   0.000000   0.000000   0.000465
    20  H    0.000000   0.000549  -0.030526  -0.000012   0.000000   0.011362
    21  H    0.000000  -0.000111  -0.048422   0.000003   0.000000   0.000417
    22  H    0.000000  -0.000179  -0.046399   0.000003   0.000000  -0.000016
    23  H   -0.000006   0.000815  -0.035855   0.000105  -0.000001   0.000051
    24  H    0.000000  -0.000122  -0.050528  -0.000011   0.000000  -0.000023
    25  H    0.393928  -0.000978  -0.000173  -0.049589   0.000053   0.004478
    26  H    0.401438   0.003578   0.000003  -0.035962   0.000043   0.000073
    27  H    0.399234  -0.006871   0.000004  -0.042241  -0.000053   0.000130
    28  H   -0.006166   0.419767   0.003021  -0.050143   0.000026   0.001610
             13         14         15         16         17         18
     1  C   -0.030936  -0.033430  -0.027387   0.000417  -0.000256   0.000244
     2  C    0.000003  -0.000001   0.000000  -0.002786   0.003815  -0.002224
     3  C    0.373425   0.384332   0.374358   0.000103  -0.000074   0.000010
     4  C   -0.000011   0.000002  -0.000001   0.392511   0.392479   0.378215
     5  C    0.000000   0.000000   0.000000  -0.000007   0.000003   0.000009
     6  C    0.000000   0.000000   0.000000   0.000043   0.000071  -0.002472
     7  C   -0.004676   0.000386  -0.001854  -0.000117  -0.000017  -0.000091
     8  C    0.000015  -0.000080  -0.000272  -0.031466  -0.036466  -0.037478
     9  N    0.000000   0.000000   0.000000   0.000237  -0.000082   0.000004
    10  N    0.004386   0.003692   0.001490  -0.001324  -0.000820   0.003427
    11  O    0.001209   0.004452   0.000982   0.003398  -0.000790   0.000748
    12  O    0.000004   0.000000   0.000334   0.000505  -0.000051  -0.000027
    13  H    0.521098  -0.019629  -0.026211  -0.000001   0.000002   0.000000
    14  H   -0.019629   0.460516  -0.017956   0.000002   0.000001   0.000000
    15  H   -0.026211  -0.017956   0.500902  -0.000003   0.000000   0.000000
    16  H   -0.000001   0.000002  -0.000003   0.444337  -0.019652  -0.024435
    17  H    0.000002   0.000001   0.000000  -0.019652   0.509331  -0.027347
    18  H    0.000000   0.000000   0.000000  -0.024435  -0.027347   0.567604
    19  H    0.000000   0.000000   0.000000   0.000000   0.000000   0.000001
    20  H    0.000000   0.000000   0.000000  -0.000005   0.000000   0.000001
    21  H    0.000000   0.000000   0.000000   0.000000   0.000000  -0.000001
    22  H    0.000000   0.000000   0.000000  -0.000004   0.000000   0.000194
    23  H    0.000000   0.000000   0.000000   0.000058   0.000144  -0.001778
    24  H    0.000000   0.000000   0.000000   0.000074  -0.000035   0.000004
    25  H    0.000171  -0.000032   0.000685   0.000004   0.000011   0.000003
    26  H   -0.000492   0.000279  -0.002881   0.000002  -0.000012   0.000001
    27  H    0.000014   0.000000   0.000119  -0.000006  -0.000015  -0.000018
    28  H    0.000001   0.000002   0.000000   0.003382  -0.001975  -0.005362
             19         20         21         22         23         24
     1  C    0.000000  -0.000003   0.000000   0.000000  -0.000005   0.000001
     2  C    0.001957  -0.004726   0.000256   0.000541  -0.002750   0.000742
     3  C    0.000000   0.000000   0.000000   0.000000   0.000000   0.000000
     4  C   -0.000005  -0.000026   0.000002   0.000216  -0.003659  -0.000579
     5  C    0.398875   0.395730   0.398888  -0.003340   0.003473  -0.000359
     6  C   -0.001858   0.003170  -0.002311   0.400239   0.399400   0.399416
     7  C    0.000000   0.000000   0.000000   0.000000  -0.000006   0.000000
     8  C    0.000027   0.000549  -0.000111  -0.000179   0.000815  -0.000122
     9  N   -0.048926  -0.030526  -0.048422  -0.046399  -0.035855  -0.050528
    10  N    0.000000  -0.000012   0.000003   0.000003   0.000105  -0.000011
    11  O    0.000000   0.000000   0.000000   0.000000  -0.000001   0.000000
    12  O    0.000465   0.011362   0.000417  -0.000016   0.000051  -0.000023
    13  H    0.000000   0.000000   0.000000   0.000000   0.000000   0.000000
    14  H    0.000000   0.000000   0.000000   0.000000   0.000000   0.000000
    15  H    0.000000   0.000000   0.000000   0.000000   0.000000   0.000000
    16  H    0.000000  -0.000005   0.000000  -0.000004   0.000058   0.000074
    17  H    0.000000   0.000000   0.000000   0.000000   0.000144  -0.000035
    18  H    0.000001   0.000001  -0.000001   0.000194  -0.001778   0.000004
    19  H    0.545171  -0.020736  -0.040945  -0.001660  -0.000044   0.003374
    20  H   -0.020736   0.428182  -0.022554   0.000002  -0.000097  -0.000052
    21  H   -0.040945  -0.022554   0.550856   0.004383   0.000003  -0.000706
    22  H   -0.001660   0.000002   0.004383   0.532755  -0.024415  -0.039976
    23  H   -0.000044  -0.000097   0.000003  -0.024415   0.513058  -0.029254
    24  H    0.003374  -0.000052  -0.000706  -0.039976  -0.029254   0.540247
    25  H    0.000000   0.000001   0.000001   0.000001   0.000001   0.000000
    26  H    0.000000   0.000000   0.000000   0.000000   0.000000   0.000000
    27  H    0.000000   0.000000   0.000000   0.000001  -0.000007   0.000000
    28  H   -0.000003  -0.000018   0.000010   0.000055  -0.000022   0.000147
             25         26         27         28
     1  C   -0.000943  -0.005000   0.002039   0.003768
     2  C    0.004337  -0.000084  -0.000619  -0.048760
     3  C   -0.000083  -0.002016  -0.000029  -0.000057
     4  C   -0.000166  -0.000057   0.000245  -0.037020
     5  C    0.000022   0.000000  -0.000001  -0.000197
     6  C   -0.000002   0.000000  -0.000005  -0.003463
     7  C    0.393928   0.401438   0.399234  -0.006166
     8  C   -0.000978   0.003578  -0.006871   0.419767
     9  N   -0.000173   0.000003   0.000004   0.003021
    10  N   -0.049589  -0.035962  -0.042241  -0.050143
    11  O    0.000053   0.000043  -0.000053   0.000026
    12  O    0.004478   0.000073   0.000130   0.001610
    13  H    0.000171  -0.000492   0.000014   0.000001
    14  H   -0.000032   0.000279   0.000000   0.000002
    15  H    0.000685  -0.002881   0.000119   0.000000
    16  H    0.000004   0.000002  -0.000006   0.003382
    17  H    0.000011  -0.000012  -0.000015  -0.001975
    18  H    0.000003   0.000001  -0.000018  -0.005362
    19  H    0.000000   0.000000   0.000000  -0.000003
    20  H    0.000001   0.000000   0.000000  -0.000018
    21  H    0.000001   0.000000   0.000000   0.000010
    22  H    0.000001   0.000000   0.000001   0.000055
    23  H    0.000001   0.000000  -0.000007  -0.000022
    24  H    0.000000   0.000000   0.000000   0.000147
    25  H    0.524240  -0.029529  -0.035892  -0.000804
    26  H   -0.029529   0.508481  -0.023113   0.000157
    27  H   -0.035892  -0.023113   0.534023   0.003030
    28  H   -0.000804   0.000157   0.003030   0.535862
 Mulliken atomic charges:
              1
     1  C    0.797659
     2  C    0.800463
     3  C   -0.601601
     4  C   -0.481710
     5  C   -0.292971
     6  C   -0.283274
     7  C   -0.295312
     8  C   -0.058471
     9  N   -0.669481
    10  N   -0.654733
    11  O   -0.623418
    12  O   -0.630024
    13  H    0.181628
    14  H    0.217463
    15  H    0.197695
    16  H    0.234733
    17  H    0.181735
    18  H    0.150769
    19  H    0.164305
    20  H    0.239757
    21  H    0.160232
    22  H    0.177597
    23  H    0.180787
    24  H    0.177640
    25  H    0.190257
    26  H    0.185091
    27  H    0.170031
    28  H    0.183153
 Sum of Mulliken atomic charges =   0.00000
 Mulliken charges with hydrogens summed into heavy atoms:
              1
     1  C    0.797659
     2  C    0.800463
     3  C   -0.004815
     4  C    0.085526
     5  C    0.271323
     6  C    0.252750
     7  C    0.250067
     8  C    0.124682
     9  N   -0.669481
    10  N   -0.654733
    11  O   -0.623418
    12  O   -0.630024
 Sum of Mulliken charges with hydrogens summed into heavy atoms =   0.00000
 DipInt: DoE/N= T F RetVal/Mat= T F Init=T NMatP=  1 IDeriv=0 Min/MaxMlt=  0  4
 Entering OneElI...
 OneElI was handed    33436508 working-precision words.
 Multipole integrals L=0 to 4 MinM= 0 MaxM= 0.
 Requested accuracy = 0.1000D-12
 PrsmSu:  NPrtUS=   1 ThrOK=F IAlg=1 NPAlg=1 LenDen=           0.
 Prism:   IPart=     0 DynPar=F LinDyn=F Incr=          29.
 PRISM was handed    33193800 working-precision words and  2947 shell-pairs
 IPart=  0 NShTot=        2947 NBatch=          59 AvBLen=        49.9
 PrSmSu:  NxtVal=             30.
 Electronic moments (au):
        -94.00000000         -0.87494603          0.53626372         -1.72263850
      -1582.10454613       -429.36127842       -347.18830371         -3.03914717
         -4.25897522         -0.44208871        609.99737617       -282.91287559
        264.06677130        471.00888575        879.85789651       -223.92741133
       -539.51117542        -14.62658061       -184.23180043       -344.18196383
     -54999.93342306      -5588.02155120      -4240.15695647       1363.71827088
      -1080.07035572       -312.00625729       -203.26870281        588.74811545
       -419.24737562      -5943.68674381      -4999.57239074      -1093.88716779
       1129.19580084        296.89041739         36.75690926
 Electronic spatial extent (au):  <R**2>=           2358.6541
 DipInt: DoE/N= F T RetVal/Mat= T F Init=T NMatP=  1 IDeriv=0 Min/MaxMlt=  0  4
 Nuclear    moments (au):
         94.00000000          0.00000000          0.00000000          0.00000000
       1536.70086400        372.95203251        290.04602961          0.00000000
          0.00000000          0.00000000       -616.33385028        284.40345764
       -277.23491825       -474.79586005       -896.90843815        212.38913297
        527.68786806          9.28333388        184.31799101        345.06777207
      49790.33054704       4084.87081096       3047.18290128      -1383.79714472
       1060.52395196        328.34032572        204.19708279       -635.98324234
        405.33933760       4800.55133001       3854.67470430        651.43647318
      -1160.66437318       -295.49768320        -54.06009467
 Total      moments (au):
          0.00000000         -0.87494603          0.53626372         -1.72263850
        -45.40368213        -56.40924591        -57.14227411         -3.03914717
         -4.25897522         -0.44208871         -6.33647410          1.49058205
        -13.16814695         -3.78697430        -17.05054163        -11.53827837
        -11.82330737         -5.34324673          0.08619058          0.88580824
      -5209.60287602      -1503.15074024      -1192.97405519        -20.07887383
        -19.54640376         16.33406843          0.92837998        -47.23512689
        -13.90803802      -1143.13541381      -1144.89768645       -442.45069461
        -31.46857234          1.39273419        -17.30318542
 Traceless Quadrup. (au):
          7.58138525         -3.42417853         -4.15720672         -3.03914717
         -4.25897522         -0.44208871
 Charge=              0.0000 electrons
 Dipole moment (field-independent basis, Debye):
    X=             -2.2239    Y=              1.3630    Z=             -4.3785  Tot=              5.0966
 Quadrupole moment (field-independent basis, Debye-Ang):
   XX=            -61.0695   YY=            -75.8724   ZZ=            -76.8583
   XY=             -4.0878   XZ=             -5.7285   YZ=             -0.5946
 Traceless Quadrupole moment (field-independent basis, Debye-Ang):
   XX=             10.1972   YY=             -4.6056   ZZ=             -5.5916
   XY=             -4.0878   XZ=             -5.7285   YZ=             -0.5946
 Octapole moment (field-independent basis, Debye-Ang**2):
  XXX=             -4.5101  YYY=              1.0609  ZZZ=             -9.3726  XYY=             -2.6954
  XXY=            -12.1359  XXZ=             -8.2125  XZZ=             -8.4154  YZZ=             -3.8031
  YYZ=              0.0613  XYZ=              0.6305
 Hexadecapole moment (field-independent basis, Debye-Ang**3):
 XXXX=          -1962.1861 YYYY=           -566.1586 ZZZZ=           -449.3312 XXXY=             -7.5627
 XXXZ=             -7.3621 YYYX=              6.1522 YYYZ=              0.3497 ZZZX=            -17.7910
 ZZZY=             -5.2384 XXYY=           -430.5596 XXZZ=           -431.2233 YYZZ=           -166.6481
 XXYZ=            -11.8526 YYXZ=              0.5246 ZZXY=             -6.5172
 N-N= 7.803730420896D+02 E-N=-2.897101737636D+03  KE= 5.694356829785D+02
 Entering OneElI...
 OneElI was handed    33345708 working-precision words.
 Calculate electrostatic properties
    NBasis =   212  MinDer = 0  MaxDer = 0
    NGrid  =    28  NMatD  =   1
 Requested accuracy = 0.1000D-12
 PrsmSu:  NPrtUS=   4 ThrOK=T IAlg=1 NPAlg=1 LenDen=           0.
 Prism:   IPart=     0 DynPar=F LinDyn=F Incr=         192.
 PRISM was handed     8218893 working-precision words and  2748 shell-pairs
 PRISM was handed     8218893 working-precision words and  2748 shell-pairs
 PRISM was handed     8218893 working-precision words and  2748 shell-pairs
 PRISM was handed     8218893 working-precision words and  2748 shell-pairs
 IPart=  3 NShTot=       18900 NBatch=         675 AvBLen=        28.0
 IPart=  1 NShTot=       19376 NBatch=         692 AvBLen=        28.0
 IPart=  0 NShTot=       19600 NBatch=         700 AvBLen=        28.0
 IPart=  2 NShTot=       19068 NBatch=         681 AvBLen=        28.0
 PrSmSu:  NxtVal=            769.
 --------------------------------------------------------
       Center         ----      EFG at Nuclei      ----
                      3XX-RR        3YY-RR        3ZZ-RR
 --------------------------------------------------------
     1   Atom        0.101385     -0.335370      0.233984
     2   Atom        0.162051      0.275868     -0.437919
     3   Atom       -0.054861     -0.008871      0.063731
     4   Atom        0.022504     -0.082724      0.060220
     5   Atom        0.009690     -0.065869      0.056179
     6   Atom        0.025753     -0.084302      0.058548
     7   Atom        0.125355      0.061507     -0.186862
     8   Atom       -0.217965      0.071667      0.146298
     9   Atom       -0.544145     -0.212490      0.756635
    10   Atom       -0.313132      0.736378     -0.423246
    11   Atom        1.093640     -0.399314     -0.694325
    12   Atom        1.151719     -0.516114     -0.635605
    13   Atom       -0.002183      0.055095     -0.052913
    14   Atom        0.036878      0.150022     -0.186900
    15   Atom        0.128866     -0.230417      0.101551
    16   Atom        0.153093      0.116011     -0.269104
    17   Atom       -0.076720     -0.046196      0.122916
    18   Atom       -0.201018      0.057623      0.143396
    19   Atom       -0.023631      0.077437     -0.053806
    20   Atom        0.002733     -0.073903      0.071170
    21   Atom        0.020716      0.066404     -0.087121
    22   Atom       -0.080254      0.083004     -0.002749
    23   Atom       -0.017064     -0.003358      0.020422
    24   Atom        0.069983      0.006161     -0.076144
    25   Atom        0.065179     -0.202541      0.137363
    26   Atom       -0.275061      0.153316      0.121744
    27   Atom        0.081309      0.016742     -0.098052
    28   Atom        0.088539      0.114516     -0.203054
 --------------------------------------------------------
                        XY            XZ            YZ
 --------------------------------------------------------
     1   Atom       -0.345182     -0.025798      0.190448
     2   Atom        0.016384     -0.022471     -0.306254
     3   Atom        0.030841      0.016967      0.013348
     4   Atom        0.009391      0.015112     -0.100467
     5   Atom       -0.215237      0.111838      0.076529
     6   Atom        0.151436     -0.081142      0.116451
     7   Atom        0.030451      0.038831     -0.147567
     8   Atom        0.051332      0.030124      0.026106
     9   Atom        0.031256      0.014018      0.661343
    10   Atom        0.605358     -0.160855     -0.407734
    11   Atom       -0.869943      0.709535     -0.338887
    12   Atom        0.976505     -0.346064     -0.106003
    13   Atom       -0.113873      0.171535      0.140633
    14   Atom        0.015883     -0.192892      0.021284
    15   Atom       -0.070121     -0.028249     -0.137755
    16   Atom        0.006565     -0.043991      0.101145
    17   Atom       -0.209205      0.081605      0.066263
    18   Atom        0.175860     -0.054783      0.017219
    19   Atom        0.094413      0.192667     -0.107192
    20   Atom        0.168313     -0.105369      0.135802
    21   Atom       -0.106437     -0.168577     -0.126165
    22   Atom       -0.105080     -0.190488     -0.082863
    23   Atom       -0.148878      0.145457      0.152408
    24   Atom        0.106656      0.127476     -0.165422
    25   Atom       -0.164121      0.001382     -0.006930
    26   Atom        0.047782      0.082728     -0.017232
    27   Atom        0.103383     -0.124478      0.169831
    28   Atom        0.044813     -0.116131      0.109356
 --------------------------------------------------------


 ---------------------------------------------------------------------------------
              Nuclear Quadrupole in Principal Axis System
 ---------------------------------------------------------------------------------

       Atom             a.u.   MegaHertz   Gauss  10(-4) cm-1        Axes

              Baa    -0.5562   -74.639   -26.633   -24.897  0.4498  0.8715 -0.1954
     1 C(13)  Bbb     0.1649    22.134     7.898     7.383  0.6587 -0.1760  0.7316
              Bcc     0.3913    52.504    18.735    17.514 -0.6032  0.4577  0.6532
 
              Baa    -0.5516   -74.025   -26.414   -24.692  0.0216  0.3466  0.9378
     2 C(13)  Bbb     0.1600    21.476     7.663     7.164  0.9947 -0.1018  0.0147
              Bcc     0.3916    52.548    18.751    17.528  0.1005  0.9325 -0.3470
 
              Baa    -0.0710    -9.525    -3.399    -3.177  0.8994 -0.4314 -0.0705
     3 C(13)  Bbb     0.0007     0.089     0.032     0.030  0.3952  0.8714 -0.2907
              Bcc     0.0703     9.437     3.367     3.148  0.1869  0.2336  0.9542
 
              Baa    -0.1360   -18.253    -6.513    -6.089 -0.0961  0.8830  0.4595
     4 C(13)  Bbb     0.0230     3.093     1.104     1.032  0.9902  0.1318 -0.0462
              Bcc     0.1130    15.160     5.409     5.057  0.1014 -0.4505  0.8870
 
              Baa    -0.2954   -39.646   -14.147   -13.225  0.6222  0.7001 -0.3503
     5 C(13)  Bbb     0.0928    12.451     4.443     4.153 -0.0338  0.4711  0.8815
              Bcc     0.2027    27.195     9.704     9.071  0.7821 -0.5366  0.3168
 
              Baa    -0.2547   -34.179   -12.196   -11.401 -0.5223  0.7462 -0.4127
     6 C(13)  Bbb     0.1228    16.484     5.882     5.499 -0.2667  0.3167  0.9102
              Bcc     0.1319    17.695     6.314     5.902  0.8099  0.5855  0.0336
 
              Baa    -0.2615   -35.093   -12.522   -11.706 -0.1234  0.4219  0.8982
     7 C(13)  Bbb     0.1196    16.050     5.727     5.354  0.6834 -0.6202  0.3852
              Bcc     0.1419    19.043     6.795     6.352  0.7196  0.6613 -0.2119
 
              Baa    -0.2285   -30.664   -10.942   -10.228  0.9844 -0.1624 -0.0678
     8 C(13)  Bbb     0.0686     9.204     3.284     3.070  0.1277  0.9242 -0.3600
              Bcc     0.1599    21.460     7.657     7.158  0.1211  0.3457  0.9305
 
              Baa    -0.5678   -21.898    -7.814    -7.304  0.6802 -0.6587  0.3217
     9 N(14)  Bbb    -0.5246   -20.232    -7.219    -6.749  0.7328  0.6013 -0.3184
              Bcc     1.0924    42.130    15.033    14.053  0.0163  0.4523  0.8917
 
              Baa    -0.5989   -23.097    -8.241    -7.704  0.7964 -0.4753 -0.3740
    10 N(14)  Bbb    -0.5368   -20.704    -7.388    -6.906  0.4566  0.0670  0.8871
              Bcc     1.1357    43.801    15.629    14.610  0.3966  0.8773 -0.2704
 
              Baa    -0.9484    68.624    24.487    22.890 -0.2469  0.1948  0.9493
    11 O(17)  Bbb    -0.7983    57.767    20.613    19.269  0.4383  0.8961 -0.0699
              Bcc     1.7467  -126.391   -45.099   -42.159  0.8643 -0.3988  0.3066
 
              Baa    -0.9745    70.515    25.161    23.521 -0.4337  0.8856 -0.1659
    12 O(17)  Bbb    -0.6835    49.460    17.648    16.498  0.0687  0.2161  0.9740
              Bcc     1.6580  -119.974   -42.810   -40.019  0.8984  0.4111 -0.1546
 
              Baa    -0.2945  -157.148   -56.074   -52.419 -0.5758 -0.4595  0.6762
    13 H(1)   Bbb     0.1420    75.784    27.042    25.279  0.7871 -0.5354  0.3063
              Bcc     0.1525    81.364    29.033    27.140  0.2213  0.7086  0.6700
 
              Baa    -0.2996  -159.827   -57.030   -53.312  0.4986 -0.0586  0.8648
    14 H(1)   Bbb     0.1462    77.987    27.828    26.014  0.7347 -0.5009 -0.4575
              Bcc     0.1534    81.840    29.203    27.299  0.4600  0.8635 -0.2067
 
              Baa    -0.2936  -156.674   -55.905   -52.261  0.1760  0.9256  0.3352
    15 H(1)   Bbb     0.1416    75.554    26.960    25.202  0.9474 -0.2517  0.1976
              Bcc     0.1520    81.120    28.945    27.059 -0.2672 -0.2828  0.9212
 
              Baa    -0.2984  -159.210   -56.810   -53.107  0.0976 -0.2374  0.9665
    16 H(1)   Bbb     0.1400    74.685    26.650    24.912  0.2296  0.9503  0.2103
              Bcc     0.1584    84.525    30.161    28.194  0.9684 -0.2014 -0.1473
 
              Baa    -0.2974  -158.678   -56.620   -52.929  0.7132  0.6578 -0.2422
    17 H(1)   Bbb     0.1419    75.691    27.008    25.248 -0.3712  0.6475  0.6655
              Bcc     0.1555    82.986    29.612    27.681  0.5946 -0.3847  0.7060
 
              Baa    -0.2973  -158.612   -56.597   -52.907  0.8862 -0.4453  0.1276
    18 H(1)   Bbb     0.1391    74.231    26.488    24.761  0.2786  0.7324  0.6212
              Bcc     0.1581    84.381    30.109    28.146 -0.3701 -0.5150  0.7732
 
              Baa    -0.2878  -153.562   -54.795   -51.223 -0.6302  0.3642  0.6857
    19 H(1)   Bbb     0.1328    70.851    25.281    23.633  0.3524  0.9211 -0.1652
              Bcc     0.1550    82.711    29.513    27.589  0.6918 -0.1375  0.7089
 
              Baa    -0.2900  -154.728   -55.211   -51.612 -0.5613  0.7073 -0.4297
    20 H(1)   Bbb     0.1368    72.970    26.037    24.340  0.8111  0.5734 -0.1157
              Bcc     0.1532    81.759    29.173    27.272 -0.1646  0.4135  0.8955
 
              Baa    -0.2870  -153.120   -54.637   -51.075  0.5435  0.4226  0.7252
    21 H(1)   Bbb     0.1330    70.960    25.320    23.670 -0.3780 -0.6482  0.6610
              Bcc     0.1540    82.159    29.317    27.405  0.7494 -0.6335 -0.1925
 
              Baa    -0.2846  -151.846   -54.183   -50.650  0.7288  0.3420  0.5931
    22 H(1)   Bbb     0.1315    70.154    25.033    23.401 -0.1996  0.9348 -0.2938
              Bcc     0.1531    81.693    29.150    27.250 -0.6550  0.0957  0.7496
 
              Baa    -0.2983  -159.161   -56.792   -53.090  0.5948  0.5851 -0.5512
    23 H(1)   Bbb     0.1361    72.592    25.903    24.214  0.7903 -0.5508  0.2682
              Bcc     0.1623    86.569    30.890    28.876  0.1467  0.5952  0.7901
 
              Baa    -0.2835  -151.279   -53.980   -50.461 -0.4254  0.5618  0.7096
    24 H(1)   Bbb     0.1337    71.358    25.462    23.802  0.2962 -0.6544  0.6957
              Bcc     0.1498    79.921    28.518    26.659  0.8552  0.5061  0.1120
 
              Baa    -0.2805  -149.686   -53.412   -49.930  0.4288  0.9033  0.0136
    25 H(1)   Bbb     0.1352    72.131    25.738    24.060 -0.4301  0.1909  0.8824
              Bcc     0.1454    77.555    27.674    25.870  0.7945 -0.3842  0.4704
 
              Baa    -0.2972  -158.583   -56.586   -52.897  0.9741 -0.1108 -0.1969
    26 H(1)   Bbb     0.1359    72.498    25.869    24.183  0.2220  0.3065  0.9256
              Bcc     0.1613    86.085    30.717    28.715  0.0423  0.9454 -0.3231
 
              Baa    -0.2901  -154.794   -55.234   -51.634  0.3988 -0.5432  0.7388
    27 H(1)   Bbb     0.1328    70.848    25.280    23.632 -0.4449  0.5898  0.6739
              Bcc     0.1573    83.946    29.954    28.001  0.8019  0.5975  0.0065
 
              Baa    -0.2791  -148.888   -53.127   -49.664  0.3202 -0.2873  0.9027
    28 H(1)   Bbb     0.1276    68.059    24.285    22.702  0.8864 -0.2453 -0.3925
              Bcc     0.1515    80.829    28.842    26.962  0.3342  0.9259  0.1761
 

 ---------------------------------------------------------------------------------

 No NMR shielding tensors so no spin-rotation constants.
 Leave Link  601 at Mon Feb 26 23:18:30 2018, MaxMem=   33554432 cpu:       1.1
 Merz-Kollman atomic radii used.
 Read replacement radii for each type of atom:
 Atom Element Radius
    1     6    1.50
    2     6    1.50
    3     6    1.50
    4     6    1.50
    5     6    1.50
    6     6    1.50
    7     6    1.50
    8     6    1.50
    9     7    1.50
   10     7    1.50
   11     8    1.40
   12     8    1.40
   13     1    1.20
   14     1    1.20
   15     1    1.20
   16     1    1.20
   17     1    1.20
   18     1    1.20
   19     1    1.20
   20     1    1.20
   21     1    1.20
   22     1    1.20
   23     1    1.20
   24     1    1.20
   25     1    1.20
   26     1    1.20
   27     1    1.20
   28     1    1.20
 Generate VDW surfaces: Layer= 4 Dens= 1 Start= 1.400 Inc= 0.200

 **********************************************************************

            Electrostatic Properties Using The SCF Density

 **********************************************************************

       Atomic Center    1 is at   2.143676  0.037452  0.473069
       Atomic Center    2 is at  -0.920697 -0.405337  0.042251
       Atomic Center    3 is at   3.441436 -0.717878  0.209535
       Atomic Center    4 is at  -0.141254  2.019164  0.510295
       Atomic Center    5 is at  -3.122397 -1.315430  0.554139
       Atomic Center    6 is at  -3.018040  0.874747 -0.545949
       Atomic Center    7 is at   1.539390 -0.381617 -1.892854
       Atomic Center    8 is at  -0.032101  0.790014 -0.414636
       Atomic Center    9 is at  -2.287012 -0.247089  0.019241
       Atomic Center   10 is at   1.340640  0.316982 -0.624509
       Atomic Center   11 is at   1.869098  0.409216  1.605678
       Atomic Center   12 is at  -0.400748 -1.453346  0.409075
       Atomic Center   13 is at   4.076496 -0.212331 -0.526971
       Atomic Center   14 is at   3.975340 -0.776521  1.158542
       Atomic Center   15 is at   3.245432 -1.733475 -0.151996
       Atomic Center   16 is at  -0.012049  1.746010  1.555026
       Atomic Center   17 is at   0.642435  2.736145  0.247360
       Atomic Center   18 is at  -1.108812  2.512024  0.376377
       Atomic Center   19 is at  -3.810887 -0.913431  1.308428
       Atomic Center   20 is at  -2.477161 -2.066267  1.006824
       Atomic Center   21 is at  -3.717171 -1.781063 -0.243629
       Atomic Center   22 is at  -3.816393  0.496199 -1.197443
       Atomic Center   23 is at  -2.374717  1.513138 -1.149688
       Atomic Center   24 is at  -3.484768  1.490497  0.235738
       Atomic Center   25 is at   1.064565 -1.372447 -1.893881
       Atomic Center   26 is at   2.601045 -0.499913 -2.108641
       Atomic Center   27 is at   1.106450  0.215156 -2.702782
       Atomic Center   28 is at  -0.372079  1.103366 -1.409512
      ESP Fit Center   29 is at   1.884855 -1.762690  1.523069
      ESP Fit Center   30 is at   3.336612  1.765719  0.473069
      ESP Fit Center   31 is at   2.396803  2.122141  0.473069
      ESP Fit Center   32 is at  -0.920697 -0.405337  2.142251
      ESP Fit Center   33 is at  -1.445697  0.503990  1.860904
      ESP Fit Center   34 is at  -1.445697 -1.314664 -1.776403
      ESP Fit Center   35 is at  -0.920697 -0.405337 -2.057749
      ESP Fit Center   36 is at   4.196932  0.936428  1.259535
      ESP Fit Center   37 is at   2.250471 -2.092324  1.259535
      ESP Fit Center   38 is at   5.541436 -0.717878  0.209535
      ESP Fit Center   39 is at   5.300894 -1.693796  0.209535
      ESP Fit Center   40 is at   4.971385 -1.701116 -0.840465
      ESP Fit Center   41 is at  -0.400075  3.819306  1.560295
      ESP Fit Center   42 is at  -1.886239  1.506790  1.560295
      ESP Fit Center   43 is at  -0.400075  3.819306 -0.539705
      ESP Fit Center   44 is at  -0.666254  2.928490 -1.308358
      ESP Fit Center   45 is at  -2.597397 -0.406103  2.372792
      ESP Fit Center   46 is at  -3.647397 -2.224756  2.372792
      ESP Fit Center   47 is at  -4.313362 -2.689876  1.604139
      ESP Fit Center   48 is at  -3.867068 -3.278964  0.554139
      ESP Fit Center   49 is at  -2.366901 -2.969735 -0.495861
      ESP Fit Center   50 is at  -4.763025  0.362373  0.504051
      ESP Fit Center   51 is at  -4.209004  2.249194 -1.595949
      ESP Fit Center   52 is at  -3.543040  1.784074 -2.364602
      ESP Fit Center   53 is at  -2.493040 -0.034579 -2.364602
      ESP Fit Center   54 is at  -3.018040  0.874747 -2.645949
      ESP Fit Center   55 is at   2.732326  1.346649 -1.892854
      ESP Fit Center   56 is at  -0.205595 -0.893991 -2.942854
      ESP Fit Center   57 is at   2.294886 -2.035922 -2.942854
      ESP Fit Center   58 is at   1.014390 -1.290944 -3.711507
      ESP Fit Center   59 is at   2.064390 -1.290944 -3.711507
      ESP Fit Center   60 is at   0.723395  2.444320 -1.464636
      ESP Fit Center   61 is at  -1.762012  0.662238  1.837894
      ESP Fit Center   62 is at  -2.812012  0.662238  1.837894
      ESP Fit Center   63 is at  -2.812012 -1.156415 -1.799412
      ESP Fit Center   64 is at  -1.762012 -1.156415 -1.799412
      ESP Fit Center   65 is at   2.533576  2.045248 -0.624509
      ESP Fit Center   66 is at   2.870588  1.300220 -1.674509
      ESP Fit Center   67 is at   2.096136  1.971287 -1.674509
      ESP Fit Center   68 is at   1.081819  2.117124 -1.674509
      ESP Fit Center   69 is at   1.869098  0.409216  3.565678
      ESP Fit Center   70 is at   2.849098  0.409216  3.303088
      ESP Fit Center   71 is at   2.359098  1.257921  3.303088
      ESP Fit Center   72 is at   1.379098  1.257921  3.303088
      ESP Fit Center   73 is at   0.889098  0.409216  3.303088
      ESP Fit Center   74 is at   1.379098 -0.439488  3.303088
      ESP Fit Center   75 is at   2.359098 -0.439488  3.303088
      ESP Fit Center   76 is at   3.566508  0.409216  2.585678
      ESP Fit Center   77 is at   3.242332  1.406929  2.585678
      ESP Fit Center   78 is at   2.393627  2.023549  2.585678
      ESP Fit Center   79 is at   1.344570  2.023549  2.585678
      ESP Fit Center   80 is at   0.171689  0.409216  2.585678
      ESP Fit Center   81 is at   0.495865 -0.588496  2.585678
      ESP Fit Center   82 is at   1.344570 -1.205116  2.585678
      ESP Fit Center   83 is at   2.393627 -1.205116  2.585678
      ESP Fit Center   84 is at   3.566508  1.389216  1.605678
      ESP Fit Center   85 is at   2.849098  2.106626  1.605678
      ESP Fit Center   86 is at   1.869098  2.369216  1.605678
      ESP Fit Center   87 is at  -0.400748 -1.453346  2.369075
      ESP Fit Center   88 is at   0.579252 -1.453346  2.106485
      ESP Fit Center   89 is at   0.089252 -0.604641  2.106485
      ESP Fit Center   90 is at  -0.890748 -2.302051  2.106485
      ESP Fit Center   91 is at   0.089252 -2.302051  2.106485
      ESP Fit Center   92 is at  -0.925277 -3.067679  1.389075
      ESP Fit Center   93 is at   0.123780 -3.067679  1.389075
      ESP Fit Center   94 is at   0.972485 -2.451059  1.389075
      ESP Fit Center   95 is at  -0.400748 -3.413346  0.409075
      ESP Fit Center   96 is at   0.579252 -3.150756  0.409075
      ESP Fit Center   97 is at   1.296661 -2.433346  0.409075
      ESP Fit Center   98 is at  -0.925277 -3.067679 -0.570925
      ESP Fit Center   99 is at   0.123780 -3.067679 -0.570925
      ESP Fit Center  100 is at   0.972485 -2.451059 -0.570925
      ESP Fit Center  101 is at  -0.890748 -2.302051 -1.288335
      ESP Fit Center  102 is at   5.674271 -0.212331 -0.007822
      ESP Fit Center  103 is at   5.300463  0.814699 -0.007822
      ESP Fit Center  104 is at   4.353947  1.361170 -0.007822
      ESP Fit Center  105 is at   5.674271 -0.212331 -1.046119
      ESP Fit Center  106 is at   5.300463  0.814699 -1.046119
      ESP Fit Center  107 is at   4.353947  1.361170 -1.046119
      ESP Fit Center  108 is at   3.277609  1.171383 -1.046119
      ESP Fit Center  109 is at   5.300463 -1.239361 -1.046119
      ESP Fit Center  110 is at   5.063975 -0.212331 -1.886119
      ESP Fit Center  111 is at   4.381644  0.726818 -1.886119
      ESP Fit Center  112 is at   4.381644 -1.151480 -1.886119
      ESP Fit Center  113 is at   3.975340 -0.776521  2.838542
      ESP Fit Center  114 is at   4.962819 -0.776521  2.517691
      ESP Fit Center  115 is at   4.280488  0.162627  2.517691
      ESP Fit Center  116 is at   3.176452 -1.356947  2.517691
      ESP Fit Center  117 is at   4.280488 -1.715670  2.517691
      ESP Fit Center  118 is at   5.573115 -0.776521  1.677691
      ESP Fit Center  119 is at   5.199306  0.250509  1.677691
      ESP Fit Center  120 is at   4.252790  0.796980  1.677691
      ESP Fit Center  121 is at   4.252790 -2.350022  1.677691
      ESP Fit Center  122 is at   5.199306 -1.803551  1.677691
      ESP Fit Center  123 is at   5.573115 -0.776521  0.639393
      ESP Fit Center  124 is at   5.199306 -1.803551  0.639393
      ESP Fit Center  125 is at   2.446545 -2.313900  1.207152
      ESP Fit Center  126 is at   3.550580 -2.672623  1.207152
      ESP Fit Center  127 is at   1.744015 -2.279946  0.367152
      ESP Fit Center  128 is at   2.446545 -3.117188  0.367152
      ESP Fit Center  129 is at   3.522883 -3.306976  0.367152
      ESP Fit Center  130 is at   4.469399 -2.760505  0.367152
      ESP Fit Center  131 is at   2.446545 -3.117188 -0.671145
      ESP Fit Center  132 is at   3.522883 -3.306976 -0.671145
      ESP Fit Center  133 is at   4.469399 -2.760505 -0.671145
      ESP Fit Center  134 is at   4.232912 -1.733475 -1.511145
      ESP Fit Center  135 is at   2.446545 -2.313900 -1.511145
      ESP Fit Center  136 is at   3.550580 -2.672623 -1.511145
      ESP Fit Center  137 is at  -0.012049  1.746010  3.235026
      ESP Fit Center  138 is at   0.975431  1.746010  2.914174
      ESP Fit Center  139 is at   0.293099  2.685159  2.914174
      ESP Fit Center  140 is at  -0.810936  2.326436  2.914174
      ESP Fit Center  141 is at  -0.810936  1.165585  2.914174
      ESP Fit Center  142 is at   0.293099  0.806862  2.914174
      ESP Fit Center  143 is at   1.211918  2.773040  2.074174
      ESP Fit Center  144 is at  -1.513466  1.199539  2.074174
      ESP Fit Center  145 is at  -0.810936  0.362297  2.074174
      ESP Fit Center  146 is at   1.629914  2.736145  1.606508
      ESP Fit Center  147 is at   0.947583  3.675293  1.606508
      ESP Fit Center  148 is at   2.240210  2.736145  0.766508
      ESP Fit Center  149 is at   1.866402  3.763175  0.766508
      ESP Fit Center  150 is at   0.919886  4.309646  0.766508
      ESP Fit Center  151 is at  -0.156452  4.119859  0.766508
      ESP Fit Center  152 is at   2.240210  2.736145 -0.271789
      ESP Fit Center  153 is at   1.866402  3.763175 -0.271789
      ESP Fit Center  154 is at   0.919886  4.309646 -0.271789
      ESP Fit Center  155 is at  -0.156452  4.119859 -0.271789
      ESP Fit Center  156 is at   1.629914  2.736145 -1.111789
      ESP Fit Center  157 is at   0.947583  3.675293 -1.111789
      ESP Fit Center  158 is at   0.642435  2.736145 -1.432640
      ESP Fit Center  159 is at  -1.907700  3.092450  1.735525
      ESP Fit Center  160 is at  -1.907700  1.931598  1.735525
      ESP Fit Center  161 is at  -0.831362  4.085525  0.895525
      ESP Fit Center  162 is at  -1.907700  3.895738  0.895525
      ESP Fit Center  163 is at  -2.610230  3.058495  0.895525
      ESP Fit Center  164 is at  -0.831362  4.085525 -0.142772
      ESP Fit Center  165 is at  -1.907700  3.895738 -0.142772
      ESP Fit Center  166 is at  -2.610230  3.058495 -0.142772
      ESP Fit Center  167 is at  -0.803665  3.451173 -0.982772
      ESP Fit Center  168 is at  -3.810887 -0.913431  2.988428
      ESP Fit Center  169 is at  -2.823408 -0.913431  2.667577
      ESP Fit Center  170 is at  -3.505739  0.025717  2.667577
      ESP Fit Center  171 is at  -4.609774 -0.333006  2.667577
      ESP Fit Center  172 is at  -4.609774 -1.493857  2.667577
      ESP Fit Center  173 is at  -3.505739 -1.852580  2.667577
      ESP Fit Center  174 is at  -3.533436  0.660070  1.827577
      ESP Fit Center  175 is at  -4.609774  0.470282  1.827577
      ESP Fit Center  176 is at  -5.312304 -0.366960  1.827577
      ESP Fit Center  177 is at  -5.312304 -1.459903  1.827577
      ESP Fit Center  178 is at  -4.609774 -2.297145  1.827577
      ESP Fit Center  179 is at  -5.312304 -0.366960  0.789280
      ESP Fit Center  180 is at  -5.312304 -1.459903  0.789280
      ESP Fit Center  181 is at  -2.477161 -2.066267  2.686824
      ESP Fit Center  182 is at  -1.489682 -2.066267  2.365972
      ESP Fit Center  183 is at  -3.276048 -2.646693  2.365972
      ESP Fit Center  184 is at  -2.172013 -3.005416  2.365972
      ESP Fit Center  185 is at  -3.276048 -3.449981  1.525972
      ESP Fit Center  186 is at  -2.199710 -3.639768  1.525972
      ESP Fit Center  187 is at  -1.253194 -3.093297  1.525972
      ESP Fit Center  188 is at  -3.276048 -3.449981  0.487675
      ESP Fit Center  189 is at  -2.199710 -3.639768  0.487675
      ESP Fit Center  190 is at  -2.172013 -3.005416 -0.352325
      ESP Fit Center  191 is at  -5.218589 -1.234592  0.275520
      ESP Fit Center  192 is at  -5.218589 -2.327534  0.275520
      ESP Fit Center  193 is at  -4.516059 -3.164777  0.275520
      ESP Fit Center  194 is at  -5.218589 -1.234592 -0.762777
      ESP Fit Center  195 is at  -5.218589 -2.327534 -0.762777
      ESP Fit Center  196 is at  -4.516059 -3.164777 -0.762777
      ESP Fit Center  197 is at  -3.439721 -3.354564 -0.762777
      ESP Fit Center  198 is at  -2.729692 -1.781063 -1.602777
      ESP Fit Center  199 is at  -4.516059 -1.200637 -1.602777
      ESP Fit Center  200 is at  -4.516059 -2.361489 -1.602777
      ESP Fit Center  201 is at  -3.412023 -2.720212 -1.602777
      ESP Fit Center  202 is at  -3.717171 -1.781063 -1.923629
      ESP Fit Center  203 is at  -5.317810  1.042670 -0.678295
      ESP Fit Center  204 is at  -5.317810 -0.050273 -0.678295
      ESP Fit Center  205 is at  -4.615280  1.879912 -1.716592
      ESP Fit Center  206 is at  -5.317810  1.042670 -1.716592
      ESP Fit Center  207 is at  -5.317810 -0.050273 -1.716592
      ESP Fit Center  208 is at  -4.615280 -0.887515 -1.716592
      ESP Fit Center  209 is at  -3.511245  1.435347 -2.556592
      ESP Fit Center  210 is at  -4.615280  1.076624 -2.556592
      ESP Fit Center  211 is at  -4.615280 -0.084227 -2.556592
      ESP Fit Center  212 is at  -3.511245 -0.442950 -2.556592
      ESP Fit Center  213 is at  -3.816393  0.496199 -2.877443
      ESP Fit Center  214 is at  -2.097266  3.086639 -1.668837
      ESP Fit Center  215 is at  -3.173604  2.896852 -1.668837
      ESP Fit Center  216 is at  -2.069569  2.452286 -2.508837
      ESP Fit Center  217 is at  -3.173604  2.093564 -2.508837
      ESP Fit Center  218 is at  -2.069569  0.573989 -2.508837
      ESP Fit Center  219 is at  -2.374717  1.513138 -2.829688
      ESP Fit Center  220 is at  -3.484768  1.490497  1.915738
      ESP Fit Center  221 is at  -2.497289  1.490497  1.594887
      ESP Fit Center  222 is at  -3.179620  2.429645  1.594887
      ESP Fit Center  223 is at  -4.283656  2.070923  1.594887
      ESP Fit Center  224 is at  -4.283656  0.910071  1.594887
      ESP Fit Center  225 is at  -3.207317  3.063998  0.754887
      ESP Fit Center  226 is at  -4.283656  2.874211  0.754887
      ESP Fit Center  227 is at  -4.986186  2.036968  0.754887
      ESP Fit Center  228 is at  -4.986186  0.944026  0.754887
      ESP Fit Center  229 is at  -3.207317  3.063998 -0.283410
      ESP Fit Center  230 is at  -4.283656  2.874211 -0.283410
      ESP Fit Center  231 is at  -4.986186  2.036968 -0.283410
      ESP Fit Center  232 is at   1.369713 -2.311596 -0.534733
      ESP Fit Center  233 is at   0.265678 -2.756161 -1.374733
      ESP Fit Center  234 is at   1.342016 -2.945948 -1.374733
      ESP Fit Center  235 is at   2.288532 -2.399477 -1.374733
      ESP Fit Center  236 is at  -0.436852 -1.918918 -2.413030
      ESP Fit Center  237 is at   0.265678 -2.756161 -2.413030
      ESP Fit Center  238 is at   1.342016 -2.945948 -2.413030
      ESP Fit Center  239 is at   2.288532 -2.399477 -2.413030
      ESP Fit Center  240 is at   0.265678 -1.952873 -3.253030
      ESP Fit Center  241 is at   1.369713 -2.311596 -3.253030
      ESP Fit Center  242 is at   4.198820 -0.499913 -2.627789
      ESP Fit Center  243 is at   3.825012  0.527117 -2.627789
      ESP Fit Center  244 is at   2.878496  1.073588 -2.627789
      ESP Fit Center  245 is at   2.878496 -2.073414 -2.627789
      ESP Fit Center  246 is at   3.825012 -1.526943 -2.627789
      ESP Fit Center  247 is at   3.588525 -0.499913 -3.467789
      ESP Fit Center  248 is at   2.906193  0.439236 -3.467789
      ESP Fit Center  249 is at   2.906193 -1.439061 -3.467789
      ESP Fit Center  250 is at   2.601045 -0.499913 -3.788641
      ESP Fit Center  251 is at   1.383901  1.788657 -2.183633
      ESP Fit Center  252 is at   2.330417  1.242186 -3.221931
      ESP Fit Center  253 is at   1.383901  1.788657 -3.221931
      ESP Fit Center  254 is at   0.307563  1.598869 -3.221931
      ESP Fit Center  255 is at  -0.394967  0.761627 -3.221931
      ESP Fit Center  256 is at  -0.394967 -0.331316 -3.221931
      ESP Fit Center  257 is at   2.093929  0.215156 -4.061931
      ESP Fit Center  258 is at   1.411598  1.154304 -4.061931
      ESP Fit Center  259 is at   0.307563  0.795581 -4.061931
      ESP Fit Center  260 is at   0.307563 -0.365270 -4.061931
      ESP Fit Center  261 is at   1.411598 -0.723993 -4.061931
      ESP Fit Center  262 is at   1.106450  0.215156 -4.382782
      ESP Fit Center  263 is at   0.851888  2.130395 -1.928661
      ESP Fit Center  264 is at  -0.094628  2.676867 -1.928661
      ESP Fit Center  265 is at  -1.170966  2.487079 -1.928661
      ESP Fit Center  266 is at  -0.066931  2.042514 -2.768661
      ESP Fit Center  267 is at  -1.170966  1.683791 -2.768661
      ESP Fit Center  268 is at  -1.170966  0.522940 -2.768661
      ESP Fit Center  269 is at  -0.372079  1.103366 -3.089512
      ESP Fit Center  270 is at   1.876637 -1.819844  1.969445
      ESP Fit Center  271 is at   3.602534  1.866803  1.007120
      ESP Fit Center  272 is at   1.623016 -2.243710  1.007120
      ESP Fit Center  273 is at   3.602534  1.866803 -0.060981
      ESP Fit Center  274 is at   2.664337  2.318615 -0.060981
      ESP Fit Center  275 is at  -0.920697 -0.405337  2.442251
      ESP Fit Center  276 is at  -1.441358  0.496473  2.204576
      ESP Fit Center  277 is at  -1.441358 -1.307148 -2.120075
      ESP Fit Center  278 is at   2.212658 -2.135963  1.705910
      ESP Fit Center  279 is at   3.174397 -2.575174  1.705910
      ESP Fit Center  280 is at   5.549547  0.297335  0.743585
      ESP Fit Center  281 is at   4.900294  1.111473  0.743585
      ESP Fit Center  282 is at   4.900294 -2.547228  0.743585
      ESP Fit Center  283 is at   5.549547 -1.733090 -0.324515
      ESP Fit Center  284 is at   5.019960 -1.732334 -1.286841
      ESP Fit Center  285 is at   1.437270  3.033620  2.006671
      ESP Fit Center  286 is at   0.638229  3.725993  2.006671
      ESP Fit Center  287 is at  -0.408293  3.876460  2.006671
      ESP Fit Center  288 is at  -1.941642  1.490522  2.006671
      ESP Fit Center  289 is at  -0.661915  4.300326  1.044346
      ESP Fit Center  290 is at  -0.408293  3.876460 -0.986080
      ESP Fit Center  291 is at   0.379406  2.920974 -1.652030
      ESP Fit Center  292 is at  -2.601737 -0.413619  2.716464
      ESP Fit Center  293 is at  -3.643058 -2.217240  2.716464
      ESP Fit Center  294 is at  -4.351175 -2.733515  2.050515
      ESP Fit Center  295 is at  -5.230509 -2.330643  1.088189
      ESP Fit Center  296 is at  -4.581256 -3.144780  1.088189
      ESP Fit Center  297 is at  -3.643058 -3.596592  1.088189
      ESP Fit Center  298 is at  -5.230509 -0.300217  0.020089
      ESP Fit Center  299 is at  -2.342914 -3.022259 -0.942236
      ESP Fit Center  300 is at  -5.357867  0.874747 -0.011898
      ESP Fit Center  301 is at  -3.538700  3.155910 -1.079999
      ESP Fit Center  302 is at  -4.476898  2.704098 -1.079999
      ESP Fit Center  303 is at  -4.246817  2.292832 -2.042324
      ESP Fit Center  304 is at  -3.538700  1.776558 -2.708274
      ESP Fit Center  305 is at  -2.497379 -0.027063 -2.708274
      ESP Fit Center  306 is at  -3.018040  0.874747 -2.945949
      ESP Fit Center  307 is at   2.998248  1.447733 -2.426904
      ESP Fit Center  308 is at   2.060050  1.899546 -2.426904
      ESP Fit Center  309 is at   2.318873 -2.088446 -3.389229
      ESP Fit Center  310 is at   2.580711 -0.381617 -4.055179
      ESP Fit Center  311 is at   1.018729 -1.283427 -4.055179
      ESP Fit Center  312 is at   2.060050 -1.283427 -4.055179
      ESP Fit Center  313 is at  -1.766351  0.654722  2.181566
      ESP Fit Center  314 is at  -2.807672  0.654722  2.181566
      ESP Fit Center  315 is at  -2.807672 -1.148899 -2.143084
      ESP Fit Center  316 is at  -1.766351 -1.148899 -2.143084
      ESP Fit Center  317 is at   2.799498  2.146333 -1.158559
      ESP Fit Center  318 is at   2.120123  2.023812 -2.120885
      ESP Fit Center  319 is at   1.073601  2.174279 -2.120885
      ESP Fit Center  320 is at   1.869098  0.409216  3.845678
      ESP Fit Center  321 is at   2.840998  0.409216  3.623848
      ESP Fit Center  322 is at   2.355048  1.250906  3.623848
      ESP Fit Center  323 is at   1.383149  1.250906  3.623848
      ESP Fit Center  324 is at   0.897199  0.409216  3.623848
      ESP Fit Center  325 is at   1.383149 -0.432473  3.623848
      ESP Fit Center  326 is at   2.355048 -0.432473  3.623848
      ESP Fit Center  327 is at   3.620401  0.409216  3.002295
      ESP Fit Center  328 is at   3.285932  1.438606  3.002295
      ESP Fit Center  329 is at   2.410281  2.074804  3.002295
      ESP Fit Center  330 is at   1.327916  2.074804  3.002295
      ESP Fit Center  331 is at   0.117796  0.409216  3.002295
      ESP Fit Center  332 is at   0.452265 -0.620173  3.002295
      ESP Fit Center  333 is at   1.327916 -1.256371  3.002295
      ESP Fit Center  334 is at   2.410281 -1.256371  3.002295
      ESP Fit Center  335 is at   3.285932 -0.620173  3.002295
      ESP Fit Center  336 is at   3.802791  1.424097  2.104125
      ESP Fit Center  337 is at   3.109660  2.206480  2.104125
      ESP Fit Center  338 is at   2.132331  2.577132  2.104125
      ESP Fit Center  339 is at   1.094699 -1.632708  2.104125
      ESP Fit Center  340 is at   2.132331 -1.758699  2.104125
      ESP Fit Center  341 is at   3.109660  2.206480  1.107231
      ESP Fit Center  342 is at  -0.400748 -1.453346  2.649075
      ESP Fit Center  343 is at   0.571151 -1.453346  2.427245
      ESP Fit Center  344 is at  -0.886698 -2.295036  2.427245
      ESP Fit Center  345 is at   0.085201 -2.295036  2.427245
      ESP Fit Center  346 is at  -0.941931 -3.118934  1.805692
      ESP Fit Center  347 is at   0.140434 -3.118934  1.805692
      ESP Fit Center  348 is at   1.016085 -2.482736  1.805692
      ESP Fit Center  349 is at  -1.175148 -3.495271  0.907522
      ESP Fit Center  350 is at  -0.137516 -3.621262  0.907522
      ESP Fit Center  351 is at   0.839813 -3.250610  0.907522
      ESP Fit Center  352 is at   1.532945 -2.468227  0.907522
      ESP Fit Center  353 is at  -1.175148 -3.495271 -0.089372
      ESP Fit Center  354 is at  -0.137516 -3.621262 -0.089372
      ESP Fit Center  355 is at   0.839813 -3.250610 -0.089372
      ESP Fit Center  356 is at  -0.941931 -3.118934 -0.987542
      ESP Fit Center  357 is at   0.140434 -3.118934 -0.987542
      ESP Fit Center  358 is at  -0.886698 -2.295036 -1.609095
      ESP Fit Center  359 is at   5.421704  0.765020  0.433029
      ESP Fit Center  360 is at   5.996496 -0.212331 -0.526971
      ESP Fit Center  361 is at   5.739265  0.747669 -0.526971
      ESP Fit Center  362 is at   5.036496  1.450438 -0.526971
      ESP Fit Center  363 is at   4.076496  1.707669 -0.526971
      ESP Fit Center  364 is at   5.739265 -1.172331 -0.526971
      ESP Fit Center  365 is at   5.739265 -0.212331 -1.486971
      ESP Fit Center  366 is at   5.421704  0.765020 -1.486971
      ESP Fit Center  367 is at   4.590320  1.369056 -1.486971
      ESP Fit Center  368 is at   3.562672  1.369056 -1.486971
      ESP Fit Center  369 is at   5.421704 -1.189682 -1.486971
      ESP Fit Center  370 is at   5.036496 -0.212331 -2.189739
      ESP Fit Center  371 is at   4.556496  0.619053 -2.189739
      ESP Fit Center  372 is at   4.556496 -1.043715 -2.189739
      ESP Fit Center  373 is at   3.975340 -0.776521  3.078542
      ESP Fit Center  374 is at   4.935340 -0.776521  2.821311
      ESP Fit Center  375 is at   4.455340  0.054863  2.821311
      ESP Fit Center  376 is at   3.495340 -1.607906  2.821311
      ESP Fit Center  377 is at   4.455340 -1.607906  2.821311
      ESP Fit Center  378 is at   5.638108 -0.776521  2.118542
      ESP Fit Center  379 is at   5.320548  0.200830  2.118542
      ESP Fit Center  380 is at   4.489163  0.804866  2.118542
      ESP Fit Center  381 is at   3.461516 -2.357908  2.118542
      ESP Fit Center  382 is at   4.489163 -2.357908  2.118542
      ESP Fit Center  383 is at   5.320548 -1.753872  2.118542
      ESP Fit Center  384 is at   5.895340 -0.776521  1.158542
      ESP Fit Center  385 is at   5.638108  0.183479  1.158542
      ESP Fit Center  386 is at   4.935340 -2.439290  1.158542
      ESP Fit Center  387 is at   5.638108 -1.736521  1.158542
      ESP Fit Center  388 is at   1.900224 -2.710826  0.808004
      ESP Fit Center  389 is at   2.731609 -3.314862  0.808004
      ESP Fit Center  390 is at   3.759256 -3.314862  0.808004
      ESP Fit Center  391 is at   1.582664 -2.693475 -0.151996
      ESP Fit Center  392 is at   2.285432 -3.396243 -0.151996
      ESP Fit Center  393 is at   3.245432 -3.653475 -0.151996
      ESP Fit Center  394 is at   4.205432 -3.396243 -0.151996
      ESP Fit Center  395 is at   4.908201 -2.693475 -0.151996
      ESP Fit Center  396 is at   2.731609 -3.314862 -1.111996
      ESP Fit Center  397 is at   3.759256 -3.314862 -1.111996
      ESP Fit Center  398 is at   4.590641 -2.710826 -1.111996
      ESP Fit Center  399 is at   2.765432 -2.564859 -1.814765
      ESP Fit Center  400 is at   3.725432 -2.564859 -1.814765
      ESP Fit Center  401 is at  -0.012049  1.746010  3.475026
      ESP Fit Center  402 is at   0.947951  1.746010  3.217795
      ESP Fit Center  403 is at   0.467951  2.577395  3.217795
      ESP Fit Center  404 is at  -0.492049  2.577395  3.217795
      ESP Fit Center  405 is at  -0.972049  1.746010  3.217795
      ESP Fit Center  406 is at  -0.492049  0.914626  3.217795
      ESP Fit Center  407 is at   1.333160  2.723361  2.515026
      ESP Fit Center  408 is at   0.501775  3.327397  2.515026
      ESP Fit Center  409 is at  -0.525872  3.327397  2.515026
      ESP Fit Center  410 is at  -1.357257  2.723361  2.515026
      ESP Fit Center  411 is at  -1.674817  1.746010  2.515026
      ESP Fit Center  412 is at  -1.357257  0.768659  2.515026
      ESP Fit Center  413 is at  -0.525872  0.164623  2.515026
      ESP Fit Center  414 is at   1.122435  3.567529  1.910128
      ESP Fit Center  415 is at   2.305204  2.736145  1.207360
      ESP Fit Center  416 is at   1.987643  3.713496  1.207360
      ESP Fit Center  417 is at   1.156259  4.317532  1.207360
      ESP Fit Center  418 is at   0.128611  4.317532  1.207360
      ESP Fit Center  419 is at   2.562435  2.736145  0.247360
      ESP Fit Center  420 is at   2.305204  3.696145  0.247360
      ESP Fit Center  421 is at   1.602435  4.398914  0.247360
      ESP Fit Center  422 is at   0.642435  4.656145  0.247360
[...]
  439 Fit       0.013047
  440 Fit       0.020515
  441 Fit       0.022006
  442 Fit       0.002055
  443 Fit      -0.005365
  444 Fit       0.000914
  445 Fit       0.006960
  446 Fit       0.007287
  447 Fit       0.003787
  448 Fit      -0.002081
  449 Fit       0.005127
  450 Fit       0.011316
  451 Fit       0.011633
  452 Fit       0.010152
  453 Fit       0.007749
  454 Fit       0.004818
  455 Fit       0.013649
  456 Fit       0.011332
  457 Fit       0.009496
  458 Fit       0.016559
  459 Fit      -0.009137
  460 Fit      -0.025046
  461 Fit      -0.003319
  462 Fit      -0.012914
  463 Fit      -0.001958
  464 Fit      -0.012042
  465 Fit      -0.034415
  466 Fit       0.000814
  467 Fit      -0.006790
  468 Fit      -0.023238
  469 Fit      -0.017117
  470 Fit       0.008566
  471 Fit       0.014499
  472 Fit       0.011718
  473 Fit       0.009928
  474 Fit       0.007080
  475 Fit       0.002165
  476 Fit       0.013899
  477 Fit       0.011085
  478 Fit       0.007206
  479 Fit       0.001010
  480 Fit       0.004442
  481 Fit       0.014580
  482 Fit       0.010298
  483 Fit       0.005418
  484 Fit       0.011910
  485 Fit       0.016699
  486 Fit       0.018148
  487 Fit       0.017707
  488 Fit       0.017902
  489 Fit       0.021186
  490 Fit       0.019081
  491 Fit       0.018736
  492 Fit       0.018522
  493 Fit       0.017600
  494 Fit       0.013203
  495 Fit       0.019557
  496 Fit       0.018883
  497 Fit       0.017851
  498 Fit       0.016545
  499 Fit       0.018594
  500 Fit       0.022149
  501 Fit       0.021914
  502 Fit       0.024994
  503 Fit       0.022764
  504 Fit       0.026866
  505 Fit       0.023232
  506 Fit       0.026187
  507 Fit       0.024327
  508 Fit       0.009121
  509 Fit       0.003156
  510 Fit       0.009532
  511 Fit       0.012857
  512 Fit       0.013583
  513 Fit       0.014104
  514 Fit       0.015115
  515 Fit       0.015557
  516 Fit       0.015369
  517 Fit       0.017356
  518 Fit       0.017093
  519 Fit       0.016778
  520 Fit       0.016274
  521 Fit       0.020145
  522 Fit       0.019262
  523 Fit      -0.009238
  524 Fit      -0.008768
  525 Fit      -0.008123
  526 Fit      -0.002468
  527 Fit       0.004113
  528 Fit       0.010715
  529 Fit       0.004867
  530 Fit       0.004561
  531 Fit       0.006981
  532 Fit       0.012643
  533 Fit       0.009858
  534 Fit       0.011446
  535 Fit       0.011528
  536 Fit       0.014417
  537 Fit       0.016610
  538 Fit       0.017246
  539 Fit       0.015415
  540 Fit       0.011432
  541 Fit       0.013497
  542 Fit       0.015902
  543 Fit       0.015562
  544 Fit       0.014230
  545 Fit       0.015001
  546 Fit       0.007546
  547 Fit       0.014517
  548 Fit       0.012538
  549 Fit       0.014661
  550 Fit       0.020149
  551 Fit       0.024473
  552 Fit       0.021811
  553 Fit       0.015707
  554 Fit       0.015163
  555 Fit       0.016093
  556 Fit       0.019101
  557 Fit       0.018763
  558 Fit       0.015837
  559 Fit       0.015597
  560 Fit       0.016785
  561 Fit       0.018745
  562 Fit       0.025723
  563 Fit       0.022821
  564 Fit       0.024352
  565 Fit       0.027016
  566 Fit       0.028328
  567 Fit       0.025892
  568 Fit      -0.006888
  569 Fit      -0.012638
  570 Fit       0.000277
  571 Fit      -0.030281
  572 Fit      -0.008303
  573 Fit       0.008491
  574 Fit      -0.035004
  575 Fit      -0.017565
  576 Fit      -0.008415
  577 Fit      -0.030335
  578 Fit       0.002136
  579 Fit       0.001217
  580 Fit       0.001720
  581 Fit       0.005103
  582 Fit       0.009552
  583 Fit      -0.011803
  584 Fit      -0.005749
  585 Fit      -0.002137
  586 Fit      -0.000601
  587 Fit      -0.004154
  588 Fit      -0.000704
  589 Fit       0.006722
  590 Fit       0.010597
  591 Fit      -0.014672
  592 Fit      -0.007129
  593 Fit      -0.001029
  594 Fit       0.002857
  595 Fit       0.007196
  596 Fit       0.004264
  597 Fit       0.010432
  598 Fit       0.002794
  599 Fit      -0.007661
  600 Fit      -0.006669
  601 Fit       0.018392
  602 Fit       0.016147
  603 Fit       0.019374
  604 Fit       0.017921
  605 Fit       0.018854
  606 Fit       0.019629
  607 Fit       0.017280
  608 Fit       0.019066
  609 Fit       0.006528
  610 Fit       0.008485
  611 Fit       0.011234
  612 Fit       0.013592
  613 Fit       0.012802
  614 Fit       0.012783
  615 Fit      -0.009700
  616 Fit      -0.001251
  617 Fit       0.009991
  618 Fit       0.009267
  619 Fit      -0.001548
  620 Fit       0.000027
  621 Fit      -0.046630
  622 Fit      -0.044857
  623 Fit      -0.044231
  624 Fit      -0.042269
  625 Fit      -0.044503
  626 Fit      -0.048572
  627 Fit      -0.046464
  628 Fit      -0.036763
  629 Fit      -0.039739
  630 Fit      -0.039927
  631 Fit      -0.037175
  632 Fit      -0.044323
  633 Fit      -0.053041
  634 Fit      -0.049015
  635 Fit      -0.040843
  636 Fit      -0.029140
  637 Fit      -0.032522
  638 Fit      -0.032612
  639 Fit      -0.043931
  640 Fit      -0.035236
  641 Fit      -0.046478
  642 Fit      -0.036217
  643 Fit      -0.042760
  644 Fit      -0.046800
  645 Fit      -0.032314
  646 Fit      -0.037673
  647 Fit      -0.037229
  648 Fit      -0.029949
  649 Fit      -0.032531
  650 Fit      -0.028724
  651 Fit      -0.017427
  652 Fit      -0.024053
  653 Fit      -0.009999
  654 Fit      -0.000779
  655 Fit       0.005021
  656 Fit       0.004896
  657 Fit       0.003974
  658 Fit       0.002290
  659 Fit       0.009168
  660 Fit       0.009363
  661 Fit       0.008862
  662 Fit       0.006970
  663 Fit       0.008747
  664 Fit       0.013500
  665 Fit       0.013931
  666 Fit      -0.023757
  667 Fit      -0.009909
  668 Fit      -0.020454
  669 Fit      -0.023796
  670 Fit      -0.011292
  671 Fit      -0.003418
  672 Fit      -0.007105
  673 Fit      -0.016878
  674 Fit      -0.012868
  675 Fit      -0.006150
  676 Fit      -0.003254
  677 Fit      -0.000322
  678 Fit      -0.002105
  679 Fit      -0.001605
  680 Fit      -0.000246
  681 Fit      -0.021890
  682 Fit      -0.008940
  683 Fit      -0.003756
  684 Fit      -0.019486
  685 Fit      -0.005774
  686 Fit      -0.000053
  687 Fit       0.002009
  688 Fit       0.003563
  689 Fit       0.005717
  690 Fit       0.006453
  691 Fit       0.010224
  692 Fit      -0.021514
  693 Fit      -0.019613
  694 Fit      -0.010582
  695 Fit      -0.010910
  696 Fit      -0.023244
  697 Fit      -0.031813
  698 Fit      -0.015188
  699 Fit      -0.002963
  700 Fit      -0.006544
  701 Fit      -0.017009
  702 Fit      -0.011637
  703 Fit      -0.005362
  704 Fit      -0.002752
  705 Fit      -0.010658
  706 Fit      -0.004479
  707 Fit      -0.000530
  708 Fit       0.001390
  709 Fit       0.002493
  710 Fit       0.001124
  711 Fit       0.003946
  712 Fit       0.005446
  713 Fit       0.006430
  714 Fit       0.010493
  715 Fit      -0.000187
  716 Fit       0.001542
  717 Fit       0.002453
  718 Fit       0.006954
  719 Fit       0.004012
  720 Fit       0.008399
  721 Fit       0.013271
  722 Fit       0.010501
  723 Fit       0.016313
  724 Fit       0.000504
  725 Fit      -0.000653
  726 Fit       0.005240
  727 Fit       0.005562
  728 Fit       0.002356
  729 Fit       0.009199
  730 Fit       0.010193
  731 Fit       0.009262
  732 Fit       0.007573
  733 Fit       0.005344
  734 Fit       0.013477
  735 Fit       0.011102
  736 Fit       0.009236
  737 Fit      -0.009830
  738 Fit      -0.025963
  739 Fit      -0.004301
  740 Fit      -0.014029
  741 Fit       0.000535
  742 Fit      -0.005154
  743 Fit      -0.015948
  744 Fit      -0.001935
  745 Fit      -0.010140
  746 Fit      -0.027244
  747 Fit      -0.006061
  748 Fit      -0.020668
  749 Fit       0.011861
  750 Fit       0.009690
  751 Fit       0.007611
  752 Fit       0.004522
  753 Fit      -0.000440
  754 Fit       0.014519
  755 Fit       0.011084
  756 Fit       0.008311
  757 Fit       0.004438
  758 Fit      -0.001429
  759 Fit       0.013219
  760 Fit       0.008871
  761 Fit       0.004478
  762 Fit       0.010993
  763 Fit       0.015057
  764 Fit       0.016976
  765 Fit       0.015822
  766 Fit       0.015633
  767 Fit       0.017552
  768 Fit       0.016591
  769 Fit       0.016303
  770 Fit       0.016035
  771 Fit       0.017747
  772 Fit       0.016688
  773 Fit       0.015744
  774 Fit       0.015055
  775 Fit       0.016946
  776 Fit       0.019222
  777 Fit       0.022276
  778 Fit       0.020377
  779 Fit       0.020023
  780 Fit       0.023819
  781 Fit       0.020762
  782 Fit       0.023804
  783 Fit       0.021977
  784 Fit       0.006846
  785 Fit       0.000742
  786 Fit       0.007086
  787 Fit       0.010466
  788 Fit       0.011464
  789 Fit       0.012519
  790 Fit       0.013201
  791 Fit       0.013367
  792 Fit       0.013979
  793 Fit       0.015714
  794 Fit       0.015060
  795 Fit       0.014933
  796 Fit       0.014753
  797 Fit      -0.010943
  798 Fit      -0.007964
  799 Fit      -0.002324
  800 Fit       0.004395
  801 Fit       0.006592
  802 Fit       0.003050
  803 Fit       0.003673
  804 Fit       0.006406
  805 Fit       0.008750
  806 Fit       0.011024
  807 Fit       0.014734
  808 Fit       0.013603
  809 Fit       0.010777
  810 Fit       0.011929
  811 Fit       0.013687
  812 Fit       0.013576
  813 Fit       0.012896
  814 Fit       0.013099
  815 Fit       0.010808
  816 Fit       0.011569
  817 Fit       0.012376
  818 Fit       0.016508
  819 Fit       0.021401
  820 Fit       0.022038
  821 Fit       0.017303
  822 Fit       0.013645
  823 Fit       0.014249
  824 Fit       0.016936
  825 Fit       0.016742
  826 Fit       0.014086
  827 Fit       0.013897
  828 Fit       0.014852
  829 Fit       0.015555
  830 Fit       0.020661
  831 Fit       0.023998
  832 Fit       0.025179
  833 Fit      -0.016366
  834 Fit      -0.006225
  835 Fit      -0.028798
  836 Fit      -0.002544
  837 Fit       0.009571
  838 Fit      -0.019161
  839 Fit      -0.025754
  840 Fit      -0.013032
  841 Fit      -0.006971
  842 Fit       0.000270
  843 Fit      -0.000709
  844 Fit      -0.002873
  845 Fit      -0.006583
  846 Fit      -0.000536
  847 Fit       0.000240
  848 Fit       0.002286
  849 Fit       0.002693
  850 Fit       0.005587
  851 Fit       0.005906
  852 Fit       0.009798
  853 Fit      -0.012311
  854 Fit      -0.006462
  855 Fit      -0.003167
  856 Fit      -0.001968
  857 Fit      -0.006489
  858 Fit      -0.002833
  859 Fit       0.000515
  860 Fit      -0.000564
  861 Fit       0.002139
  862 Fit       0.007159
  863 Fit       0.011749
  864 Fit      -0.014139
  865 Fit      -0.007581
  866 Fit      -0.002169
  867 Fit       0.001352
  868 Fit       0.004524
  869 Fit       0.001683
  870 Fit       0.008145
  871 Fit       0.006200
  872 Fit       0.003764
  873 Fit       0.000321
  874 Fit       0.011626
  875 Fit       0.001019
  876 Fit      -0.005226
  877 Fit      -0.008490
  878 Fit      -0.004019
  879 Fit       0.013796
  880 Fit       0.013743
  881 Fit       0.016036
  882 Fit       0.015430
  883 Fit       0.015010
  884 Fit       0.016563
  885 Fit       0.016067
  886 Fit       0.017037
  887 Fit       0.017804
  888 Fit       0.016317
  889 Fit       0.017546
  890 Fit       0.008225
  891 Fit       0.003848
  892 Fit       0.007403
  893 Fit       0.009294
  894 Fit       0.013540
  895 Fit       0.007991
  896 Fit       0.011604
  897 Fit       0.009880
  898 Fit       0.009196
  899 Fit       0.010098
  900 Fit       0.012164
  901 Fit       0.011651
  902 Fit       0.011441
  903 Fit      -0.010507
  904 Fit      -0.002235
  905 Fit       0.010669
  906 Fit       0.010377
  907 Fit      -0.000008
  908 Fit      -0.002168
  909 Fit       0.002655
  910 Fit       0.002766
  911 Fit      -0.039562
  912 Fit      -0.038143
  913 Fit      -0.037609
  914 Fit      -0.036303
  915 Fit      -0.038137
  916 Fit      -0.041266
  917 Fit      -0.039634
  918 Fit      -0.032733
  919 Fit      -0.034365
  920 Fit      -0.034583
  921 Fit      -0.033069
  922 Fit      -0.033561
  923 Fit      -0.041519
  924 Fit      -0.044464
  925 Fit      -0.040798
  926 Fit      -0.035488
  927 Fit      -0.032080
  928 Fit      -0.027239
  929 Fit      -0.029497
  930 Fit      -0.029510
  931 Fit      -0.042660
  932 Fit      -0.020875
  933 Fit      -0.022511
  934 Fit      -0.038593
  935 Fit      -0.030747
  936 Fit      -0.040429
  937 Fit      -0.032901
  938 Fit      -0.038019
  939 Fit      -0.043551
  940 Fit      -0.029107
  941 Fit      -0.033063
  942 Fit      -0.033417
  943 Fit      -0.024300
  944 Fit      -0.028518
  945 Fit      -0.028417
  946 Fit      -0.017999
  947 Fit      -0.023067
  948 Fit      -0.023122
  949 Fit      -0.013472
  950 Fit      -0.015931
  951 Fit       0.002350
  952 Fit       0.001768
  953 Fit       0.000461
  954 Fit      -0.001667
  955 Fit       0.005677
  956 Fit       0.005630
  957 Fit       0.005086
  958 Fit       0.003893
  959 Fit       0.005456
  960 Fit       0.008879
  961 Fit       0.008959
  962 Fit       0.008706
  963 Fit       0.007627
  964 Fit       0.008866
  965 Fit       0.012616
  966 Fit      -0.023889
  967 Fit      -0.011964
  968 Fit      -0.021249
  969 Fit      -0.024192
  970 Fit      -0.013140
  971 Fit      -0.005563
  972 Fit      -0.009214
  973 Fit      -0.018816
  974 Fit      -0.014598
  975 Fit      -0.008033
  976 Fit      -0.005316
  977 Fit      -0.002019
  978 Fit      -0.003899
  979 Fit      -0.008190
  980 Fit      -0.003044
  981 Fit      -0.001808
  982 Fit      -0.024654
  983 Fit      -0.011815
  984 Fit      -0.006171
  985 Fit      -0.019523
  986 Fit      -0.007769
  987 Fit      -0.002730
  988 Fit      -0.000582
  989 Fit      -0.009788
  990 Fit      -0.002127
  991 Fit       0.001419
  992 Fit       0.002919
  993 Fit       0.003938
  994 Fit       0.005679
  995 Fit       0.006799
  996 Fit       0.010054
  997 Fit      -0.021115
  998 Fit      -0.019333
  999 Fit      -0.011480
 1000 Fit      -0.011967
 1001 Fit      -0.022699
 1002 Fit      -0.015364
 1003 Fit      -0.004249
 1004 Fit      -0.007806
 1005 Fit      -0.018199
 1006 Fit      -0.014500
 1007 Fit      -0.007593
 1008 Fit      -0.008527
 1009 Fit      -0.003844
 1010 Fit      -0.001253
 1011 Fit       0.000351
 1012 Fit      -0.002488
 1013 Fit       0.000429
 1014 Fit       0.002266
 1015 Fit       0.003672
 1016 Fit       0.001837
 1017 Fit       0.004316
 1018 Fit       0.006250
 1019 Fit       0.006957
 1020 Fit       0.004611
 1021 Fit       0.004853
 1022 Fit       0.008646
 1023 Fit       0.008103
 1024 Fit       0.012232
 1025 Fit       0.011434
 1026 Fit       0.016750
 1027 Fit      -0.000622
 1028 Fit      -0.001749
 1029 Fit       0.003324
 1030 Fit       0.003762
 1031 Fit       0.001026
 1032 Fit       0.000114
 1033 Fit       0.006181
 1034 Fit       0.007692
 1035 Fit       0.007202
 1036 Fit       0.005810
 1037 Fit       0.003704
 1038 Fit       0.011786
 1039 Fit       0.009968
 1040 Fit       0.008436
 1041 Fit       0.006939
 1042 Fit       0.012189
 1043 Fit       0.010045
 1044 Fit      -0.010110
 1045 Fit      -0.023033
 1046 Fit      -0.005455
 1047 Fit      -0.013863
 1048 Fit      -0.006143
 1049 Fit      -0.015313
 1050 Fit      -0.004280
 1051 Fit      -0.012205
 1052 Fit      -0.004257
 1053 Fit      -0.013141
 1054 Fit      -0.018499
 1055 Fit       0.007385
 1056 Fit       0.005243
 1057 Fit       0.013884
 1058 Fit       0.010547
 1059 Fit       0.008426
 1060 Fit       0.006181
 1061 Fit       0.003047
 1062 Fit      -0.001829
 1063 Fit       0.013953
 1064 Fit       0.010310
 1065 Fit       0.007588
 1066 Fit       0.004258
 1067 Fit      -0.000292
 1068 Fit       0.012115
 1069 Fit       0.008169
 1070 Fit       0.004880
 1071 Fit       0.010381
 1072 Fit       0.013858
 1073 Fit       0.013786
 1074 Fit       0.014820
 1075 Fit       0.014334
 1076 Fit       0.014245
 1077 Fit       0.015976
 1078 Fit       0.015014
 1079 Fit       0.014587
 1080 Fit       0.014158
 1081 Fit       0.012968
 1082 Fit       0.016227
 1083 Fit       0.015052
 1084 Fit       0.014261
 1085 Fit       0.014267
 1086 Fit       0.015636
 1087 Fit       0.017612
 1088 Fit       0.017409
 1089 Fit       0.020258
 1090 Fit       0.018534
 1091 Fit       0.021325
 1092 Fit       0.018930
 1093 Fit       0.021560
 1094 Fit       0.020054
 1095 Fit       0.005067
 1096 Fit       0.004939
 1097 Fit       0.008201
 1098 Fit       0.009314
 1099 Fit       0.009899
 1100 Fit       0.010835
 1101 Fit       0.011276
 1102 Fit       0.012198
 1103 Fit       0.012360
 1104 Fit       0.012539
 1105 Fit       0.012621
 1106 Fit       0.012804
 1107 Fit       0.014780
 1108 Fit       0.014351
 1109 Fit       0.014258
 1110 Fit      -0.014169
 1111 Fit      -0.005763
 1112 Fit      -0.001139
 1113 Fit      -0.003722
 1114 Fit      -0.002127
 1115 Fit       0.001281
 1116 Fit       0.005835
 1117 Fit       0.007668
 1118 Fit       0.004430
 1119 Fit       0.004475
 1120 Fit       0.006590
 1121 Fit       0.008608
 1122 Fit       0.010309
 1123 Fit       0.010822
 1124 Fit       0.012333
 1125 Fit       0.012467
 1126 Fit       0.011803
 1127 Fit       0.010699
 1128 Fit       0.011823
 1129 Fit       0.012050
 1130 Fit       0.011785
 1131 Fit       0.010552
 1132 Fit       0.016120
 1133 Fit       0.011250
 1134 Fit       0.011904
 1135 Fit       0.014866
 1136 Fit       0.018236
 1137 Fit       0.018682
 1138 Fit       0.015441
 1139 Fit       0.012494
 1140 Fit       0.012997
 1141 Fit       0.014961
 1142 Fit       0.014863
 1143 Fit       0.012873
 1144 Fit       0.013369
 1145 Fit       0.015422
 1146 Fit       0.019042
 1147 Fit       0.021498
 1148 Fit       0.022336
 -----------------------------------------------------------------
 Leave Link  602 at Mon Feb 26 23:18:30 2018, MaxMem=   33554432 cpu:       0.7

 Test job not archived.
 1\1\GINC-NODE083\SP\RHF\6-31G(d)\C8H16N2O2\WULSDORT\26-Feb-2018\0\\#HF
 /6-31G* Geom=AllCheck Guess=Read Pop=(MK,ReadRadii) Integral=(Grid=Ult
 raFine) iop(6/33=2)\\Optimization for frag1-conf2\\0,1\C,0,0.996797752
 1,-0.9109508503,-0.1971556882\C,0,-0.6107579087,-2.5337164258,1.936959
 7103\C,0,1.0103048553,-0.7422710274,-1.7122529149\C,0,0.7813722209,-0.
 5262429873,2.7953453197\C,0,-1.2063408199,-4.5094843903,3.2328774455\C
 ,0,-1.5163101884,-2.3154458679,4.2855277493\C,0,-1.441724936,-0.479536
 0439,-0.2737088857\C,0,-0.3545891143,-0.9986328951,1.8654740002\N,0,-1
 .0750495978,-3.0620102916,3.1192141193\N,0,-0.1853805829,-0.6034452752
 ,0.4628269922\O,0,2.0114253523,-1.2594478777,0.3906231151\O,0,-0.40006
 91806,-3.2388155453,0.9563090603\H,0,0.7289225517,0.2707391524,-2.0220
 163977\H,0,2.0276390861,-0.94671148,-2.0474273034\H,0,0.3269112925,-1.
 4475466665,-2.1981738643\H,0,1.6771010622,-1.130364377,2.6709436738\H,
 0,1.0346834109,0.5104287271,2.5534541487\H,0,0.4576065403,-0.560009127
 4,3.839878961\H,0,-0.667315696,-4.8681718001,4.1190874285\H,0,-0.78905
 42566,-4.9667186794,2.3374339695\H,0,-2.2619014222,-4.7982533604,3.329
 8749834\H,0,-2.4898116907,-2.7006143764,4.6157578597\H,0,-1.6385990059
 ,-1.2561368944,4.0645803293\H,0,-0.8120538356,-2.4173079856,5.12318197
 29\H,0,-1.8976343586,-1.4588921097,-0.4742386265\H,0,-1.2871769662,0.0
 3723329,-1.2206700177\H,0,-2.1446086168,0.1202875488,0.3142746285\H,0,
 -1.2699644598,-0.4875230315,2.1885947219\\Version=AM64L-G09RevC.01\Sta
 te=1-A\HF=-570.8871563\RMSD=4.124e-09\Dipole=-1.689327,0.7422724,0.784
 7285\Quadrupole=-6.1525988,-1.1313359,7.2839347,-0.4545212,-0.60134,-4
 .9142511\PG=C01 [X(C8H16N2O2)]\\@


 ...THOSE SCIENCES ARE VAIN AND FULL OF ERRORS WHICH 
 ARE NOT BORN FROM EXPERIMENT, THE MOTHER OF CERTAINTY...

                          -- LEONARDO DA VINCI, 1452-1519
 Job cpu time:  0 days  0 hours  2 minutes 46.4 seconds.
 File lengths (MBytes):  RWF=     29 Int=      0 D2E=      0 Chk=      5 Scr=      1
 Normal termination of Gaussian 09 at Mon Feb 26 23:18:30 2018.
