 Entering Gaussian System, Link 0=g09
 Initial command:
 /home/fb_chem/chemsoft/lx24-amd64/Gaussian_09_C.01_NBO_3.1_64_istanbul-64/g09/l1.exe /local/2400008.1.parallel_long/Gau-7250.inp -scrdir=/local/2400008.1.parallel_long/
 Entering Link 1 = /home/fb_chem/chemsoft/lx24-amd64/Gaussian_09_C.01_NBO_3.1_64_istanbul-64/g09/l1.exe PID=      7251.
  
 Copyright (c) 1988,1990,1992,1993,1995,1998,2003,2009,2011,
            Gaussian, Inc.  All Rights Reserved.
  
 This is part of the Gaussian(R) 09 program.  It is based on
 the Gaussian(R) 03 system (copyright 2003, Gaussian, Inc.),
 the Gaussian(R) 98 system (copyright 1998, Gaussian, Inc.),
 the Gaussian(R) 94 system (copyright 1995, Gaussian, Inc.),
 the Gaussian 92(TM) system (copyright 1992, Gaussian, Inc.),
 the Gaussian 90(TM) system (copyright 1990, Gaussian, Inc.),
 the Gaussian 88(TM) system (copyright 1988, Gaussian, Inc.),
 the Gaussian 86(TM) system (copyright 1986, Carnegie Mellon
 University), and the Gaussian 82(TM) system (copyright 1983,
 Carnegie Mellon University). Gaussian is a federally registered
 trademark of Gaussian, Inc.
  
 This software contains proprietary and confidential information,
 including trade secrets, belonging to Gaussian, Inc.
  
 This software is provided under written license and may be
 used, copied, transmitted, or stored only in accord with that
 written license.
  
 The following legend is applicable only to US Government
 contracts under FAR:
  
                    RESTRICTED RIGHTS LEGEND
  
 Use, reproduction and disclosure by the US Government is
 subject to restrictions as set forth in subparagraphs (a)
 and (c) of the Commercial Computer Software - Restricted
 Rights clause in FAR 52.227-19.
  
 Gaussian, Inc.
 340 Quinnipiac St., Bldg. 40, Wallingford CT 06492
  
  
 ---------------------------------------------------------------
 Warning -- This program may not be used in any manner that
 competes with the business of Gaussian, Inc. or will provide
 assistance to any competitor of Gaussian, Inc.  The licensee
 of this program is prohibited from giving any competitor of
 Gaussian, Inc. access to this program.  By using this program,
 the user acknowledges that Gaussian, Inc. is engaged in the
 business of creating and licensing software in the field of
 computational chemistry and represents and warrants to the
 licensee that it is not a competitor of Gaussian, Inc. and that
 it will not use this program in any manner prohibited above.
 ---------------------------------------------------------------
  

 Cite this work as:
 Gaussian 09, Revision C.01,
 M. J. Frisch, G. W. Trucks, H. B. Schlegel, G. E. Scuseria, 
 M. A. Robb, J. R. Cheeseman, G. Scalmani, V. Barone, B. Mennucci, 
 G. A. Petersson, H. Nakatsuji, M. Caricato, X. Li, H. P. Hratchian, 
 A. F. Izmaylov, J. Bloino, G. Zheng, J. L. Sonnenberg, M. Hada, 
 M. Ehara, K. Toyota, R. Fukuda, J. Hasegawa, M. Ishida, T. Nakajima, 
 Y. Honda, O. Kitao, H. Nakai, T. Vreven, J. A. Montgomery, Jr., 
 J. E. Peralta, F. Ogliaro, M. Bearpark, J. J. Heyd, E. Brothers, 
 K. N. Kudin, V. N. Staroverov, T. Keith, R. Kobayashi, J. Normand, 
 K. Raghavachari, A. Rendell, J. C. Burant, S. S. Iyengar, J. Tomasi, 
 M. Cossi, N. Rega, J. M. Millam, M. Klene, J. E. Knox, J. B. Cross, 
 V. Bakken, C. Adamo, J. Jaramillo, R. Gomperts, R. E. Stratmann, 
 O. Yazyev, A. J. Austin, R. Cammi, C. Pomelli, J. W. Ochterski, 
 R. L. Martin, K. Morokuma, V. G. Zakrzewski, G. A. Voth, 
 P. Salvador, J. J. Dannenberg, S. Dapprich, A. D. Daniels, 
 O. Farkas, J. B. Foresman, J. V. Ortiz, J. Cioslowski, 
 and D. J. Fox, Gaussian, Inc., Wallingford CT, 2010.
 
 ******************************************
 Gaussian 09:  AM64L-G09RevC.01 23-Sep-2011
                17-Feb-2018 
 ******************************************
 %nprocs=2
 Will use up to    2 processors via shared memory.
 %chk=frag18-conf0.chk
 ----------------------------------------------------------------------
 #HF/6-31G* Geom=AllCheck Guess=Read Pop=(MK,ReadRadii) Integral=(Grid=
 UltraFine) iop(6/33=2)
 ----------------------------------------------------------------------
 1/29=7,38=1/1;
 2/12=2,40=1/2;
 3/5=1,6=6,7=1,11=9,14=-4,16=1,25=1,30=1,75=-5,116=-2/1,2,3;
 4/5=1/1;
 5/5=2,38=6/2;
 6/7=2,8=2,9=2,10=2,15=8,20=101,28=1,33=2/1,2;
 99/5=1,9=1/99;
 Structure from the checkpoint file:  frag18-conf0.chk
 -----------------------------
 Optimization for frag18-conf0
 -----------------------------
 Charge =  1 Multiplicity = 1
 Redundant internal coordinates found in file.
 C,0,0.7007136347,-0.4425904514,0.9034176343
 C,0,1.6547788918,-0.7496216578,-0.0724221086
 C,0,0.8946601971,-0.8781359237,2.1992956986
 C,0,2.9280515933,-1.9066716483,1.5876832026
 C,0,2.7908518895,-1.4899136619,0.262821603
 C,0,6.0396980313,-1.4875863295,0.3282658825
 C,0,7.3819421273,-0.794565116,0.247890596
 C,0,2.1689601765,-2.0787886363,3.9134817536
 C,0,3.8635832377,-1.8644058528,-0.754008031
 N,0,1.9996027974,-1.5988347192,2.518823337
 N,0,5.1022138948,-1.1126954189,-0.601148639
 O,0,5.7848533989,-2.3507339843,1.1664006201
 H,0,-0.1875726483,0.1308804347,0.6636454719
 H,0,1.5067883286,-0.4117523504,-1.0944187101
 H,0,0.1990103091,-0.6766278684,3.0052549694
 H,0,3.804676007,-2.4632602057,1.9032979088
 H,0,7.7021085797,-0.5205274637,1.2559911187
 H,0,8.1188724833,-1.5018302004,-0.148536216
 H,0,7.3759031631,0.0960826511,-0.3867731447
 H,0,1.4760210567,-2.9033948241,4.0963174715
 H,0,3.1944346045,-2.4203060047,4.047526167
 H,0,1.9636386302,-1.25693255,4.6010732354
 H,0,4.0863376834,-2.9324187014,-0.6575974828
 H,0,3.4793339626,-1.6902574106,-1.7618742466
 H,0,5.3475605805,-0.4389234151,-1.3129792074
 Recover connectivity data from disk.
                          Input orientation:                          
 ---------------------------------------------------------------------
 Center     Atomic      Atomic             Coordinates (Angstroms)
 Number     Number       Type             X           Y           Z
 ---------------------------------------------------------------------
      1          6           0        0.700714   -0.442590    0.903418
      2          6           0        1.654779   -0.749622   -0.072422
      3          6           0        0.894660   -0.878136    2.199296
      4          6           0        2.928052   -1.906672    1.587683
      5          6           0        2.790852   -1.489914    0.262822
      6          6           0        6.039698   -1.487586    0.328266
      7          6           0        7.381942   -0.794565    0.247891
      8          6           0        2.168960   -2.078789    3.913482
      9          6           0        3.863583   -1.864406   -0.754008
     10          7           0        1.999603   -1.598835    2.518823
     11          7           0        5.102214   -1.112695   -0.601149
     12          8           0        5.784853   -2.350734    1.166401
     13          1           0       -0.187573    0.130880    0.663645
     14          1           0        1.506788   -0.411752   -1.094419
     15          1           0        0.199010   -0.676628    3.005255
     16          1           0        3.804676   -2.463260    1.903298
     17          1           0        7.702109   -0.520527    1.255991
     18          1           0        8.118872   -1.501830   -0.148536
     19          1           0        7.375903    0.096083   -0.386773
     20          1           0        1.476021   -2.903395    4.096317
     21          1           0        3.194435   -2.420306    4.047526
     22          1           0        1.963639   -1.256933    4.601073
     23          1           0        4.086338   -2.932419   -0.657597
     24          1           0        3.479334   -1.690257   -1.761874
     25          1           0        5.347561   -0.438923   -1.312979
 ---------------------------------------------------------------------
                    Distance matrix (angstroms):
                    1          2          3          4          5
     1  C    0.000000
     2  C    1.398847   0.000000
     3  C    1.380802   2.398958   0.000000
     4  C    2.751870   2.390803   2.359372   0.000000
     5  C    2.424031   1.396812   2.778443   1.395625   0.000000
     6  C    5.470610   4.464601   5.508502   3.382914   3.249506
     7  C    6.722530   5.736290   6.774939   4.782151   4.643473
     8  C    3.727382   4.233025   2.450274   2.452587   3.749779
     9  C    3.843483   2.566344   4.302236   2.522008   1.524775
    10  N    2.373510   2.748567   1.357351   1.350482   2.393216
    11  N    4.699571   3.506591   5.059745   3.185650   2.496224
    12  O    5.436787   4.599539   5.210509   2.921641   3.243688
    13  H    1.084164   2.170562   2.132502   3.835698   3.414476
    14  H    2.154543   1.086524   3.382421   3.383555   2.157163
    15  H    2.173522   3.405391   1.083561   3.312127   3.860054
    16  H    3.836333   3.385570   3.326924   1.085299   2.160186
    17  H    7.010700   6.195754   6.881792   4.982272   5.103581
    18  H    7.566880   6.508158   7.621716   5.488440   5.343890
    19  H    6.820038   5.791830   7.045805   5.262403   4.894901
    20  H    4.105030   4.695645   2.835198   3.065142   4.292132
    21  H    4.473860   4.704859   3.329145   2.526976   3.918226
    22  H    3.991339   4.711085   2.656076   3.229980   4.422555
    23  H    4.483131   3.319565   4.750655   2.726732   2.146224
    24  H    4.047368   2.658580   4.799057   3.401512   2.147915
    25  H    5.148360   3.907960   5.688348   4.052425   3.181900
                    6          7          8          9         10
     6  C    0.000000
     7  C    1.512732   0.000000
     8  C    5.309040   6.500844   0.000000
     9  C    2.459428   3.811458   4.970228   0.000000
    10  N    4.597096   5.896911   1.484624   3.775762   0.000000
    11  N    1.372309   2.453413   5.469845   1.456928   4.426822
    12  O    1.229813   2.411641   4.549186   2.759667   4.089318
    13  H    6.442889   7.637202   4.582283   4.733157   3.349229
    14  H    4.871213   6.038690   5.319450   2.789366   3.835042
    15  H    6.475921   7.694899   2.582950   5.382562   2.080676
    16  H    2.903100   4.280391   2.619966   2.724586   2.093894
    17  H    2.135295   1.092644   6.332943   4.536561   5.939366
    18  H    2.133192   1.095648   7.227332   4.313414   6.676053
    19  H    2.191970   1.093658   7.094682   4.039154   6.341911
    20  H    6.085218   7.357816   1.092506   5.505053   2.112937
    21  H    4.774766   5.883492   1.089128   4.879704   2.106981
    22  H    5.909682   6.965773   1.091048   5.714517   2.110440
    23  H    2.622038   4.031294   5.029889   1.095247   4.027724
    24  H    3.311378   4.480153   5.837611   1.092598   4.530158
    25  H    2.066987   2.588726   6.333131   2.132285   5.218901
                   11         12         13         14         15
    11  N    0.000000
    12  O    2.263397   0.000000
    13  H    5.579250   6.486991   0.000000
    14  H    3.696177   5.212753   2.501220   0.000000
    15  H    6.102271   6.114381   2.506921   4.311353   0.000000
    16  H    3.127280   2.115841   4.919792   4.298288   4.172192
    17  H    3.249474   2.652084   7.938657   6.627085   7.705892
    18  H    3.075144   2.810221   8.504259   6.767763   8.564553
    19  H    2.583944   3.306161   7.636148   5.933394   7.975633
    20  H    6.198554   5.239836   4.874178   5.757862   2.789205
    21  H    5.192268   3.875048   5.421916   5.772524   3.619297
    22  H    6.077382   5.253100   4.696496   5.775956   2.448939
    23  H    2.084846   2.559352   5.421789   3.632994   5.797965
    24  H    2.077162   3.785029   4.758770   2.443565   5.874818
    25  H    1.010379   3.161261   5.905034   3.847082   6.723929
                   16         17         18         19         20
    16  H    0.000000
    17  H    4.402635   0.000000
    18  H    4.873055   1.763333   0.000000
    19  H    4.954627   1.784739   1.778225   0.000000
    20  H    3.228883   7.246356   8.006912   7.993971   0.000000
    21  H    2.229788   5.632136   6.534572   6.593929   1.785693
    22  H    3.481758   6.682956   7.778539   7.483440   1.789801
    23  H    2.618707   4.748983   4.308952   4.479554   5.423495
    24  H    3.759903   5.320489   4.915657   4.501685   6.308992
    25  H    4.101569   3.485709   3.188396   2.293090   7.093866
                   21         22         23         24         25
    21  H    0.000000
    22  H    1.781772   0.000000
    23  H    4.816216   5.913267   0.000000
    24  H    5.862019   6.555319   1.769419   0.000000
    25  H    6.107114   6.862659   2.870144   2.292949   0.000000
 Stoichiometry    C9H13N2O(1+)
 Framework group  C1[X(C9H13N2O)]
 Deg. of freedom    69
 Full point group                 C1      NOp   1
 Largest Abelian subgroup         C1      NOp   1
 Largest concise Abelian subgroup C1      NOp   1
                         Standard orientation:                         
 ---------------------------------------------------------------------
 Center     Atomic      Atomic             Coordinates (Angstroms)
 Number     Number       Type             X           Y           Z
 ---------------------------------------------------------------------
      1          6           0       -2.597633    1.395174    0.519850
      2          6           0       -1.334670    1.820456    0.094609
      3          6           0       -2.910147    0.051067    0.471613
      4          6           0       -0.777572   -0.450361   -0.404362
      5          6           0       -0.401148    0.893205   -0.374245
      6          6           0        2.569701   -0.344749    0.073879
      7          6           0        3.824312   -0.557428    0.891852
      8          6           0       -2.372084   -2.280764   -0.054595
      9          6           0        0.988468    1.291715   -0.859111
     10          7           0       -1.999669   -0.845209    0.013221
     11          7           0        2.056262    0.927843    0.062873
     12          8           0        2.028846   -1.247124   -0.563016
     13          1           0       -3.336067    2.098851    0.887228
     14          1           0       -1.083510    2.877027    0.127932
     15          1           0       -3.867028   -0.349073    0.785255
     16          1           0       -0.079525   -1.211858   -0.737115
     17          1           0        3.724699   -1.484062    1.462199
     18          1           0        4.671557   -0.683213    0.208625
     19          1           0        4.045446    0.268032    1.574349
     20          1           0       -3.064740   -2.433391   -0.885560
     21          1           0       -1.471088   -2.872537   -0.210190
     22          1           0       -2.843847   -2.571780    0.885158
     23          1           0        1.178670    0.810970   -1.824654
     24          1           0        1.019660    2.373443   -1.009646
     25          1           0        2.543491    1.666259    0.550945
 ---------------------------------------------------------------------
 Rotational constants (GHZ):      1.6680896      0.5721325      0.4620129
 Standard basis: 6-31G(d) (6D, 7F)
 There are   206 symmetry adapted basis functions of A   symmetry.
 Integral buffers will be    131072 words long.
 Raffenetti 1 integral format.
 Two-electron integral symmetry is turned on.
   206 basis functions,   388 primitive gaussians,   206 cartesian basis functions
    44 alpha electrons       44 beta electrons
       nuclear repulsion energy       691.0464886586 Hartrees.
 NAtoms=   25 NActive=   25 NUniq=   25 SFac= 1.00D+00 NAtFMM=   60 NAOKFM=F Big=F
 One-electron integrals computed using PRISM.
 NBasis=   206 RedAO= T  NBF=   206
 NBsUse=   206 1.00D-06 NBFU=   206
 Initial guess read from the checkpoint file:  frag18-conf0.chk
 B after Tr=     0.000000    0.000000    0.000000
         Rot=    1.000000    0.000000    0.000000    0.000000 Ang=   0.00 deg.
 Initial guess orbital symmetries:
       Occupied  (A) (A) (A) (A) (A) (A) (A) (A) (A) (A) (A) (A)
                 (A) (A) (A) (A) (A) (A) (A) (A) (A) (A) (A) (A)
                 (A) (A) (A) (A) (A) (A) (A) (A) (A) (A) (A) (A)
                 (A) (A) (A) (A) (A) (A) (A) (A)
       Virtual   (A) (A) (A) (A) (A) (A) (A) (A) (A) (A) (A) (A)
                 (A) (A) (A) (A) (A) (A) (A) (A) (A) (A) (A) (A)
                 (A) (A) (A) (A) (A) (A) (A) (A) (A) (A) (A) (A)
                 (A) (A) (A) (A) (A) (A) (A) (A) (A) (A) (A) (A)
                 (A) (A) (A) (A) (A) (A) (A) (A) (A) (A) (A) (A)
                 (A) (A) (A) (A) (A) (A) (A) (A) (A) (A) (A) (A)
                 (A) (A) (A) (A) (A) (A) (A) (A) (A) (A) (A) (A)
                 (A) (A) (A) (A) (A) (A) (A) (A) (A) (A) (A) (A)
                 (A) (A) (A) (A) (A) (A) (A) (A) (A) (A) (A) (A)
                 (A) (A) (A) (A) (A) (A) (A) (A) (A) (A) (A) (A)
                 (A) (A) (A) (A) (A) (A) (A) (A) (A) (A) (A) (A)
                 (A) (A) (A) (A) (A) (A) (A) (A) (A) (A) (A) (A)
                 (A) (A) (A) (A) (A) (A) (A) (A) (A) (A) (A) (A)
                 (A) (A) (A) (A) (A) (A)
 Requested convergence on RMS density matrix=1.00D-08 within 128 cycles.
 Requested convergence on MAX density matrix=1.00D-06.
 Requested convergence on             energy=1.00D-06.
 No special actions if energy rises.
 SCF Done:  E(RHF) =  -531.963803320     A.U. after   14 cycles
             Convg  =    0.3522D-08             -V/T =  2.0026

 **********************************************************************

            Population analysis using the SCF density.

 **********************************************************************

 Orbital symmetries:
 BldTbl:  Degeneracy threshold= 1.00D-02
       Occupied  (A) (A) (A) (A) (A) (A) (A) (A) (A) (A) (A) (A)
                 (A) (A) (A) (A) (A) (A) (A) (A) (A) (A) (A) (A)
                 (A) (A) (A) (A) (A) (A) (A) (A) (A) (A) (A) (A)
                 (A) (A) (A) (A) (A) (A) (A) (A)
       Virtual   (A) (A) (A) (A) (A) (A) (A) (A) (A) (A) (A) (A)
                 (A) (A) (A) (A) (A) (A) (A) (A) (A) (A) (A) (A)
                 (A) (A) (A) (A) (A) (A) (A) (A) (A) (A) (A) (A)
                 (A) (A) (A) (A) (A) (A) (A) (A) (A) (A) (A) (A)
                 (A) (A) (A) (A) (A) (A) (A) (A) (A) (A) (A) (A)
                 (A) (A) (A) (A) (A) (A) (A) (A) (A) (A) (A) (A)
                 (A) (A) (A) (A) (A) (A) (A) (A) (A) (A) (A) (A)
                 (A) (A) (A) (A) (A) (A) (A) (A) (A) (A) (A) (A)
                 (A) (A) (A) (A) (A) (A) (A) (A) (A) (A) (A) (A)
                 (A) (A) (A) (A) (A) (A) (A) (A) (A) (A) (A) (A)
                 (A) (A) (A) (A) (A) (A) (A) (A) (A) (A) (A) (A)
                 (A) (A) (A) (A) (A) (A) (A) (A) (A) (A) (A) (A)
                 (A) (A) (A) (A) (A) (A) (A) (A) (A) (A) (A) (A)
                 (A) (A) (A) (A) (A) (A)
 The electronic state is 1-A.
 Alpha  occ. eigenvalues --  -20.64851 -15.84528 -15.71938 -11.47836 -11.47814
 Alpha  occ. eigenvalues --  -11.47118 -11.44063 -11.43682 -11.42299 -11.42134
 Alpha  occ. eigenvalues --  -11.42024 -11.34238  -1.50681  -1.50018  -1.35893
 Alpha  occ. eigenvalues --   -1.29093  -1.23666  -1.14956  -1.13434  -1.08659
 Alpha  occ. eigenvalues --   -1.03886  -1.01085  -0.91472  -0.89663  -0.87095
 Alpha  occ. eigenvalues --   -0.83029  -0.81448  -0.80744  -0.79497  -0.78519
 Alpha  occ. eigenvalues --   -0.77377  -0.73340  -0.72513  -0.70981  -0.70513
 Alpha  occ. eigenvalues --   -0.69582  -0.69083  -0.67717  -0.65912  -0.62100
 Alpha  occ. eigenvalues --   -0.56676  -0.54601  -0.52386  -0.51751
 Alpha virt. eigenvalues --   -0.08664  -0.04299   0.06478   0.08144   0.09242
 Alpha virt. eigenvalues --    0.11106   0.13348   0.13624   0.13953   0.15184
 Alpha virt. eigenvalues --    0.16396   0.17056   0.18722   0.18911   0.20371
 Alpha virt. eigenvalues --    0.20651   0.22001   0.23727   0.26255   0.27107
 Alpha virt. eigenvalues --    0.30177   0.31061   0.33294   0.34142   0.36971
 Alpha virt. eigenvalues --    0.38010   0.43530   0.46214   0.49359   0.53425
 Alpha virt. eigenvalues --    0.56072   0.57804   0.59280   0.59343   0.61101
 Alpha virt. eigenvalues --    0.62153   0.63802   0.64415   0.64599   0.65413
 Alpha virt. eigenvalues --    0.68103   0.69623   0.70194   0.71678   0.73383
 Alpha virt. eigenvalues --    0.75956   0.76922   0.79185   0.80457   0.82661
 Alpha virt. eigenvalues --    0.84034   0.85104   0.88619   0.90095   0.92153
 Alpha virt. eigenvalues --    0.92538   0.92782   0.95430   0.96487   0.97930
 Alpha virt. eigenvalues --    0.98464   0.99385   1.01775   1.02703   1.03236
 Alpha virt. eigenvalues --    1.05156   1.05563   1.06204   1.08108   1.08558
 Alpha virt. eigenvalues --    1.11183   1.12906   1.14376   1.15428   1.19068
 Alpha virt. eigenvalues --    1.21406   1.23644   1.24927   1.28789   1.30520
 Alpha virt. eigenvalues --    1.32588   1.37015   1.41075   1.42943   1.44669
 Alpha virt. eigenvalues --    1.45733   1.47988   1.52906   1.54511   1.55242
 Alpha virt. eigenvalues --    1.57418   1.59458   1.60472   1.62774   1.71719
 Alpha virt. eigenvalues --    1.72430   1.79917   1.83527   1.88642   1.93922
 Alpha virt. eigenvalues --    1.94481   1.97332   1.98797   2.00670   2.02333
 Alpha virt. eigenvalues --    2.04706   2.05044   2.05835   2.07107   2.09729
 Alpha virt. eigenvalues --    2.13221   2.14949   2.15895   2.19993   2.21750
 Alpha virt. eigenvalues --    2.24596   2.27272   2.28743   2.31468   2.32315
 Alpha virt. eigenvalues --    2.36114   2.39906   2.42021   2.43104   2.43833
 Alpha virt. eigenvalues --    2.45333   2.49119   2.50174   2.50946   2.52812
 Alpha virt. eigenvalues --    2.55001   2.60663   2.66325   2.67186   2.74308
 Alpha virt. eigenvalues --    2.77153   2.79322   2.82869   2.88196   2.89431
 Alpha virt. eigenvalues --    2.90771   2.95492   2.97822   2.99405   3.04143
 Alpha virt. eigenvalues --    3.11364   3.24842   3.27961   3.37741   3.61399
 Alpha virt. eigenvalues --    4.23672   4.27985   4.33914   4.35596   4.40727
 Alpha virt. eigenvalues --    4.48283   4.50438   4.55722   4.62921   4.67846
 Alpha virt. eigenvalues --    4.79968   4.93055
          Condensed to atoms (all electrons):
              1          2          3          4          5          6
     1  C    4.936291   0.503467   0.582137  -0.026524  -0.031643  -0.000001
     2  C    0.503467   4.861555  -0.048740  -0.047960   0.540131   0.000108
     3  C    0.582137  -0.048740   4.719455  -0.059597  -0.021783  -0.000004
     4  C   -0.026524  -0.047960  -0.059597   4.805448   0.559746   0.002410
     5  C   -0.031643   0.540131  -0.021783   0.559746   4.977488  -0.003646
     6  C   -0.000001   0.000108  -0.000004   0.002410  -0.003646   4.188362
     7  C    0.000000  -0.000005   0.000000   0.000022  -0.000409   0.358560
     8  C    0.001787  -0.000093  -0.035687  -0.034405   0.002738   0.000006
     9  C    0.002881  -0.030333   0.000077  -0.032683   0.292090  -0.027792
    10  N   -0.028154  -0.034107   0.350828   0.328295  -0.028412  -0.000024
    11  N   -0.000053   0.000184   0.000008  -0.003529  -0.067267   0.270582
    12  O   -0.000002  -0.000019   0.000000  -0.009358  -0.007604   0.552617
    13  H    0.375620  -0.018993  -0.023125   0.000062   0.001791   0.000000
    14  H   -0.023811   0.374490   0.002327   0.002909  -0.026304   0.000004
    15  H   -0.019087   0.002175   0.383341   0.001828  -0.000192   0.000000
    16  H   -0.000307   0.002251   0.001441   0.350421  -0.016611  -0.002651
    17  H    0.000000   0.000000   0.000000   0.000001   0.000023  -0.029696
    18  H    0.000000   0.000000   0.000000   0.000000  -0.000002  -0.026571
    19  H    0.000000   0.000000   0.000000  -0.000005   0.000007  -0.038949
    20  H   -0.000105   0.000046  -0.002315  -0.000444  -0.000170   0.000000
    21  H   -0.000040  -0.000015   0.002557  -0.000476   0.000580   0.000009
    22  H    0.000172   0.000009  -0.002979   0.001764  -0.000083   0.000000
    23  H   -0.000063   0.001747  -0.000002  -0.002948  -0.052470   0.000314
    24  H    0.000237  -0.001512  -0.000011   0.003165  -0.054621   0.003033
    25  H    0.000002   0.000132  -0.000001   0.000016   0.002373  -0.012986
              7          8          9         10         11         12
     1  C    0.000000   0.001787   0.002881  -0.028154  -0.000053  -0.000002
     2  C   -0.000005  -0.000093  -0.030333  -0.034107   0.000184  -0.000019
     3  C    0.000000  -0.035687   0.000077   0.350828   0.000008   0.000000
     4  C    0.000022  -0.034405  -0.032683   0.328295  -0.003529  -0.009358
     5  C   -0.000409   0.002738   0.292090  -0.028412  -0.067267  -0.007604
     6  C    0.358560   0.000006  -0.027792  -0.000024   0.270582   0.552617
     7  C    5.235648   0.000000   0.004652   0.000002  -0.094219  -0.062326
     8  C    0.000000   5.056002  -0.000054   0.161572   0.000001  -0.000008
     9  C    0.004652  -0.000054   4.922358   0.002058   0.207949   0.012293
    10  N    0.000002   0.161572   0.002058   7.013061  -0.000078   0.000419
    11  N   -0.094219   0.000001   0.207949  -0.000078   7.332994  -0.101176
    12  O   -0.062326  -0.000008   0.012293   0.000419  -0.101176   8.232507
    13  H    0.000000  -0.000061  -0.000063   0.002155   0.000001   0.000000
    14  H    0.000000   0.000004  -0.001587  -0.000146   0.000117   0.000000
    15  H    0.000000  -0.001149   0.000003  -0.036646   0.000000   0.000000
    16  H    0.000231  -0.002041   0.000334  -0.028133  -0.000166   0.022207
    17  H    0.382322   0.000000  -0.000103   0.000000   0.002748   0.000727
    18  H    0.379219   0.000000  -0.000172   0.000000   0.000559  -0.000110
    19  H    0.378300   0.000000   0.000077   0.000000   0.003749   0.002322
    20  H    0.000000   0.392401   0.000001  -0.036546   0.000000   0.000000
    21  H    0.000000   0.396001  -0.000005  -0.032065  -0.000001   0.000014
    22  H    0.000000   0.394587   0.000001  -0.035032   0.000000   0.000000
    23  H    0.000064   0.000000   0.416178   0.000018  -0.044201   0.003805
    24  H   -0.000013   0.000001   0.416979  -0.000041  -0.036245   0.000431
    25  H    0.001092   0.000000  -0.022491   0.000002   0.320853   0.002194
             13         14         15         16         17         18
     1  C    0.375620  -0.023811  -0.019087  -0.000307   0.000000   0.000000
     2  C   -0.018993   0.374490   0.002175   0.002251   0.000000   0.000000
     3  C   -0.023125   0.002327   0.383341   0.001441   0.000000   0.000000
     4  C    0.000062   0.002909   0.001828   0.350421   0.000001   0.000000
     5  C    0.001791  -0.026304  -0.000192  -0.016611   0.000023  -0.000002
     6  C    0.000000   0.000004   0.000000  -0.002651  -0.029696  -0.026571
     7  C    0.000000   0.000000   0.000000   0.000231   0.382322   0.379219
     8  C   -0.000061   0.000004  -0.001149  -0.002041   0.000000   0.000000
     9  C   -0.000063  -0.001587   0.000003   0.000334  -0.000103  -0.000172
    10  N    0.002155  -0.000146  -0.036646  -0.028133   0.000000   0.000000
    11  N    0.000001   0.000117   0.000000  -0.000166   0.002748   0.000559
    12  O    0.000000   0.000000   0.000000   0.022207   0.000727  -0.000110
    13  H    0.377730  -0.000959  -0.000380   0.000004   0.000000   0.000000
    14  H   -0.000959   0.392800  -0.000059  -0.000050   0.000000   0.000000
    15  H   -0.000380  -0.000059   0.376021  -0.000032   0.000000   0.000000
    16  H    0.000004  -0.000050  -0.000032   0.310736  -0.000006  -0.000002
    17  H    0.000000   0.000000   0.000000  -0.000006   0.453226  -0.016639
    18  H    0.000000   0.000000   0.000000  -0.000002  -0.016639   0.449983
    19  H    0.000000   0.000000   0.000000  -0.000008  -0.021296  -0.020569
    20  H    0.000000   0.000000   0.000178   0.000082   0.000000   0.000000
    21  H    0.000001   0.000000   0.000032   0.000656   0.000000   0.000000
    22  H    0.000000   0.000000   0.000314   0.000024   0.000000   0.000000
    23  H    0.000002   0.000014   0.000000   0.000341  -0.000011   0.000019
    24  H   -0.000002   0.001815   0.000000  -0.000014   0.000000   0.000004
    25  H    0.000000  -0.000013   0.000000  -0.000033  -0.000014  -0.000038
             19         20         21         22         23         24
     1  C    0.000000  -0.000105  -0.000040   0.000172  -0.000063   0.000237
     2  C    0.000000   0.000046  -0.000015   0.000009   0.001747  -0.001512
     3  C    0.000000  -0.002315   0.002557  -0.002979  -0.000002  -0.000011
     4  C   -0.000005  -0.000444  -0.000476   0.001764  -0.002948   0.003165
     5  C    0.000007  -0.000170   0.000580  -0.000083  -0.052470  -0.054621
     6  C   -0.038949   0.000000   0.000009   0.000000   0.000314   0.003033
     7  C    0.378300   0.000000   0.000000   0.000000   0.000064  -0.000013
     8  C    0.000000   0.392401   0.396001   0.394587   0.000000   0.000001
     9  C    0.000077   0.000001  -0.000005   0.000001   0.416178   0.416979
    10  N    0.000000  -0.036546  -0.032065  -0.035032   0.000018  -0.000041
    11  N    0.003749   0.000000  -0.000001   0.000000  -0.044201  -0.036245
    12  O    0.002322   0.000000   0.000014   0.000000   0.003805   0.000431
    13  H    0.000000   0.000000   0.000001   0.000000   0.000002  -0.000002
    14  H    0.000000   0.000000   0.000000   0.000000   0.000014   0.001815
    15  H    0.000000   0.000178   0.000032   0.000314   0.000000   0.000000
    16  H   -0.000008   0.000082   0.000656   0.000024   0.000341  -0.000014
    17  H   -0.021296   0.000000   0.000000   0.000000  -0.000011   0.000000
    18  H   -0.020569   0.000000   0.000000   0.000000   0.000019   0.000004
    19  H    0.506685   0.000000   0.000000   0.000000   0.000002  -0.000021
    20  H    0.000000   0.443887  -0.019252  -0.023998   0.000000   0.000000
    21  H    0.000000  -0.019252   0.422315  -0.018794   0.000001   0.000000
    22  H    0.000000  -0.023998  -0.018794   0.445725   0.000000   0.000000
    23  H    0.000002   0.000000   0.000001   0.000000   0.446481  -0.016545
    24  H   -0.000021   0.000000   0.000000   0.000000  -0.016545   0.464893
    25  H    0.001291   0.000000   0.000000   0.000000   0.001743  -0.003137
             25
     1  C    0.000002
     2  C    0.000132
     3  C   -0.000001
     4  C    0.000016
     5  C    0.002373
     6  C   -0.012986
     7  C    0.001092
     8  C    0.000000
     9  C   -0.022491
    10  N    0.000002
    11  N    0.320853
    12  O    0.002194
    13  H    0.000000
    14  H   -0.000013
    15  H    0.000000
    16  H   -0.000033
    17  H   -0.000014
    18  H   -0.000038
    19  H    0.001291
    20  H    0.000000
    21  H    0.000000
    22  H    0.000000
    23  H    0.001743
    24  H   -0.003137
    25  H    0.299241
 Mulliken atomic charges:
              1
     1  C   -0.272801
     2  C   -0.104519
     3  C    0.152073
     4  C    0.161842
     5  C   -0.065749
     6  C    0.766317
     7  C   -0.583139
     8  C   -0.331602
     9  C   -0.162649
    10  N   -0.599025
    11  N   -0.792810
    12  O   -0.648934
    13  H    0.286217
    14  H    0.278453
    15  H    0.293654
    16  H    0.361326
    17  H    0.228717
    18  H    0.234319
    19  H    0.188413
    20  H    0.246236
    21  H    0.248481
    22  H    0.238291
    23  H    0.245511
    24  H    0.221604
    25  H    0.409772
 Sum of Mulliken atomic charges =   1.00000
 Mulliken charges with hydrogens summed into heavy atoms:
              1
     1  C    0.013416
     2  C    0.173934
     3  C    0.445727
     4  C    0.523168
     5  C   -0.065749
     6  C    0.766317
     7  C    0.068310
     8  C    0.401406
     9  C    0.304467
    10  N   -0.599025
    11  N   -0.383038
    12  O   -0.648934
 Sum of Mulliken charges with hydrogens summed into heavy atoms =   1.00000
 DipInt: DoE/N= T F RetVal/Mat= T F Init=T NMatP=  1 IDeriv=0 Min/MaxMlt=  0  4
 Entering OneElI...
 OneElI was handed    33442981 working-precision words.
 Multipole integrals L=0 to 4 MinM= 0 MaxM= 0.
 Requested accuracy = 0.1000D-12
 PrsmSu:  NPrtUS=   1 ThrOK=F IAlg=1 NPAlg=1 LenDen=           0.
 Prism:   IPart=     0 DynPar=F LinDyn=F Incr=          24.
 PRISM was handed    33230933 working-precision words and  2450 shell-pairs
 IPart=  0 NShTot=        2450 NBatch=          55 AvBLen=        44.5
 PrSmSu:  NxtVal=             25.
 Electronic moments (au):
        -88.00000000         -2.07139496          0.82795078          0.64718111
      -1706.99358957       -579.68703149       -156.34822204          7.71347776
          0.69933624         -0.51935315      -1722.43347687        187.58631107
         -8.46174422        881.11908312        915.53904313      -1120.76499603
       -215.71604118        -20.34319946         65.12930404        234.04872180
     -59742.28703384      -9073.82966535       -967.35345788       2791.53399979
      -3622.03615466      -1869.97890284       -106.17357910       -280.97004613
        168.34522229      -9801.63040054      -3816.61260221       -984.96980980
        -48.57966202        410.21889866        184.00290426
 Electronic spatial extent (au):  <R**2>=           2443.0288
 DipInt: DoE/N= F T RetVal/Mat= T F Init=T NMatP=  1 IDeriv=0 Min/MaxMlt=  0  4
 Nuclear    moments (au):
         89.00000000          0.00000000          0.00000000          0.00000000
       1685.41106157        541.80372896        105.47196766          0.00000000
          0.00000000          0.00000000       1701.12701766       -178.10841970
          4.50701504       -920.62980143       -921.83099330       1166.96497312
        221.10086419         16.66259309        -57.65383412       -245.94266104
      55178.29821929       7427.94362127        437.93066989      -2694.46827691
       3577.91627954       2003.07747900        125.68755694        277.03287117
       -170.34199615       8724.32417609       2788.91338612        580.15359750
         72.01350759       -403.56770056       -155.86435252
 Total      moments (au):
          1.00000000         -2.07139496          0.82795078          0.64718111
        -21.58252800        -37.88330253        -50.87625438          7.71347776
          0.69933624         -0.51935315        -21.30645921          9.47789137
         -3.95472918        -39.51071831         -6.29195016         46.19997710
          5.38482301         -3.68060637          7.47546993        -11.89393924
      -4563.98881455      -1645.88604408       -529.42278799         97.06572288
        -44.11987511        133.09857616         19.51397784         -3.93717496
         -1.99677386      -1077.30622445      -1027.69921609       -404.81621229
         23.43384557          6.65119810         28.13855174
 Traceless Quadrup. (au):
         15.19816697         -1.10260756        -14.09555941          7.71347776
          0.69933624         -0.51935315
 Charge=              1.0000 electrons
 Dipole moment (field-independent basis, Debye):
    X=             -5.2650    Y=              2.1044    Z=              1.6450  Tot=              5.9038
 Quadrupole moment (field-independent basis, Debye-Ang):
   XX=            -29.0292   YY=            -50.9543   ZZ=            -68.4303
   XY=             10.3749   XZ=              0.9406   YZ=             -0.6985
 Traceless Quadrupole moment (field-independent basis, Debye-Ang):
   XX=             20.4421   YY=             -1.4830   ZZ=            -18.9590
   XY=             10.3749   XZ=              0.9406   YZ=             -0.6985
 Octapole moment (field-independent basis, Debye-Ang**2):
  XXX=            -15.1651  YYY=              6.7460  ZZZ=             -2.8148  XYY=            -28.1222
  XXY=             -4.4784  XXZ=             32.8834  XZZ=              3.8327  YZZ=             -2.6197
  YYZ=              5.3208  XYZ=             -8.4656
 Hexadecapole moment (field-independent basis, Debye-Ang**3):
 XXXX=          -1719.0169 YYYY=           -619.9196 ZZZZ=           -199.4060 XXXY=             36.5596
 XXXZ=            -16.6177 YYYX=             50.1313 YYYZ=              7.3499 ZZZX=             -1.4829
 ZZZY=             -0.7521 XXYY=           -405.7652 XXZZ=           -387.0808 YYZZ=           -152.4732
 XXYZ=              8.8263 YYXZ=              2.5052 ZZXY=             10.5983
 N-N= 6.910464886586D+02 E-N=-2.610032941543D+03  KE= 5.306103119355D+02
 Entering OneElI...
 OneElI was handed    33357278 working-precision words.
 Calculate electrostatic properties
    NBasis =   206  MinDer = 0  MaxDer = 0
    NGrid  =    25  NMatD  =   1
 Requested accuracy = 0.1000D-12
 PrsmSu:  NPrtUS=   2 ThrOK=T IAlg=1 NPAlg=1 LenDen=           0.
 Prism:   IPart=     0 DynPar=F LinDyn=F Incr=         283.
 PRISM was handed    16545561 working-precision words and  2271 shell-pairs
 PRISM was handed    16545561 working-precision words and  2271 shell-pairs
 IPart=  1 NShTot=       28125 NBatch=        1125 AvBLen=        25.0
 IPart=  0 NShTot=       28650 NBatch=        1146 AvBLen=        25.0
 PrSmSu:  NxtVal=            567.
 --------------------------------------------------------
       Center         ----      EFG at Nuclei      ----
                      3XX-RR        3YY-RR        3ZZ-RR
 --------------------------------------------------------
     1   Atom        0.113746      0.128600     -0.242346
     2   Atom        0.171705      0.252284     -0.423989
     3   Atom        0.077906      0.219121     -0.297027
     4   Atom       -0.018555      0.391716     -0.373161
     5   Atom        0.133390      0.118456     -0.251846
     6   Atom        0.064145      0.151896     -0.216041
     7   Atom       -0.052102      0.054545     -0.002442
     8   Atom        0.192998     -0.416606      0.223607
     9   Atom       -0.165697      0.146302      0.019395
    10   Atom       -0.085520     -0.074152      0.159671
    11   Atom        0.039058     -0.412819      0.373761
    12   Atom        0.383946      0.119175     -0.503121
    13   Atom       -0.062959     -0.047539      0.110498
    14   Atom        0.118088     -0.270718      0.152630
    15   Atom       -0.196357      0.073649      0.122708
    16   Atom       -0.013203     -0.089181      0.102383
    17   Atom        0.138996     -0.167260      0.028264
    18   Atom       -0.118394      0.147379     -0.028985
    19   Atom        0.128575     -0.110331     -0.018244
    20   Atom       -0.022298      0.121650     -0.099352
    21   Atom       -0.157579      0.005110      0.152470
    22   Atom        0.074623      0.099636     -0.174259
    23   Atom        0.118446      0.069624     -0.188069
    24   Atom        0.133398     -0.277881      0.144483
    25   Atom        0.058240     -0.138200      0.079960
 --------------------------------------------------------
                        XY            XZ            YZ
 --------------------------------------------------------
     1   Atom       -0.006821     -0.160939      0.058308
     2   Atom        0.025080     -0.258939      0.083413
     3   Atom        0.202475     -0.140436     -0.004906
     4   Atom       -0.099034     -0.168915      0.134644
     5   Atom        0.010153     -0.160262      0.046938
     6   Atom       -0.038018      0.472788      0.154193
     7   Atom        0.019430     -0.076239     -0.000151
     8   Atom       -0.159611     -0.004635     -0.025139
     9   Atom        0.013721     -0.126675      0.123457
    10   Atom        0.003313      0.113877     -0.045217
    11   Atom        0.195153     -0.762784     -0.178984
    12   Atom       -1.143497      0.403623     -0.595901
    13   Atom        0.192796      0.110384     -0.099473
    14   Atom       -0.099978      0.002118     -0.014242
    15   Atom       -0.140372      0.119165      0.042740
    16   Atom        0.173939      0.086578     -0.091300
    17   Atom       -0.036301      0.016961      0.199473
    18   Atom        0.039550      0.207075     -0.029229
    19   Atom       -0.057744     -0.060953     -0.208633
    20   Atom       -0.038510     -0.212869     -0.041381
    21   Atom        0.184426      0.054916     -0.033261
    22   Atom       -0.051264      0.167137      0.091763
    23   Atom        0.029480      0.059071     -0.162611
    24   Atom       -0.009317     -0.004385      0.058537
    25   Atom       -0.184941     -0.167939     -0.202700
 --------------------------------------------------------


 ---------------------------------------------------------------------------------
              Nuclear Quadrupole in Principal Axis System
 ---------------------------------------------------------------------------------

       Atom             a.u.   MegaHertz   Gauss  10(-4) cm-1        Axes

              Baa    -0.3105   -41.663   -14.866   -13.897  0.3506 -0.1179  0.9291
     1 C(13)  Bbb     0.1212    16.270     5.806     5.427  0.4549  0.8886 -0.0589
              Bcc     0.1892    25.393     9.061     8.470  0.8186 -0.4433 -0.3652
 
              Baa    -0.5305   -71.183   -25.400   -23.744  0.3473 -0.1104  0.9312
     2 C(13)  Bbb     0.2587    34.709    12.385    11.578  0.5013  0.8611 -0.0849
              Bcc     0.2718    36.473    13.015    12.166  0.7925 -0.4964 -0.3544
 
              Baa    -0.3510   -47.095   -16.805   -15.709  0.3596 -0.1197  0.9254
     3 C(13)  Bbb    -0.0233    -3.128    -1.116    -1.043  0.7139 -0.6034 -0.3554
              Bcc     0.3743    50.223    17.921    16.753  0.6009  0.7884 -0.1315
 
              Baa    -0.4505   -60.446   -21.569   -20.163  0.3402 -0.1093  0.9340
     4 C(13)  Bbb    -0.0002    -0.024    -0.009    -0.008  0.8997  0.3268 -0.2895
              Bcc     0.4506    60.470    21.577    20.171 -0.2736  0.9387  0.2095
 
              Baa    -0.3150   -42.273   -15.084   -14.101  0.3367 -0.1092  0.9353
     5 C(13)  Bbb     0.1231    16.517     5.894     5.509  0.1245  0.9897  0.0707
              Bcc     0.1919    25.756     9.191     8.591  0.9333 -0.0926 -0.3468
 
              Baa    -0.5977   -80.212   -28.622   -26.756 -0.5777 -0.1925  0.7933
     6 C(13)  Bbb     0.1658    22.253     7.940     7.423 -0.3014  0.9534  0.0118
              Bcc     0.4319    57.960    20.681    19.333  0.7586  0.2322  0.6088
 
              Baa    -0.1090   -14.621    -5.217    -4.877  0.8095 -0.0957  0.5793
     7 C(13)  Bbb     0.0429     5.755     2.054     1.920 -0.3875  0.6542  0.6495
              Bcc     0.0661     8.866     3.164     2.957  0.4411  0.7502 -0.4925
 
              Baa    -0.4568   -61.301   -21.874   -20.448  0.2386  0.9704  0.0375
     8 C(13)  Bbb     0.2243    30.096    10.739    10.039 -0.1886  0.0084  0.9820
              Bcc     0.2325    31.205    11.135    10.409  0.9526 -0.2414  0.1850
 
              Baa    -0.2431   -32.616   -11.638   -10.880  0.8472 -0.1875  0.4971
     9 C(13)  Bbb     0.0130     1.740     0.621     0.580 -0.5087 -0.5562  0.6572
              Bcc     0.2301    30.876    11.017    10.299 -0.1533  0.8097  0.5665
 
              Baa    -0.1369    -5.280    -1.884    -1.761  0.8668 -0.3209 -0.3817
    10 N(14)  Bbb    -0.0734    -2.831    -1.010    -0.944  0.3511  0.9363  0.0101
              Bcc     0.2103     8.111     2.894     2.705  0.3542 -0.1428  0.9242
 
              Baa    -0.5867   -22.628    -8.074    -7.548  0.7747 -0.2922  0.5608
    11 N(14)  Bbb    -0.4480   -17.278    -6.165    -5.763  0.1234  0.9396  0.3192
              Bcc     1.0347    39.906    14.240    13.311 -0.6202 -0.1781  0.7640
 
              Baa    -1.0039    72.640    25.920    24.230  0.4575  0.7330  0.5035
    12 O(17)  Bbb    -0.6282    45.453    16.219    15.162 -0.5551 -0.2069  0.8057
              Bcc     1.6320  -118.094   -42.139   -39.392  0.6947 -0.6480  0.3122
 
              Baa    -0.3017  -160.980   -57.442   -53.697  0.6809 -0.6492 -0.3390
    13 H(1)   Bbb     0.1370    73.080    26.077    24.377  0.6413  0.7521 -0.1521
              Bcc     0.1647    87.900    31.365    29.320  0.3537 -0.1138  0.9284
 
              Baa    -0.2953  -157.567   -56.224   -52.559  0.2348  0.9716  0.0298
    14 H(1)   Bbb     0.1400    74.718    26.661    24.923  0.9001 -0.2058 -0.3842
              Bcc     0.1553    82.849    29.563    27.636  0.3671 -0.1170  0.9228
 
              Baa    -0.2944  -157.086   -56.052   -52.398  0.8825  0.3702 -0.2900
    15 H(1)   Bbb     0.1317    70.282    25.078    23.443 -0.3142  0.9230  0.2221
              Bcc     0.1627    86.804    30.974    28.955  0.3499 -0.1049  0.9309
 
              Baa    -0.2713  -144.776   -51.660   -48.292 -0.6008  0.7333  0.3183
    16 H(1)   Bbb     0.1226    65.421    23.344    21.822  0.6275  0.6793 -0.3805
              Bcc     0.1487    79.355    28.316    26.470  0.4952  0.0289  0.8683
 
              Baa    -0.2953  -157.549   -56.217   -52.553  0.0912  0.8455 -0.5261
    17 H(1)   Bbb     0.1407    75.077    26.789    25.043  0.9240  0.1252  0.3614
              Bcc     0.1546    82.472    29.428    27.510 -0.3714  0.5190  0.7698
 
              Baa    -0.2910  -155.286   -55.410   -51.798  0.7736 -0.1114 -0.6238
    18 H(1)   Bbb     0.1379    73.559    26.248    24.537  0.6098 -0.1365  0.7807
              Bcc     0.1532    81.727    29.162    27.261  0.1721  0.9844  0.0377
 
              Baa    -0.2943  -157.034   -56.034   -52.381  0.1931  0.7618  0.6183
    19 H(1)   Bbb     0.1358    72.457    25.854    24.169  0.7579 -0.5161  0.3991
              Bcc     0.1585    84.577    30.179    28.212 -0.6231 -0.3916  0.6771
 
              Baa    -0.2850  -152.056   -54.258   -50.721  0.6357  0.1375  0.7596
    20 H(1)   Bbb     0.1291    68.905    24.587    22.984 -0.0008  0.9841 -0.1774
              Bcc     0.1558    83.151    29.670    27.736  0.7719 -0.1122 -0.6257
 
              Baa    -0.2872  -153.220   -54.673   -51.109  0.8293 -0.5397 -0.1444
    21 H(1)   Bbb     0.1252    66.808    23.839    22.285  0.5376  0.8413 -0.0566
              Bcc     0.1620    86.412    30.834    28.824  0.1521 -0.0307  0.9879
 
              Baa    -0.2867  -152.989   -54.590   -51.032 -0.4355 -0.2623  0.8611
    22 H(1)   Bbb     0.1275    68.045    24.280    22.697  0.0107  0.9550  0.2963
              Bcc     0.1592    84.944    30.310    28.334  0.9001 -0.1383  0.4131
 
              Baa    -0.2777  -148.164   -52.869   -49.422 -0.1644  0.4297  0.8879
    23 H(1)   Bbb     0.1294    69.048    24.638    23.032  0.9855  0.0326  0.1667
              Bcc     0.1483    79.116    28.231    26.390  0.0427  0.9024 -0.4288
 
              Baa    -0.2860  -152.607   -54.454   -50.904  0.0206  0.9907 -0.1345
    24 H(1)   Bbb     0.1320    70.450    25.138    23.500  0.9642  0.0159  0.2649
              Bcc     0.1540    82.158    29.316    27.405 -0.2646  0.1351  0.9549
 
              Baa    -0.3933  -209.864   -74.885   -70.003  0.4797  0.7320  0.4837
    25 H(1)   Bbb     0.1530    81.658    29.138    27.238 -0.6445  0.6681 -0.3719
              Bcc     0.2403   128.206    45.747    42.765 -0.5954 -0.1334  0.7923
 

 ---------------------------------------------------------------------------------

 No NMR shielding tensors so no spin-rotation constants.
 Leave Link  601 at Sat Feb 17 20:58:35 2018, MaxMem=   33554432 cpu:       0.8
 Merz-Kollman atomic radii used.
 Read replacement radii for each type of atom:
 Atom Element Radius
    1     6    1.50
    2     6    1.50
    3     6    1.50
    4     6    1.50
    5     6    1.50
    6     6    1.50
    7     6    1.50
    8     6    1.50
    9     6    1.50
   10     7    1.50
   11     7    1.50
   12     8    1.40
   13     1    1.20
   14     1    1.20
   15     1    1.20
   16     1    1.20
   17     1    1.20
   18     1    1.20
   19     1    1.20
   20     1    1.20
   21     1    1.20
   22     1    1.20
   23     1    1.20
   24     1    1.20
   25     1    1.20
 Generate VDW surfaces: Layer= 4 Dens= 1 Start= 1.400 Inc= 0.200

 **********************************************************************

            Electrostatic Properties Using The SCF Density

 **********************************************************************

       Atomic Center    1 is at  -2.597633  1.395174  0.519850
       Atomic Center    2 is at  -1.334670  1.820456  0.094609
       Atomic Center    3 is at  -2.910147  0.051067  0.471613
       Atomic Center    4 is at  -0.777572 -0.450361 -0.404362
       Atomic Center    5 is at  -0.401148  0.893205 -0.374245
       Atomic Center    6 is at   2.569701 -0.344749  0.073879
       Atomic Center    7 is at   3.824312 -0.557428  0.891852
       Atomic Center    8 is at  -2.372084 -2.280764 -0.054595
       Atomic Center    9 is at   0.988468  1.291715 -0.859111
       Atomic Center   10 is at  -1.999669 -0.845209  0.013221
       Atomic Center   11 is at   2.056262  0.927843  0.062873
       Atomic Center   12 is at   2.028846 -1.247124 -0.563016
       Atomic Center   13 is at  -3.336067  2.098851  0.887228
       Atomic Center   14 is at  -1.083510  2.877027  0.127932
       Atomic Center   15 is at  -3.867028 -0.349073  0.785255
       Atomic Center   16 is at  -0.079525 -1.211858 -0.737115
       Atomic Center   17 is at   3.724699 -1.484062  1.462199
       Atomic Center   18 is at   4.671557 -0.683213  0.208625
       Atomic Center   19 is at   4.045446  0.268032  1.574349
       Atomic Center   20 is at  -3.064740 -2.433391 -0.885560
       Atomic Center   21 is at  -1.471088 -2.872537 -0.210190
       Atomic Center   22 is at  -2.843847 -2.571780  0.885158
       Atomic Center   23 is at   1.178670  0.810970 -1.824654
       Atomic Center   24 is at   1.019660  2.373443 -1.009646
       Atomic Center   25 is at   2.543491  1.666259  0.550945
      ESP Fit Center   26 is at  -2.597633  1.395174  2.619850
      ESP Fit Center   27 is at  -1.547633  1.395174  2.338503
      ESP Fit Center   28 is at  -2.072633  2.304500  2.338503
      ESP Fit Center   29 is at  -2.856455  3.195316 -0.530150
      ESP Fit Center   30 is at  -4.342619  1.907548 -0.530150
      ESP Fit Center   31 is at  -3.122633  2.304500 -1.298803
      ESP Fit Center   32 is at  -3.647633  1.395174 -1.298803
      ESP Fit Center   33 is at  -2.597633  1.395174 -1.580150
      ESP Fit Center   34 is at  -1.334670  1.820456  2.194609
      ESP Fit Center   35 is at  -0.284670  1.820456  1.913262
      ESP Fit Center   36 is at  -0.809670  2.729783  1.913262
      ESP Fit Center   37 is at  -0.809670  0.911129  1.913262
      ESP Fit Center   38 is at  -2.525635  3.194903 -0.955391
      ESP Fit Center   39 is at  -0.809670  2.729783 -1.724045
      ESP Fit Center   40 is at  -1.859670  2.729783 -1.724045
      ESP Fit Center   41 is at  -2.384670  1.820456 -1.724045
      ESP Fit Center   42 is at  -2.910147  0.051067  2.571613
      ESP Fit Center   43 is at  -1.860147  0.051067  2.290267
      ESP Fit Center   44 is at  -2.385147 -0.858260  2.290267
      ESP Fit Center   45 is at  -4.655132  0.563441 -0.578387
      ESP Fit Center   46 is at  -3.960147  0.051067 -1.347040
      ESP Fit Center   47 is at  -0.777572 -0.450361  1.695638
      ESP Fit Center   48 is at   0.272428 -0.450361  1.414291
      ESP Fit Center   49 is at  -0.252572 -1.359687  1.414291
      ESP Fit Center   50 is at  -1.302572  0.458966 -2.223015
      ESP Fit Center   51 is at  -1.827572 -0.450361 -2.223015
      ESP Fit Center   52 is at  -1.302572 -1.359687 -2.223015
      ESP Fit Center   53 is at  -0.777572 -0.450361 -2.504362
      ESP Fit Center   54 is at   0.123852 -0.016122  1.444409
      ESP Fit Center   55 is at  -0.926148  1.802531 -2.192898
      ESP Fit Center   56 is at  -1.451148  0.893205 -2.192898
      ESP Fit Center   57 is at  -0.401148  0.893205 -2.474245
      ESP Fit Center   58 is at   1.519701 -0.344749  1.892533
      ESP Fit Center   59 is at   2.044701 -1.254076  1.892533
      ESP Fit Center   60 is at   0.824716 -0.857123  1.123879
      ESP Fit Center   61 is at   4.099650  0.638489 -0.976121
      ESP Fit Center   62 is at   3.619701 -0.344749 -1.744774
      ESP Fit Center   63 is at   3.094701  0.564578 -1.744774
      ESP Fit Center   64 is at   2.774312 -0.557428  2.710505
      ESP Fit Center   65 is at   5.642965 -0.557428  1.941852
      ESP Fit Center   66 is at   5.354260 -1.540666  1.941852
      ESP Fit Center   67 is at   4.579808  1.096877 -0.158148
      ESP Fit Center   68 is at  -1.322084 -2.280764  1.764058
      ESP Fit Center   69 is at  -4.411062 -1.778201 -0.054595
      ESP Fit Center   70 is at  -3.943957 -3.673322 -0.054595
      ESP Fit Center   71 is at  -3.116754 -4.244298 -0.054595
      ESP Fit Center   72 is at  -2.630906 -4.080906 -1.104595
      ESP Fit Center   73 is at  -1.322084 -2.280764 -1.873248
      ESP Fit Center   74 is at  -1.847084 -3.190091 -1.873248
      ESP Fit Center   75 is at   2.807122  1.291715 -1.909111
      ESP Fit Center   76 is at   2.518417  2.274954 -1.909111
      ESP Fit Center   77 is at   0.463468  2.201042 -2.677765
      ESP Fit Center   78 is at  -0.949669 -0.845209  1.831875
      ESP Fit Center   79 is at  -1.474669 -1.754536  1.831875
      ESP Fit Center   80 is at  -2.524669  0.064117 -1.805432
      ESP Fit Center   81 is at  -3.049669 -0.845209 -1.805432
      ESP Fit Center   82 is at  -1.999669 -0.845209 -2.086779
      ESP Fit Center   83 is at   2.056262  0.927843  2.162873
      ESP Fit Center   84 is at   1.531262  1.837169  1.881526
      ESP Fit Center   85 is at   1.006262  0.927843  1.881526
      ESP Fit Center   86 is at   1.531262  0.018516  1.881526
      ESP Fit Center   87 is at   0.865297  2.302289  1.112873
      ESP Fit Center   88 is at   3.874915  0.927843 -0.987127
      ESP Fit Center   89 is at   3.586210  1.911081 -0.987127
      ESP Fit Center   90 is at   2.811757  2.582148 -0.987127
      ESP Fit Center   91 is at   3.106262  0.927843 -1.755781
      ESP Fit Center   92 is at   1.538846 -2.095829  1.134394
      ESP Fit Center   93 is at   0.655613 -2.244836  0.416984
      ESP Fit Center   94 is at   1.504318 -2.861456  0.416984
      ESP Fit Center   95 is at   2.553375 -2.861456  0.416984
      ESP Fit Center   96 is at   1.048846 -2.944534 -0.563016
      ESP Fit Center   97 is at   2.028846 -3.207124 -0.563016
      ESP Fit Center   98 is at   3.008846 -2.944534 -0.563016
      ESP Fit Center   99 is at   3.726256 -2.227124 -0.563016
      ESP Fit Center  100 is at   3.726256 -1.247124 -1.543016
      ESP Fit Center  101 is at   1.504318 -2.861456 -1.543016
      ESP Fit Center  102 is at   2.553375 -2.861456 -1.543016
      ESP Fit Center  103 is at   3.402080 -2.244836 -1.543016
      ESP Fit Center  104 is at   3.008846 -1.247124 -2.260425
      ESP Fit Center  105 is at   2.518846 -0.398419 -2.260425
      ESP Fit Center  106 is at   1.048846 -1.247124 -2.260425
      ESP Fit Center  107 is at   1.538846 -2.095829 -2.260425
      ESP Fit Center  108 is at   2.518846 -2.095829 -2.260425
      ESP Fit Center  109 is at   2.028846 -1.247124 -2.523016
      ESP Fit Center  110 is at  -3.336067  2.098851  2.567228
      ESP Fit Center  111 is at  -3.030919  3.037999  2.246377
      ESP Fit Center  112 is at  -4.134954  2.679277  2.246377
      ESP Fit Center  113 is at  -4.134954  1.518425  2.246377
      ESP Fit Center  114 is at  -3.058616  3.672352  1.406377
      ESP Fit Center  115 is at  -4.134954  3.482564  1.406377
      ESP Fit Center  116 is at  -4.837484  2.645322  1.406377
      ESP Fit Center  117 is at  -4.837484  1.552380  1.406377
      ESP Fit Center  118 is at  -3.058616  3.672352  0.368080
      ESP Fit Center  119 is at  -4.134954  3.482564  0.368080
      ESP Fit Center  120 is at  -4.837484  2.645322  0.368080
      ESP Fit Center  121 is at  -4.837484  1.552380  0.368080
      ESP Fit Center  122 is at  -4.134954  2.679277 -0.471920
      ESP Fit Center  123 is at  -0.096031  2.877027  1.487081
      ESP Fit Center  124 is at  -0.778363  3.816176  1.487081
      ESP Fit Center  125 is at  -1.882398  3.457453  1.487081
      ESP Fit Center  126 is at   0.514264  2.877027  0.647081
      ESP Fit Center  127 is at   0.140456  3.904057  0.647081
      ESP Fit Center  128 is at  -0.806060  4.450528  0.647081
      ESP Fit Center  129 is at  -1.882398  4.260741  0.647081
      ESP Fit Center  130 is at   0.140456  3.904057 -0.391217
      ESP Fit Center  131 is at  -0.806060  4.450528 -0.391217
      ESP Fit Center  132 is at  -1.882398  4.260741 -0.391217
      ESP Fit Center  133 is at  -0.778363  3.816176 -1.231217
      ESP Fit Center  134 is at  -1.882398  3.457453 -1.231217
      ESP Fit Center  135 is at  -3.867028 -0.349073  2.465255
      ESP Fit Center  136 is at  -4.665915  0.231352  2.144403
      ESP Fit Center  137 is at  -4.665915 -0.929499  2.144403
      ESP Fit Center  138 is at  -3.561880 -1.288222  2.144403
      ESP Fit Center  139 is at  -4.665915  1.034640  1.304403
      ESP Fit Center  140 is at  -5.368445  0.197398  1.304403
      ESP Fit Center  141 is at  -5.368445 -0.895545  1.304403
      ESP Fit Center  142 is at  -4.665915 -1.732787  1.304403
      ESP Fit Center  143 is at  -5.368445  0.197398  0.266106
      ESP Fit Center  144 is at  -5.368445 -0.895545  0.266106
      ESP Fit Center  145 is at  -4.665915 -1.732787  0.266106
      ESP Fit Center  146 is at  -4.665915 -0.929499 -0.573894
      ESP Fit Center  147 is at   0.225623 -2.151007  0.622033
      ESP Fit Center  148 is at   0.197926 -2.785359 -1.256264
      ESP Fit Center  149 is at  -0.878412 -1.792284 -2.096264
      ESP Fit Center  150 is at   0.225623 -2.151007 -2.096264
      ESP Fit Center  151 is at  -0.079525 -1.211858 -2.417115
      ESP Fit Center  152 is at   3.724699 -1.484062  3.142199
      ESP Fit Center  153 is at   4.712179 -1.484062  2.821347
      ESP Fit Center  154 is at   2.925812 -0.903637  2.821347
      ESP Fit Center  155 is at   2.925812 -2.064488  2.821347
      ESP Fit Center  156 is at   4.029847 -2.423211  2.821347
      ESP Fit Center  157 is at   2.223282 -2.030534  1.981347
      ESP Fit Center  158 is at   2.925812 -2.867776  1.981347
      ESP Fit Center  159 is at   4.002150 -3.057564  1.981347
      ESP Fit Center  160 is at   4.948666 -2.511092  1.981347
      ESP Fit Center  161 is at   2.925812 -2.867776  0.943050
      ESP Fit Center  162 is at   4.002150 -3.057564  0.943050
      ESP Fit Center  163 is at   4.948666 -2.511092  0.943050
      ESP Fit Center  164 is at   6.269331 -0.683213  0.727774
      ESP Fit Center  165 is at   5.895523  0.343817  0.727774
      ESP Fit Center  166 is at   5.895523 -1.710243  0.727774
      ESP Fit Center  167 is at   6.269331 -0.683213 -0.310523
      ESP Fit Center  168 is at   5.895523  0.343817 -0.310523
      ESP Fit Center  169 is at   4.949007  0.890288 -0.310523
      ESP Fit Center  170 is at   4.949007 -2.256715 -0.310523
      ESP Fit Center  171 is at   5.895523 -1.710243 -0.310523
      ESP Fit Center  172 is at   5.659036 -0.683213 -1.150523
      ESP Fit Center  173 is at   4.976704  0.255935 -1.150523
      ESP Fit Center  174 is at   4.976704 -1.622362 -1.150523
      ESP Fit Center  175 is at   4.671557 -0.683213 -1.471375
      ESP Fit Center  176 is at   4.045446  0.268032  3.254349
      ESP Fit Center  177 is at   5.032925  0.268032  2.933498
      ESP Fit Center  178 is at   4.350594  1.207181  2.933498
      ESP Fit Center  179 is at   3.246558  0.848458  2.933498
      ESP Fit Center  180 is at   3.246558 -0.312393  2.933498
      ESP Fit Center  181 is at   4.350594 -0.671116  2.933498
      ESP Fit Center  182 is at   5.643221  0.268032  2.093498
      ESP Fit Center  183 is at   5.269412  1.295062  2.093498
      ESP Fit Center  184 is at   4.322896  1.841534  2.093498
      ESP Fit Center  185 is at   3.246558  1.651746  2.093498
      ESP Fit Center  186 is at   5.269412  1.295062  1.055201
      ESP Fit Center  187 is at   4.322896  1.841534  1.055201
      ESP Fit Center  188 is at  -4.566157 -1.886919 -0.366411
      ESP Fit Center  189 is at  -4.566157 -2.979862 -0.366411
      ESP Fit Center  190 is at  -3.863627 -3.817104 -0.366411
      ESP Fit Center  191 is at  -3.863627 -1.049677 -1.404708
      ESP Fit Center  192 is at  -4.566157 -1.886919 -1.404708
      ESP Fit Center  193 is at  -4.566157 -2.979862 -1.404708
      ESP Fit Center  194 is at  -3.863627 -3.817104 -1.404708
      ESP Fit Center  195 is at  -2.787289 -4.006892 -1.404708
      ESP Fit Center  196 is at  -2.077261 -2.433391 -2.244708
      ESP Fit Center  197 is at  -2.759592 -1.494242 -2.244708
      ESP Fit Center  198 is at  -3.863627 -1.852965 -2.244708
      ESP Fit Center  199 is at  -3.863627 -3.013816 -2.244708
      ESP Fit Center  200 is at  -2.759592 -3.372539 -2.244708
      ESP Fit Center  201 is at  -3.064740 -2.433391 -2.565560
      ESP Fit Center  202 is at  -0.483609 -2.872537  1.148958
      ESP Fit Center  203 is at  -1.165940 -3.811686  1.148958
      ESP Fit Center  204 is at   0.126687 -2.872537  0.308958
      ESP Fit Center  205 is at  -1.193637 -4.446039  0.308958
      ESP Fit Center  206 is at  -0.247121 -3.899567  0.308958
      ESP Fit Center  207 is at  -1.193637 -4.446039 -0.729339
      ESP Fit Center  208 is at  -0.247121 -3.899567 -0.729339
      ESP Fit Center  209 is at  -0.483609 -2.872537 -1.569339
      ESP Fit Center  210 is at  -1.165940 -3.811686 -1.569339
      ESP Fit Center  211 is at  -1.471088 -2.872537 -1.890190
      ESP Fit Center  212 is at  -2.843847 -2.571780  2.565158
      ESP Fit Center  213 is at  -1.856368 -2.571780  2.244307
      ESP Fit Center  214 is at  -2.538699 -1.632631  2.244307
      ESP Fit Center  215 is at  -3.642734 -1.991354  2.244307
      ESP Fit Center  216 is at  -3.642734 -3.152205  2.244307
      ESP Fit Center  217 is at  -2.538699 -3.510928  2.244307
      ESP Fit Center  218 is at  -4.345264 -2.025308  1.404307
      ESP Fit Center  219 is at  -4.345264 -3.118251  1.404307
      ESP Fit Center  220 is at  -3.642734 -3.955493  1.404307
      ESP Fit Center  221 is at  -2.566396 -4.145281  1.404307
      ESP Fit Center  222 is at  -1.619880 -3.598809  1.404307
      ESP Fit Center  223 is at  -4.345264 -3.118251  0.366010
      ESP Fit Center  224 is at  -3.642734 -3.955493  0.366010
      ESP Fit Center  225 is at   2.776445  0.810970 -2.343803
      ESP Fit Center  226 is at   2.402637  1.838000 -2.343803
      ESP Fit Center  227 is at   0.379783 -0.572744 -2.343803
      ESP Fit Center  228 is at   2.402637 -0.216060 -2.343803
      ESP Fit Center  229 is at   2.166149  0.810970 -3.183803
      ESP Fit Center  230 is at   1.483818  1.750119 -3.183803
      ESP Fit Center  231 is at   0.379783  1.391396 -3.183803
      ESP Fit Center  232 is at   0.379783  0.230544 -3.183803
      ESP Fit Center  233 is at   1.483818 -0.128179 -3.183803
      ESP Fit Center  234 is at   1.178670  0.810970 -3.504654
      ESP Fit Center  235 is at   1.324808  3.312592  0.349502
      ESP Fit Center  236 is at   2.243627  3.400473 -0.490498
      ESP Fit Center  237 is at   1.297111  3.946945 -0.490498
      ESP Fit Center  238 is at   0.220773  3.757157 -0.490498
      ESP Fit Center  239 is at   2.243627  3.400473 -1.528795
      ESP Fit Center  240 is at   1.297111  3.946945 -1.528795
      ESP Fit Center  241 is at   0.220773  3.757157 -1.528795
      ESP Fit Center  242 is at  -0.481757  2.919915 -1.528795
      ESP Fit Center  243 is at   2.007140  2.373443 -2.368795
      ESP Fit Center  244 is at   1.324808  3.312592 -2.368795
      ESP Fit Center  245 is at   0.220773  2.953869 -2.368795
      ESP Fit Center  246 is at   1.019660  2.373443 -2.689646
      ESP Fit Center  247 is at   2.543491  1.666259  2.230945
      ESP Fit Center  248 is at   2.848639  2.605408  1.910093
      ESP Fit Center  249 is at   1.744604  2.246685  1.910093
      ESP Fit Center  250 is at   3.767458  2.693289  1.070093
      ESP Fit Center  251 is at   2.820942  3.239761  1.070093
      ESP Fit Center  252 is at   1.744604  3.049973  1.070093
      ESP Fit Center  253 is at   4.141266  1.666259  0.031796
      ESP Fit Center  254 is at   3.767458  2.693289  0.031796
      ESP Fit Center  255 is at   2.820942  3.239761  0.031796
      ESP Fit Center  256 is at  -2.597633  1.395174  2.919850
      ESP Fit Center  257 is at  -1.556312  1.395174  2.682175
      ESP Fit Center  258 is at  -2.076973  2.296984  2.682175
      ESP Fit Center  259 is at  -3.638954  1.395174  2.682175
      ESP Fit Center  260 is at  -2.076973  0.493363  2.682175
      ESP Fit Center  261 is at  -1.019109  0.380718  2.016225
      ESP Fit Center  262 is at  -4.937460  1.395174 -0.014200
      ESP Fit Center  263 is at  -3.826411  2.813259 -0.976526
      ESP Fit Center  264 is at  -4.398022  1.923815 -0.976526
      ESP Fit Center  265 is at  -3.118294  2.296984 -1.642475
      ESP Fit Center  266 is at  -3.638954  1.395174 -1.642475
      ESP Fit Center  267 is at  -0.293349  1.820456  2.256934
      ESP Fit Center  268 is at  -0.814009  2.722266  2.256934
      ESP Fit Center  269 is at  -0.814009  0.918646  2.256934
      ESP Fit Center  270 is at   0.243854  2.834912  1.590984
      ESP Fit Center  271 is at  -2.793528  3.649806 -0.439442
      ESP Fit Center  272 is at  -2.563448  3.238541 -1.401767
      ESP Fit Center  273 is at  -0.814009  2.722266 -2.067717
      ESP Fit Center  274 is at  -1.855330  2.722266 -2.067717
      ESP Fit Center  275 is at  -2.375991  1.820456 -2.067717
      ESP Fit Center  276 is at  -2.910147  0.051067  2.871613
      ESP Fit Center  277 is at  -1.868826  0.051067  2.633939
      ESP Fit Center  278 is at  -3.430807 -0.850744  2.633939
      ESP Fit Center  279 is at  -2.389486 -0.850744  2.633939
      ESP Fit Center  280 is at  -5.018258  1.066280 -0.062437
      ESP Fit Center  281 is at  -4.710535  0.579708 -1.024762
      ESP Fit Center  282 is at  -4.710535 -0.477575 -1.024762
      ESP Fit Center  283 is at  -3.430807  0.952877 -1.690712
      ESP Fit Center  284 is at  -3.951468  0.051067 -1.690712
      ESP Fit Center  285 is at   0.263749 -0.450361  1.757963
      ESP Fit Center  286 is at  -0.256912 -1.352171  1.757963
      ESP Fit Center  287 is at   0.001911 -2.157190  1.092014
      ESP Fit Center  288 is at  -1.298233  0.451450 -2.566687
      ESP Fit Center  289 is at  -1.818893 -0.450361 -2.566687
      ESP Fit Center  290 is at  -1.298233 -1.352171 -2.566687
      ESP Fit Center  291 is at  -0.777572 -0.450361 -2.804362
      ESP Fit Center  292 is at   0.119513 -0.008606  1.788081
      ESP Fit Center  293 is at  -0.921808  1.795015 -2.536570
      ESP Fit Center  294 is at  -1.442469  0.893205 -2.536570
      ESP Fit Center  295 is at   1.528380 -0.344749  2.236205
      ESP Fit Center  296 is at   0.769313 -0.873391  1.570255
      ESP Fit Center  297 is at   1.340924 -1.762834  1.570255
      ESP Fit Center  298 is at   4.148226  0.669707 -1.422496
      ESP Fit Center  299 is at   3.611022 -0.344749 -2.088446
      ESP Fit Center  300 is at   3.090362  0.557061 -2.088446
      ESP Fit Center  301 is at   2.782991 -0.557428  3.054177
      ESP Fit Center  302 is at   5.700707 -0.557428  2.388227
      ESP Fit Center  303 is at   2.023923 -1.086070  2.388227
      ESP Fit Center  304 is at   6.164139 -0.557428  1.425902
      ESP Fit Center  305 is at   5.932423 -1.572641  1.425902
      ESP Fit Center  306 is at   5.283170  1.271923  0.357801
      ESP Fit Center  307 is at   4.603794  1.149402 -0.604524
      ESP Fit Center  308 is at  -1.330763 -2.280764  2.107730
      ESP Fit Center  309 is at  -0.495689 -2.280764  1.441780
      ESP Fit Center  310 is at  -1.592601 -3.987594  1.441780
      ESP Fit Center  311 is at  -4.711911 -2.280764  0.479455
      ESP Fit Center  312 is at  -2.892745 -4.561927  0.479455
      ESP Fit Center  313 is at  -2.892745 -4.561927 -0.588645
      ESP Fit Center  314 is at  -1.330763 -2.280764 -2.216920
      ESP Fit Center  315 is at  -1.851424 -3.182575 -2.216920
      ESP Fit Center  316 is at   2.566993  2.306171 -2.355487
      ESP Fit Center  317 is at   0.467808  2.193526 -3.021437
      ESP Fit Center  318 is at  -0.958348 -0.845209  2.175547
      ESP Fit Center  319 is at  -1.479009 -1.747020  2.175547
      ESP Fit Center  320 is at  -0.421145 -1.859665  1.509597
      ESP Fit Center  321 is at  -2.520330  0.056601 -2.149104
      ESP Fit Center  322 is at  -3.040990 -0.845209 -2.149104
      ESP Fit Center  323 is at   2.056262  0.927843  2.462873
      ESP Fit Center  324 is at   1.535601  1.829653  2.225198
      ESP Fit Center  325 is at   1.014941  0.927843  2.225198
      ESP Fit Center  326 is at   1.535601  0.026032  2.225198
      ESP Fit Center  327 is at   0.827484  2.345928  1.559248
      ESP Fit Center  328 is at   4.164373  1.943055 -0.471178
      ESP Fit Center  329 is at   3.634786  1.942299 -1.433503
      ESP Fit Center  330 is at   3.097583  0.927843 -2.099453
      ESP Fit Center  331 is at   1.542897 -2.088814  1.455155
      ESP Fit Center  332 is at   0.612013 -2.276514  0.833602
      ESP Fit Center  333 is at   1.487664 -2.912711  0.833602
      ESP Fit Center  334 is at   2.570029 -2.912711  0.833602
      ESP Fit Center  335 is at   1.254447 -3.289048 -0.064569
      ESP Fit Center  336 is at   2.292079 -3.415040 -0.064569
      ESP Fit Center  337 is at   3.269408 -3.044388 -0.064569
      ESP Fit Center  338 is at   1.254447 -3.289048 -1.061462
      ESP Fit Center  339 is at   2.292079 -3.415040 -1.061462
      ESP Fit Center  340 is at   3.269408 -3.044388 -1.061462
      ESP Fit Center  341 is at   3.962539 -2.262004 -1.061462
      ESP Fit Center  342 is at   3.780149 -1.247124 -1.959633
      ESP Fit Center  343 is at   1.487664 -2.912711 -1.959633
      ESP Fit Center  344 is at   2.570029 -2.912711 -1.959633
      ESP Fit Center  345 is at   3.445680 -2.276514 -1.959633
      ESP Fit Center  346 is at   3.000746 -1.247124 -2.581186
      ESP Fit Center  347 is at   2.514796 -0.405434 -2.581186
      ESP Fit Center  348 is at   1.056947 -1.247124 -2.581186
      ESP Fit Center  349 is at   1.542897 -2.088814 -2.581186
      ESP Fit Center  350 is at   2.514796 -2.088814 -2.581186
      ESP Fit Center  351 is at   2.028846 -1.247124 -2.803016
      ESP Fit Center  352 is at  -3.336067  2.098851  2.807228
      ESP Fit Center  353 is at  -2.856067  2.930235  2.549997
      ESP Fit Center  354 is at  -3.816067  2.930235  2.549997
      ESP Fit Center  355 is at  -4.296067  2.098851  2.549997
      ESP Fit Center  356 is at  -2.822243  3.680238  1.847228
      ESP Fit Center  357 is at  -3.849891  3.680238  1.847228
      ESP Fit Center  358 is at  -4.681275  3.076202  1.847228
      ESP Fit Center  359 is at  -4.998836  2.098851  1.847228
      ESP Fit Center  360 is at  -4.681275  1.121500  1.847228
      ESP Fit Center  361 is at  -3.336067  4.018851  0.887228
      ESP Fit Center  362 is at  -4.296067  3.761620  0.887228
      ESP Fit Center  363 is at  -4.998836  3.058851  0.887228
      ESP Fit Center  364 is at  -5.256067  2.098851  0.887228
      ESP Fit Center  365 is at  -3.849891  3.680238 -0.072772
      ESP Fit Center  366 is at  -4.681275  3.076202 -0.072772
      ESP Fit Center  367 is at  -4.998836  2.098851 -0.072772
      ESP Fit Center  368 is at  -0.603510  3.708412  1.790701
      ESP Fit Center  369 is at  -1.563510  3.708412  1.790701
      ESP Fit Center  370 is at   0.579258  2.877027  1.087932
      ESP Fit Center  371 is at   0.261698  3.854378  1.087932
      ESP Fit Center  372 is at  -0.569687  4.458414  1.087932
      ESP Fit Center  373 is at  -1.597334  4.458414  1.087932
      ESP Fit Center  374 is at  -2.428719  3.854378  1.087932
      ESP Fit Center  375 is at  -0.123510  4.539796  0.127932
      ESP Fit Center  376 is at  -1.083510  4.797027  0.127932
      ESP Fit Center  377 is at  -2.043510  4.539796  0.127932
      ESP Fit Center  378 is at  -2.746279  3.837027  0.127932
      ESP Fit Center  379 is at  -0.569687  4.458414 -0.832068
      ESP Fit Center  380 is at  -1.597334  4.458414 -0.832068
      ESP Fit Center  381 is at  -2.428719  3.854378 -0.832068
      ESP Fit Center  382 is at  -0.603510  3.708412 -1.534837
      ESP Fit Center  383 is at  -1.563510  3.708412 -1.534837
      ESP Fit Center  384 is at  -3.867028 -0.349073  2.705255
      ESP Fit Center  385 is at  -4.347028  0.482311  2.448023
      ESP Fit Center  386 is at  -4.827028 -0.349073  2.448023
      ESP Fit Center  387 is at  -4.347028 -1.180458  2.448023
      ESP Fit Center  388 is at  -5.212236  0.628278  1.745255
      ESP Fit Center  389 is at  -5.529797 -0.349073  1.745255
      ESP Fit Center  390 is at  -5.212236 -1.326424  1.745255
      ESP Fit Center  391 is at  -5.529797  0.610927  0.785255
      ESP Fit Center  392 is at  -5.787028 -0.349073  0.785255
      ESP Fit Center  393 is at  -5.529797 -1.309073  0.785255
      ESP Fit Center  394 is at  -4.827028 -2.011842  0.785255
      ESP Fit Center  395 is at  -5.212236  0.628278 -0.174745
      ESP Fit Center  396 is at  -5.529797 -0.349073 -0.174745
      ESP Fit Center  397 is at  -5.212236 -1.326424 -0.174745
      ESP Fit Center  398 is at   0.434299 -2.793245  0.222885
      ESP Fit Center  399 is at   0.434299 -2.793245 -1.697115
      ESP Fit Center  400 is at  -0.559525 -2.043242 -2.399884
      ESP Fit Center  401 is at   0.400475 -2.043242 -2.399884
      ESP Fit Center  402 is at  -0.079525 -1.211858 -2.657115
      ESP Fit Center  403 is at   3.724699 -1.484062  3.382199
      ESP Fit Center  404 is at   4.684699 -1.484062  3.124967
      ESP Fit Center  405 is at   2.764699 -1.484062  3.124967
      ESP Fit Center  406 is at   3.244699 -2.315447  3.124967
      ESP Fit Center  407 is at   4.204699 -2.315447  3.124967
      ESP Fit Center  408 is at   2.061931 -1.484062  2.422199
      ESP Fit Center  409 is at   2.379491 -2.461413  2.422199
      ESP Fit Center  410 is at   3.210876 -3.065449  2.422199
      ESP Fit Center  411 is at   4.238523 -3.065449  2.422199
      ESP Fit Center  412 is at   5.069908 -2.461413  2.422199
      ESP Fit Center  413 is at   2.061931 -2.444062  1.462199
      ESP Fit Center  414 is at   2.764699 -3.146831  1.462199
      ESP Fit Center  415 is at   3.724699 -3.404062  1.462199
      ESP Fit Center  416 is at   4.684699 -3.146831  1.462199
      ESP Fit Center  417 is at   5.387468 -2.444062  1.462199
      ESP Fit Center  418 is at   3.210876 -3.065449  0.502199
      ESP Fit Center  419 is at   4.238523 -3.065449  0.502199
      ESP Fit Center  420 is at   6.334325 -0.683213  1.168625
      ESP Fit Center  421 is at   6.016765 -1.660564  1.168625
      ESP Fit Center  422 is at   6.591557 -0.683213  0.208625
      ESP Fit Center  423 is at   6.334325  0.276787  0.208625
      ESP Fit Center  424 is at   5.631557  0.979555  0.208625
      ESP Fit Center  425 is at   5.631557 -2.345982  0.208625
      ESP Fit Center  426 is at   6.334325 -1.643213  0.208625
      ESP Fit Center  427 is at   6.334325 -0.683213 -0.751375
      ESP Fit Center  428 is at   6.016765  0.294138 -0.751375
      ESP Fit Center  429 is at   5.185380  0.898174 -0.751375
      ESP Fit Center  430 is at   5.185380 -2.264600 -0.751375
      ESP Fit Center  431 is at   6.016765 -1.660564 -0.751375
      ESP Fit Center  432 is at   5.631557 -0.683213 -1.454144
      ESP Fit Center  433 is at   5.151557  0.148171 -1.454144
      ESP Fit Center  434 is at   4.191557 -1.514598 -1.454144
      ESP Fit Center  435 is at   5.151557 -1.514598 -1.454144
      ESP Fit Center  436 is at   4.671557 -0.683213 -1.711375
      ESP Fit Center  437 is at   4.045446  0.268032  3.494349
      ESP Fit Center  438 is at   5.005446  0.268032  3.237118
      ESP Fit Center  439 is at   4.525446  1.099417  3.237118
      ESP Fit Center  440 is at   3.565446  1.099417  3.237118
      ESP Fit Center  441 is at   3.085446  0.268032  3.237118
      ESP Fit Center  442 is at   4.525446 -0.563352  3.237118
      ESP Fit Center  443 is at   5.708214  0.268032  2.534349
      ESP Fit Center  444 is at   5.390654  1.245383  2.534349
      ESP Fit Center  445 is at   4.559269  1.849420  2.534349
      ESP Fit Center  446 is at   3.531622  1.849420  2.534349
      ESP Fit Center  447 is at   2.700237  1.245383  2.534349
      ESP Fit Center  448 is at   5.708214  1.228032  1.574349
      ESP Fit Center  449 is at   5.005446  1.930801  1.574349
      ESP Fit Center  450 is at   5.390654  1.245383  0.614349
      ESP Fit Center  451 is at   4.559269  1.849420  0.614349
      ESP Fit Center  452 is at  -4.727509 -1.473391 -0.885560
      ESP Fit Center  453 is at  -4.984740 -2.433391 -0.885560
      ESP Fit Center  454 is at  -4.727509 -3.393391 -0.885560
      ESP Fit Center  455 is at  -4.024740 -4.096159 -0.885560
      ESP Fit Center  456 is at  -3.578564 -0.852003 -1.845560
      ESP Fit Center  457 is at  -4.409948 -1.456040 -1.845560
      ESP Fit Center  458 is at  -4.727509 -2.433391 -1.845560
      ESP Fit Center  459 is at  -4.409948 -3.410742 -1.845560
      ESP Fit Center  460 is at  -3.578564 -4.014778 -1.845560
      ESP Fit Center  461 is at  -2.550916 -4.014778 -1.845560
      ESP Fit Center  462 is at  -2.104740 -2.433391 -2.548328
      ESP Fit Center  463 is at  -2.584740 -1.602006 -2.548328
      ESP Fit Center  464 is at  -3.544740 -1.602006 -2.548328
      ESP Fit Center  465 is at  -4.024740 -2.433391 -2.548328
      ESP Fit Center  466 is at  -3.544740 -3.264775 -2.548328
      ESP Fit Center  467 is at  -2.584740 -3.264775 -2.548328
      ESP Fit Center  468 is at  -3.064740 -2.433391 -2.805560
      ESP Fit Center  469 is at  -0.511088 -2.872537  1.452579
      ESP Fit Center  470 is at  -0.991088 -3.703922  1.452579
      ESP Fit Center  471 is at   0.191681 -2.872537  0.749810
      ESP Fit Center  472 is at  -0.957264 -4.453924  0.749810
      ESP Fit Center  473 is at  -0.125880 -3.849888  0.749810
      ESP Fit Center  474 is at  -1.471088 -4.792537 -0.210190
      ESP Fit Center  475 is at  -0.511088 -4.535306 -0.210190
      ESP Fit Center  476 is at   0.191681 -3.832537 -0.210190
      ESP Fit Center  477 is at  -1.984912 -4.453924 -1.170190
      ESP Fit Center  478 is at  -0.957264 -4.453924 -1.170190
      ESP Fit Center  479 is at  -0.125880 -3.849888 -1.170190
      ESP Fit Center  480 is at  -0.511088 -2.872537 -1.872959
      ESP Fit Center  481 is at  -0.991088 -3.703922 -1.872959
      ESP Fit Center  482 is at  -2.843847 -2.571780  2.805158
      ESP Fit Center  483 is at  -1.883847 -2.571780  2.547927
      ESP Fit Center  484 is at  -2.363847 -1.740395  2.547927
      ESP Fit Center  485 is at  -3.323847 -1.740395  2.547927
      ESP Fit Center  486 is at  -3.803847 -2.571780  2.547927
      ESP Fit Center  487 is at  -3.323847 -3.403164  2.547927
      ESP Fit Center  488 is at  -2.363847 -3.403164  2.547927
      ESP Fit Center  489 is at  -4.506616 -2.571780  1.845158
      ESP Fit Center  490 is at  -4.189055 -3.549131  1.845158
      ESP Fit Center  491 is at  -3.357671 -4.153167  1.845158
      ESP Fit Center  492 is at  -2.330023 -4.153167  1.845158
      ESP Fit Center  493 is at  -1.498639 -3.549131  1.845158
      ESP Fit Center  494 is at  -4.763847 -2.571780  0.885158
      ESP Fit Center  495 is at  -4.506616 -3.531780  0.885158
      ESP Fit Center  496 is at  -3.803847 -4.234548  0.885158
      ESP Fit Center  497 is at  -2.843847 -4.491780  0.885158
      ESP Fit Center  498 is at   2.841439  0.810970 -2.784654
      ESP Fit Center  499 is at   2.523878  1.788321 -2.784654
      ESP Fit Center  500 is at  -0.484099  0.810970 -2.784654
      ESP Fit Center  501 is at  -0.166538 -0.166381 -2.784654
      ESP Fit Center  502 is at   0.664846 -0.770417 -2.784654
      ESP Fit Center  503 is at   1.692494 -0.770417 -2.784654
      ESP Fit Center  504 is at   2.523878 -0.166381 -2.784654
      ESP Fit Center  505 is at   2.138670  0.810970 -3.487423
      ESP Fit Center  506 is at   1.658670  1.642354 -3.487423
[...]
  423 Fit       0.089210
  424 Fit       0.097858
  425 Fit       0.081235
  426 Fit       0.082502
  427 Fit       0.085857
  428 Fit       0.091002
  429 Fit       0.100917
  430 Fit       0.079430
  431 Fit       0.082613
  432 Fit       0.087818
  433 Fit       0.095454
  434 Fit       0.078386
  435 Fit       0.083110
  436 Fit       0.090731
  437 Fit       0.096430
  438 Fit       0.091619
  439 Fit       0.098073
  440 Fit       0.105838
  441 Fit       0.104702
  442 Fit       0.092468
  443 Fit       0.089703
  444 Fit       0.094939
  445 Fit       0.105928
  446 Fit       0.120537
  447 Fit       0.123962
  448 Fit       0.095251
  449 Fit       0.106632
  450 Fit       0.101842
  451 Fit       0.121077
  452 Fit       0.145558
  453 Fit       0.129641
  454 Fit       0.121888
  455 Fit       0.120491
  456 Fit       0.145699
  457 Fit       0.133849
  458 Fit       0.123412
  459 Fit       0.117653
  460 Fit       0.116844
  461 Fit       0.121417
  462 Fit       0.130606
  463 Fit       0.135695
  464 Fit       0.129685
  465 Fit       0.121398
  466 Fit       0.117502
  467 Fit       0.120709
  468 Fit       0.123121
  469 Fit       0.130946
  470 Fit       0.124319
  471 Fit       0.123680
  472 Fit       0.117123
  473 Fit       0.116836
  474 Fit       0.116692
  475 Fit       0.113415
  476 Fit       0.112982
  477 Fit       0.121238
  478 Fit       0.115066
  479 Fit       0.114977
  480 Fit       0.130917
  481 Fit       0.120558
  482 Fit       0.128650
  483 Fit       0.130104
  484 Fit       0.141133
  485 Fit       0.143195
  486 Fit       0.130437
  487 Fit       0.121759
  488 Fit       0.122056
  489 Fit       0.134089
  490 Fit       0.122297
  491 Fit       0.118533
  492 Fit       0.119935
  493 Fit       0.126221
  494 Fit       0.138290
  495 Fit       0.125480
  496 Fit       0.121540
  497 Fit       0.122989
  498 Fit       0.102319
  499 Fit       0.108429
  500 Fit       0.131623
  501 Fit       0.130564
  502 Fit       0.112034
  503 Fit       0.087992
  504 Fit       0.092189
  505 Fit       0.101757
  506 Fit       0.107011
  507 Fit       0.113145
  508 Fit       0.116111
  509 Fit       0.110188
  510 Fit       0.100322
  511 Fit       0.106511
  512 Fit       0.133620
  513 Fit       0.144710
  514 Fit       0.125228
  515 Fit       0.122196
  516 Fit       0.125995
  517 Fit       0.139661
  518 Fit       0.114951
  519 Fit       0.116436
  520 Fit       0.122933
  521 Fit       0.134069
  522 Fit       0.113767
  523 Fit       0.119416
  524 Fit       0.126115
  525 Fit       0.128062
  526 Fit       0.128831
  527 Fit       0.127175
  528 Fit       0.129056
  529 Fit       0.134912
  530 Fit       0.139863
  531 Fit       0.123453
  532 Fit       0.126794
  533 Fit       0.134748
  534 Fit       0.120053
  535 Fit       0.129298
  536 Fit       0.118211
  537 Fit       0.119295
  538 Fit       0.118289
  539 Fit       0.122960
  540 Fit       0.123561
  541 Fit       0.125434
  542 Fit       0.129900
  543 Fit       0.126542
  544 Fit       0.126597
  545 Fit       0.116658
  546 Fit       0.117414
  547 Fit       0.119029
  548 Fit       0.120547
  549 Fit       0.121766
  550 Fit       0.122173
  551 Fit       0.124465
  552 Fit       0.129194
  553 Fit       0.124665
  554 Fit       0.123611
  555 Fit       0.119612
  556 Fit       0.127976
  557 Fit       0.120141
  558 Fit       0.121445
  559 Fit       0.124649
  560 Fit       0.125393
  561 Fit       0.128806
  562 Fit       0.131695
  563 Fit       0.130057
  564 Fit       0.131974
  565 Fit       0.127171
  566 Fit       0.124202
  567 Fit       0.132002
  568 Fit       0.125485
  569 Fit       0.128265
  570 Fit       0.124296
  571 Fit       0.128239
  572 Fit       0.126824
  573 Fit       0.125278
  574 Fit       0.126559
  575 Fit       0.125955
  576 Fit       0.118626
  577 Fit       0.121983
  578 Fit       0.124935
  579 Fit       0.122834
  580 Fit       0.123485
  581 Fit       0.113168
  582 Fit       0.120213
  583 Fit       0.107407
  584 Fit       0.099154
  585 Fit       0.085020
  586 Fit       0.092273
  587 Fit       0.099158
  588 Fit       0.083983
  589 Fit       0.110978
  590 Fit       0.106268
  591 Fit       0.082811
  592 Fit       0.082337
  593 Fit       0.080258
  594 Fit       0.079244
  595 Fit       0.098934
  596 Fit       0.072138
  597 Fit       0.104571
  598 Fit       0.128979
  599 Fit       0.129056
  600 Fit       0.120553
  601 Fit       0.114286
  602 Fit       0.134365
  603 Fit       0.122536
  604 Fit       0.116466
  605 Fit       0.113230
  606 Fit       0.112654
  607 Fit       0.112997
  608 Fit       0.129031
  609 Fit       0.119644
  610 Fit       0.108081
  611 Fit       0.105312
  612 Fit       0.121709
  613 Fit       0.112929
  614 Fit       0.129565
  615 Fit       0.132699
  616 Fit       0.130154
  617 Fit       0.131135
  618 Fit       0.132793
  619 Fit       0.114173
  620 Fit       0.118391
  621 Fit       0.114406
  622 Fit       0.113575
  623 Fit       0.128982
  624 Fit       0.106022
  625 Fit       0.113305
  626 Fit       0.103066
  627 Fit       0.104431
  628 Fit       0.081254
  629 Fit       0.076171
  630 Fit       0.063152
  631 Fit       0.065826
  632 Fit       0.071567
  633 Fit       0.057101
  634 Fit       0.056460
  635 Fit       0.073952
  636 Fit       0.091548
  637 Fit       0.065760
  638 Fit       0.055515
  639 Fit       0.059256
  640 Fit       0.068901
  641 Fit       0.096177
  642 Fit       0.074390
  643 Fit       0.061719
  644 Fit       0.076120
  645 Fit       0.119488
  646 Fit       0.119566
  647 Fit       0.115140
  648 Fit       0.119103
  649 Fit       0.125485
  650 Fit       0.116341
  651 Fit       0.113372
  652 Fit       0.116184
  653 Fit       0.126990
  654 Fit       0.124677
  655 Fit       0.115556
  656 Fit       0.113382
  657 Fit       0.116817
  658 Fit       0.128659
  659 Fit       0.121597
  660 Fit       0.115396
  661 Fit       0.117366
  662 Fit       0.124083
  663 Fit       0.126238
  664 Fit       0.131405
  665 Fit       0.122179
  666 Fit       0.120323
  667 Fit       0.127343
  668 Fit       0.126000
  669 Fit       0.119547
  670 Fit       0.119598
  671 Fit       0.127229
  672 Fit       0.125057
  673 Fit       0.119618
  674 Fit       0.121762
  675 Fit       0.129794
  676 Fit       0.123383
  677 Fit       0.131571
  678 Fit       0.126059
  679 Fit       0.131369
  680 Fit       0.134619
  681 Fit       0.125179
  682 Fit       0.124679
  683 Fit       0.131510
  684 Fit       0.132666
  685 Fit       0.124841
  686 Fit       0.124905
  687 Fit       0.131303
  688 Fit       0.127059
  689 Fit       0.128694
  690 Fit       0.139611
  691 Fit       0.122881
  692 Fit       0.101093
  693 Fit       0.088887
  694 Fit       0.084714
  695 Fit       0.096226
  696 Fit       0.088698
  697 Fit       0.083524
  698 Fit       0.101043
  699 Fit       0.090967
  700 Fit       0.084046
  701 Fit       0.080424
  702 Fit       0.079954
  703 Fit       0.087016
  704 Fit       0.081377
  705 Fit       0.078447
  706 Fit       0.077670
  707 Fit       0.079779
  708 Fit       0.070615
  709 Fit       0.075118
  710 Fit       0.082069
  711 Fit       0.080445
  712 Fit       0.080132
  713 Fit       0.084385
  714 Fit       0.092656
  715 Fit       0.077170
  716 Fit       0.077955
  717 Fit       0.080783
  718 Fit       0.085714
  719 Fit       0.094851
  720 Fit       0.070580
  721 Fit       0.075674
  722 Fit       0.077931
  723 Fit       0.082900
  724 Fit       0.091077
  725 Fit       0.078387
  726 Fit       0.086102
  727 Fit       0.092289
  728 Fit       0.087114
  729 Fit       0.093214
  730 Fit       0.101452
  731 Fit       0.101324
  732 Fit       0.085213
  733 Fit       0.089333
  734 Fit       0.098406
  735 Fit       0.111897
  736 Fit       0.090232
  737 Fit       0.099469
  738 Fit       0.118491
  739 Fit       0.111522
  740 Fit       0.129329
  741 Fit       0.118170
  742 Fit       0.113450
  743 Fit       0.113820
  744 Fit       0.131590
  745 Fit       0.120477
  746 Fit       0.112743
  747 Fit       0.109344
  748 Fit       0.110201
  749 Fit       0.124159
  750 Fit       0.129386
  751 Fit       0.122777
  752 Fit       0.114016
  753 Fit       0.110139
  754 Fit       0.113760
  755 Fit       0.116096
  756 Fit       0.117782
  757 Fit       0.114851
  758 Fit       0.109391
  759 Fit       0.109457
  760 Fit       0.107978
  761 Fit       0.105358
  762 Fit       0.103870
  763 Fit       0.111267
  764 Fit       0.106932
  765 Fit       0.106397
  766 Fit       0.113059
  767 Fit       0.121325
  768 Fit       0.123428
  769 Fit       0.134316
  770 Fit       0.135977
  771 Fit       0.122828
  772 Fit       0.114166
  773 Fit       0.114901
  774 Fit       0.136703
  775 Fit       0.119823
  776 Fit       0.112630
  777 Fit       0.111009
  778 Fit       0.113652
  779 Fit       0.123684
  780 Fit       0.115860
  781 Fit       0.113945
  782 Fit       0.097333
  783 Fit       0.102865
  784 Fit       0.099856
  785 Fit       0.088272
  786 Fit       0.096153
  787 Fit       0.101594
  788 Fit       0.107828
  789 Fit       0.110808
  790 Fit       0.104845
  791 Fit       0.094739
  792 Fit       0.100812
  793 Fit       0.127230
  794 Fit       0.132789
  795 Fit       0.119447
  796 Fit       0.115552
  797 Fit       0.117516
  798 Fit       0.127550
  799 Fit       0.108789
  800 Fit       0.109205
  801 Fit       0.113933
  802 Fit       0.123436
  803 Fit       0.107668
  804 Fit       0.113315
  805 Fit       0.119239
  806 Fit       0.119452
  807 Fit       0.121818
  808 Fit       0.118094
  809 Fit       0.119185
  810 Fit       0.124851
  811 Fit       0.133164
  812 Fit       0.114707
  813 Fit       0.117043
  814 Fit       0.123841
  815 Fit       0.136452
  816 Fit       0.112291
  817 Fit       0.119277
  818 Fit       0.112686
  819 Fit       0.114004
  820 Fit       0.112226
  821 Fit       0.112332
  822 Fit       0.115466
  823 Fit       0.117595
  824 Fit       0.116689
  825 Fit       0.122692
  826 Fit       0.113030
  827 Fit       0.111202
  828 Fit       0.113925
  829 Fit       0.110744
  830 Fit       0.111666
  831 Fit       0.114252
  832 Fit       0.115846
  833 Fit       0.116417
  834 Fit       0.115772
  835 Fit       0.119269
  836 Fit       0.121087
  837 Fit       0.118697
  838 Fit       0.118921
  839 Fit       0.115361
  840 Fit       0.115552
  841 Fit       0.112716
  842 Fit       0.114241
  843 Fit       0.116144
  844 Fit       0.117829
  845 Fit       0.119015
  846 Fit       0.119993
  847 Fit       0.122459
  848 Fit       0.121931
  849 Fit       0.124188
  850 Fit       0.118663
  851 Fit       0.123810
  852 Fit       0.117223
  853 Fit       0.123663
  854 Fit       0.120161
  855 Fit       0.121711
  856 Fit       0.119938
  857 Fit       0.122523
  858 Fit       0.120646
  859 Fit       0.118502
  860 Fit       0.118866
  861 Fit       0.117451
  862 Fit       0.111112
  863 Fit       0.114924
  864 Fit       0.120750
  865 Fit       0.116210
  866 Fit       0.117283
  867 Fit       0.108914
  868 Fit       0.115850
  869 Fit       0.105620
  870 Fit       0.085612
  871 Fit       0.093242
  872 Fit       0.082337
  873 Fit       0.088424
  874 Fit       0.083807
  875 Fit       0.094858
  876 Fit       0.080381
  877 Fit       0.105508
  878 Fit       0.101198
  879 Fit       0.079256
  880 Fit       0.078309
  881 Fit       0.076559
  882 Fit       0.078405
  883 Fit       0.082049
  884 Fit       0.075380
  885 Fit       0.076264
  886 Fit       0.089700
  887 Fit       0.102477
  888 Fit       0.073343
  889 Fit       0.069325
  890 Fit       0.121755
  891 Fit       0.121452
  892 Fit       0.113736
  893 Fit       0.107214
  894 Fit       0.121140
  895 Fit       0.112564
  896 Fit       0.107899
  897 Fit       0.105400
  898 Fit       0.105133
  899 Fit       0.106984
  900 Fit       0.104625
  901 Fit       0.104813
  902 Fit       0.105238
  903 Fit       0.108391
  904 Fit       0.120062
  905 Fit       0.112294
  906 Fit       0.100475
  907 Fit       0.099081
  908 Fit       0.112876
  909 Fit       0.106134
  910 Fit       0.123125
  911 Fit       0.125023
  912 Fit       0.122517
  913 Fit       0.123885
  914 Fit       0.124478
  915 Fit       0.109636
  916 Fit       0.113066
  917 Fit       0.111528
  918 Fit       0.109827
  919 Fit       0.121722
  920 Fit       0.103969
  921 Fit       0.098651
  922 Fit       0.103765
  923 Fit       0.098638
  924 Fit       0.097181
  925 Fit       0.084393
  926 Fit       0.099103
  927 Fit       0.076748
  928 Fit       0.069813
  929 Fit       0.079914
  930 Fit       0.064966
  931 Fit       0.060820
  932 Fit       0.090384
  933 Fit       0.068211
  934 Fit       0.058536
  935 Fit       0.058609
  936 Fit       0.067633
  937 Fit       0.072202
  938 Fit       0.081190
  939 Fit       0.065041
  940 Fit       0.058977
  941 Fit       0.062140
  942 Fit       0.070746
  943 Fit       0.094316
  944 Fit       0.076276
  945 Fit       0.065356
  946 Fit       0.077957
  947 Fit       0.113437
  948 Fit       0.109397
  949 Fit       0.112905
  950 Fit       0.117073
  951 Fit       0.109619
  952 Fit       0.107104
  953 Fit       0.109771
  954 Fit       0.119123
  955 Fit       0.118878
  956 Fit       0.109861
  957 Fit       0.106614
  958 Fit       0.107851
  959 Fit       0.114424
  960 Fit       0.112038
  961 Fit       0.107685
  962 Fit       0.108560
  963 Fit       0.115226
  964 Fit       0.110480
  965 Fit       0.112231
  966 Fit       0.118447
  967 Fit       0.124009
  968 Fit       0.115893
  969 Fit       0.114485
  970 Fit       0.121294
  971 Fit       0.119940
  972 Fit       0.113407
  973 Fit       0.112615
  974 Fit       0.118064
  975 Fit       0.122195
  976 Fit       0.113951
  977 Fit       0.112022
  978 Fit       0.115565
  979 Fit       0.119200
  980 Fit       0.113772
  981 Fit       0.115389
  982 Fit       0.119125
  983 Fit       0.123501
  984 Fit       0.125710
  985 Fit       0.117828
  986 Fit       0.117223
  987 Fit       0.123056
  988 Fit       0.119267
  989 Fit       0.116084
  990 Fit       0.118282
  991 Fit       0.126248
  992 Fit       0.119817
  993 Fit       0.117296
  994 Fit       0.120368
  995 Fit       0.121116
  996 Fit       0.123096
  997 Fit       0.115322
  998 Fit       0.098192
  999 Fit       0.085801
 1000 Fit       0.081815
 1001 Fit       0.092409
 1002 Fit       0.085422
 1003 Fit       0.080570
 1004 Fit       0.097513
 1005 Fit       0.088313
 1006 Fit       0.081319
 1007 Fit       0.077563
 1008 Fit       0.077012
 1009 Fit       0.097229
 1010 Fit       0.086547
 1011 Fit       0.079749
 1012 Fit       0.076075
 1013 Fit       0.074899
 1014 Fit       0.076323
 1015 Fit       0.074279
 1016 Fit       0.073299
 1017 Fit       0.074069
 1018 Fit       0.076719
 1019 Fit       0.080852
 1020 Fit       0.074973
 1021 Fit       0.074905
 1022 Fit       0.076114
 1023 Fit       0.080075
 1024 Fit       0.087221
 1025 Fit       0.072358
 1026 Fit       0.072973
 1027 Fit       0.073976
 1028 Fit       0.077125
 1029 Fit       0.082056
 1030 Fit       0.090779
 1031 Fit       0.067491
 1032 Fit       0.072312
 1033 Fit       0.074362
 1034 Fit       0.079360
 1035 Fit       0.087023
 1036 Fit       0.075348
 1037 Fit       0.082445
 1038 Fit       0.088705
 1039 Fit       0.083808
 1040 Fit       0.088844
 1041 Fit       0.095992
 1042 Fit       0.096689
 1043 Fit       0.081522
 1044 Fit       0.085025
 1045 Fit       0.092553
 1046 Fit       0.103061
 1047 Fit       0.110553
 1048 Fit       0.109490
 1049 Fit       0.084641
 1050 Fit       0.091517
 1051 Fit       0.103939
 1052 Fit       0.095783
 1053 Fit       0.121784
 1054 Fit       0.113011
 1055 Fit       0.123773
 1056 Fit       0.113075
 1057 Fit       0.106836
 1058 Fit       0.104448
 1059 Fit       0.105525
 1060 Fit       0.121832
 1061 Fit       0.112530
 1062 Fit       0.105910
 1063 Fit       0.102891
 1064 Fit       0.103538
 1065 Fit       0.116646
 1066 Fit       0.121233
 1067 Fit       0.115571
 1068 Fit       0.107826
 1069 Fit       0.104450
 1070 Fit       0.107762
 1071 Fit       0.110073
 1072 Fit       0.111971
 1073 Fit       0.105213
 1074 Fit       0.105715
 1075 Fit       0.101789
 1076 Fit       0.099799
 1077 Fit       0.098428
 1078 Fit       0.100575
 1079 Fit       0.098345
 1080 Fit       0.095692
 1081 Fit       0.105715
 1082 Fit       0.101598
 1083 Fit       0.101099
 1084 Fit       0.108104
 1085 Fit       0.115056
 1086 Fit       0.116984
 1087 Fit       0.126012
 1088 Fit       0.126719
 1089 Fit       0.115916
 1090 Fit       0.108487
 1091 Fit       0.109332
 1092 Fit       0.126847
 1093 Fit       0.112971
 1094 Fit       0.106441
 1095 Fit       0.104839
 1096 Fit       0.107145
 1097 Fit       0.122780
 1098 Fit       0.111417
 1099 Fit       0.106532
 1100 Fit       0.105596
 1101 Fit       0.091876
 1102 Fit       0.096612
 1103 Fit       0.118109
 1104 Fit       0.112849
 1105 Fit       0.096484
 1106 Fit       0.085768
 1107 Fit       0.091784
 1108 Fit       0.096463
 1109 Fit       0.101875
 1110 Fit       0.104384
 1111 Fit       0.099364
 1112 Fit       0.091153
 1113 Fit       0.096011
 1114 Fit       0.125506
 1115 Fit       0.115068
 1116 Fit       0.114489
 1117 Fit       0.122516
 1118 Fit       0.108317
 1119 Fit       0.106160
 1120 Fit       0.107437
 1121 Fit       0.113498
 1122 Fit       0.102311
 1123 Fit       0.102708
 1124 Fit       0.106806
 1125 Fit       0.114663
 1126 Fit       0.102716
 1127 Fit       0.107594
 1128 Fit       0.113425
 1129 Fit       0.112525
 1130 Fit       0.115195
 1131 Fit       0.111348
 1132 Fit       0.111840
 1133 Fit       0.116801
 1134 Fit       0.124235
 1135 Fit       0.108954
 1136 Fit       0.109553
 1137 Fit       0.114040
 1138 Fit       0.122812
 1139 Fit       0.106476
 1140 Fit       0.108846
 1141 Fit       0.115564
 -----------------------------------------------------------------
 Leave Link  602 at Sat Feb 17 20:58:35 2018, MaxMem=   33554432 cpu:       0.6

 Test job not archived.
 1\1\GINC-NODE085\SP\RHF\6-31G(d)\C9H13N2O1(1+)\WULSDORT\17-Feb-2018\0\
 \#HF/6-31G* Geom=AllCheck Guess=Read Pop=(MK,ReadRadii) Integral=(Grid
 =UltraFine) iop(6/33=2)\\Optimization for frag18-conf0\\1,1\C,0,0.7007
 136347,-0.4425904514,0.9034176343\C,0,1.6547788918,-0.7496216578,-0.07
 24221086\C,0,0.8946601971,-0.8781359237,2.1992956986\C,0,2.9280515933,
 -1.9066716483,1.5876832026\C,0,2.7908518895,-1.4899136619,0.262821603\
 C,0,6.0396980313,-1.4875863295,0.3282658825\C,0,7.3819421273,-0.794565
 116,0.247890596\C,0,2.1689601765,-2.0787886363,3.9134817536\C,0,3.8635
 832377,-1.8644058528,-0.754008031\N,0,1.9996027974,-1.5988347192,2.518
 823337\N,0,5.1022138948,-1.1126954189,-0.601148639\O,0,5.7848533989,-2
 .3507339843,1.1664006201\H,0,-0.1875726483,0.1308804347,0.6636454719\H
 ,0,1.5067883286,-0.4117523504,-1.0944187101\H,0,0.1990103091,-0.676627
 8684,3.0052549694\H,0,3.804676007,-2.4632602057,1.9032979088\H,0,7.702
 1085797,-0.5205274637,1.2559911187\H,0,8.1188724833,-1.5018302004,-0.1
 48536216\H,0,7.3759031631,0.0960826511,-0.3867731447\H,0,1.4760210567,
 -2.9033948241,4.0963174715\H,0,3.1944346045,-2.4203060047,4.047526167\
 H,0,1.9636386302,-1.25693255,4.6010732354\H,0,4.0863376834,-2.93241870
 14,-0.6575974828\H,0,3.4793339626,-1.6902574106,-1.7618742466\H,0,5.34
 75605805,-0.4389234151,-1.3129792074\\Version=AM64L-G09RevC.01\State=1
 -A\HF=-531.9638033\RMSD=3.522e-09\Dipole=-2.1258299,0.9048568,0.238965
 1\Quadrupole=7.5841403,-13.3693414,5.785201,0.9801039,-11.2166565,-3.7
 498597\PG=C01 [X(C9H13N2O1)]\\@


 THE FIRST MORNING OF CREATION WROTE WHAT THE LAST DAWN OF
 RECKONING SHALL READ. -- OMAR KHAYYAM
 Job cpu time:  0 days  0 hours  1 minutes 58.5 seconds.
 File lengths (MBytes):  RWF=     27 Int=      0 D2E=      0 Chk=      4 Scr=      1
 Normal termination of Gaussian 09 at Sat Feb 17 20:58:35 2018.
