 Entering Gaussian System, Link 0=g09
 Initial command:
 /home/fb_chem/chemsoft/lx24-amd64/Gaussian_09_C.01_NBO_3.1_64_istanbul-64/g09/l1.exe /local/2397335.1.parallel_long/Gau-9171.inp -scrdir=/local/2397335.1.parallel_long/
 Entering Link 1 = /home/fb_chem/chemsoft/lx24-amd64/Gaussian_09_C.01_NBO_3.1_64_istanbul-64/g09/l1.exe PID=      9172.
  
 Copyright (c) 1988,1990,1992,1993,1995,1998,2003,2009,2011,
            Gaussian, Inc.  All Rights Reserved.
  
 This is part of the Gaussian(R) 09 program.  It is based on
 the Gaussian(R) 03 system (copyright 2003, Gaussian, Inc.),
 the Gaussian(R) 98 system (copyright 1998, Gaussian, Inc.),
 the Gaussian(R) 94 system (copyright 1995, Gaussian, Inc.),
 the Gaussian 92(TM) system (copyright 1992, Gaussian, Inc.),
 the Gaussian 90(TM) system (copyright 1990, Gaussian, Inc.),
 the Gaussian 88(TM) system (copyright 1988, Gaussian, Inc.),
 the Gaussian 86(TM) system (copyright 1986, Carnegie Mellon
 University), and the Gaussian 82(TM) system (copyright 1983,
 Carnegie Mellon University). Gaussian is a federally registered
 trademark of Gaussian, Inc.
  
 This software contains proprietary and confidential information,
 including trade secrets, belonging to Gaussian, Inc.
  
 This software is provided under written license and may be
 used, copied, transmitted, or stored only in accord with that
 written license.
  
 The following legend is applicable only to US Government
 contracts under FAR:
  
                    RESTRICTED RIGHTS LEGEND
  
 Use, reproduction and disclosure by the US Government is
 subject to restrictions as set forth in subparagraphs (a)
 and (c) of the Commercial Computer Software - Restricted
 Rights clause in FAR 52.227-19.
  
 Gaussian, Inc.
 340 Quinnipiac St., Bldg. 40, Wallingford CT 06492
  
  
 ---------------------------------------------------------------
 Warning -- This program may not be used in any manner that
 competes with the business of Gaussian, Inc. or will provide
 assistance to any competitor of Gaussian, Inc.  The licensee
 of this program is prohibited from giving any competitor of
 Gaussian, Inc. access to this program.  By using this program,
 the user acknowledges that Gaussian, Inc. is engaged in the
 business of creating and licensing software in the field of
 computational chemistry and represents and warrants to the
 licensee that it is not a competitor of Gaussian, Inc. and that
 it will not use this program in any manner prohibited above.
 ---------------------------------------------------------------
  

 Cite this work as:
 Gaussian 09, Revision C.01,
 M. J. Frisch, G. W. Trucks, H. B. Schlegel, G. E. Scuseria, 
 M. A. Robb, J. R. Cheeseman, G. Scalmani, V. Barone, B. Mennucci, 
 G. A. Petersson, H. Nakatsuji, M. Caricato, X. Li, H. P. Hratchian, 
 A. F. Izmaylov, J. Bloino, G. Zheng, J. L. Sonnenberg, M. Hada, 
 M. Ehara, K. Toyota, R. Fukuda, J. Hasegawa, M. Ishida, T. Nakajima, 
 Y. Honda, O. Kitao, H. Nakai, T. Vreven, J. A. Montgomery, Jr., 
 J. E. Peralta, F. Ogliaro, M. Bearpark, J. J. Heyd, E. Brothers, 
 K. N. Kudin, V. N. Staroverov, T. Keith, R. Kobayashi, J. Normand, 
 K. Raghavachari, A. Rendell, J. C. Burant, S. S. Iyengar, J. Tomasi, 
 M. Cossi, N. Rega, J. M. Millam, M. Klene, J. E. Knox, J. B. Cross, 
 V. Bakken, C. Adamo, J. Jaramillo, R. Gomperts, R. E. Stratmann, 
 O. Yazyev, A. J. Austin, R. Cammi, C. Pomelli, J. W. Ochterski, 
 R. L. Martin, K. Morokuma, V. G. Zakrzewski, G. A. Voth, 
 P. Salvador, J. J. Dannenberg, S. Dapprich, A. D. Daniels, 
 O. Farkas, J. B. Foresman, J. V. Ortiz, J. Cioslowski, 
 and D. J. Fox, Gaussian, Inc., Wallingford CT, 2010.
 
 ******************************************
 Gaussian 09:  AM64L-G09RevC.01 23-Sep-2011
                16-Feb-2018 
 ******************************************
 %nprocs=4
 Will use up to    4 processors via shared memory.
 %chk=frag14-conf2.chk
 ---------------------------------------------------------
 #B3LYP/6-31G* Integral=(Grid=UltraFine) freq Opt pop=none
 ---------------------------------------------------------
 1/14=-1,18=20,19=15,26=3,38=1/1,3;
 2/9=110,12=2,17=6,18=5,40=1/2;
 3/5=1,6=6,7=1,11=2,16=1,25=1,30=1,71=1,74=-5,75=-5/1,2,3;
 4//1;
 5/5=2,38=5/2;
 7//1,2,3,16;
 1/14=-1,18=20,19=15/3(2);
 2/9=110/2;
 99//99;
 2/9=110/2;
 3/5=1,6=6,7=1,11=2,16=1,25=1,30=1,71=1,74=-5,75=-5/1,2,3;
 4/5=5,16=3/1;
 5/5=2,38=5/2;
 7//1,2,3,16;
 1/14=-1,18=20,19=15/3(-5);
 2/9=110/2;
 99/9=1/99;
 -----------------------------
 Optimization for frag14-conf2
 -----------------------------
 Charge =  1 Multiplicity = 1
 Symbolic Z-Matrix:
 C                     5.73543  -4.49466  -1.43493 
 C                     0.29877  -1.28991  -0.09031 
 C                    -0.06115  -2.53499  -0.896 
 C                     1.44787  -0.5167   -0.73045 
 C                     1.16119  -3.42309  -1.12923 
 C                     2.66372  -1.40986  -0.97777 
 C                     2.29271  -2.64557  -1.8133 
 C                     8.03912  -3.6926   -1.77242 
 C                     6.38809  -2.12967  -0.82485 
 C                     3.52421  -3.50425  -2.1827 
 C                     4.25082  -4.24224  -1.04663 
 N                     6.66877  -3.46921  -1.32749 
 N                     3.59479  -5.56334  -0.81822 
 O                     6.06714  -5.61979  -1.84318 
 H                    -0.5794   -0.64053  -0.00173 
 H                     0.5819   -1.5848    0.9277 
 H                    -0.83431  -3.10411  -0.36758 
 H                    -0.48721  -2.2366   -1.86173 
 H                     1.1123   -0.08683  -1.6823 
 H                     1.73236   0.32188  -0.08488 
 H                     1.49522  -3.80339  -0.15723 
 H                     0.87069  -4.28412  -1.74186 
 H                     3.43665  -0.8266   -1.49164 
 H                     3.07745  -1.71493  -0.00984 
 H                     1.89567  -2.27443  -2.76988 
 H                     8.27581  -2.96637  -2.55582 
 H                     8.18929  -4.69918  -2.16991 
 H                     8.71243  -3.54492  -0.92285 
 H                     7.15351  -1.85829  -0.09154 
 H                     5.41537  -2.05705  -0.34542 
 H                     6.42583  -1.43025  -1.66503 
 H                     3.21751  -4.23194  -2.94722 
 H                     4.23349  -2.84198  -2.69695 
 H                     4.1971   -3.72369  -0.08798 
 H                     2.59488  -5.51701  -0.64249 
 H                     4.03115  -6.04143  -0.02919 
 H                     3.75417  -6.16898  -1.62626 
 

 GradGradGradGradGradGradGradGradGradGradGradGradGradGradGradGradGradGrad
 Berny optimization.
 Initialization pass.
                           ----------------------------
                           !    Initial Parameters    !
                           ! (Angstroms and Degrees)  !
 --------------------------                            --------------------------
 ! Name  Definition              Value          Derivative Info.                !
 --------------------------------------------------------------------------------
 ! R1    R(1,11)                 1.5552         estimate D2E/DX2                !
 ! R2    R(1,12)                 1.3908         estimate D2E/DX2                !
 ! R3    R(1,14)                 1.242          estimate D2E/DX2                !
 ! R4    R(2,3)                  1.5261         estimate D2E/DX2                !
 ! R5    R(2,4)                  1.5258         estimate D2E/DX2                !
 ! R6    R(2,15)                 1.0958         estimate D2E/DX2                !
 ! R7    R(2,16)                 1.097          estimate D2E/DX2                !
 ! R8    R(3,5)                  1.5288         estimate D2E/DX2                !
 ! R9    R(3,17)                 1.0959         estimate D2E/DX2                !
 ! R10   R(3,18)                 1.0969         estimate D2E/DX2                !
 ! R11   R(4,6)                  1.5288         estimate D2E/DX2                !
 ! R12   R(4,19)                 1.097          estimate D2E/DX2                !
 ! R13   R(4,20)                 1.0959         estimate D2E/DX2                !
 ! R14   R(5,7)                  1.5339         estimate D2E/DX2                !
 ! R15   R(5,21)                 1.0959         estimate D2E/DX2                !
 ! R16   R(5,22)                 1.0959         estimate D2E/DX2                !
 ! R17   R(6,7)                  1.5371         estimate D2E/DX2                !
 ! R18   R(6,23)                 1.0962         estimate D2E/DX2                !
 ! R19   R(6,24)                 1.096          estimate D2E/DX2                !
 ! R20   R(7,10)                 1.5461         estimate D2E/DX2                !
 ! R21   R(7,25)                 1.1002         estimate D2E/DX2                !
 ! R22   R(8,12)                 1.458          estimate D2E/DX2                !
 ! R23   R(8,26)                 1.0941         estimate D2E/DX2                !
 ! R24   R(8,27)                 1.0926         estimate D2E/DX2                !
 ! R25   R(8,28)                 1.094          estimate D2E/DX2                !
 ! R26   R(9,12)                 1.458          estimate D2E/DX2                !
 ! R27   R(9,29)                 1.0942         estimate D2E/DX2                !
 ! R28   R(9,30)                 1.0869         estimate D2E/DX2                !
 ! R29   R(9,31)                 1.0938         estimate D2E/DX2                !
 ! R30   R(10,11)                1.5373         estimate D2E/DX2                !
 ! R31   R(10,32)                1.0991         estimate D2E/DX2                !
 ! R32   R(10,33)                1.0982         estimate D2E/DX2                !
 ! R33   R(11,13)                1.4926         estimate D2E/DX2                !
 ! R34   R(11,34)                1.0912         estimate D2E/DX2                !
 ! R35   R(13,35)                1.0163         estimate D2E/DX2                !
 ! R36   R(13,36)                1.0206         estimate D2E/DX2                !
 ! R37   R(13,37)                1.0223         estimate D2E/DX2                !
 ! A1    A(11,1,12)            120.1115         estimate D2E/DX2                !
 ! A2    A(11,1,14)            118.9508         estimate D2E/DX2                !
 ! A3    A(12,1,14)            120.9374         estimate D2E/DX2                !
 ! A4    A(3,2,4)              111.689          estimate D2E/DX2                !
 ! A5    A(3,2,15)             109.7045         estimate D2E/DX2                !
 ! A6    A(3,2,16)             109.3583         estimate D2E/DX2                !
 ! A7    A(4,2,15)             109.7041         estimate D2E/DX2                !
 ! A8    A(4,2,16)             109.34           estimate D2E/DX2                !
 ! A9    A(15,2,16)            106.9254         estimate D2E/DX2                !
 ! A10   A(2,3,5)              111.4647         estimate D2E/DX2                !
 ! A11   A(2,3,17)             109.6053         estimate D2E/DX2                !
 ! A12   A(2,3,18)             109.5415         estimate D2E/DX2                !
 ! A13   A(5,3,17)             109.631          estimate D2E/DX2                !
 ! A14   A(5,3,18)             109.5278         estimate D2E/DX2                !
 ! A15   A(17,3,18)            106.9638         estimate D2E/DX2                !
 ! A16   A(2,4,6)              111.763          estimate D2E/DX2                !
 ! A17   A(2,4,19)             109.4042         estimate D2E/DX2                !
 ! A18   A(2,4,20)             109.6417         estimate D2E/DX2                !
 ! A19   A(6,4,19)             109.3811         estimate D2E/DX2                !
 ! A20   A(6,4,20)             109.6271         estimate D2E/DX2                !
 ! A21   A(19,4,20)            106.9002         estimate D2E/DX2                !
 ! A22   A(3,5,7)              111.3076         estimate D2E/DX2                !
 ! A23   A(3,5,21)             108.0578         estimate D2E/DX2                !
 ! A24   A(3,5,22)             109.2536         estimate D2E/DX2                !
 ! A25   A(7,5,21)             110.2798         estimate D2E/DX2                !
 ! A26   A(7,5,22)             110.1506         estimate D2E/DX2                !
 ! A27   A(21,5,22)            107.6955         estimate D2E/DX2                !
 ! A28   A(4,6,7)              111.4472         estimate D2E/DX2                !
 ! A29   A(4,6,23)             109.0112         estimate D2E/DX2                !
 ! A30   A(4,6,24)             108.6617         estimate D2E/DX2                !
 ! A31   A(7,6,23)             110.0665         estimate D2E/DX2                !
 ! A32   A(7,6,24)             110.3286         estimate D2E/DX2                !
 ! A33   A(23,6,24)            107.2141         estimate D2E/DX2                !
 ! A34   A(5,7,6)              110.0682         estimate D2E/DX2                !
 ! A35   A(5,7,10)             114.3687         estimate D2E/DX2                !
 ! A36   A(5,7,25)             107.0093         estimate D2E/DX2                !
 ! A37   A(6,7,10)             112.5882         estimate D2E/DX2                !
 ! A38   A(6,7,25)             106.7698         estimate D2E/DX2                !
 ! A39   A(10,7,25)            105.49           estimate D2E/DX2                !
 ! A40   A(12,8,26)            108.6707         estimate D2E/DX2                !
 ! A41   A(12,8,27)            112.4177         estimate D2E/DX2                !
 ! A42   A(12,8,28)            108.7101         estimate D2E/DX2                !
 ! A43   A(26,8,27)            108.7405         estimate D2E/DX2                !
 ! A44   A(26,8,28)            109.4675         estimate D2E/DX2                !
 ! A45   A(27,8,28)            108.8008         estimate D2E/DX2                !
 ! A46   A(12,9,29)            108.9197         estimate D2E/DX2                !
 ! A47   A(12,9,30)            112.6894         estimate D2E/DX2                !
 ! A48   A(12,9,31)            108.4226         estimate D2E/DX2                !
 ! A49   A(29,9,30)            108.2915         estimate D2E/DX2                !
 ! A50   A(29,9,31)            109.3933         estimate D2E/DX2                !
 ! A51   A(30,9,31)            109.0847         estimate D2E/DX2                !
 ! A52   A(7,10,11)            117.8098         estimate D2E/DX2                !
 ! A53   A(7,10,32)            108.1573         estimate D2E/DX2                !
 ! A54   A(7,10,33)            106.9406         estimate D2E/DX2                !
 ! A55   A(11,10,32)           109.1534         estimate D2E/DX2                !
 ! A56   A(11,10,33)           109.2854         estimate D2E/DX2                !
 ! A57   A(32,10,33)           104.6997         estimate D2E/DX2                !
 ! A58   A(1,11,10)            110.1582         estimate D2E/DX2                !
 ! A59   A(1,11,13)            108.3079         estimate D2E/DX2                !
 ! A60   A(1,11,34)            110.0883         estimate D2E/DX2                !
 ! A61   A(10,11,13)           109.2839         estimate D2E/DX2                !
 ! A62   A(10,11,34)           113.443          estimate D2E/DX2                !
 ! A63   A(13,11,34)           105.3385         estimate D2E/DX2                !
 ! A64   A(1,12,8)             119.6181         estimate D2E/DX2                !
 ! A65   A(1,12,9)             125.09           estimate D2E/DX2                !
 ! A66   A(8,12,9)             115.2713         estimate D2E/DX2                !
 ! A67   A(11,13,35)           114.7431         estimate D2E/DX2                !
 ! A68   A(11,13,36)           110.1834         estimate D2E/DX2                !
 ! A69   A(11,13,37)           109.5653         estimate D2E/DX2                !
 ! A70   A(35,13,36)           107.9595         estimate D2E/DX2                !
 ! A71   A(35,13,37)           108.4851         estimate D2E/DX2                !
 ! A72   A(36,13,37)           105.4797         estimate D2E/DX2                !
 ! D1    D(12,1,11,10)          79.172          estimate D2E/DX2                !
 ! D2    D(12,1,11,13)        -161.3547         estimate D2E/DX2                !
 ! D3    D(12,1,11,34)         -46.6665         estimate D2E/DX2                !
 ! D4    D(14,1,11,10)        -100.6201         estimate D2E/DX2                !
 ! D5    D(14,1,11,13)          18.8532         estimate D2E/DX2                !
 ! D6    D(14,1,11,34)         133.5413         estimate D2E/DX2                !
 ! D7    D(11,1,12,8)         -176.2012         estimate D2E/DX2                !
 ! D8    D(11,1,12,9)            2.0624         estimate D2E/DX2                !
 ! D9    D(14,1,12,8)            3.5867         estimate D2E/DX2                !
 ! D10   D(14,1,12,9)         -178.1496         estimate D2E/DX2                !
 ! D11   D(4,2,3,5)             54.1054         estimate D2E/DX2                !
 ! D12   D(4,2,3,17)           175.6572         estimate D2E/DX2                !
 ! D13   D(4,2,3,18)           -67.273          estimate D2E/DX2                !
 ! D14   D(15,2,3,5)           175.9665         estimate D2E/DX2                !
 ! D15   D(15,2,3,17)          -62.4818         estimate D2E/DX2                !
 ! D16   D(15,2,3,18)           54.5881         estimate D2E/DX2                !
 ! D17   D(16,2,3,5)           -67.0591         estimate D2E/DX2                !
 ! D18   D(16,2,3,17)           54.4926         estimate D2E/DX2                !
 ! D19   D(16,2,3,18)          171.5625         estimate D2E/DX2                !
 ! D20   D(3,2,4,6)            -53.6487         estimate D2E/DX2                !
 ! D21   D(3,2,4,19)            67.6472         estimate D2E/DX2                !
 ! D22   D(3,2,4,20)          -175.4184         estimate D2E/DX2                !
 ! D23   D(15,2,4,6)          -175.51           estimate D2E/DX2                !
 ! D24   D(15,2,4,19)          -54.2141         estimate D2E/DX2                !
 ! D25   D(15,2,4,20)           62.7203         estimate D2E/DX2                !
 ! D26   D(16,2,4,6)            67.5265         estimate D2E/DX2                !
 ! D27   D(16,2,4,19)         -171.1775         estimate D2E/DX2                !
 ! D28   D(16,2,4,20)          -54.2431         estimate D2E/DX2                !
 ! D29   D(2,3,5,7)            -55.9818         estimate D2E/DX2                !
 ! D30   D(2,3,5,21)            65.2483         estimate D2E/DX2                !
 ! D31   D(2,3,5,22)          -177.8458         estimate D2E/DX2                !
 ! D32   D(17,3,5,7)          -177.5186         estimate D2E/DX2                !
 ! D33   D(17,3,5,21)          -56.2885         estimate D2E/DX2                !
 ! D34   D(17,3,5,22)           60.6174         estimate D2E/DX2                !
 ! D35   D(18,3,5,7)            65.4046         estimate D2E/DX2                !
 ! D36   D(18,3,5,21)         -173.3653         estimate D2E/DX2                !
 ! D37   D(18,3,5,22)          -56.4595         estimate D2E/DX2                !
 ! D38   D(2,4,6,7)             54.9294         estimate D2E/DX2                !
 ! D39   D(2,4,6,23)           176.6151         estimate D2E/DX2                !
 ! D40   D(2,4,6,24)           -66.8493         estimate D2E/DX2                !
 ! D41   D(19,4,6,7)           -66.3799         estimate D2E/DX2                !
 ! D42   D(19,4,6,23)           55.3058         estimate D2E/DX2                !
 ! D43   D(19,4,6,24)          171.8414         estimate D2E/DX2                !
 ! D44   D(20,4,6,7)           176.7075         estimate D2E/DX2                !
 ! D45   D(20,4,6,23)          -61.6069         estimate D2E/DX2                !
 ! D46   D(20,4,6,24)           54.9287         estimate D2E/DX2                !
 ! D47   D(3,5,7,6)             56.6057         estimate D2E/DX2                !
 ! D48   D(3,5,7,10)          -175.4855         estimate D2E/DX2                !
 ! D49   D(3,5,7,25)           -59.0514         estimate D2E/DX2                !
 ! D50   D(21,5,7,6)           -63.3169         estimate D2E/DX2                !
 ! D51   D(21,5,7,10)           64.5919         estimate D2E/DX2                !
 ! D52   D(21,5,7,25)         -178.974          estimate D2E/DX2                !
 ! D53   D(22,5,7,6)           177.9477         estimate D2E/DX2                !
 ! D54   D(22,5,7,10)          -54.1435         estimate D2E/DX2                !
 ! D55   D(22,5,7,25)           62.2906         estimate D2E/DX2                !
 ! D56   D(4,6,7,5)            -56.0569         estimate D2E/DX2                !
 ! D57   D(4,6,7,10)           175.0583         estimate D2E/DX2                !
 ! D58   D(4,6,7,25)            59.751          estimate D2E/DX2                !
 ! D59   D(23,6,7,5)          -177.1285         estimate D2E/DX2                !
 ! D60   D(23,6,7,10)           53.9868         estimate D2E/DX2                !
 ! D61   D(23,6,7,25)          -61.3205         estimate D2E/DX2                !
 ! D62   D(24,6,7,5)            64.751          estimate D2E/DX2                !
 ! D63   D(24,6,7,10)          -64.1338         estimate D2E/DX2                !
 ! D64   D(24,6,7,25)         -179.4411         estimate D2E/DX2                !
 ! D65   D(5,7,10,11)          -58.8528         estimate D2E/DX2                !
 ! D66   D(5,7,10,32)           65.436          estimate D2E/DX2                !
 ! D67   D(5,7,10,33)          177.7114         estimate D2E/DX2                !
 ! D68   D(6,7,10,11)           67.7624         estimate D2E/DX2                !
 ! D69   D(6,7,10,32)         -167.9488         estimate D2E/DX2                !
 ! D70   D(6,7,10,33)          -55.6734         estimate D2E/DX2                !
 ! D71   D(25,7,10,11)        -176.1609         estimate D2E/DX2                !
 ! D72   D(25,7,10,32)         -51.8721         estimate D2E/DX2                !
 ! D73   D(25,7,10,33)          60.4033         estimate D2E/DX2                !
 ! D74   D(26,8,12,1)          120.7463         estimate D2E/DX2                !
 ! D75   D(26,8,12,9)          -57.6826         estimate D2E/DX2                !
 ! D76   D(27,8,12,1)            0.3318         estimate D2E/DX2                !
 ! D77   D(27,8,12,9)         -178.0971         estimate D2E/DX2                !
 ! D78   D(28,8,12,1)         -120.1851         estimate D2E/DX2                !
 ! D79   D(28,8,12,9)           61.386          estimate D2E/DX2                !
 ! D80   D(29,9,12,1)          131.9768         estimate D2E/DX2                !
 ! D81   D(29,9,12,8)          -49.6925         estimate D2E/DX2                !
 ! D82   D(30,9,12,1)           11.7839         estimate D2E/DX2                !
 ! D83   D(30,9,12,8)         -169.8853         estimate D2E/DX2                !
 ! D84   D(31,9,12,1)         -109.0666         estimate D2E/DX2                !
 ! D85   D(31,9,12,8)           69.2642         estimate D2E/DX2                !
 ! D86   D(7,10,11,1)         -154.4963         estimate D2E/DX2                !
 ! D87   D(7,10,11,13)          86.6253         estimate D2E/DX2                !
 ! D88   D(7,10,11,34)         -30.5798         estimate D2E/DX2                !
 ! D89   D(32,10,11,1)          81.7127         estimate D2E/DX2                !
 ! D90   D(32,10,11,13)        -37.1656         estimate D2E/DX2                !
 ! D91   D(32,10,11,34)       -154.3707         estimate D2E/DX2                !
 ! D92   D(33,10,11,1)         -32.2489         estimate D2E/DX2                !
 ! D93   D(33,10,11,13)       -151.1273         estimate D2E/DX2                !
 ! D94   D(33,10,11,34)         91.6676         estimate D2E/DX2                !
 ! D95   D(1,11,13,35)        -174.5574         estimate D2E/DX2                !
 ! D96   D(1,11,13,36)          63.3602         estimate D2E/DX2                !
 ! D97   D(1,11,13,37)         -52.2616         estimate D2E/DX2                !
 ! D98   D(10,11,13,35)        -54.5357         estimate D2E/DX2                !
 ! D99   D(10,11,13,36)       -176.618          estimate D2E/DX2                !
 ! D100  D(10,11,13,37)         67.7602         estimate D2E/DX2                !
 ! D101  D(34,11,13,35)         67.6742         estimate D2E/DX2                !
 ! D102  D(34,11,13,36)        -54.4082         estimate D2E/DX2                !
 ! D103  D(34,11,13,37)       -170.03           estimate D2E/DX2                !
 --------------------------------------------------------------------------------
 Trust Radius=3.00D-01 FncErr=1.00D-07 GrdErr=1.00D-06
 Number of steps in this run=    222 maximum allowed number of steps=    222.
 GradGradGradGradGradGradGradGradGradGradGradGradGradGradGradGradGradGrad

                          Input orientation:                          
 ---------------------------------------------------------------------
 Center     Atomic      Atomic             Coordinates (Angstroms)
 Number     Number       Type             X           Y           Z
 ---------------------------------------------------------------------
      1          6           0        5.735433   -4.494658   -1.434933
      2          6           0        0.298767   -1.289907   -0.090311
      3          6           0       -0.061152   -2.534985   -0.896000
      4          6           0        1.447869   -0.516702   -0.730452
      5          6           0        1.161188   -3.423094   -1.129234
      6          6           0        2.663720   -1.409857   -0.977769
      7          6           0        2.292713   -2.645567   -1.813297
      8          6           0        8.039119   -3.692596   -1.772424
      9          6           0        6.388093   -2.129665   -0.824853
     10          6           0        3.524209   -3.504250   -2.182696
     11          6           0        4.250818   -4.242235   -1.046631
     12          7           0        6.668770   -3.469212   -1.327489
     13          7           0        3.594793   -5.563337   -0.818221
     14          8           0        6.067140   -5.619791   -1.843185
     15          1           0       -0.579405   -0.640529   -0.001727
     16          1           0        0.581903   -1.584801    0.927697
     17          1           0       -0.834305   -3.104114   -0.367579
     18          1           0       -0.487213   -2.236605   -1.861729
     19          1           0        1.112297   -0.086830   -1.682298
     20          1           0        1.732362    0.321876   -0.084877
     21          1           0        1.495216   -3.803390   -0.157235
     22          1           0        0.870692   -4.284117   -1.741857
     23          1           0        3.436646   -0.826604   -1.491639
     24          1           0        3.077446   -1.714931   -0.009841
     25          1           0        1.895670   -2.274432   -2.769875
     26          1           0        8.275811   -2.966367   -2.555816
     27          1           0        8.189286   -4.699175   -2.169912
     28          1           0        8.712427   -3.544922   -0.922851
     29          1           0        7.153509   -1.858287   -0.091536
     30          1           0        5.415372   -2.057050   -0.345418
     31          1           0        6.425827   -1.430247   -1.665028
     32          1           0        3.217505   -4.231937   -2.947218
     33          1           0        4.233486   -2.841979   -2.696948
     34          1           0        4.197102   -3.723689   -0.087976
     35          1           0        2.594882   -5.517012   -0.642495
     36          1           0        4.031149   -6.041434   -0.029192
     37          1           0        3.754172   -6.168983   -1.626262
 ---------------------------------------------------------------------
                    Distance matrix (angstroms):
                    1          2          3          4          5
     1  C    0.000000
     2  C    6.452578   0.000000
     3  C    6.142570   1.526072   0.000000
     4  C    5.890978   1.525799   2.525474   0.000000
     5  C    4.708016   2.524602   1.528807   2.947597   0.000000
     6  C    4.377261   2.528828   2.949157   1.528785   2.516678
     7  C    3.926145   2.963497   2.528704   2.533453   1.533897
     8  C    2.462554   8.277407   8.229373   7.390303   6.913194
     9  C    2.528112   6.190690   6.462361   5.197728   5.393157
    10  C    2.535659   4.436763   3.930633   3.917352   2.588482
    11  C    1.555177   5.024887   4.640095   4.672910   3.197441
    12  N    1.390756   6.845211   6.808143   6.027568   5.511342
    13  N    2.470779   5.445718   4.747936   5.485026   3.255733
    14  O    1.242024   7.422573   6.925976   6.972614   5.422505
    15  H    7.535619   1.095776   2.158072   2.157826   3.470389
    16  H    6.372452   1.097027   2.154585   2.154110   2.818839
    17  H    6.799582   2.156867   1.095856   3.469106   2.159597
    18  H    6.633421   2.156832   1.096901   2.825313   2.159058
    19  H    6.392458   2.154913   2.826431   1.097000   3.382148
    20  H    6.406732   2.157097   3.469333   1.095863   3.929595
    21  H    4.482165   2.784522   2.139370   3.336635   1.095893
    22  H    4.878958   3.466987   2.154825   3.943284   1.095927
    23  H    4.329232   3.467659   3.938014   2.151901   3.471428
    24  H    4.101544   2.812148   3.362821   2.147220   2.800518
    25  H    4.631981   3.271002   2.721847   2.729357   2.133212
    26  H    3.169475   8.516012   8.511524   7.480214   7.270598
    27  H    2.569712   8.843537   8.624170   8.062991   7.218418
    28  H    3.166500   8.750308   8.831556   7.872797   7.555041
    29  H    3.281174   6.878266   7.290845   5.895964   6.279598
    30  H    2.689129   5.180080   5.524842   4.273406   4.536356
    31  H    3.149635   6.327739   6.625160   5.146655   5.654638
    32  H    2.948896   5.033537   4.223356   4.674253   2.861422
    33  H    2.565126   4.968450   4.667074   4.127188   3.497776
    34  H    2.185211   4.595684   4.494291   4.272683   3.223562
    35  H    3.396502   4.842052   4.001408   5.130933   2.583967
    36  H    2.696889   6.042468   5.458339   6.139036   4.037632
    37  H    2.601032   6.172872   5.319390   6.170071   3.809266
                    6          7          8          9         10
     6  C    0.000000
     7  C    1.537118   0.000000
     8  C    5.893835   5.841157   0.000000
     9  C    3.796376   4.244446   2.463032   0.000000
    10  C    2.564912   1.546083   4.537423   3.454715   0.000000
    11  C    3.247459   2.640322   3.896165   3.013318   1.537279
    12  N    4.517043   4.479316   1.457986   1.458015   3.258968
    13  N    4.259548   3.346486   4.915507   4.426361   2.471156
    14  O    5.482313   4.805538   2.758222   3.649793   3.325248
    15  H    3.473094   3.943479   9.312864   7.172245   5.458678
    16  H    2.827608   3.400756   8.206309   6.089347   4.692120
    17  H    3.934338   3.475429   9.003197   7.302170   4.738291
    18  H    3.375392   2.810264   8.650215   6.953876   4.219177
    19  H    2.157237   2.820936   7.809643   5.722099   4.212657
    20  H    2.159533   3.479533   7.664136   5.313516   4.717075
    21  H    2.787055   2.172348   6.741200   5.214146   2.882497
    22  H    3.472772   2.170735   7.192856   5.993686   2.800658
    23  H    1.096204   2.172712   5.429135   3.294482   2.766770
    24  H    1.095958   2.175855   5.624594   3.434623   2.850010
    25  H    2.132846   1.100193   6.383420   4.897544   2.123528
    26  H    6.033948   6.037525   1.094137   2.694398   4.796484
    27  H    6.540084   6.254123   1.092588   3.414068   4.815699
    28  H    6.414700   6.543276   1.094041   2.723065   5.339145
    29  H    4.598338   5.216475   2.640904   1.094194   4.500440
    30  H    2.896605   3.500289   3.405203   1.086885   3.007736
    31  H    3.824420   4.310640   2.780732   1.093848   3.604005
    32  H    3.485620   2.158144   4.991892   4.356215   1.099131
    33  H    2.733261   2.141499   4.007634   2.941847   1.098240
    34  H    2.914929   2.786715   4.195167   2.807907   2.211061
    35  H    4.121391   3.115650   5.851918   5.088793   2.699459
    36  H    4.921500   4.211544   4.961826   4.635752   3.366285
    37  H    4.925333   3.819070   4.951225   4.888342   2.731904
                   11         12         13         14         15
    11  C    0.000000
    12  N    2.554004   0.000000
    13  N    1.492598   3.754204   0.000000
    14  O    2.414784   2.291919   2.676983   0.000000
    15  H    6.115158   7.892726   6.505738   8.506502   0.000000
    16  H    4.941746   6.759202   5.287199   7.351649   1.761850
    17  H    5.254989   7.573035   5.086036   7.492395   2.503612
    18  H    5.209210   7.280991   5.368317   7.376031   2.452665
    19  H    5.246120   6.514659   6.074664   7.428998   2.448011
    20  H    5.300821   6.347011   6.216283   7.562099   2.505475
    21  H    2.928643   5.314775   2.818251   5.200406   3.785752
    22  H    3.451136   5.869708   3.148052   5.366317   4.290288
    23  H    3.539413   4.178151   4.786977   5.478843   4.287555
    24  H    2.973046   4.208480   3.966277   5.248557   3.811425
    25  H    3.519735   5.127422   4.184837   5.426908   4.056881
    26  H    4.483977   2.084280   5.628092   3.525157   9.505143
    27  H    4.120933   2.129426   4.866540   2.336191   9.902705
    28  H    4.517469   2.084706   5.502284   3.485634   9.778656
    29  H    3.875697   2.087494   5.188441   4.289217   7.828726
    30  H    2.573503   2.128302   3.978957   3.919340   6.169441
    31  H    3.608373   2.080945   5.080774   4.208643   7.243168
    32  H    2.163347   3.887994   2.539212   3.356403   5.999221
    33  H    2.164385   2.863467   3.367986   3.436195   5.939235
    34  H    1.091236   2.776742   2.068898   3.189515   5.685801
    35  H    2.128498   4.610776   1.016291   3.675431   5.853782
    36  H    2.078594   3.906270   1.020564   2.759278   7.101248
    37  H    2.072434   3.984082   1.022320   2.387151   7.209910
                   16         17         18         19         20
    16  H    0.000000
    17  H    2.447794   0.000000
    18  H    3.057573   1.762251   0.000000
    19  H    3.055701   3.823839   2.685546   0.000000
    20  H    2.446279   4.290117   3.824858   1.761612   0.000000
    21  H    2.633125   2.441291   3.047973   4.035500   4.132710
    22  H    3.807390   2.487582   2.459793   4.204657   4.970234
    23  H    3.818064   4.969063   4.185898   2.446674   2.490496
    24  H    2.669015   4.166485   4.050731   3.051170   2.442020
    25  H    3.984170   3.729901   2.550352   2.565560   3.738542
    26  H    8.558026   9.370249   8.820709   7.769858   7.728829
    27  H    8.784462   9.339048   9.024460   8.461399   8.440983
    28  H    8.565747   9.573021   9.339516   8.384339   8.023443
    29  H    6.655797   8.089095   7.852219   6.493445   5.843115
    30  H    5.020583   6.336821   6.096880   4.917873   4.392235
    31  H    6.395119   7.562719   6.962688   5.480754   5.253134
    32  H    5.382257   4.933932   4.345639   4.818074   5.579952
    33  H    5.296470   5.583653   4.832088   4.285111   4.805051
    34  H    4.321584   5.077116   5.224981   5.028382   4.737251
    35  H    4.688269   4.202021   4.663359   5.724170   5.928532
    36  H    5.716161   5.693417   6.184700   6.834454   6.766035
    37  H    6.131942   5.659666   5.788643   6.631381   6.970999
                   21         22         23         24         25
    21  H    0.000000
    22  H    1.769790   0.000000
    23  H    3.796188   4.312903   0.000000
    24  H    2.624278   3.803992   1.764618   0.000000
    25  H    3.053517   2.479160   2.470769   3.054083   0.000000
    26  H    7.240875   7.565367   5.397089   5.922084   6.421121
    27  H    7.047260   7.342842   6.168018   6.300994   6.771184
    28  H    7.262307   7.918964   5.962100   5.994620   7.175919
    29  H    5.983646   6.934118   4.103624   4.079402   5.915365
    30  H    4.295665   5.250141   2.596763   2.386536   4.279433
    31  H    5.675928   6.245798   3.054447   3.745977   4.738739
    32  H    3.306651   2.638778   3.709856   3.870803   2.368655
    33  H    3.856498   3.781580   2.479810   3.134838   2.406826
    34  H    2.703948   3.756914   3.307819   2.301052   3.819623
    35  H    2.093142   2.387773   4.840407   3.884448   3.940681
    36  H    3.384700   4.001234   5.448545   4.430412   5.124638
    37  H    3.585659   3.446815   5.353500   4.786371   4.464236
                   26         27         28         29         30
    26  H    0.000000
    27  H    1.777367   0.000000
    28  H    1.786598   1.777959   0.000000
    29  H    2.925761   3.669213   2.442549   0.000000
    30  H    3.727577   4.243136   3.663027   1.767791   0.000000
    31  H    2.564295   3.748412   3.201752   1.785670   1.776308
    32  H    5.228893   5.053823   5.896119   5.411216   4.041054
    33  H    4.046700   4.401738   4.868517   4.035140   2.746390
    34  H    4.826970   4.606904   4.595338   3.495723   2.080419
    35  H    6.514564   5.856553   6.433668   5.871192   4.473785
    36  H    5.818679   4.865639   5.380108   5.220319   4.229821
    37  H    5.618367   4.703842   5.653740   5.700261   4.616074
                   31         32         33         34         35
    31  H    0.000000
    32  H    4.448236   0.000000
    33  H    2.804318   1.739781   0.000000
    34  H    3.565695   3.064832   2.754174   0.000000
    35  H    5.694151   2.711240   3.749880   2.467915   0.000000
    36  H    5.447337   3.528622   4.170657   2.324422   1.647428
    37  H    5.440115   2.405219   3.527756   2.922665   1.654332
                   36         37
    36  H    0.000000
    37  H    1.625921   0.000000
 Stoichiometry    C11H23N2O(1+)
 Framework group  C1[X(C11H23N2O)]
 Deg. of freedom   105
 Full point group                 C1      NOp   1
 Largest Abelian subgroup         C1      NOp   1
 Largest concise Abelian subgroup C1      NOp   1
                         Standard orientation:                         
 ---------------------------------------------------------------------
 Center     Atomic      Atomic             Coordinates (Angstroms)
 Number     Number       Type             X           Y           Z
 ---------------------------------------------------------------------
      1          6           0        2.361934    0.505975   -0.067301
      2          6           0       -3.974138   -0.590007   -0.604684
      3          6           0       -3.773665    0.761320    0.075480
      4          6           0       -3.109620   -1.674878    0.030710
      5          6           0       -2.297466    1.157561    0.108334
      6          6           0       -1.636040   -1.270448    0.077420
      7          6           0       -1.445772    0.078653    0.789079
      8          6           0        4.252794   -1.051698    0.182639
      9          6           0        2.057524   -1.975065   -0.445619
     10          6           0        0.044024    0.455275    0.959485
     11          6           0        0.850535    0.782512   -0.307670
     12          7           0        2.851253   -0.794533   -0.126018
     13          7           0        0.685162    2.228802   -0.637436
     14          8           0        3.116048    1.461385    0.179940
     15          1           0       -5.029694   -0.878798   -0.548762
     16          1           0       -3.722992   -0.502241   -1.668963
     17          1           0       -4.349135    1.528695   -0.454492
     18          1           0       -4.164621    0.718276    1.099439
     19          1           0       -3.464926   -1.874033    1.049290
     20          1           0       -3.217359   -2.608707   -0.532558
     21          1           0       -1.963507    1.309671   -0.924292
     22          1           0       -2.191086    2.111733    0.636817
     23          1           0       -1.067460   -2.052017    0.594652
     24          1           0       -1.254400   -1.216870   -0.948546
     25          1           0       -1.836699   -0.043202    1.810231
     26          1           0        4.303876   -1.748279    1.024841
     27          1           0        4.795135   -0.140828    0.447084
     28          1           0        4.727935   -1.503221   -0.693314
     29          1           0        2.587450   -2.565541   -1.199129
     30          1           0        1.074505   -1.726041   -0.836745
     31          1           0        1.940033   -2.569543    0.465037
     32          1           0        0.105350    1.303992    1.655192
     33          1           0        0.525523   -0.376308    1.491237
     34          1           0        0.506951    0.243650   -1.192190
     35          1           0       -0.279043    2.536705   -0.728814
     36          1           0        1.169706    2.449058   -1.508215
     37          1           0        1.140512    2.797680    0.079623
 ---------------------------------------------------------------------
 Rotational constants (GHZ):      1.2808356      0.3443852      0.2896901
 Standard basis: 6-31G(d) (6D, 7F)
 There are   256 symmetry adapted basis functions of A   symmetry.
 Integral buffers will be    131072 words long.
 Raffenetti 2 integral format.
 Two-electron integral symmetry is turned on.
   256 basis functions,   484 primitive gaussians,   256 cartesian basis functions
    55 alpha electrons       55 beta electrons
       nuclear repulsion energy       989.0430627375 Hartrees.
 NAtoms=   37 NActive=   37 NUniq=   37 SFac= 1.00D+00 NAtFMM=   60 NAOKFM=F Big=F
 One-electron integrals computed using PRISM.
 NBasis=   256 RedAO= T  NBF=   256
 NBsUse=   256 1.00D-06 NBFU=   256
 Harris functional with IExCor=  402 diagonalized for initial guess.
 ExpMin= 1.61D-01 ExpMax= 5.48D+03 ExpMxC= 8.25D+02 IAcc=3 IRadAn=         5 AccDes= 0.00D+00
 HarFok:  IExCor=  402 AccDes= 0.00D+00 IRadAn=         5 IDoV= 1
 ScaDFX=  1.000000  1.000000  1.000000  1.000000
 FoFCou: FMM=F IPFlag=           0 FMFlag=      100000 FMFlg1=           0
         NFxFlg=           0 DoJE=T BraDBF=F KetDBF=T FulRan=T
         Omega=  0.000000  0.000000  1.000000  0.000000  0.000000 ICntrl=     500 IOpCl=  0
         NMat0=    1 NMatS0=    1 NMatT0=    0 NMatD0=    1 NMtDS0=    0 NMtDT0=    0
         I1Cent=           4 NGrid=           0.
 Petite list used in FoFCou.
 Initial guess orbital symmetries:
       Occupied  (A) (A) (A) (A) (A) (A) (A) (A) (A) (A) (A) (A)
                 (A) (A) (A) (A) (A) (A) (A) (A) (A) (A) (A) (A)
                 (A) (A) (A) (A) (A) (A) (A) (A) (A) (A) (A) (A)
                 (A) (A) (A) (A) (A) (A) (A) (A) (A) (A) (A) (A)
                 (A) (A) (A) (A) (A) (A) (A)
       Virtual   (A) (A) (A) (A) (A) (A) (A) (A) (A) (A) (A) (A)
                 (A) (A) (A) (A) (A) (A) (A) (A) (A) (A) (A) (A)
                 (A) (A) (A) (A) (A) (A) (A) (A) (A) (A) (A) (A)
                 (A) (A) (A) (A) (A) (A) (A) (A) (A) (A) (A) (A)
                 (A) (A) (A) (A) (A) (A) (A) (A) (A) (A) (A) (A)
                 (A) (A) (A) (A) (A) (A) (A) (A) (A) (A) (A) (A)
                 (A) (A) (A) (A) (A) (A) (A) (A) (A) (A) (A) (A)
                 (A) (A) (A) (A) (A) (A) (A) (A) (A) (A) (A) (A)
                 (A) (A) (A) (A) (A) (A) (A) (A) (A) (A) (A) (A)
                 (A) (A) (A) (A) (A) (A) (A) (A) (A) (A) (A) (A)
                 (A) (A) (A) (A) (A) (A) (A) (A) (A) (A) (A) (A)
                 (A) (A) (A) (A) (A) (A) (A) (A) (A) (A) (A) (A)
                 (A) (A) (A) (A) (A) (A) (A) (A) (A) (A) (A) (A)
                 (A) (A) (A) (A) (A) (A) (A) (A) (A) (A) (A) (A)
                 (A) (A) (A) (A) (A) (A) (A) (A) (A) (A) (A) (A)
                 (A) (A) (A) (A) (A) (A) (A) (A) (A) (A) (A) (A)
                 (A) (A) (A) (A) (A) (A) (A) (A) (A)
 The electronic state of the initial guess is 1-A.
 Requested convergence on RMS density matrix=1.00D-08 within 128 cycles.
 Requested convergence on MAX density matrix=1.00D-06.
 Requested convergence on             energy=1.00D-06.
 No special actions if energy rises.
 Integral accuracy reduced to 1.0D-05 until final iterations.
 Initial convergence to 1.0D-05 achieved.  Increase integral accuracy.
 SCF Done:  E(RB3LYP) =  -617.537902256     A.U. after   14 cycles
             Convg  =    0.5836D-08             -V/T =  2.0097
 Calling FoFJK, ICntrl=      2127 FMM=F ISym2X=0 I1Cent= 0 IOpClX= 0 NMat=1 NMatS=1 NMatT=0.
 ***** Axes restored to original set *****
 -------------------------------------------------------------------
 Center     Atomic                   Forces (Hartrees/Bohr)
 Number     Number              X              Y              Z
 -------------------------------------------------------------------
      1        6           0.036232236   -0.004718387   -0.002050623
      2        6          -0.002750241    0.002555314    0.001262017
      3        6          -0.005780409   -0.001282348    0.003487475
      4        6          -0.000721123    0.004165078    0.002610780
      5        6          -0.001380308   -0.000590704   -0.006323431
      6        6           0.000227020    0.002902149   -0.004243751
      7        6           0.003171710    0.000458436    0.002729288
      8        6           0.004054048   -0.001191046   -0.002115086
      9        6           0.003588704   -0.001878703   -0.004055638
     10        6          -0.007564103    0.009174548   -0.007339405
     11        6           0.009622252    0.020560113   -0.005106179
     12        7          -0.035427762   -0.023335071    0.003957267
     13        7           0.012363697   -0.014122767    0.001509849
     14        8          -0.019833085    0.008924092    0.006101532
     15        1          -0.000132427   -0.000391616    0.001407021
     16        1          -0.000184292   -0.000215564    0.002138805
     17        1          -0.001104900   -0.000556890   -0.001459117
     18        1           0.000095926   -0.000982665   -0.001263821
     19        1           0.000444612    0.000689307   -0.001103929
     20        1           0.000337248    0.001092580   -0.001227999
     21        1           0.001889155   -0.001150501    0.005826017
     22        1          -0.000665020   -0.003437807   -0.001746359
     23        1           0.002013693   -0.000698928   -0.000222869
     24        1           0.001588072   -0.001336412    0.003272243
     25        1           0.000934104   -0.001361609   -0.000214358
     26        1           0.002439172    0.001115512   -0.000214180
     27        1          -0.005777447    0.001733244    0.002260981
     28        1           0.002139537    0.000944455   -0.000327154
     29        1           0.000045980    0.001710376    0.000001241
     30        1          -0.001224198   -0.000387252    0.000068150
     31        1          -0.000081909    0.005544575    0.001665866
     32        1           0.002944817   -0.002926104    0.000625207
     33        1           0.001473032   -0.002911094    0.002771384
     34        1          -0.002921706    0.002526990   -0.000697027
     35        1          -0.008749297    0.007778470    0.000356193
     36        1           0.002749128   -0.004728701    0.004011816
     37        1           0.005944085   -0.003671071   -0.006352207
 -------------------------------------------------------------------
 Cartesian Forces:  Max     0.036232236 RMS     0.007036339

 GradGradGradGradGradGradGradGradGradGradGradGradGradGradGradGradGradGrad
 Berny optimization.
 Internal  Forces:  Max     0.031811343 RMS     0.004543466
 Search for a local minimum.
 Step number   1 out of a maximum of  222
 All quantities printed in internal units (Hartrees-Bohrs-Radians)
 Mixed Optimization -- RFO/linear search
 Second derivative matrix not updated -- first step.
 ITU=  0
     Eigenvalues ---    0.00230   0.00230   0.00273   0.00467   0.00542
     Eigenvalues ---    0.00565   0.00664   0.00879   0.00924   0.00925
     Eigenvalues ---    0.01172   0.01814   0.01864   0.01912   0.02934
     Eigenvalues ---    0.03275   0.03755   0.03975   0.04188   0.04390
     Eigenvalues ---    0.04500   0.04511   0.04611   0.04806   0.04872
     Eigenvalues ---    0.04914   0.05141   0.05505   0.05600   0.05707
     Eigenvalues ---    0.05823   0.06043   0.06489   0.07292   0.07326
     Eigenvalues ---    0.07730   0.07730   0.08076   0.08108   0.08150
     Eigenvalues ---    0.08197   0.08200   0.08260   0.08673   0.09202
     Eigenvalues ---    0.12075   0.12101   0.12817   0.14292   0.16000
     Eigenvalues ---    0.16000   0.16000   0.16000   0.16000   0.16000
     Eigenvalues ---    0.16000   0.16000   0.16000   0.16010   0.16029
     Eigenvalues ---    0.17323   0.17631   0.21028   0.21948   0.24988
     Eigenvalues ---    0.24994   0.25000   0.25000   0.27216   0.27606
     Eigenvalues ---    0.27797   0.27987   0.28195   0.28761   0.29419
     Eigenvalues ---    0.29527   0.29535   0.33166   0.33661   0.33778
     Eigenvalues ---    0.33877   0.34013   0.34016   0.34027   0.34105
     Eigenvalues ---    0.34133   0.34137   0.34140   0.34144   0.34145
     Eigenvalues ---    0.34154   0.34332   0.34339   0.34350   0.34372
     Eigenvalues ---    0.34515   0.34670   0.35175   0.37214   0.37218
     Eigenvalues ---    0.43970   0.44248   0.44935   0.47187   0.86255
 RFO step:  Lambda=-1.83952984D-02 EMin= 2.30000000D-03
 Linear search not attempted -- first point.
 Iteration  1 RMS(Cart)=  0.13666257 RMS(Int)=  0.00356366
 Iteration  2 RMS(Cart)=  0.00757792 RMS(Int)=  0.00038363
 Iteration  3 RMS(Cart)=  0.00001537 RMS(Int)=  0.00038353
 Iteration  4 RMS(Cart)=  0.00000000 RMS(Int)=  0.00038353
 Variable       Old X    -DE/DX   Delta X   Delta X   Delta X     New X
                                 (Linear)    (Quad)   (Total)
    R1        2.93886  -0.01267   0.00000  -0.04359  -0.04359   2.89527
    R2        2.62815  -0.03181   0.00000  -0.06489  -0.06489   2.56326
    R3        2.34709  -0.01539   0.00000  -0.01747  -0.01747   2.32962
    R4        2.88386   0.00590   0.00000   0.01935   0.01936   2.90322
    R5        2.88334   0.00660   0.00000   0.02057   0.02057   2.90392
    R6        2.07072  -0.00001   0.00000  -0.00003  -0.00003   2.07068
    R7        2.07308   0.00199   0.00000   0.00556   0.00556   2.07864
    R8        2.88903   0.00566   0.00000   0.01804   0.01803   2.90706
    R9        2.07087   0.00036   0.00000   0.00101   0.00101   2.07188
   R10        2.07284   0.00081   0.00000   0.00225   0.00225   2.07510
   R11        2.88899   0.00602   0.00000   0.01920   0.01920   2.90819
   R12        2.07303   0.00109   0.00000   0.00305   0.00305   2.07608
   R13        2.07088   0.00020   0.00000   0.00056   0.00056   2.07144
   R14        2.89864   0.00535   0.00000   0.01761   0.01761   2.91626
   R15        2.07094   0.00614   0.00000   0.01707   0.01707   2.08801
   R16        2.07100   0.00385   0.00000   0.01071   0.01071   2.08171
   R17        2.90473   0.00347   0.00000   0.01062   0.01061   2.91534
   R18        2.07153   0.00115   0.00000   0.00321   0.00321   2.07473
   R19        2.07106   0.00386   0.00000   0.01073   0.01073   2.08180
   R20        2.92167   0.00271   0.00000   0.00907   0.00907   2.93074
   R21        2.07906  -0.00061   0.00000  -0.00172  -0.00172   2.07735
   R22        2.75519   0.00241   0.00000   0.00616   0.00616   2.76135
   R23        2.06762   0.00142   0.00000   0.00393   0.00393   2.07155
   R24        2.06469  -0.00321   0.00000  -0.00884  -0.00884   2.05585
   R25        2.06744   0.00119   0.00000   0.00329   0.00329   2.07073
   R26        2.75525   0.00333   0.00000   0.00854   0.00854   2.76379
   R27        2.06773   0.00046   0.00000   0.00126   0.00126   2.06899
   R28        2.05391   0.00110   0.00000   0.00297   0.00297   2.05689
   R29        2.06707   0.00226   0.00000   0.00625   0.00625   2.07332
   R30        2.90504   0.00325   0.00000   0.01062   0.01062   2.91566
   R31        2.07706   0.00068   0.00000   0.00191   0.00191   2.07897
   R32        2.07537  -0.00210   0.00000  -0.00588  -0.00588   2.06949
   R33        2.82060   0.00757   0.00000   0.02162   0.02162   2.84222
   R34        2.06214   0.00073   0.00000   0.00201   0.00201   2.06414
   R35        1.92051   0.00902   0.00000   0.01929   0.01929   1.93980
   R36        1.92859   0.00649   0.00000   0.01409   0.01409   1.94267
   R37        1.93191   0.00812   0.00000   0.01773   0.01773   1.94964
    A1        2.09634  -0.00188   0.00000  -0.00703  -0.00708   2.08926
    A2        2.07608  -0.01845   0.00000  -0.06875  -0.06879   2.00729
    A3        2.11076   0.02033   0.00000   0.07572   0.07565   2.18641
    A4        1.94934  -0.00017   0.00000   0.00128   0.00127   1.95061
    A5        1.91470   0.00010   0.00000   0.00135   0.00133   1.91604
    A6        1.90866   0.00003   0.00000  -0.00057  -0.00057   1.90809
    A7        1.91470   0.00056   0.00000   0.00516   0.00515   1.91985
    A8        1.90834   0.00009   0.00000   0.00081   0.00081   1.90915
    A9        1.86620  -0.00063   0.00000  -0.00847  -0.00847   1.85773
   A10        1.94543  -0.00046   0.00000  -0.00013  -0.00017   1.94526
   A11        1.91297   0.00094   0.00000   0.01153   0.01149   1.92447
   A12        1.91186   0.00079   0.00000   0.00400   0.00398   1.91584
   A13        1.91342   0.00035   0.00000   0.00380   0.00375   1.91718
   A14        1.91162  -0.00106   0.00000  -0.01270  -0.01269   1.89893
   A15        1.86687  -0.00056   0.00000  -0.00678  -0.00681   1.86006
   A16        1.95063  -0.00018   0.00000   0.00258   0.00260   1.95323
   A17        1.90946   0.00066   0.00000   0.00238   0.00237   1.91184
   A18        1.91361   0.00055   0.00000   0.00828   0.00826   1.92187
   A19        1.90906  -0.00054   0.00000  -0.00699  -0.00700   1.90206
   A20        1.91335   0.00001   0.00000   0.00039   0.00034   1.91369
   A21        1.86576  -0.00052   0.00000  -0.00711  -0.00712   1.85864
   A22        1.94268   0.00147   0.00000   0.00922   0.00920   1.95189
   A23        1.88596  -0.00075   0.00000  -0.00943  -0.00942   1.87655
   A24        1.90683  -0.00018   0.00000   0.00453   0.00449   1.91133
   A25        1.92475  -0.00069   0.00000  -0.00740  -0.00737   1.91737
   A26        1.92249  -0.00023   0.00000   0.00209   0.00202   1.92451
   A27        1.87964   0.00034   0.00000   0.00058   0.00060   1.88024
   A28        1.94512   0.00092   0.00000   0.00358   0.00354   1.94865
   A29        1.90260   0.00132   0.00000   0.01338   0.01337   1.91598
   A30        1.89650  -0.00073   0.00000  -0.00274  -0.00270   1.89380
   A31        1.92102  -0.00118   0.00000  -0.00444  -0.00449   1.91654
   A32        1.92560  -0.00018   0.00000  -0.00507  -0.00508   1.92052
   A33        1.87124  -0.00016   0.00000  -0.00480  -0.00483   1.86641
   A34        1.92105  -0.00035   0.00000   0.00262   0.00259   1.92364
   A35        1.99611  -0.00127   0.00000  -0.00627  -0.00641   1.98970
   A36        1.86767   0.00039   0.00000  -0.00220  -0.00228   1.86539
   A37        1.96504   0.00235   0.00000   0.01757   0.01762   1.98265
   A38        1.86349  -0.00014   0.00000   0.00125   0.00132   1.86480
   A39        1.84115  -0.00104   0.00000  -0.01438  -0.01443   1.82672
   A40        1.89666   0.00383   0.00000   0.02272   0.02264   1.91931
   A41        1.96206  -0.00929   0.00000  -0.05408  -0.05392   1.90814
   A42        1.89735   0.00348   0.00000   0.02020   0.02009   1.91744
   A43        1.89788   0.00224   0.00000   0.01107   0.01126   1.90914
   A44        1.91057  -0.00242   0.00000  -0.00929  -0.00963   1.90094
   A45        1.89893   0.00219   0.00000   0.00973   0.00986   1.90879
   A46        1.90101   0.00110   0.00000   0.00474   0.00459   1.90560
   A47        1.96680  -0.00250   0.00000  -0.01480  -0.01479   1.95201
   A48        1.89233   0.00772   0.00000   0.04544   0.04534   1.93767
   A49        1.89004  -0.00032   0.00000  -0.00585  -0.00588   1.88416
   A50        1.90927  -0.00382   0.00000  -0.01983  -0.02009   1.88918
   A51        1.90389  -0.00233   0.00000  -0.01050  -0.01046   1.89343
   A52        2.05617  -0.00224   0.00000  -0.01024  -0.01021   2.04596
   A53        1.88770   0.00244   0.00000   0.01383   0.01343   1.90113
   A54        1.86647   0.00396   0.00000   0.03641   0.03630   1.90277
   A55        1.90509  -0.00196   0.00000  -0.02714  -0.02719   1.87790
   A56        1.90739  -0.00185   0.00000  -0.01447  -0.01443   1.89296
   A57        1.82735   0.00000   0.00000   0.00453   0.00385   1.83120
   A58        1.92262   0.01093   0.00000   0.05177   0.04958   1.97220
   A59        1.89033  -0.02096   0.00000  -0.13715  -0.13597   1.75436
   A60        1.92140   0.00488   0.00000   0.05402   0.05327   1.97467
   A61        1.90736   0.00612   0.00000   0.01064   0.01144   1.91881
   A62        1.97995  -0.00709   0.00000  -0.01370  -0.01582   1.96413
   A63        1.83850   0.00478   0.00000   0.02453   0.02578   1.86428
   A64        2.08773  -0.00521   0.00000  -0.01946  -0.01946   2.06827
   A65        2.18323   0.00499   0.00000   0.01856   0.01855   2.20178
   A66        2.01186   0.00022   0.00000   0.00080   0.00079   2.01266
   A67        2.00264  -0.00919   0.00000  -0.05107  -0.05123   1.95141
   A68        1.92306   0.00430   0.00000   0.02621   0.02650   1.94956
   A69        1.91227  -0.00298   0.00000  -0.01924  -0.01956   1.89272
   A70        1.88425   0.00319   0.00000   0.02218   0.02256   1.90681
   A71        1.89342   0.00620   0.00000   0.03117   0.03042   1.92384
   A72        1.84097  -0.00075   0.00000  -0.00507  -0.00491   1.83606
    D1        1.38181   0.00013   0.00000   0.02334   0.02518   1.40699
    D2       -2.81617   0.00124   0.00000  -0.01677  -0.01617  -2.83234
    D3       -0.81448  -0.00210   0.00000  -0.03489  -0.03629  -0.85077
    D4       -1.75615   0.00062   0.00000   0.04217   0.04332  -1.71284
    D5        0.32905   0.00172   0.00000   0.00206   0.00196   0.33101
    D6        2.33074  -0.00161   0.00000  -0.01606  -0.01815   2.31258
    D7       -3.07529   0.00025   0.00000   0.00921   0.00968  -3.06561
    D8        0.03600   0.00012   0.00000   0.00464   0.00511   0.04111
    D9        0.06260  -0.00032   0.00000  -0.01031  -0.01077   0.05183
   D10       -3.10930  -0.00046   0.00000  -0.01488  -0.01535  -3.12464
   D11        0.94432  -0.00085   0.00000  -0.00949  -0.00950   0.93482
   D12        3.06580  -0.00008   0.00000   0.00306   0.00307   3.06886
   D13       -1.17413   0.00025   0.00000   0.00388   0.00389  -1.17024
   D14        3.07119  -0.00019   0.00000  -0.00116  -0.00117   3.07002
   D15       -1.09051   0.00058   0.00000   0.01139   0.01139  -1.07912
   D16        0.95274   0.00091   0.00000   0.01221   0.01222   0.96496
   D17       -1.17040  -0.00088   0.00000  -0.01095  -0.01096  -1.18136
   D18        0.95108  -0.00010   0.00000   0.00160   0.00160   0.95268
   D19        2.99433   0.00022   0.00000   0.00242   0.00243   2.99676
   D20       -0.93635   0.00032   0.00000   0.00380   0.00381  -0.93253
   D21        1.18067  -0.00003   0.00000  -0.00170  -0.00169   1.17897
   D22       -3.06163   0.00004   0.00000  -0.00413  -0.00414  -3.06577
   D23       -3.06323  -0.00008   0.00000  -0.00234  -0.00233  -3.06556
   D24       -0.94621  -0.00043   0.00000  -0.00783  -0.00783  -0.95405
   D25        1.09468  -0.00036   0.00000  -0.01027  -0.01028   1.08439
   D26        1.17856   0.00031   0.00000   0.00446   0.00448   1.18304
   D27       -2.98761  -0.00004   0.00000  -0.00103  -0.00103  -2.98864
   D28       -0.94672   0.00003   0.00000  -0.00347  -0.00348  -0.95020
   D29       -0.97707   0.00071   0.00000   0.01200   0.01201  -0.96506
   D30        1.13880   0.00027   0.00000   0.00238   0.00236   1.14116
   D31       -3.10399   0.00016   0.00000   0.00028   0.00024  -3.10375
   D32       -3.09828  -0.00041   0.00000  -0.00504  -0.00501  -3.10329
   D33       -0.98242  -0.00085   0.00000  -0.01466  -0.01466  -0.99708
   D34        1.05797  -0.00096   0.00000  -0.01676  -0.01677   1.04120
   D35        1.14153   0.00069   0.00000   0.00835   0.00837   1.14990
   D36       -3.02580   0.00025   0.00000  -0.00127  -0.00127  -3.02707
   D37       -0.98540   0.00014   0.00000  -0.00337  -0.00339  -0.98880
   D38        0.95870   0.00010   0.00000  -0.00427  -0.00430   0.95440
   D39        3.08251   0.00011   0.00000   0.00151   0.00151   3.08403
   D40       -1.16674   0.00024   0.00000   0.00162   0.00160  -1.16514
   D41       -1.15855  -0.00024   0.00000  -0.00420  -0.00422  -1.16276
   D42        0.96527  -0.00024   0.00000   0.00158   0.00160   0.96687
   D43        2.99920  -0.00011   0.00000   0.00169   0.00169   3.00089
   D44        3.08413   0.00069   0.00000   0.00820   0.00818   3.09230
   D45       -1.07524   0.00070   0.00000   0.01398   0.01399  -1.06125
   D46        0.95869   0.00083   0.00000   0.01409   0.01408   0.97277
   D47        0.98796  -0.00082   0.00000  -0.01205  -0.01207   0.97589
   D48       -3.06280   0.00106   0.00000   0.00910   0.00906  -3.05374
   D49       -1.03064  -0.00069   0.00000  -0.01366  -0.01370  -1.04434
   D50       -1.10509  -0.00037   0.00000  -0.00132  -0.00131  -1.10640
   D51        1.12734   0.00151   0.00000   0.01983   0.01982   1.14716
   D52       -3.12369  -0.00025   0.00000  -0.00293  -0.00294  -3.12663
   D53        3.10577  -0.00022   0.00000   0.00125   0.00127   3.10704
   D54       -0.94498   0.00166   0.00000   0.02241   0.02240  -0.92258
   D55        1.08718  -0.00009   0.00000  -0.00036  -0.00036   1.08682
   D56       -0.97838   0.00076   0.00000   0.01108   0.01110  -0.96728
   D57        3.05534   0.00088   0.00000   0.00324   0.00319   3.05854
   D58        1.04285   0.00097   0.00000   0.01051   0.01046   1.05331
   D59       -3.09148  -0.00071   0.00000  -0.00517  -0.00511  -3.09659
   D60        0.94225  -0.00060   0.00000  -0.01301  -0.01302   0.92923
   D61       -1.07024  -0.00051   0.00000  -0.00574  -0.00575  -1.07599
   D62        1.13012   0.00033   0.00000   0.00657   0.00659   1.13671
   D63       -1.11935   0.00044   0.00000  -0.00128  -0.00132  -1.12066
   D64       -3.13184   0.00053   0.00000   0.00599   0.00595  -3.12589
   D65       -1.02718   0.00010   0.00000   0.00554   0.00563  -1.02155
   D66        1.14207  -0.00216   0.00000  -0.02721  -0.02737   1.11470
   D67        3.10165   0.00087   0.00000   0.00185   0.00205   3.10370
   D68        1.18268   0.00058   0.00000   0.01917   0.01923   1.20191
   D69       -2.93126  -0.00168   0.00000  -0.01359  -0.01377  -2.94502
   D70       -0.97168   0.00135   0.00000   0.01548   0.01566  -0.95603
   D71       -3.07459   0.00100   0.00000   0.02105   0.02103  -3.05356
   D72       -0.90534  -0.00126   0.00000  -0.01171  -0.01197  -0.91731
   D73        1.05424   0.00177   0.00000   0.01736   0.01745   1.07169
   D74        2.10742  -0.00057   0.00000  -0.00677  -0.00696   2.10046
   D75       -1.00675  -0.00054   0.00000  -0.00299  -0.00323  -1.00998
   D76        0.00579  -0.00008   0.00000  -0.00174  -0.00169   0.00411
   D77       -3.10838  -0.00005   0.00000   0.00205   0.00205  -3.10633
   D78       -2.09763   0.00072   0.00000   0.00674   0.00696  -2.09067
   D79        1.07139   0.00075   0.00000   0.01053   0.01069   1.08208
   D80        2.30343  -0.00068   0.00000  -0.01137  -0.01144   2.29199
   D81       -0.86730  -0.00090   0.00000  -0.01610  -0.01621  -0.88351
   D82        0.20567   0.00058   0.00000   0.00221   0.00220   0.20787
   D83       -2.96506   0.00035   0.00000  -0.00251  -0.00257  -2.96763
   D84       -1.90357  -0.00019   0.00000  -0.00631  -0.00616  -1.90974
   D85        1.20889  -0.00041   0.00000  -0.01104  -0.01094   1.19795
   D86       -2.69647  -0.01012   0.00000  -0.14111  -0.14101  -2.83748
   D87        1.51190   0.00521   0.00000  -0.01098  -0.01053   1.50137
   D88       -0.53372  -0.00049   0.00000  -0.04035  -0.04061  -0.57433
   D89        1.42616  -0.01003   0.00000  -0.12860  -0.12862   1.29753
   D90       -0.64866   0.00530   0.00000   0.00153   0.00185  -0.64681
   D91       -2.69428  -0.00041   0.00000  -0.02784  -0.02822  -2.72250
   D92       -0.56285  -0.00798   0.00000  -0.11165  -0.11171  -0.67456
   D93       -2.63767   0.00734   0.00000   0.01848   0.01876  -2.61891
   D94        1.59990   0.00164   0.00000  -0.01089  -0.01132   1.58858
   D95       -3.04660  -0.00102   0.00000   0.03907   0.03840  -3.00820
   D96        1.10584  -0.00190   0.00000   0.02647   0.02615   1.13200
   D97       -0.91214  -0.00173   0.00000   0.02878   0.02865  -0.88349
   D98       -0.95183   0.00330   0.00000   0.02628   0.02660  -0.92523
   D99       -3.08257   0.00241   0.00000   0.01369   0.01436  -3.06821
   D100       1.18264   0.00259   0.00000   0.01599   0.01685   1.19949
   D101       1.18114   0.00099   0.00000   0.03014   0.02960   1.21074
   D102      -0.94960   0.00011   0.00000   0.01755   0.01736  -0.93224
   D103      -2.96758   0.00028   0.00000   0.01985   0.01985  -2.94773
         Item               Value     Threshold  Converged?
 Maximum Force            0.031811     0.000450     NO 
 RMS     Force            0.004543     0.000300     NO 
 Maximum Displacement     0.539040     0.001800     NO 
 RMS     Displacement     0.137381     0.001200     NO 
 Predicted change in Energy=-1.047846D-02
 GradGradGradGradGradGradGradGradGradGradGradGradGradGradGradGradGradGrad

                          Input orientation:                          
 ---------------------------------------------------------------------
 Center     Atomic      Atomic             Coordinates (Angstroms)
 Number     Number       Type             X           Y           Z
 ---------------------------------------------------------------------
      1          6           0        5.734669   -4.473072   -1.403741
      2          6           0        0.163789   -1.354348   -0.078875
      3          6           0       -0.109316   -2.621975   -0.902769
      4          6           0        1.276120   -0.497577   -0.703428
      5          6           0        1.179843   -3.426879   -1.140929
      6          6           0        2.558033   -1.312289   -0.951014
      7          6           0        2.278660   -2.568363   -1.802041
      8          6           0        8.060123   -3.909374   -1.779672
      9          6           0        6.567097   -2.159939   -0.878367
     10          6           0        3.557754   -3.360831   -2.177741
     11          6           0        4.297707   -4.088992   -1.036341
     12          7           0        6.718573   -3.542145   -1.331758
     13          7           0        3.695980   -5.450579   -0.821536
     14          8           0        5.884137   -5.639755   -1.772877
     15          1           0       -0.756067   -0.765907    0.012167
     16          1           0        0.453161   -1.639829    0.943231
     17          1           0       -0.852489   -3.250286   -0.397797
     18          1           0       -0.539838   -2.347500   -1.874944
     19          1           0        0.927097   -0.081575   -1.658455
     20          1           0        1.502124    0.357341   -0.055663
     21          1           0        1.529613   -3.792922   -0.158821
     22          1           0        0.954706   -4.305763   -1.765740
     23          1           0        3.307097   -0.683706   -1.450185
     24          1           0        2.981211   -1.603156    0.023627
     25          1           0        1.875541   -2.218787   -2.763143
     26          1           0        8.374612   -3.251614   -2.598291
     27          1           0        8.054200   -4.940397   -2.126814
     28          1           0        8.769808   -3.809128   -0.950797
     29          1           0        7.351272   -1.932620   -0.148901
     30          1           0        5.604256   -1.994366   -0.398512
     31          1           0        6.663494   -1.458134   -1.716178
     32          1           0        3.301426   -4.111519   -2.940025
     33          1           0        4.263385   -2.685544   -2.673093
     34          1           0        4.225328   -3.557816   -0.084644
     35          1           0        2.679922   -5.401107   -0.684125
     36          1           0        4.123264   -5.932948   -0.020555
     37          1           0        3.917026   -6.038013   -1.640359
 ---------------------------------------------------------------------
                    Distance matrix (angstroms):
                    1          2          3          4          5
     1  C    0.000000
     2  C    6.520462   0.000000
     3  C    6.150585   1.536317   0.000000
     4  C    6.014455   1.536686   2.544060   0.000000
     5  C    4.680816   2.540809   1.538350   2.963357   0.000000
     6  C    4.504057   2.548490   2.971929   1.538947   2.531198
     7  C    3.966177   2.985936   2.552253   2.549547   1.543217
     8  C    2.422151   8.471892   8.316615   7.669508   6.926691
     9  C    2.513870   6.503116   6.692426   5.548738   5.540450
    10  C    2.564198   4.466566   3.952071   3.946857   2.594957
    11  C    1.532110   5.048197   4.646701   4.705219   3.189108
    12  N    1.356420   7.022918   6.902958   6.267735   5.543216
    13  N    2.334680   5.459582   4.742139   5.513793   3.244738
    14  O    1.232782   7.345526   6.766504   6.987099   5.237038
    15  H    7.607728   1.095758   2.168037   2.171143   3.486853
    16  H    6.436605   1.099971   2.165343   2.166446   2.839954
    17  H    6.774791   2.174653   1.096393   3.493107   2.171130
    18  H    6.641500   2.169634   1.098094   2.844709   2.158967
    19  H    6.516354   2.167409   2.845848   1.098613   3.394521
    20  H    6.562365   2.172914   3.491512   1.096157   3.949934
    21  H    4.437896   2.796161   2.147246   3.349651   1.104927
    22  H    4.796569   3.490260   2.170715   3.966622   1.101595
    23  H    4.500507   3.494373   3.965909   2.171902   3.485089
    24  H    4.225557   2.830244   3.383425   2.158299   2.815508
    25  H    4.671471   3.298886   2.750129   2.750327   2.138939
    26  H    3.144552   8.795720   8.674577   7.846262   7.342978
    27  H    2.474157   8.905750   8.574168   8.228430   7.107707
    28  H    3.139753   8.991649   8.958263   8.196519   7.601963
    29  H    3.262197   7.211048   7.530200   6.266923   6.426777
    30  H    2.677961   5.487301   5.770015   4.589784   4.709427
    31  H    3.170203   6.703558   6.920052   5.565261   5.854681
    32  H    2.900269   5.062899   4.242913   4.707952   2.864715
    33  H    2.640301   5.030779   4.717902   4.194107   3.522121
    34  H    2.203593   4.620759   4.509354   4.294857   3.226123
    35  H    3.272701   4.803490   3.943505   5.100553   2.521207
    36  H    2.577027   6.053464   5.445694   6.173800   4.024842
    37  H    2.410156   6.201753   5.331490   6.208757   3.815708
                    6          7          8          9         10
     6  C    0.000000
     7  C    1.542731   0.000000
     8  C    6.140400   5.934991   0.000000
     9  C    4.098339   4.405755   2.470223   0.000000
    10  C    2.588595   1.550883   4.553096   3.490940   0.000000
    11  C    3.277777   2.641053   3.839346   2.982673   1.542900
    12  N    4.735749   4.569710   1.461245   1.462533   3.277093
    13  N    4.293848   3.358178   4.726423   4.367477   2.495083
    14  O    5.519546   4.736430   2.780140   3.657281   3.281687
    15  H    3.494211   3.968597   9.529809   7.507670   5.489843
    16  H    2.850602   3.425076   8.392312   6.400699   4.726607
    17  H    3.961508   3.498716   9.043154   7.514657   4.757170
    18  H    3.394424   2.828078   8.741158   7.178919   4.231877
    19  H    2.162194   2.833981   8.096097   6.061166   4.235981
    20  H    2.168931   3.494651   8.011517   5.715548   4.749066
    21  H    2.799778   2.181923   6.729656   5.344214   2.894148
    22  H    3.492180   2.184658   7.116478   6.073789   2.799731
    23  H    1.097901   2.175642   5.753672   3.624064   2.785528
    24  H    1.101639   2.181345   5.862241   3.739275   2.875386
    25  H    2.138071   1.099284   6.486475   5.056337   2.115845
    26  H    6.348787   6.185586   1.096215   2.723418   4.836415
    27  H    6.689807   6.252111   1.087911   3.391319   4.766094
    28  H    6.694800   6.663266   1.095781   2.752636   5.373255
    29  H    4.899319   5.372935   2.658842   1.094863   4.532853
    30  H    3.170167   3.654990   3.406778   1.088457   3.036618
    31  H    4.178702   4.524019   2.821911   1.097155   3.671364
    32  H    3.513472   2.173106   4.902293   4.327090   1.100143
    33  H    2.785607   2.170621   4.087931   2.967219   1.095126
    34  H    2.927945   2.778127   4.207417   2.840412   2.205791
    35  H    4.099331   3.071675   5.689643   5.064882   2.676602
    36  H    4.966507   4.230448   4.763213   4.576436   3.404267
    37  H    4.965332   3.840424   4.660017   4.758462   2.754116
                   11         12         13         14         15
    11  C    0.000000
    12  N    2.499382   0.000000
    13  N    1.504039   3.610888   0.000000
    14  O    2.337544   2.300182   2.393505   0.000000
    15  H    6.138639   8.086030   6.516283   8.428113   0.000000
    16  H    4.969672   6.931795   5.305855   7.271325   1.758651
    17  H    5.256965   7.634033   5.070446   7.278911   2.519822
    18  H    5.209404   7.376094   5.355458   7.219198   2.471716
    19  H    5.273274   6.754515   6.098635   7.448403   2.468265
    20  H    5.342928   6.636697   6.255517   7.623386   2.523037
    21  H    2.918910   5.325784   2.807163   4.997784   3.796892
    22  H    3.428507   5.830404   3.117163   5.106748   4.314890
    23  H    3.570511   4.452288   4.823848   5.595328   4.319090
    24  H    3.006006   4.423192   4.003481   5.286638   3.829930
    25  H    3.513744   5.220642   4.186683   5.362136   4.091279
    26  H    4.445452   2.104988   5.466433   3.547815   9.816442
    27  H    4.003157   2.090722   4.578003   2.307281   9.981103
    28  H    4.481666   2.103324   5.334304   3.514841  10.046431
    29  H    3.842103   2.095240   5.117580   4.304954   8.192442
    30  H    2.549775   2.123269   3.970626   3.905902   6.490876
    31  H    3.602852   2.119886   5.054318   4.254006   7.649590
    32  H    2.148743   3.819373   2.537075   3.219960   6.030904
    33  H    2.156339   2.925901   3.375741   3.487778   6.007539
    34  H    1.092297   2.787797   2.098993   3.152181   5.711255
    35  H    2.112564   4.492869   1.026501   3.392540   5.811705
    36  H    2.112445   3.764415   1.028019   2.501453   7.106846
    37  H    2.075677   3.764738   1.031702   2.011392   7.236279
                   16         17         18         19         20
    16  H    0.000000
    17  H    2.469140   0.000000
    18  H    3.070661   1.759186   0.000000
    19  H    3.069453   3.846676   2.707986   0.000000
    20  H    2.467144   4.321600   3.846499   1.758478   0.000000
    21  H    2.647467   2.454787   3.052368   4.047966   4.151636
    22  H    3.833702   2.500251   2.465843   4.225640   4.996855
    23  H    3.845461   4.999701   4.212783   2.463805   2.507269
    24  H    2.690363   4.193792   4.068957   3.060064   2.457139
    25  H    4.011929   3.755130   2.576726   2.586032   3.755839
    26  H    8.825509   9.485862   8.989331   8.148492   8.168268
    27  H    8.837122   9.229035   8.980203   8.638467   8.676715
    28  H    8.801126   9.654363   9.468892   8.712264   8.424960
    29  H    6.990166   8.312634   8.088323   6.853841   6.282129
    30  H    5.334768   6.577757   6.328858   5.207882   4.740839
    31  H    6.758232   7.838363   7.259764   5.899533   5.717778
    32  H    5.413090   4.945671   4.359067   4.849774   5.614956
    33  H    5.356223   5.627439   4.880806   4.352121   4.871821
    34  H    4.354819   5.096751   5.232289   5.043755   4.769186
    35  H    4.664115   4.145594   4.594499   5.684992   5.911166
    36  H    5.729696   5.665431   6.167554   6.865622   6.814641
    37  H    6.165819   5.662479   5.791248   6.664770   7.017375
                   21         22         23         24         25
    21  H    0.000000
    22  H    1.782052   0.000000
    23  H    3.807137   4.330429   0.000000
    24  H    2.633533   3.822648   1.767403   0.000000
    25  H    3.062688   2.489622   2.475821   3.060653   0.000000
    26  H    7.286839   7.540515   5.795861   6.219376   6.582692
    27  H    6.910855   7.136942   6.411882   6.441800   6.781438
    28  H    7.283399   7.873156   6.313387   6.270858   7.303746
    29  H    6.111672   7.011563   4.428146   4.385857   6.074519
    30  H    4.460377   5.369373   2.846187   2.685444   4.420991
    31  H    5.850925   6.379788   3.454835   4.075188   4.959760
    32  H    3.312992   2.631306   3.737587   3.895851   2.376314
    33  H    3.875739   3.794173   2.533248   3.176134   2.434701
    34  H    2.706964   3.752662   3.311852   2.319536   3.806423
    35  H    2.045828   2.312150   4.820173   3.875063   3.885422
    36  H    3.365390   3.966505   5.501319   4.478095   5.135079
    37  H    3.596543   3.433912   5.392289   4.828307   4.473789
                   26         27         28         29         30
    26  H    0.000000
    27  H    1.782397   0.000000
    28  H    1.783602   1.781819   0.000000
    29  H    2.964200   3.667829   2.485269   0.000000
    30  H    3.754274   4.203374   3.690406   1.765838   0.000000
    31  H    2.631087   3.772114   3.248005   1.776100   1.773632
    32  H    5.156882   4.892567   5.826806   5.379519   4.030465
    33  H    4.150689   4.444442   4.953443   4.058754   2.729355
    34  H    4.860939   4.554365   4.633106   3.523764   2.108158
    35  H    6.380740   5.583589   6.300176   5.842805   4.498798
    36  H    5.648737   4.568779   5.192912   5.141900   4.224762
    37  H    5.343381   4.307854   5.384507   5.556324   4.554119
                   31         32         33         34         35
    31  H    0.000000
    32  H    4.454408   0.000000
    33  H    2.860550   1.740696   0.000000
    34  H    3.607661   3.051784   2.731734   0.000000
    35  H    5.699211   2.671776   3.719896   2.478987   0.000000
    36  H    5.417736   3.537842   4.195381   2.378188   1.675236
    37  H    5.340797   2.404054   3.524989   2.943921   1.688330
                   36         37
    36  H    0.000000
    37  H    1.636257   0.000000
 Stoichiometry    C11H23N2O(1+)
 Framework group  C1[X(C11H23N2O)]
 Deg. of freedom   105
 Full point group                 C1      NOp   1
 Largest Abelian subgroup         C1      NOp   1
 Largest concise Abelian subgroup C1      NOp   1
                         Standard orientation:                         
 ---------------------------------------------------------------------
 Center     Atomic      Atomic             Coordinates (Angstroms)
 Number     Number       Type             X           Y           Z
 ---------------------------------------------------------------------
      1          6           0        2.363851    0.484371   -0.081166
      2          6           0       -4.062803   -0.474542   -0.624330
      3          6           0       -3.773100    0.863971    0.071892
      4          6           0       -3.266679   -1.628286    0.005324
      5          6           0       -2.263867    1.157855    0.120532
      6          6           0       -1.759626   -1.321937    0.062764
      7          6           0       -1.476842    0.010210    0.787632
      8          6           0        4.362270   -0.859600    0.177444
      9          6           0        2.253766   -2.005752   -0.407833
     10          6           0        0.033898    0.306700    0.974706
     11          6           0        0.853054    0.625075   -0.293427
     12          7           0        2.937056   -0.744247   -0.123715
[...]
 00053442,-0.00174159,0.00084520,-0.00009490,0.00021288,-0.00028677,-0.
 00347586,0.00537277,0.00018972,0.00106379,-0.00161891,-0.00051508,-0.0
 2100622,-0.01802792,0.01141024,-0.00010304,0.00000893,0.00008782,-0.00
 046389,-0.00021133,-0.00110042,-0.15476748,-0.11674944,0.06383018,0.00
 894191,0.01053888,-0.00423112,-0.00046393,-0.00002887,-0.00023972,-0.0
 0055782,0.00370484,-0.00408160,-0.00035169,-0.00028591,-0.00016626,0.0
 0008603,0.00015503,0.00003453,0.00002991,0.00003381,0.00001911,-0.0005
 9342,0.00042751,0.00008686,-0.00000881,0.00003100,-0.00006233,-0.00003
 027,-0.00000725,-0.00000247,0.00010833,0.00000303,-0.00002936,0.000191
 97,-0.00007351,0.00028420,0.00041598,0.00014968,-0.00025627,0.00056969
 ,0.00104121,0.00024941,0.00006199,0.00012736,-0.00004238,0.00065723,-0
 .00033925,-0.00048671,-0.00001510,0.00000833,0.00000637,0.00001603,-0.
 00000478,-0.00000159,0.00003576,-0.00000617,0.00000707,-0.00014763,0.0
 0004441,0.00004942,-0.00063598,-0.00015951,-0.00026684,-0.00007545,-0.
 00013569,0.00000566,-0.00393261,-0.00416446,0.00208515,0.17376139,-0.0
 0159167,-0.00148123,0.00086790,0.00000441,0.00024544,0.00004772,0.0006
 5334,0.00054811,-0.00033207,-0.00001919,0.00012959,0.00015074,0.002236
 47,-0.00173835,-0.00080206,0.00098681,0.00122110,-0.00032976,0.0110349
 4,0.01042183,-0.00707749,0.00021907,-0.00002072,-0.00010489,0.00006748
 ,0.00049723,-0.00040379,-0.11275542,-0.16624659,0.06821057,-0.00790334
 ,-0.01173590,0.00387407,0.00044596,0.00044217,-0.00088057,0.00118594,-
 0.00118203,0.00358362,0.00080074,0.00044018,-0.00008848,-0.00003026,-0
 .00002121,0.00001677,0.00000342,-0.00000859,-0.00001084,0.00023389,-0.
 00016133,-0.00004247,-0.00001392,0.00000214,0.00001565,0.00000071,-0.0
 0000310,-0.00000372,-0.00005600,0.00001812,0.00001367,-0.00006157,0.00
 000901,-0.00007282,0.00007844,0.00007296,0.00014447,-0.00012003,-0.000
 18591,0.00016777,-0.00009720,-0.00012673,0.00001666,-0.00065564,0.0006
 8967,0.00000761,0.00005195,0.00000975,0.00004700,-0.00002982,-0.000020
 18,0.00003572,-0.00004888,0.00001555,0.00001579,-0.00017825,0.00005146
 ,0.00006435,-0.00064032,0.00011764,-0.00007981,0.00003303,0.00000592,0
 .00014268,-0.01353384,-0.01488475,0.00804461,0.11979097,0.18284305,0.0
 0174905,0.00088786,0.00053361,-0.00010549,0.00024461,0.00002532,0.0002
 7678,0.00056067,0.00006828,-0.00007668,-0.00024125,0.00016309,0.000901
 80,-0.00162805,0.00068726,0.00008545,0.00119609,-0.00013666,0.00662325
 ,0.00501481,-0.00362789,-0.00022941,-0.00014777,0.00013519,-0.00066801
 ,-0.00004322,0.00027228,0.06263517,0.06749526,-0.08672897,0.01436253,0
 .01783347,-0.00932037,-0.00025740,-0.00016328,0.00035709,-0.00212462,0
 .00281818,-0.00366880,-0.00058660,-0.00037562,-0.00003052,-0.00005276,
 -0.00004892,0.00001820,-0.00000010,-0.00001284,-0.00000367,0.00013321,
 -0.00012846,-0.00003526,0.00003999,-0.00002687,-0.00000958,-0.00002968
 ,0.00002818,-0.00001787,-0.00003271,0.00001227,0.00001074,-0.00026478,
 -0.00006914,0.00021424,0.00021101,0.00029275,0.00002060,-0.00012744,-0
 .00064208,0.00005196,0.00003665,-0.00008646,-0.00003362,-0.00064161,-0
 .00025238,0.00051632,0.00002070,0.00001989,-0.00000566,0.00007915,-0.0
 0002753,-0.00002135,0.00003002,0.00000617,-0.00004572,0.00022631,-0.00
 020193,-0.00012457,-0.00032122,-0.00018386,-0.00084906,-0.00018459,-0.
 00006289,0.00002176,-0.01571758,-0.01693248,0.01021941,-0.06662007,-0.
 07547917,0.09204244,0.00789475,0.01512066,0.02454256,-0.00008093,-0.00
 001505,-0.00004314,-0.00000008,0.00002584,0.00015025,-0.00017957,-0.00
 006595,0.00050602,-0.00026085,0.00013246,-0.00026730,-0.00015849,0.000
 36446,-0.00097857,0.00040901,-0.00088310,0.00025115,-0.00048882,0.0001
 0385,-0.00077812,-0.00093303,-0.00025224,0.00022884,0.00113241,-0.0085
 4691,-0.01438132,-0.04921523,0.00369035,0.00893332,-0.00045715,-0.0002
 3312,-0.00110695,-0.00179059,-0.01574686,-0.01372709,-0.00552640,0.004
 31226,-0.00086906,0.00003978,0.00001397,0.00001781,-0.00001844,0.00001
 643,0.00002857,0.00001665,0.00001795,-0.00000673,0.00003554,-0.0000303
 2,0.00000075,0.00018194,-0.00009087,-0.00002475,0.00000439,-0.00001200
 ,-0.00003022,-0.00027404,-0.00016691,0.00009839,0.00015728,0.00009421,
 0.00015307,0.00003588,-0.00015242,0.00016728,-0.00014852,0.00079828,0.
 00092096,0.00033200,-0.00010675,0.00017821,0.00015401,-0.00008221,-0.0
 0003442,0.00016894,0.00000399,-0.00007138,-0.00022326,0.00010442,0.000
 07867,-0.00020739,-0.00019617,0.00003056,-0.00111630,-0.00207513,0.000
 88702,0.00036494,-0.00023297,-0.00014580,-0.00094252,0.00178623,-0.002
 64236,0.00015576,0.00009833,-0.00004200,0.05351463,0.00333386,-0.00452
 052,-0.00613700,0.00001390,0.00009067,-0.00001990,0.00002655,0.0000571
 1,0.00004874,0.00021377,-0.00005391,-0.00042965,0.00013194,-0.00000864
 ,-0.00028218,0.00014621,-0.00012122,0.00078143,-0.00000736,0.00047115,
 -0.00079003,0.00010171,-0.00015301,0.00010771,-0.00096445,-0.00034685,
 0.00019000,0.00004516,0.01232396,0.01360414,-0.00168718,-0.12058658,-0
 .11791342,-0.00020871,-0.00043524,0.00007811,-0.00239400,-0.02340210,-
 0.02150645,0.00121204,0.00088027,0.00001971,-0.00003791,-0.00003398,0.
 00000876,0.00000296,-0.00001683,0.00000572,0.00001205,-0.00003336,-0.0
 0001002,0.00001165,-0.00001155,0.,-0.00015450,0.00008873,0.00002054,0.
 00000008,0.00001173,0.00001351,0.00003757,-0.00000663,0.00005097,-0.00
 004352,-0.00007157,0.00008590,-0.00003356,-0.00010042,0.00005289,0.000
 75955,-0.00090229,-0.00064005,-0.00037492,0.00002541,-0.00008599,-0.00
 007559,0.00007893,0.00000613,-0.00000749,-0.00002952,-0.00000829,-0.00
 000537,-0.00000575,-0.00005020,-0.00023489,0.00001221,0.00007839,-0.00
 229181,-0.00110057,0.00099873,0.00014887,-0.00004507,0.00000569,0.0019
 0512,-0.00162342,0.00282678,-0.00045049,0.00014534,-0.00055817,0.00388
 422,0.14408826,-0.00218435,-0.00365519,-0.00340540,0.00000755,-0.00007
 127,0.00000258,-0.00001345,-0.00010350,0.00010581,0.00007391,0.0001404
 9,0.00039839,-0.00024107,0.00012788,-0.00010251,-0.00008959,0.00006364
 ,-0.00020581,0.00126910,-0.00093982,0.00074625,0.00021993,0.00020467,0
 .00000402,0.00068753,-0.00084644,-0.00013232,-0.00231072,-0.01177624,-
 0.01996387,0.00230548,-0.13009646,-0.25409241,0.00067439,-0.00000994,0
 .00013039,0.00109395,0.01112643,0.00844687,0.00100803,-0.00019239,0.00
 006118,0.00002926,0.00002175,-0.00000749,-0.00000756,0.00001426,0.0000
 0523,-0.00002412,0.00003110,0.00000589,0.00003879,-0.00003085,-0.00001
 469,0.00014475,-0.00007679,-0.00002824,-0.00005087,0.00002827,-0.00000
 952,-0.00010816,-0.00011658,0.00023397,0.00010638,0.00008678,0.0000243
 0,-0.00000481,0.00006727,-0.00004068,0.00033333,-0.00024505,0.00090844
 ,0.00020724,-0.00009252,0.00005876,-0.00000158,0.00001920,-0.00002930,
 -0.00010706,0.00000652,0.00003605,0.00002780,-0.00002986,-0.00001703,-
 0.00033270,0.00012584,0.00012009,-0.00017082,0.00087458,0.00055001,-0.
 00028524,0.00013456,0.00009391,-0.00138937,0.00306688,-0.00247566,0.00
 018515,0.00020926,0.00014495,-0.00283068,0.13025441,0.26691715,-0.0020
 6989,-0.00076076,0.00042808,0.00076453,0.00004410,0.00030287,-0.001759
 58,-0.00076017,-0.00023525,0.00017861,0.00013914,-0.00010232,0.0008619
 8,0.00240904,0.00228236,-0.00072419,0.00006100,0.00052210,0.00185220,-
 0.00061166,-0.00073291,-0.00013905,0.00005929,0.00014305,0.00005883,-0
 .00015411,-0.00009721,0.00214935,0.00098546,-0.00038190,-0.00919785,-0
 .00264494,-0.00169378,0.00060271,0.00065908,-0.00005945,-0.36935987,-0
 .01108071,-0.12033604,0.00013900,-0.00018701,0.00046410,-0.00009396,-0
 .00027338,-0.00016707,-0.00004530,-0.00000648,-0.00003135,-0.00014320,
 0.00011783,0.00001772,0.00024758,-0.00019734,0.00001285,-0.00004122,0.
 00002200,0.00003301,-0.00010541,-0.00004376,0.00001048,-0.00115206,0.0
 0179647,0.00087140,-0.00135218,-0.00110782,-0.00233351,-0.00015139,-0.
 00029134,-0.00010700,0.00002405,-0.00001842,-0.00016159,-0.00026989,-0
 .00002780,0.00011435,0.00000752,0.00000210,-0.00002838,-0.00004246,-0.
 00004102,0.00001252,0.00004606,-0.00003108,0.00000313,0.00001011,0.000
 02994,0.00003057,0.00003904,-0.00009024,-0.00000809,0.00002691,0.00004
 199,-0.00001487,0.00028725,-0.00016304,0.00087029,-0.00057618,0.000728
 37,-0.00035397,0.00016442,0.00019141,0.00011219,0.38698727,-0.00047779
 ,-0.00720084,-0.00112473,-0.00047498,0.00000490,-0.00018271,0.00139978
 ,0.00028277,-0.00072477,0.00000551,-0.00007632,0.00014218,-0.00107910,
 -0.00024744,0.00121415,0.00007124,-0.00006443,-0.00028531,-0.00044716,
 -0.00175796,0.00054715,-0.00003831,-0.00029635,-0.00012416,-0.00000749
 ,0.00026022,0.00015224,-0.00030472,0.00166515,-0.00071999,-0.02837615,
 0.00056219,-0.01091437,-0.00123103,0.00078160,0.00082776,-0.01064475,-
 0.05470131,-0.00142813,0.00261603,0.00200797,-0.00213293,0.00001952,0.
 00020592,0.00013550,0.00006942,-0.00000482,0.00002159,-0.00011836,-0.0
 0002674,0.00009304,-0.00040439,0.00032796,0.00001572,0.00001130,-0.000
 02165,-0.00002696,0.00000659,0.00008084,0.00002965,0.00120196,-0.00081
 618,-0.00176095,0.00094690,0.00035344,0.00065698,0.00007619,0.00017413
 ,-0.00000768,-0.00003518,-0.00006015,0.00009672,0.00020175,0.00026705,
 -0.00013376,-0.00009023,0.00003451,0.00001892,-0.00000991,0.00002532,-
 0.00000004,-0.00007862,0.00002018,0.00005271,-0.00002059,-0.00002285,0
 .00002068,-0.00003972,0.00014210,-0.00004607,-0.00009713,-0.00002931,0
 .00002229,0.00007307,0.00014332,0.00086483,0.00008657,0.00048185,-0.00
 023003,-0.00177006,-0.00191430,0.00051964,0.01297757,0.05491766,0.0018
 8877,0.00055518,-0.00080733,0.00043988,-0.00011074,0.00019829,-0.00057
 017,-0.00030115,-0.00160388,-0.00006301,-0.00003619,-0.00012303,0.0014
 5056,0.00186531,0.00469599,0.00010242,0.00001503,0.00025529,-0.0005054
 2,-0.00003600,-0.00046358,-0.00003000,0.00023441,0.00011287,0.00008794
 ,-0.00025332,-0.00006637,0.00106034,0.00227087,0.00211950,0.00681831,-
 0.00400484,0.00217961,0.00083153,-0.00006146,-0.00031561,-0.11285653,-
 0.00122185,-0.10679610,0.00258716,0.00164693,-0.00159710,-0.00003983,-
 0.00009568,-0.00009051,-0.00000042,0.00000788,-0.00007092,0.00011142,-
 0.00000941,0.00004671,-0.00028052,0.00025052,0.00005734,-0.00001289,0.
 00002023,0.00000229,0.00003911,-0.00003248,-0.00000370,0.00001576,-0.0
 0022595,-0.00206433,-0.00095012,-0.00138248,-0.00100416,-0.00002298,-0
 .00002400,-0.00004623,-0.00006064,-0.00006421,-0.00017153,0.00019947,0
 .00016945,-0.00019909,0.00008815,0.00002317,-0.00001953,-0.00005892,0.
 00002330,0.00003627,0.00008310,-0.00000018,-0.00002776,-0.00000041,0.0
 0008008,0.00002012,-0.00000178,-0.00001808,0.00003133,0.00004418,0.000
 06681,-0.00000629,0.00035773,-0.00044752,-0.00108289,-0.00032894,-0.00
 019053,-0.00060169,-0.00044620,-0.00011767,0.00001466,0.12441509,-0.00
 199690,0.10572261,-0.00069378,-0.00199851,0.00103840,-0.00006227,0.000
 06920,-0.00004792,0.00007481,0.00006574,0.00043859,0.00003050,0.000013
 15,-0.00000169,-0.00045627,-0.00004242,-0.00135253,-0.00008253,0.00003
 384,-0.00000988,0.00038943,-0.00014460,0.00023503,-0.00007099,-0.00004
 305,-0.00004009,0.00009577,-0.00006657,0.00005101,-0.00084657,-0.00104
 628,-0.00063486,0.00012217,0.00003069,0.01314499,-0.00044045,0.0003453
 4,-0.00000550,-0.06530782,-0.00242776,0.00537565,-0.00223861,0.0006237
 6,-0.00114096,0.00000566,-0.00001543,0.00002283,-0.00000750,0.00000655
 ,0.00003905,-0.00005653,0.00000126,-0.00002532,0.00010601,-0.00010140,
 -0.00000941,-0.00000782,0.00000134,0.00001409,-0.00001609,-0.00001371,
 -0.00000786,0.00009358,-0.00006021,0.00065284,0.00002510,0.00028757,0.
 00021061,-0.00002131,-0.00004993,0.00002992,0.00004531,0.00001828,0.00
 001119,-0.00007498,-0.00010748,0.00003162,-0.00000323,0.00001540,-0.00
 001869,0.00000646,-0.00001341,0.00003028,-0.00006091,-0.00003541,0.000
 01687,-0.00003181,0.00000054,0.00001729,0.00004980,-0.00002972,0.00004
 269,0.00001658,0.00001220,-0.00002688,-0.00005392,0.00030045,0.0001366
 4,0.00033368,-0.00005959,0.00036991,0.00101443,-0.00000177,-0.00001587
 ,0.00614828,0.00833323,-0.03820696,0.05799196,-0.00032887,-0.00213922,
 0.00007819,-0.00002931,-0.00003312,0.00005714,0.00012686,0.00009256,-0
 .00030423,0.00002487,-0.00002655,-0.00010461,-0.00000181,-0.00036337,0
 .00074308,0.00009957,-0.00006214,0.00032214,-0.00019940,0.00018027,0.0
 0007625,-0.00011247,0.00001537,-0.00007555,-0.00002849,0.00009782,0.00
 000641,-0.00486702,-0.00495411,0.00089755,0.00251989,-0.00440180,0.029
 06131,-0.00011250,0.00038158,-0.00009130,-0.00115829,-0.07164282,0.076
 74813,0.00282958,0.00032819,0.00090414,-0.00001426,0.00003449,-0.00000
 887,0.00002824,-0.00000115,-0.00004112,-0.00000247,-0.00001509,0.00002
 431,-0.00010594,0.00007978,0.00000414,-0.00004452,0.00002106,-0.000016
 55,0.00001193,0.00000045,0.00000924,0.00012954,0.00016664,-0.00049427,
 -0.00000495,0.00006886,-0.00012334,0.00001404,0.00008871,-0.00004114,-
 0.00006791,-0.00001545,-0.00019069,0.00007016,0.00004862,-0.00010148,0
 .00003069,0.00000151,-0.00000067,-0.00004268,0.00000193,0.00001201,-0.
 00001609,0.00002634,0.00001937,-0.00000853,0.00000262,-0.00000966,0.00
 009449,-0.00006547,0.00005790,0.00004906,0.00001182,-0.00002760,-0.000
 15830,0.00035395,-0.00045085,0.00115725,-0.00092628,0.00109671,0.00078
 863,0.00052358,-0.00051413,0.00083847,0.00000169,-0.00193007,0.0044364
 5,0.07235112,0.00141125,0.00017811,-0.00027951,0.00005830,-0.00002405,
 0.00011201,-0.00008119,0.00001087,0.00006713,-0.00003267,0.00000953,-0
 .00002334,0.00023440,-0.00015059,0.00001921,0.00005426,0.00001364,0.00
 010481,-0.00012861,0.00029238,-0.00004391,0.00016868,-0.00016256,-0.00
 004536,-0.00002629,0.00020764,0.00003329,0.00001932,0.00003299,-0.0000
 0865,0.00080062,0.00064308,0.00110795,-0.00090110,-0.00030100,-0.00009
 108,-0.00207541,0.07683999,-0.39748356,0.00007041,-0.00067429,0.000800
 50,0.00000830,-0.00002240,-0.00002904,-0.00001509,0.00000643,-0.000042
 71,0.00004262,-0.00000039,-0.00000367,0.00004650,-0.00002888,-0.000026
 19,0.00001290,0.00000869,-0.00001061,0.00001305,-0.00003319,-0.0000082
 9,-0.00009370,-0.00000571,0.00021364,-0.00007299,-0.00008438,-0.000101
 90,-0.00000602,0.00000306,-0.00003688,-0.00003544,0.00001236,-0.000002
 05,0.00004990,-0.00002992,-0.00000542,-0.00005875,0.00000101,0.0000154
 9,0.00004512,0.00001715,0.00000286,-0.00007533,0.00001118,0.00001193,-
 0.00005987,-0.00007549,-0.00001036,-0.00000045,0.00005834,0.00005068,-
 0.00002025,-0.00003918,0.00000038,0.00014028,0.00007051,0.00023909,-0.
 00016562,-0.00009136,0.00037128,-0.00040225,-0.00119818,0.00173069,0.0
 0233343,0.00143116,-0.00959876,-0.00039541,-0.08136044,0.41659846,-0.0
 0298581,-0.03932288,-0.00708728,0.00017528,0.00008092,0.00003949,-0.00
 034070,-0.00018814,0.00016120,-0.00002594,-0.00000904,-0.00002499,0.00
 021967,0.00059086,-0.00024003,0.00000283,0.00015775,-0.00004901,0.0000
 0315,0.00025194,-0.00086451,-0.00146915,0.00038798,0.00046044,0.001980
 29,-0.00238332,-0.00066447,-0.00271337,-0.00070437,0.00163814,0.015402
 32,0.00491117,-0.01133397,0.00507776,0.01230664,0.00243947,-0.12174000
 ,0.07879837,0.05090345,0.00608056,0.02358995,-0.00172520,-0.00000135,-
 0.00010733,-0.00003532,-0.00003198,0.00000563,0.00003207,-0.00003866,0
 .00001415,-0.00001379,0.00014088,-0.00011645,0.00002281,0.00001720,0.0
 0000098,0.00003482,-0.00000039,-0.00006106,-0.00002886,-0.00010784,0.0
 0003002,0.00055916,-0.00013675,-0.00040444,-0.00028910,-0.00007753,-0.
 00017186,0.00008046,0.00007851,0.00006033,0.00005152,-0.00020186,0.000
 01612,0.00011719,0.00025087,0.00026113,-0.00011731,-0.00090410,0.00008
 083,0.00032036,0.00032578,-0.00000134,0.00007308,-0.00008058,0.0009346
 8,0.00035064,-0.00039692,0.00031368,0.00028211,-0.00004956,0.00082228,
 0.00008738,0.00034820,0.00014418,-0.00056384,0.00045158,-0.00085933,0.
 00065577,-0.00375514,-0.00320507,0.00164328,-0.01337203,0.01764906,0.0
 1381482,0.00398386,-0.00594589,-0.00086290,0.11389096,-0.00822269,-0.0
 0534498,0.00064595,-0.00009729,-0.00001268,-0.00003814,0.00019267,0.00
 006425,-0.00016994,0.00006063,-0.00001043,0.00008262,-0.00033139,0.000
 22574,0.00031937,-0.00008386,-0.00003995,-0.00006525,0.00002906,-0.000
 08476,-0.00001178,0.00025500,0.00025185,0.00005548,-0.00033823,-0.0001
 1908,-0.00019733,-0.00019480,-0.00051813,-0.00065902,0.00639607,-0.035
 75734,-0.01243553,0.00072011,-0.00219501,-0.00098517,0.09516834,-0.157
 83582,-0.07630466,0.00602855,-0.00806816,-0.00127444,-0.00001291,0.000
 05607,0.00002558,0.00002501,-0.00000984,-0.00001140,-0.00002833,-0.000
 00361,0.00003300,-0.00009756,0.00008970,-0.00000477,-0.00000088,-0.000
 01309,-0.00002337,-0.00002089,0.00004196,0.00002256,0.00006210,-0.0000
 1156,-0.00046826,0.00012549,0.00013189,0.00016000,0.00002545,0.0000422
 7,-0.00001535,-0.00001208,-0.00000767,0.00004632,0.00000110,0.00010109
 ,-0.00001876,0.00006766,-0.00001856,-0.00000815,-0.00007722,0.00004082
 ,0.00001756,0.00006970,0.00005150,-0.00002850,-0.00001123,-0.00013909,
 0.00001297,-0.00006989,-0.00001425,0.00000812,-0.00005615,-0.00003537,
 -0.00000203,0.00009356,0.00014813,0.00057374,-0.00008961,0.00033478,0.
 00003550,-0.00069748,-0.00327403,0.00167361,-0.00261217,0.00449985,0.0
 0533151,-0.00833773,0.00976762,0.00443385,-0.08792810,0.19766587,-0.00
 038565,0.01503696,0.00495841,-0.00013237,-0.00004101,-0.00003035,0.000
 35397,0.00016946,-0.00035231,-0.00003200,-0.00003004,-0.00001106,-0.00
 073175,0.00028336,0.00073543,0.00016728,-0.00008809,0.00000604,-0.0003
 7933,-0.00051449,0.00027754,0.00071271,-0.00011849,0.00005798,-0.00071
 194,0.00074225,0.00086370,0.00182626,0.00099246,0.00022614,-0.00802972
 ,-0.00620694,0.00547675,-0.00166942,-0.00601599,-0.00031113,0.05083670
 ,-0.06504866,-0.11695223,-0.00713038,-0.00957928,-0.01023152,0.0000112
 2,0.00007486,0.00003158,0.00002207,-0.00000204,-0.00001986,0.00002876,
 -0.00001961,0.00002034,-0.00017204,0.00013729,-0.00000607,-0.00000820,
 0.00000334,-0.00001977,0.00002671,0.00002281,0.00000789,-0.00013267,0.
 00012614,-0.00080144,0.00014659,0.00016424,0.00031480,0.00004715,0.000
 10791,-0.00002237,-0.00005574,-0.00002116,-0.00004653,0.00009129,0.000
 06187,-0.00006903,-0.00011266,-0.00002797,0.00006359,0.00040841,-0.000
 04202,-0.00014094,-0.00008551,-0.00011303,-0.00008908,-0.00000688,-0.0
 0026600,-0.00010765,0.00015937,-0.00011469,-0.00010009,0.00001190,-0.0
 0048962,-0.00011113,-0.00050026,0.00000483,-0.00036971,-0.00025721,0.0
 0031321,-0.00061276,0.00165492,0.00050893,-0.00021466,-0.00613489,0.01
 497655,0.01126750,0.02003034,-0.02423145,-0.01362815,-0.04986706,0.079
 24412,0.11994012\\0.00000074,-0.00005256,-0.00000384,-0.00000262,0.000
 00102,-0.00000091,-0.00000327,0.00000441,0.00000760,0.00000184,0.00000
 379,-0.00000038,0.00000214,-0.00001438,-0.00001080,-0.00000222,0.00000
 300,-0.00000126,-0.00000525,0.00000404,0.00000128,0.00000506,-0.000001
 35,-0.00000372,0.00000453,-0.00000533,-0.00000326,0.00001370,-0.000013
 59,0.00000843,0.00000761,0.00006100,-0.00002287,-0.00000538,0.00001713
 ,0.00000380,0.00001169,-0.00006242,-0.00000177,0.00000046,0.00002982,0
 .00000318,0.00000101,0.00000234,0.00000132,0.00000095,0.00000135,0.000
 00097,0.00000071,0.00000044,0.00000037,0.00000259,-0.00000149,0.000000
 05,0.00000102,-0.00000011,0.00000032,0.00000091,0.00000150,-0.00000034
 ,-0.00000513,0.00000281,0.00000382,0.00000757,0.00000216,0.00000653,0.
 00000191,0.00000292,-0.00000073,-0.00000406,0.00000198,-0.00000129,0.0
 0000073,-0.00000194,0.00000224,-0.00000118,-0.00000216,-0.00000153,-0.
 00000051,-0.00000163,0.00000054,-0.00000015,-0.00000102,-0.00000137,-0
 .00000037,-0.00000019,0.00000028,0.00000064,0.00000232,-0.00000115,0.0
 0000047,-0.00000017,-0.00000068,-0.00000187,-0.00000021,0.00000132,-0.
 00000193,0.00000054,-0.00000012,0.00000274,-0.00001052,-0.00000040,-0.
 00000226,0.00000135,-0.00000222,-0.00000655,0.00000554,0.00000180,-0.0
 0002629,0.00001961,0.00001480\\\@


 THE FIRST MORNING OF CREATION WROTE WHAT THE LAST DAWN OF
 RECKONING SHALL READ. -- OMAR KHAYYAM
 Job cpu time:  0 days  2 hours 28 minutes 53.3 seconds.
 File lengths (MBytes):  RWF=    301 Int=      0 D2E=      0 Chk=      6 Scr=      1
 Normal termination of Gaussian 09 at Fri Feb 16 19:34:26 2018.
