 Entering Gaussian System, Link 0=g09
 Initial command:
 /home/fb_chem/chemsoft/lx24-amd64/Gaussian_09_C.01_NBO_3.1_64_istanbul-64/g09/l1.exe /local/2397384.1.parallel/Gau-30443.inp -scrdir=/local/2397384.1.parallel/
 Entering Link 1 = /home/fb_chem/chemsoft/lx24-amd64/Gaussian_09_C.01_NBO_3.1_64_istanbul-64/g09/l1.exe PID=     30444.
  
 Copyright (c) 1988,1990,1992,1993,1995,1998,2003,2009,2011,
            Gaussian, Inc.  All Rights Reserved.
  
 This is part of the Gaussian(R) 09 program.  It is based on
 the Gaussian(R) 03 system (copyright 2003, Gaussian, Inc.),
 the Gaussian(R) 98 system (copyright 1998, Gaussian, Inc.),
 the Gaussian(R) 94 system (copyright 1995, Gaussian, Inc.),
 the Gaussian 92(TM) system (copyright 1992, Gaussian, Inc.),
 the Gaussian 90(TM) system (copyright 1990, Gaussian, Inc.),
 the Gaussian 88(TM) system (copyright 1988, Gaussian, Inc.),
 the Gaussian 86(TM) system (copyright 1986, Carnegie Mellon
 University), and the Gaussian 82(TM) system (copyright 1983,
 Carnegie Mellon University). Gaussian is a federally registered
 trademark of Gaussian, Inc.
  
 This software contains proprietary and confidential information,
 including trade secrets, belonging to Gaussian, Inc.
  
 This software is provided under written license and may be
 used, copied, transmitted, or stored only in accord with that
 written license.
  
 The following legend is applicable only to US Government
 contracts under FAR:
  
                    RESTRICTED RIGHTS LEGEND
  
 Use, reproduction and disclosure by the US Government is
 subject to restrictions as set forth in subparagraphs (a)
 and (c) of the Commercial Computer Software - Restricted
 Rights clause in FAR 52.227-19.
  
 Gaussian, Inc.
 340 Quinnipiac St., Bldg. 40, Wallingford CT 06492
  
  
 ---------------------------------------------------------------
 Warning -- This program may not be used in any manner that
 competes with the business of Gaussian, Inc. or will provide
 assistance to any competitor of Gaussian, Inc.  The licensee
 of this program is prohibited from giving any competitor of
 Gaussian, Inc. access to this program.  By using this program,
 the user acknowledges that Gaussian, Inc. is engaged in the
 business of creating and licensing software in the field of
 computational chemistry and represents and warrants to the
 licensee that it is not a competitor of Gaussian, Inc. and that
 it will not use this program in any manner prohibited above.
 ---------------------------------------------------------------
  

 Cite this work as:
 Gaussian 09, Revision C.01,
 M. J. Frisch, G. W. Trucks, H. B. Schlegel, G. E. Scuseria, 
 M. A. Robb, J. R. Cheeseman, G. Scalmani, V. Barone, B. Mennucci, 
 G. A. Petersson, H. Nakatsuji, M. Caricato, X. Li, H. P. Hratchian, 
 A. F. Izmaylov, J. Bloino, G. Zheng, J. L. Sonnenberg, M. Hada, 
 M. Ehara, K. Toyota, R. Fukuda, J. Hasegawa, M. Ishida, T. Nakajima, 
 Y. Honda, O. Kitao, H. Nakai, T. Vreven, J. A. Montgomery, Jr., 
 J. E. Peralta, F. Ogliaro, M. Bearpark, J. J. Heyd, E. Brothers, 
 K. N. Kudin, V. N. Staroverov, T. Keith, R. Kobayashi, J. Normand, 
 K. Raghavachari, A. Rendell, J. C. Burant, S. S. Iyengar, J. Tomasi, 
 M. Cossi, N. Rega, J. M. Millam, M. Klene, J. E. Knox, J. B. Cross, 
 V. Bakken, C. Adamo, J. Jaramillo, R. Gomperts, R. E. Stratmann, 
 O. Yazyev, A. J. Austin, R. Cammi, C. Pomelli, J. W. Ochterski, 
 R. L. Martin, K. Morokuma, V. G. Zakrzewski, G. A. Voth, 
 P. Salvador, J. J. Dannenberg, S. Dapprich, A. D. Daniels, 
 O. Farkas, J. B. Foresman, J. V. Ortiz, J. Cioslowski, 
 and D. J. Fox, Gaussian, Inc., Wallingford CT, 2010.
 
 ******************************************
 Gaussian 09:  AM64L-G09RevC.01 23-Sep-2011
                16-Feb-2018 
 ******************************************
 %nprocs=4
 Will use up to    4 processors via shared memory.
 %chk=frag31-conf2.chk
 ---------------------------------------------------------
 #B3LYP/6-31G* Integral=(Grid=UltraFine) freq Opt pop=none
 ---------------------------------------------------------
 1/14=-1,18=20,19=15,26=3,38=1/1,3;
 2/9=110,12=2,17=6,18=5,40=1/2;
 3/5=1,6=6,7=1,11=2,16=1,25=1,30=1,71=1,74=-5,75=-5/1,2,3;
 4//1;
 5/5=2,38=5/2;
 7//1,2,3,16;
 1/14=-1,18=20,19=15/3(2);
 2/9=110/2;
 99//99;
 2/9=110/2;
 3/5=1,6=6,7=1,11=2,16=1,25=1,30=1,71=1,74=-5,75=-5/1,2,3;
 4/5=5,16=3/1;
 5/5=2,38=5/2;
 7//1,2,3,16;
 1/14=-1,18=20,19=15/3(-5);
 2/9=110/2;
 99/9=1/99;
 -----------------------------
 Optimization for frag31-conf2
 -----------------------------
 Charge =  1 Multiplicity = 1
 Symbolic Z-Matrix:
 C                     1.68622  -1.24416  -0.19291 
 C                     1.057    -0.30982   0.60958 
 C                     2.4787   -2.21422   0.40384 
 C                     1.22886  -0.36725   1.98575 
 C                     2.64246  -2.25119   1.80366 
 C                     5.80824  -2.34981   2.57378 
 C                     7.191    -2.39655   1.98414 
 C                     2.11121  -1.31521   4.03106 
 C                     3.53072  -3.32064   2.40399 
 N                     1.9994   -1.31821   2.5622 
 N                     4.91531  -3.20093   1.97632 
 O                     5.51587  -1.62707   3.52389 
 H                     1.56416  -1.21826  -1.27337 
 H                     0.43107   0.46407   0.17393 
 H                     2.98116  -2.95238  -0.21838 
 H                     0.74559   0.35128   2.63973 
 H                     7.69397  -1.44168   2.15993 
 H                     7.75815  -3.20046   2.46063 
 H                     7.14913  -2.57292   0.90558 
 H                     1.75484  -2.27927   4.40275 
 H                     3.15253  -1.1334    4.29882 
 H                     1.49072  -0.52301   4.4582 
 H                     3.5123   -3.32135   3.49578 
 H                     3.17362  -4.30404   2.07764 
 H                     5.22383  -3.77485   1.19684 
 

 GradGradGradGradGradGradGradGradGradGradGradGradGradGradGradGradGradGrad
 Berny optimization.
 Initialization pass.
                           ----------------------------
                           !    Initial Parameters    !
                           ! (Angstroms and Degrees)  !
 --------------------------                            --------------------------
 ! Name  Definition              Value          Derivative Info.                !
 --------------------------------------------------------------------------------
 ! R1    R(1,2)                  1.3831         estimate D2E/DX2                !
 ! R2    R(1,3)                  1.3875         estimate D2E/DX2                !
 ! R3    R(1,13)                 1.0876         estimate D2E/DX2                !
 ! R4    R(2,4)                  1.3881         estimate D2E/DX2                !
 ! R5    R(2,14)                 1.0865         estimate D2E/DX2                !
 ! R6    R(3,5)                  1.4099         estimate D2E/DX2                !
 ! R7    R(3,15)                 1.0884         estimate D2E/DX2                !
 ! R8    R(4,10)                 1.3529         estimate D2E/DX2                !
 ! R9    R(4,16)                 1.0851         estimate D2E/DX2                !
 ! R10   R(5,9)                  1.5143         estimate D2E/DX2                !
 ! R11   R(5,10)                 1.3636         estimate D2E/DX2                !
 ! R12   R(6,7)                  1.504          estimate D2E/DX2                !
 ! R13   R(6,11)                 1.3707         estimate D2E/DX2                !
 ! R14   R(6,12)                 1.229          estimate D2E/DX2                !
 ! R15   R(7,17)                 1.0935         estimate D2E/DX2                !
 ! R16   R(7,18)                 1.0931         estimate D2E/DX2                !
 ! R17   R(7,19)                 1.0937         estimate D2E/DX2                !
 ! R18   R(8,10)                 1.4731         estimate D2E/DX2                !
 ! R19   R(8,20)                 1.093          estimate D2E/DX2                !
 ! R20   R(8,21)                 1.0905         estimate D2E/DX2                !
 ! R21   R(8,22)                 1.0932         estimate D2E/DX2                !
 ! R22   R(9,11)                 1.4541         estimate D2E/DX2                !
 ! R23   R(9,23)                 1.092          estimate D2E/DX2                !
 ! R24   R(9,24)                 1.0959         estimate D2E/DX2                !
 ! R25   R(11,25)                1.016          estimate D2E/DX2                !
 ! A1    A(2,1,3)              118.8558         estimate D2E/DX2                !
 ! A2    A(2,1,13)             120.6141         estimate D2E/DX2                !
 ! A3    A(3,1,13)             120.5299         estimate D2E/DX2                !
 ! A4    A(1,2,4)              119.4046         estimate D2E/DX2                !
 ! A5    A(1,2,14)             120.7055         estimate D2E/DX2                !
 ! A6    A(4,2,14)             119.8898         estimate D2E/DX2                !
 ! A7    A(1,3,5)              120.7773         estimate D2E/DX2                !
 ! A8    A(1,3,15)             119.4719         estimate D2E/DX2                !
 ! A9    A(5,3,15)             119.7506         estimate D2E/DX2                !
 ! A10   A(2,4,10)             121.4689         estimate D2E/DX2                !
 ! A11   A(2,4,16)             120.9953         estimate D2E/DX2                !
 ! A12   A(10,4,16)            117.5356         estimate D2E/DX2                !
 ! A13   A(3,5,9)              118.7028         estimate D2E/DX2                !
 ! A14   A(3,5,10)             118.6596         estimate D2E/DX2                !
 ! A15   A(9,5,10)             122.6369         estimate D2E/DX2                !
 ! A16   A(7,6,11)             114.1277         estimate D2E/DX2                !
 ! A17   A(7,6,12)             122.6883         estimate D2E/DX2                !
 ! A18   A(11,6,12)            123.1719         estimate D2E/DX2                !
 ! A19   A(6,7,17)             109.4353         estimate D2E/DX2                !
 ! A20   A(6,7,18)             109.2066         estimate D2E/DX2                !
 ! A21   A(6,7,19)             110.8822         estimate D2E/DX2                !
 ! A22   A(17,7,18)            109.4803         estimate D2E/DX2                !
 ! A23   A(17,7,19)            108.4799         estimate D2E/DX2                !
 ! A24   A(18,7,19)            109.3369         estimate D2E/DX2                !
 ! A25   A(10,8,20)            108.2128         estimate D2E/DX2                !
 ! A26   A(10,8,21)            108.5214         estimate D2E/DX2                !
 ! A27   A(10,8,22)            110.365          estimate D2E/DX2                !
 ! A28   A(20,8,21)            112.0201         estimate D2E/DX2                !
 ! A29   A(20,8,22)            108.7388         estimate D2E/DX2                !
 ! A30   A(21,8,22)            108.9813         estimate D2E/DX2                !
 ! A31   A(5,9,11)             112.5698         estimate D2E/DX2                !
 ! A32   A(5,9,23)             112.7641         estimate D2E/DX2                !
 ! A33   A(5,9,24)             108.9372         estimate D2E/DX2                !
 ! A34   A(11,9,23)            108.0708         estimate D2E/DX2                !
 ! A35   A(11,9,24)            107.2509         estimate D2E/DX2                !
 ! A36   A(23,9,24)            106.9574         estimate D2E/DX2                !
 ! A37   A(4,10,5)             120.8312         estimate D2E/DX2                !
 ! A38   A(4,10,8)             117.817          estimate D2E/DX2                !
 ! A39   A(5,10,8)             121.3506         estimate D2E/DX2                !
 ! A40   A(6,11,9)             122.9054         estimate D2E/DX2                !
 ! A41   A(6,11,25)            119.1688         estimate D2E/DX2                !
 ! A42   A(9,11,25)            117.9252         estimate D2E/DX2                !
 ! D1    D(3,1,2,4)             -0.21           estimate D2E/DX2                !
 ! D2    D(3,1,2,14)           179.8854         estimate D2E/DX2                !
 ! D3    D(13,1,2,4)           179.9222         estimate D2E/DX2                !
 ! D4    D(13,1,2,14)            0.0176         estimate D2E/DX2                !
 ! D5    D(2,1,3,5)              0.0186         estimate D2E/DX2                !
 ! D6    D(2,1,3,15)          -179.7979         estimate D2E/DX2                !
 ! D7    D(13,1,3,5)           179.8865         estimate D2E/DX2                !
 ! D8    D(13,1,3,15)            0.0699         estimate D2E/DX2                !
 ! D9    D(1,2,4,10)            -0.0019         estimate D2E/DX2                !
 ! D10   D(1,2,4,16)          -179.8618         estimate D2E/DX2                !
 ! D11   D(14,2,4,10)          179.9035         estimate D2E/DX2                !
 ! D12   D(14,2,4,16)            0.0436         estimate D2E/DX2                !
 ! D13   D(1,3,5,9)           -179.3085         estimate D2E/DX2                !
 ! D14   D(1,3,5,10)             0.3844         estimate D2E/DX2                !
 ! D15   D(15,3,5,9)             0.5076         estimate D2E/DX2                !
 ! D16   D(15,3,5,10)         -179.7996         estimate D2E/DX2                !
 ! D17   D(2,4,10,5)             0.4207         estimate D2E/DX2                !
 ! D18   D(2,4,10,8)          -179.1884         estimate D2E/DX2                !
 ! D19   D(16,4,10,5)         -179.7147         estimate D2E/DX2                !
 ! D20   D(16,4,10,8)            0.6762         estimate D2E/DX2                !
 ! D21   D(3,5,9,11)            62.9839         estimate D2E/DX2                !
 ! D22   D(3,5,9,23)          -174.4203         estimate D2E/DX2                !
 ! D23   D(3,5,9,24)           -55.8413         estimate D2E/DX2                !
 ! D24   D(10,5,9,11)         -116.6961         estimate D2E/DX2                !
 ! D25   D(10,5,9,23)            5.8997         estimate D2E/DX2                !
 ! D26   D(10,5,9,24)          124.4788         estimate D2E/DX2                !
 ! D27   D(3,5,10,4)            -0.6013         estimate D2E/DX2                !
 ! D28   D(3,5,10,8)           178.9939         estimate D2E/DX2                !
 ! D29   D(9,5,10,4)           179.0787         estimate D2E/DX2                !
 ! D30   D(9,5,10,8)            -1.3261         estimate D2E/DX2                !
 ! D31   D(11,6,7,17)          154.3738         estimate D2E/DX2                !
 ! D32   D(11,6,7,18)          -85.7981         estimate D2E/DX2                !
 ! D33   D(11,6,7,19)           34.7456         estimate D2E/DX2                !
 ! D34   D(12,6,7,17)          -26.8532         estimate D2E/DX2                !
 ! D35   D(12,6,7,18)           92.9748         estimate D2E/DX2                !
 ! D36   D(12,6,7,19)         -146.4815         estimate D2E/DX2                !
 ! D37   D(7,6,11,9)           179.3289         estimate D2E/DX2                !
 ! D38   D(7,6,11,25)           -0.9399         estimate D2E/DX2                !
 ! D39   D(12,6,11,9)            0.5626         estimate D2E/DX2                !
 ! D40   D(12,6,11,25)        -179.7062         estimate D2E/DX2                !
 ! D41   D(20,8,10,4)          121.0511         estimate D2E/DX2                !
 ! D42   D(20,8,10,5)          -58.5559         estimate D2E/DX2                !
 ! D43   D(21,8,10,4)         -117.18           estimate D2E/DX2                !
 ! D44   D(21,8,10,5)           63.213          estimate D2E/DX2                !
 ! D45   D(22,8,10,4)            2.1773         estimate D2E/DX2                !
 ! D46   D(22,8,10,5)         -177.4297         estimate D2E/DX2                !
 ! D47   D(5,9,11,6)            83.1763         estimate D2E/DX2                !
 ! D48   D(5,9,11,25)          -96.558          estimate D2E/DX2                !
 ! D49   D(23,9,11,6)          -42.0208         estimate D2E/DX2                !
 ! D50   D(23,9,11,25)         138.2449         estimate D2E/DX2                !
 ! D51   D(24,9,11,6)         -157.0174         estimate D2E/DX2                !
 ! D52   D(24,9,11,25)          23.2483         estimate D2E/DX2                !
 --------------------------------------------------------------------------------
 Trust Radius=3.00D-01 FncErr=1.00D-07 GrdErr=1.00D-06
 Number of steps in this run=    129 maximum allowed number of steps=    150.
 GradGradGradGradGradGradGradGradGradGradGradGradGradGradGradGradGradGrad

                          Input orientation:                          
 ---------------------------------------------------------------------
 Center     Atomic      Atomic             Coordinates (Angstroms)
 Number     Number       Type             X           Y           Z
 ---------------------------------------------------------------------
      1          6           0        1.686223   -1.244156   -0.192907
      2          6           0        1.056999   -0.309818    0.609583
      3          6           0        2.478699   -2.214217    0.403837
      4          6           0        1.228863   -0.367250    1.985755
      5          6           0        2.642457   -2.251187    1.803662
      6          6           0        5.808240   -2.349805    2.573781
      7          6           0        7.191004   -2.396546    1.984143
      8          6           0        2.111212   -1.315209    4.031060
      9          6           0        3.530720   -3.320645    2.403987
     10          7           0        1.999402   -1.318206    2.562197
     11          7           0        4.915307   -3.200933    1.976322
     12          8           0        5.515874   -1.627068    3.523891
     13          1           0        1.564164   -1.218264   -1.273372
     14          1           0        0.431066    0.464074    0.173935
     15          1           0        2.981165   -2.952382   -0.218377
     16          1           0        0.745594    0.351285    2.639730
     17          1           0        7.693970   -1.441677    2.159930
     18          1           0        7.758151   -3.200458    2.460628
     19          1           0        7.149135   -2.572918    0.905584
     20          1           0        1.754835   -2.279272    4.402747
     21          1           0        3.152529   -1.133400    4.298818
     22          1           0        1.490716   -0.523006    4.458204
     23          1           0        3.512300   -3.321350    3.495785
     24          1           0        3.173624   -4.304045    2.077638
     25          1           0        5.223831   -3.774853    1.196840
 ---------------------------------------------------------------------
                    Distance matrix (angstroms):
                    1          2          3          4          5
     1  C    0.000000
     2  C    1.383076   0.000000
     3  C    1.387494   2.385434   0.000000
     4  C    2.392636   1.388051   2.734198   0.000000
     5  C    2.432033   2.776404   1.409856   2.362335   0.000000
     6  C    5.086064   5.531177   3.976542   5.024639   3.259600
     7  C    6.030768   6.623434   4.973573   6.298029   4.554446
     8  C    4.245887   3.718694   3.754998   2.420834   2.473778
     9  C    3.802346   4.290019   2.516253   3.767758   1.514312
    10  N    2.773835   2.391165   2.385598   1.352898   1.363580
    11  N    4.354482   5.011293   3.063229   4.649700   2.469347
    12  O    5.350462   5.487250   4.393622   4.725618   3.406646
    13  H    1.087646   2.151281   2.154374   3.385049   3.420202
    14  H    2.151288   1.086504   3.379186   2.147155   3.862500
    15  H    2.143725   3.372102   1.088352   3.822521   2.166804
    16  H    3.384383   2.157667   3.818988   1.085138   3.327155
    17  H    6.455066   6.908984   5.556953   6.556091   5.128354
    18  H    6.909173   7.529117   5.751145   7.133314   5.244334
    19  H    5.728498   6.505640   4.710985   6.409474   4.606538
    20  H    4.711285   4.330568   4.064418   3.126392   2.746617
    21  H    4.726300   4.322036   4.097937   3.104470   2.781263
    22  H    4.710745   3.878846   4.502688   2.491151   3.370417
    23  H    4.610394   4.840247   3.442995   4.027527   2.182923
    24  H    4.090312   4.752803   2.766209   4.391912   2.138089
    25  H    4.566234   5.451039   3.255793   5.309794   3.058314
                    6          7          8          9         10
     6  C    0.000000
     7  C    1.503959   0.000000
     8  C    4.106345   5.582423   0.000000
     9  C    2.481624   3.798408   2.946887   0.000000
    10  N    3.946085   5.333826   1.473115   2.525812   0.000000
    11  N    1.370659   2.413689   3.954852   1.454066   3.520002
    12  O    1.229039   2.401871   3.456328   2.839582   3.658665
    13  H    5.838935   6.607653   5.333447   4.670152   3.861477
    14  H    6.526192   7.560210   4.567948   5.376345   3.367491
    15  H    4.018906   4.783596   4.636256   2.704519   3.371347
    16  H    5.738521   7.037306   2.564744   4.614712   2.089316
    17  H    2.133529   1.093458   5.889338   4.574137   5.710094
    18  H    2.130390   1.093146   6.156974   4.229518   6.059404
    19  H    2.151897   1.093686   6.060618   3.987133   5.553235
    20  H    4.447492   5.951078   1.092966   2.869367   2.090714
    21  H    3.392374   4.823126   1.090454   2.918468   2.092775
    22  H    5.052649   6.490333   1.093185   4.025941   2.118006
    23  H    2.658070   4.083282   2.504829   1.091953   2.678252
    24  H    3.317592   4.448217   3.725281   1.095946   3.244816
    25  H    2.065977   2.527715   4.875556   2.128411   4.277413
                   11         12         13         14         15
    11  N    0.000000
    12  O    2.287510   0.000000
    13  H    5.071651   6.228713   0.000000
    14  H    6.065418   6.438196   2.491760   0.000000
    15  H    2.935879   4.710179   2.475494   4.281248   0.000000
    16  H    5.517686   5.239389   4.294870   2.488332   4.907216
    17  H    3.293882   2.576599   7.029366   7.766971   5.490820
    18  H    2.883802   2.938348   7.499155   8.505524   5.482536
    19  H    2.555556   3.227647   6.146123   7.408852   4.333504
    20  H    4.089692   3.917036   5.777579   5.211637   4.828224
    21  H    3.574363   2.535670   5.794774   5.193549   4.872691
    22  H    5.005882   4.277124   5.774058   4.522406   5.476652
    23  H    2.071641   2.624060   5.564446   5.904077   3.770045
    24  H    2.064117   3.839790   4.831322   5.820710   2.671276
    25  H    1.015955   3.180163   5.102084   6.479617   2.776482
                   16         17         18         19         20
    16  H    0.000000
    17  H    7.191999   0.000000
    18  H    7.862754   1.785455   0.000000
    19  H    7.250073   1.774805   1.784060   0.000000
    20  H    3.323646   6.403524   6.376536   6.435437   0.000000
    21  H    3.278749   5.029370   5.372469   5.436829   1.810352
    22  H    2.150916   6.678801   7.102098   6.988630   1.776880
    23  H    4.677150   4.775358   4.371889   4.527235   2.235439
    24  H    5.280470   5.351023   4.731011   4.491680   3.393936
    25  H    6.257919   3.531690   2.889613   2.288290   4.954648
                   21         22         23         24         25
    21  H    0.000000
    22  H    1.777528   0.000000
    23  H    2.358267   3.583822   0.000000
    24  H    3.871315   4.774466   1.758275   0.000000
    25  H    4.570540   5.928503   2.901750   2.293294   0.000000
 Stoichiometry    C9H13N2O(1+)
 Framework group  C1[X(C9H13N2O)]
 Deg. of freedom    69
 Full point group                 C1      NOp   1
 Largest Abelian subgroup         C1      NOp   1
 Largest concise Abelian subgroup C1      NOp   1
                         Standard orientation:                         
 ---------------------------------------------------------------------
 Center     Atomic      Atomic             Coordinates (Angstroms)
 Number     Number       Type             X           Y           Z
 ---------------------------------------------------------------------
      1          6           0       -2.303065   -1.725422   -0.266553
      2          6           0       -2.998633   -0.651884   -0.792483
      3          6           0       -1.130875   -1.484603    0.435668
      4          6           0       -2.512376    0.634250   -0.602481
      5          6           0       -0.653256   -0.170023    0.613020
      6          6           0        2.467727    0.037009   -0.304364
      7          6           0        3.623688   -0.765740   -0.834686
      8          6           0       -0.938411    2.261133    0.255609
      9          6           0        0.639524    0.037627    1.373770
     10          7           0       -1.371027    0.863115    0.086920
     11          7           0        1.780792   -0.574057    0.712211
     12          8           0        2.182853    1.153257   -0.732585
     13          1           0       -2.666882   -2.741355   -0.402533
     14          1           0       -3.918892   -0.806071   -1.349116
     15          1           0       -0.573765   -2.322254    0.850975
     16          1           0       -3.038424    1.495231   -1.001867
     17          1           0        3.823558   -0.475715   -1.869861
     18          1           0        4.508509   -0.569009   -0.223657
     19          1           0        3.398360   -1.835718   -0.811781
     20          1           0       -0.877115    2.472950    1.326100
     21          1           0        0.023429    2.388547   -0.242106
     22          1           0       -1.665301    2.941417   -0.195940
     23          1           0        0.868486    1.092637    1.537758
     24          1           0        0.549202   -0.427235    2.362123
     25          1           0        2.071723   -1.496963    1.021672
 ---------------------------------------------------------------------
 Rotational constants (GHZ):      1.6400218      0.6043177      0.5208604
 Standard basis: 6-31G(d) (6D, 7F)
 There are   206 symmetry adapted basis functions of A   symmetry.
 Integral buffers will be    131072 words long.
 Raffenetti 2 integral format.
 Two-electron integral symmetry is turned on.
   206 basis functions,   388 primitive gaussians,   206 cartesian basis functions
    44 alpha electrons       44 beta electrons
       nuclear repulsion energy       700.6009165499 Hartrees.
 NAtoms=   25 NActive=   25 NUniq=   25 SFac= 1.00D+00 NAtFMM=   60 NAOKFM=F Big=F
 One-electron integrals computed using PRISM.
 NBasis=   206 RedAO= T  NBF=   206
 NBsUse=   206 1.00D-06 NBFU=   206
 Harris functional with IExCor=  402 diagonalized for initial guess.
 ExpMin= 1.61D-01 ExpMax= 5.48D+03 ExpMxC= 8.25D+02 IAcc=3 IRadAn=         5 AccDes= 0.00D+00
 HarFok:  IExCor=  402 AccDes= 0.00D+00 IRadAn=         5 IDoV= 1
 ScaDFX=  1.000000  1.000000  1.000000  1.000000
 FoFCou: FMM=F IPFlag=           0 FMFlag=      100000 FMFlg1=           0
         NFxFlg=           0 DoJE=T BraDBF=F KetDBF=T FulRan=T
         Omega=  0.000000  0.000000  1.000000  0.000000  0.000000 ICntrl=     500 IOpCl=  0
         NMat0=    1 NMatS0=    1 NMatT0=    0 NMatD0=    1 NMtDS0=    0 NMtDT0=    0
         I1Cent=           4 NGrid=           0.
 Petite list used in FoFCou.
 Initial guess orbital symmetries:
       Occupied  (A) (A) (A) (A) (A) (A) (A) (A) (A) (A) (A) (A)
                 (A) (A) (A) (A) (A) (A) (A) (A) (A) (A) (A) (A)
                 (A) (A) (A) (A) (A) (A) (A) (A) (A) (A) (A) (A)
                 (A) (A) (A) (A) (A) (A) (A) (A)
       Virtual   (A) (A) (A) (A) (A) (A) (A) (A) (A) (A) (A) (A)
                 (A) (A) (A) (A) (A) (A) (A) (A) (A) (A) (A) (A)
                 (A) (A) (A) (A) (A) (A) (A) (A) (A) (A) (A) (A)
                 (A) (A) (A) (A) (A) (A) (A) (A) (A) (A) (A) (A)
                 (A) (A) (A) (A) (A) (A) (A) (A) (A) (A) (A) (A)
                 (A) (A) (A) (A) (A) (A) (A) (A) (A) (A) (A) (A)
                 (A) (A) (A) (A) (A) (A) (A) (A) (A) (A) (A) (A)
                 (A) (A) (A) (A) (A) (A) (A) (A) (A) (A) (A) (A)
                 (A) (A) (A) (A) (A) (A) (A) (A) (A) (A) (A) (A)
                 (A) (A) (A) (A) (A) (A) (A) (A) (A) (A) (A) (A)
                 (A) (A) (A) (A) (A) (A) (A) (A) (A) (A) (A) (A)
                 (A) (A) (A) (A) (A) (A) (A) (A) (A) (A) (A) (A)
                 (A) (A) (A) (A) (A) (A) (A) (A) (A) (A) (A) (A)
                 (A) (A) (A) (A) (A) (A)
 The electronic state of the initial guess is 1-A.
 Requested convergence on RMS density matrix=1.00D-08 within 128 cycles.
 Requested convergence on MAX density matrix=1.00D-06.
 Requested convergence on             energy=1.00D-06.
 No special actions if energy rises.
 Integral accuracy reduced to 1.0D-05 until final iterations.
 EnCoef did     2 forward-backward iterations
 Initial convergence to 1.0D-05 achieved.  Increase integral accuracy.
 SCF Done:  E(RB3LYP) =  -535.304721995     A.U. after   16 cycles
             Convg  =    0.2885D-08             -V/T =  2.0097
 Calling FoFJK, ICntrl=      2127 FMM=F ISym2X=0 I1Cent= 0 IOpClX= 0 NMat=1 NMatS=1 NMatT=0.
 ***** Axes restored to original set *****
 -------------------------------------------------------------------
 Center     Atomic                   Forces (Hartrees/Bohr)
 Number     Number              X              Y              Z
 -------------------------------------------------------------------
      1        6           0.003904639   -0.005428037   -0.006620061
      2        6          -0.005698591    0.009269101    0.008136100
      3        6           0.001664239   -0.000335273    0.009662905
      4        6          -0.005737993    0.006125856   -0.011503348
      5        6          -0.001251217   -0.000601764   -0.016941921
      6        6           0.004850313    0.010313695    0.009947254
      7        6           0.002388053    0.003171521   -0.004186913
      8        6           0.000905534   -0.001671470    0.009137982
      9        6           0.008164852   -0.005881587    0.008398919
     10        7          -0.001431822    0.000437504   -0.005246009
     11        7          -0.008059979   -0.004842479   -0.007570776
     12        8          -0.009293150   -0.005981135   -0.006529747
     13        1           0.000051216   -0.000469601    0.001458695
     14        1           0.000445440   -0.000192840    0.002947429
     15        1          -0.000019117    0.000442076    0.004475571
     16        1           0.002039295   -0.002577299    0.001205289
     17        1          -0.000305971   -0.002346748    0.002007638
     18        1           0.002876243   -0.000399090   -0.000324166
     19        1           0.002928121   -0.002114992   -0.000882402
     20        1           0.002216911    0.001899555    0.002828080
     21        1           0.002942482   -0.003597383    0.000959650
     22        1           0.000113573   -0.001501137   -0.004443482
     23        1          -0.001060085    0.001711376   -0.001190933
     24        1          -0.002129848    0.001886503   -0.000134465
     25        1          -0.000503137    0.002683649    0.004408710
 -------------------------------------------------------------------
 Cartesian Forces:  Max     0.016941921 RMS     0.005032833

 GradGradGradGradGradGradGradGradGradGradGradGradGradGradGradGradGradGrad
 Berny optimization.
 Internal  Forces:  Max     0.018014380 RMS     0.004398130
 Search for a local minimum.
 Step number   1 out of a maximum of  129
 All quantities printed in internal units (Hartrees-Bohrs-Radians)
 Mixed Optimization -- RFO/linear search
 Second derivative matrix not updated -- first step.
 ITU=  0
     Eigenvalues ---    0.00577   0.00714   0.00725   0.00977   0.01265
     Eigenvalues ---    0.01424   0.01470   0.01639   0.02072   0.02080
     Eigenvalues ---    0.02122   0.02247   0.02269   0.02281   0.02284
     Eigenvalues ---    0.02294   0.04968   0.06504   0.07355   0.07513
     Eigenvalues ---    0.07551   0.07644   0.10062   0.13309   0.16000
     Eigenvalues ---    0.16000   0.16000   0.16000   0.16000   0.16000
     Eigenvalues ---    0.16000   0.16000   0.16000   0.16000   0.16000
     Eigenvalues ---    0.21984   0.22000   0.22000   0.22499   0.24491
     Eigenvalues ---    0.24995   0.24999   0.25000   0.25000   0.30921
     Eigenvalues ---    0.31965   0.34134   0.34390   0.34416   0.34447
     Eigenvalues ---    0.34452   0.34472   0.34588   0.34760   0.35004
     Eigenvalues ---    0.35086   0.35220   0.35370   0.35381   0.37717
     Eigenvalues ---    0.41654   0.44859   0.44990   0.46236   0.48019
     Eigenvalues ---    0.50850   0.51152   0.53296   0.91488
 RFO step:  Lambda=-1.18193428D-02 EMin= 5.76629577D-03
 Linear search not attempted -- first point.
 Iteration  1 RMS(Cart)=  0.20453279 RMS(Int)=  0.00997045
 Iteration  2 RMS(Cart)=  0.02976860 RMS(Int)=  0.00030565
 Iteration  3 RMS(Cart)=  0.00030018 RMS(Int)=  0.00027610
 Iteration  4 RMS(Cart)=  0.00000008 RMS(Int)=  0.00027610
 Variable       Old X    -DE/DX   Delta X   Delta X   Delta X     New X
                                 (Linear)    (Quad)   (Total)
    R1        2.61364   0.01193   0.00000   0.02508   0.02501   2.63864
    R2        2.62198   0.00429   0.00000   0.00890   0.00883   2.63082
    R3        2.05535  -0.00147   0.00000  -0.00404  -0.00404   2.05131
    R4        2.62304  -0.00678   0.00000  -0.01295  -0.01295   2.61008
    R5        2.05319  -0.00158   0.00000  -0.00433  -0.00433   2.04887
    R6        2.66424  -0.01310   0.00000  -0.02999  -0.02998   2.63426
    R7        2.05669  -0.00287   0.00000  -0.00792  -0.00792   2.04876
    R8        2.55661   0.00515   0.00000   0.00913   0.00920   2.56580
    R9        2.05061  -0.00189   0.00000  -0.00516  -0.00516   2.04545
   R10        2.86163   0.00275   0.00000   0.00857   0.00857   2.87021
   R11        2.57679  -0.00220   0.00000  -0.00510  -0.00503   2.57176
   R12        2.84207   0.00863   0.00000   0.02604   0.02604   2.86811
   R13        2.59017   0.00390   0.00000   0.00749   0.00749   2.59766
   R14        2.32255  -0.00635   0.00000  -0.00686  -0.00686   2.31569
   R15        2.06634  -0.00187   0.00000  -0.00525  -0.00525   2.06109
   R16        2.06575   0.00165   0.00000   0.00462   0.00462   2.07036
   R17        2.06677   0.00110   0.00000   0.00309   0.00309   2.06986
   R18        2.78378   0.00892   0.00000   0.02439   0.02439   2.80818
   R19        2.06541  -0.00144   0.00000  -0.00403  -0.00403   2.06137
   R20        2.06066   0.00245   0.00000   0.00680   0.00680   2.06746
   R21        2.06582  -0.00289   0.00000  -0.00811  -0.00811   2.05771
   R22        2.74779  -0.00392   0.00000  -0.01007  -0.01007   2.73772
   R23        2.06349  -0.00117   0.00000  -0.00328  -0.00328   2.06021
   R24        2.07104  -0.00096   0.00000  -0.00271  -0.00271   2.06832
   R25        1.91988  -0.00505   0.00000  -0.01094  -0.01094   1.90894
    A1        2.07443   0.00007   0.00000   0.00318   0.00311   2.07753
    A2        2.10511   0.00025   0.00000   0.00008   0.00011   2.10523
    A3        2.10364  -0.00032   0.00000  -0.00326  -0.00323   2.10042
    A4        2.08400  -0.00374   0.00000  -0.01160  -0.01161   2.07239
    A5        2.10671   0.00447   0.00000   0.02097   0.02096   2.12767
    A6        2.09247  -0.00074   0.00000  -0.00935  -0.00936   2.08311
    A7        2.10796   0.00047   0.00000   0.00058   0.00058   2.10854
    A8        2.08518   0.00333   0.00000   0.02045   0.02044   2.10561
    A9        2.09004  -0.00380   0.00000  -0.02100  -0.02102   2.06902
   A10        2.12003  -0.00061   0.00000  -0.00083  -0.00070   2.11933
   A11        2.11177   0.00333   0.00000   0.01802   0.01794   2.12970
   A12        2.05138  -0.00272   0.00000  -0.01717  -0.01725   2.03414
   A13        2.07175   0.00964   0.00000   0.03862   0.03828   2.11003
   A14        2.07100   0.00134   0.00000   0.00139   0.00131   2.07231
   A15        2.14042  -0.01099   0.00000  -0.04020  -0.04047   2.09995
   A16        1.99190   0.01068   0.00000   0.04081   0.04081   2.03271
   A17        2.14131   0.00734   0.00000   0.02808   0.02808   2.16939
   A18        2.14976  -0.01801   0.00000  -0.06878  -0.06879   2.08097
   A19        1.91001  -0.00173   0.00000  -0.01045  -0.01051   1.89950
   A20        1.90601   0.00219   0.00000   0.00897   0.00886   1.91487
   A21        1.93526   0.00450   0.00000   0.03040   0.03026   1.96552
   A22        1.91079  -0.00210   0.00000  -0.02076  -0.02079   1.89000
   A23        1.89333   0.00025   0.00000   0.00889   0.00881   1.90214
   A24        1.90829  -0.00321   0.00000  -0.01772  -0.01790   1.89039
   A25        1.88867   0.00572   0.00000   0.03231   0.03242   1.92109
   A26        1.89406   0.00058   0.00000   0.00313   0.00312   1.89717
   A27        1.92623  -0.00598   0.00000  -0.03353  -0.03339   1.89284
   A28        1.95512  -0.00370   0.00000  -0.02418  -0.02422   1.93090
   A29        1.89785   0.00014   0.00000   0.00141   0.00169   1.89954
   A30        1.90208   0.00306   0.00000   0.01987   0.01988   1.92197
   A31        1.96471  -0.00311   0.00000  -0.01577  -0.01674   1.94798
   A32        1.96811  -0.00213   0.00000  -0.03872  -0.03971   1.92839
   A33        1.90131   0.00063   0.00000   0.01786   0.01770   1.91901
   A34        1.88619  -0.00019   0.00000  -0.02144  -0.02271   1.86348
   A35        1.87188   0.00506   0.00000   0.05470   0.05458   1.92646
   A36        1.86676   0.00027   0.00000   0.00939   0.00978   1.87654
   A37        2.10890   0.00247   0.00000   0.00738   0.00725   2.11616
   A38        2.05629   0.00443   0.00000   0.01806   0.01762   2.07391
   A39        2.11797  -0.00689   0.00000  -0.02515  -0.02558   2.09239
   A40        2.14510  -0.01693   0.00000  -0.07301  -0.07304   2.07207
   A41        2.07989   0.00757   0.00000   0.03136   0.03133   2.11122
   A42        2.05818   0.00935   0.00000   0.04171   0.04168   2.09986
    D1       -0.00367   0.00003   0.00000   0.00091   0.00087  -0.00280
    D2        3.13959  -0.00016   0.00000  -0.00634  -0.00654   3.13305
    D3        3.14024   0.00003   0.00000   0.00232   0.00247  -3.14048
    D4        0.00031  -0.00016   0.00000  -0.00493  -0.00494  -0.00463
    D5        0.00033   0.00035   0.00000   0.01267   0.01292   0.01324
    D6       -3.13807   0.00013   0.00000   0.00562   0.00587  -3.13220
    D7        3.13961   0.00035   0.00000   0.01126   0.01133  -3.13225
    D8        0.00122   0.00014   0.00000   0.00421   0.00428   0.00550
    D9       -0.00003  -0.00020   0.00000  -0.00854  -0.00869  -0.00872
   D10       -3.13918  -0.00047   0.00000  -0.01657  -0.01670   3.12730
   D11        3.13991  -0.00001   0.00000  -0.00132  -0.00144   3.13847
   D12        0.00076  -0.00028   0.00000  -0.00935  -0.00946  -0.00870
   D13       -3.12952   0.00052   0.00000   0.02018   0.02094  -3.10858
   D14        0.00671  -0.00056   0.00000  -0.01881  -0.01894  -0.01224
   D15        0.00886   0.00075   0.00000   0.02732   0.02792   0.03678
   D16       -3.13809  -0.00033   0.00000  -0.01168  -0.01196   3.13313
   D17        0.00734  -0.00001   0.00000   0.00225   0.00260   0.00995
   D18       -3.12743  -0.00133   0.00000  -0.04499  -0.04527   3.11049
   D19       -3.13661   0.00025   0.00000   0.01006   0.01025  -3.12637
   D20        0.01180  -0.00106   0.00000  -0.03718  -0.03762  -0.02582
   D21        1.09928   0.00427   0.00000   0.12859   0.12824   1.22752
   D22       -3.04421   0.00002   0.00000   0.05865   0.05922  -2.98499
   D23       -0.97461  -0.00053   0.00000   0.05827   0.05821  -0.91641
   D24       -2.03673   0.00535   0.00000   0.16907   0.16862  -1.86811
   D25        0.10297   0.00111   0.00000   0.09913   0.09959   0.20256
   D26        2.17257   0.00055   0.00000   0.09875   0.09858   2.27115
   D27       -0.01050   0.00037   0.00000   0.01119   0.01113   0.00063
   D28        3.12403   0.00178   0.00000   0.06029   0.05967  -3.09948
   D29        3.12551  -0.00069   0.00000  -0.02916  -0.02827   3.09725
   D30       -0.02314   0.00072   0.00000   0.01994   0.02028  -0.00287
   D31        2.69433   0.00143   0.00000   0.01371   0.01365   2.70798
   D32       -1.49746  -0.00085   0.00000  -0.01250  -0.01264  -1.51010
   D33        0.60642  -0.00058   0.00000  -0.00955  -0.00959   0.59683
   D34       -0.46868   0.00142   0.00000   0.01859   0.01868  -0.44999
   D35        1.62272  -0.00086   0.00000  -0.00762  -0.00761   1.61511
   D36       -2.55658  -0.00059   0.00000  -0.00467  -0.00456  -2.56114
   D37        3.12988  -0.00199   0.00000  -0.06471  -0.06481   3.06507
   D38       -0.01640  -0.00163   0.00000  -0.05090  -0.05104  -0.06744
   D39        0.00982  -0.00234   0.00000  -0.07097  -0.07083  -0.06101
   D40       -3.13646  -0.00198   0.00000  -0.05716  -0.05706   3.08966
   D41        2.11274   0.00023   0.00000  -0.01202  -0.01230   2.10044
   D42       -1.02199  -0.00114   0.00000  -0.05965  -0.05963  -1.08163
   D43       -2.04518  -0.00049   0.00000  -0.02011  -0.02024  -2.06541
   D44        1.10328  -0.00185   0.00000  -0.06775  -0.06757   1.03570
   D45        0.03800   0.00006   0.00000  -0.01383  -0.01388   0.02413
   D46       -3.09673  -0.00130   0.00000  -0.06147  -0.06121   3.12524
   D47        1.45170  -0.00370   0.00000  -0.10198  -0.10184   1.34986
   D48       -1.68526  -0.00405   0.00000  -0.11561  -0.11550  -1.80075
   D49       -0.73340   0.00133   0.00000  -0.02545  -0.02573  -0.75913
   D50        2.41283   0.00098   0.00000  -0.03908  -0.03938   2.37344
   D51       -2.74047  -0.00145   0.00000  -0.05337  -0.05319  -2.79366
   D52        0.40576  -0.00180   0.00000  -0.06700  -0.06685   0.33891
         Item               Value     Threshold  Converged?
 Maximum Force            0.018014     0.000450     NO 
 RMS     Force            0.004398     0.000300     NO 
 Maximum Displacement     0.848495     0.001800     NO 
 RMS     Displacement     0.227666     0.001200     NO 
 Predicted change in Energy=-6.962498D-03
 GradGradGradGradGradGradGradGradGradGradGradGradGradGradGradGradGradGrad

                          Input orientation:                          
 ---------------------------------------------------------------------
 Center     Atomic      Atomic             Coordinates (Angstroms)
 Number     Number       Type             X           Y           Z
 ---------------------------------------------------------------------
      1          6           0        1.564729   -1.268515   -0.206787
      2          6           0        1.070314   -0.271995    0.637121
      3          6           0        2.334776   -2.293232    0.336459
      4          6           0        1.360471   -0.339629    1.985800
      5          6           0        2.599334   -2.339288    1.704340
      6          6           0        5.615075   -2.314305    2.557417
      7          6           0        7.087046   -2.254160    2.192438
      8          6           0        2.413249   -1.348192    3.953518
      9          6           0        3.474357   -3.432270    2.293089
     10          7           0        2.102145   -1.353826    2.500435
     11          7           0        4.862544   -3.267156    1.912937
     12          8           0        5.079112   -1.588724    3.386818
     13          1           0        1.356170   -1.244795   -1.271806
     14          1           0        0.472558    0.551433    0.262725
     15          1           0        2.739032   -3.075485   -0.296040
     16          1           0        1.015644    0.410858    2.685418
     17          1           0        7.459324   -1.249256    2.395323
     18          1           0        7.650482   -2.961024    2.811468
     19          1           0        7.270311   -2.496323    1.140060
     20          1           0        2.016114   -2.248209    4.424866
     21          1           0        3.498649   -1.293831    4.079645
     22          1           0        1.939720   -0.477248    4.403981
     23          1           0        3.440859   -3.402614    3.382388
     24          1           0        3.107358   -4.414358    1.978817
     25          1           0        5.266705   -3.849163    1.192967
 ---------------------------------------------------------------------
                    Distance matrix (angstroms):
                    1          2          3          4          5
     1  C    0.000000
     2  C    1.396309   0.000000
     3  C    1.392168   2.403052   0.000000
     4  C    2.389977   1.381196   2.736085   0.000000
     5  C    2.422678   2.783983   1.393990   2.369101   0.000000
     6  C    5.013961   5.339796   3.961497   4.725225   3.134176
     7  C    6.101128   6.522964   5.101986   6.041672   4.514980
     8  C    4.246701   3.736330   3.739300   2.448970   2.464893
     9  C    3.818101   4.302208   2.534651   3.758640   1.518849
    10  N    2.761366   2.388927   2.370525   1.357765   1.360919
    11  N    4.400384   4.997970   3.134234   4.565111   2.454907
    12  O    5.036608   5.036376   4.163220   4.165499   3.089236
    13  H    1.085507   2.161493   2.154857   3.381027   3.405997
    14  H    2.173819   1.084213   3.400796   2.133394   3.867519
    15  H    2.156872   3.393371   1.084159   3.819966   2.136123
    16  H    3.389194   2.159814   3.817043   1.082405   3.321730
    17  H    6.443415   6.698192   5.620481   6.179898   5.028432
    18  H    7.000774   7.433524   5.901555   6.864232   5.208300
    19  H    5.989589   6.606100   5.004651   6.347663   4.707558
    20  H    4.755603   4.375725   4.101054   3.165689   2.783829
    21  H    4.702572   4.334967   4.045348   3.141097   2.746602
    22  H    4.693176   3.871334   4.471979   2.490395   3.345198
    23  H    4.577818   4.791320   3.425176   3.957315   2.157468
    24  H    4.129516   4.807169   2.791666   4.433405   2.153913
    25  H    4.724795   5.542093   3.427935   5.310751   3.107425
                    6          7          8          9         10
     6  C    0.000000
     7  C    1.517737   0.000000
     8  C    3.624108   5.076077   0.000000
     9  C    2.429484   3.801263   2.868162   0.000000
    10  N    3.642313   5.074909   1.486024   2.499178   0.000000
    11  N    1.374621   2.460222   3.720946   1.448738   3.409661
    12  O    1.225410   2.429228   2.736024   2.677713   3.114994
    13  H    5.826240   6.772204   5.332177   4.688310   3.846839
    14  H    6.318509   7.439530   4.582228   5.385450   3.360493
    15  H    4.122286   5.076645   4.598741   2.715068   3.345148
    16  H    5.347679   6.648855   2.579852   4.579173   2.080580
    17  H    2.135851   1.090681   5.282105   4.544884   5.359231
    18  H    2.150737   1.095589   5.597688   4.234479   5.784797
    19  H    2.186741   1.095321   5.729293   4.076119   5.464967
    20  H    4.055152   5.540589   1.090833   2.841293   2.123854
    21  H    2.799608   4.166578   1.094055   2.786628   2.108964
    22  H    4.504755   5.877355   1.088895   3.942478   2.101965
    23  H    2.567530   4.003699   2.367027   1.090217   2.601447
    24  H    3.321693   4.533211   3.712492   1.094509   3.263341
    25  H    2.082996   2.618514   4.692302   2.143964   4.236817
                   11         12         13         14         15
    11  N    0.000000
    12  O    2.244184   0.000000
    13  H    5.150456   5.973388   0.000000
    14  H    6.047876   5.963269   2.522299   0.000000
    15  H    3.070117   4.609759   2.493162   4.313197   0.000000
    16  H    5.378025   4.582801   4.303111   2.486793   4.900382
    17  H    3.323836   2.600714   7.120137   7.523653   5.732339
    18  H    2.945110   2.970888   7.696554   8.387851   5.813093
    19  H    2.643646   3.266957   6.508494   7.501199   4.788560
    20  H    3.930676   3.300670   5.821893   5.248236   4.847057
    21  H    3.232468   1.750667   5.764603   5.208753   4.785179
    22  H    4.746766   3.482210   5.757101   4.512288   5.429543
    23  H    2.049103   2.444195   5.537475   5.846161   3.759044
    24  H    2.097877   3.722161   4.866143   5.877604   2.665187
    25  H    1.010165   3.155591   5.305670   6.573770   3.033950
                   16         17         18         19         20
    16  H    0.000000
    17  H    6.660417   0.000000
    18  H    7.443558   1.771967   0.000000
    19  H    7.068288   1.779490   1.775973   0.000000
    20  H    3.331255   5.894531   5.904004   6.201460   0.000000
    21  H    3.318908   4.304170   4.650325   4.930779   1.796643
    22  H    2.143853   5.924250   6.427912   6.568489   1.772731
    23  H    4.572745   4.664688   4.271051   4.529249   2.109339
    24  H    5.306342   5.397310   4.842051   4.659673   3.444731
    25  H    6.200541   3.607319   3.015083   2.418142   4.855365
                   21         22         23         24         25
    21  H    0.000000
    22  H    1.789486   0.000000
    23  H    2.221818   3.443085   0.000000
    24  H    3.782099   4.769238   1.762061   0.000000
    25  H    4.241303   5.722696   2.885599   2.366387   0.000000
 Stoichiometry    C9H13N2O(1+)
 Framework group  C1[X(C9H13N2O)]
 Deg. of freedom    69
 Full point group                 C1      NOp   1
 Largest Abelian subgroup         C1      NOp   1
 Largest concise Abelian subgroup C1      NOp   1
                         Standard orientation:                         
 ---------------------------------------------------------------------
 Center     Atomic      Atomic             Coordinates (Angstroms)
 Number     Number       Type             X           Y           Z
 ---------------------------------------------------------------------
      1          6           0       -2.463063   -1.523501   -0.406741
      2          6           0       -2.987786   -0.313516   -0.865306
      3          6           0       -1.289417   -1.510498    0.341936
      4          6           0       -2.324092    0.857731   -0.556449
      5          6           0       -0.650324   -0.309766    0.646916
      6          6           0        2.315327   -0.007127   -0.320753
      7          6           0        3.527949   -0.562310   -1.045216
      8          6           0       -0.498560    2.142599    0.450526
      9          6           0        0.652784   -0.296077    1.427060
     10          7           0       -1.187526    0.852719    0.186327
     11          7           0        1.752121   -0.814505    0.638687
     12          8           0        1.834225    1.100607   -0.528347
     13          1           0       -2.959167   -2.462245   -0.632497
     14          1           0       -3.894350   -0.270150   -1.458417
     15          1           0       -0.854454   -2.435357    0.703661
     16          1           0       -2.676298    1.823508   -0.895310
     17          1           0        3.605863   -0.081328   -2.021008
     18          1           0        4.435494   -0.333550   -0.475704
     19          1           0        3.474330   -1.647223   -1.185989
     20          1           0       -0.442393    2.323846    1.524729
     21          1           0        0.503630    2.100884    0.013684
     22          1           0       -1.075462    2.942375   -0.011247
     23          1           0        0.919492    0.723378    1.706614
     24          1           0        0.541133   -0.872480    2.350772
     25          1           0        2.099304   -1.749224    0.800543
 ---------------------------------------------------------------------
 Rotational constants (GHZ):      1.6818683      0.6424931      0.5621812
 Standard basis: 6-31G(d) (6D, 7F)
 There are   206 symmetry adapted basis functions of A   symmetry.
 Integral buffers will be    131072 words long.
 Raffenetti 2 integral format.
 Two-electron integral symmetry is turned on.
   206 basis functions,   388 primitive gaussians,   206 cartesian basis functions
    44 alpha electrons       44 beta electrons
       nuclear repulsion energy       712.4724094476 Hartrees.
 NAtoms=   25 NActive=   25 NUniq=   25 SFac= 1.00D+00 NAtFMM=   60 NAOKFM=F Big=F
 One-electron integrals computed using PRISM.
 NBasis=   206 RedAO= T  NBF=   206
 NBsUse=   206 1.00D-06 NBFU=   206
 Initial guess read from the read-write file.
 B after Tr=     0.000000    0.000000    0.000000
         Rot=    1.000000    0.000000    0.000000    0.000000 Ang=   0.00 deg.
 Initial guess orbital symmetries:
       Occupied  (A) (A) (A) (A) (A) (A) (A) (A) (A) (A) (A) (A)
                 (A) (A) (A) (A) (A) (A) (A) (A) (A) (A) (A) (A)
                 (A) (A) (A) (A) (A) (A) (A) (A) (A) (A) (A) (A)
                 (A) (A) (A) (A) (A) (A) (A) (A)
       Virtual   (A) (A) (A) (A) (A) (A) (A) (A) (A) (A) (A) (A)
                 (A) (A) (A) (A) (A) (A) (A) (A) (A) (A) (A) (A)
                 (A) (A) (A) (A) (A) (A) (A) (A) (A) (A) (A) (A)
                 (A) (A) (A) (A) (A) (A) (A) (A) (A) (A) (A) (A)
                 (A) (A) (A) (A) (A) (A) (A) (A) (A) (A) (A) (A)
                 (A) (A) (A) (A) (A) (A) (A) (A) (A) (A) (A) (A)
                 (A) (A) (A) (A) (A) (A) (A) (A) (A) (A) (A) (A)
                 (A) (A) (A) (A) (A) (A) (A) (A) (A) (A) (A) (A)
                 (A) (A) (A) (A) (A) (A) (A) (A) (A) (A) (A) (A)
                 (A) (A) (A) (A) (A) (A) (A) (A) (A) (A) (A) (A)
                 (A) (A) (A) (A) (A) (A) (A) (A) (A) (A) (A) (A)
                 (A) (A) (A) (A) (A) (A) (A) (A) (A) (A) (A) (A)
                 (A) (A) (A) (A) (A) (A) (A) (A) (A) (A) (A) (A)
                 (A) (A) (A) (A) (A) (A)
 Harris functional with IExCor=  402 diagonalized for initial guess.
 ExpMin= 1.61D-01 ExpMax= 5.48D+03 ExpMxC= 8.25D+02 IAcc=3 IRadAn=         5 AccDes= 0.00D+00
 HarFok:  IExCor=  402 AccDes= 0.00D+00 IRadAn=         5 IDoV= 1
 ScaDFX=  1.000000  1.000000  1.000000  1.000000
 FoFCou: FMM=F IPFlag=           0 FMFlag=      100000 FMFlg1=           0
         NFxFlg=           0 DoJE=T BraDBF=F KetDBF=T FulRan=T
         Omega=  0.000000  0.000000  1.000000  0.000000  0.000000 ICntrl=     500 IOpCl=  0
         NMat0=    1 NMatS0=    1 NMatT0=    0 NMatD0=    1 NMtDS0=    0 NMtDT0=    0
         I1Cent=           4 NGrid=           0.
 Petite list used in FoFCou.
 Requested convergence on RMS density matrix=1.00D-08 within 128 cycles.
 Requested convergence on MAX density matrix=1.00D-06.
 Requested convergence on             energy=1.00D-06.
 No special actions if energy rises.
 Integral accuracy reduced to 1.0D-05 until final iterations.
 Initial convergence to 1.0D-05 achieved.  Increase integral accuracy.
 SCF Done:  E(RB3LYP) =  -535.303370442     A.U. after   15 cycles
             Convg  =    0.4395D-08             -V/T =  2.0095
 Calling FoFJK, ICntrl=      2127 FMM=F ISym2X=0 I1Cent= 0 IOpClX= 0 NMat=1 NMatS=1 NMatT=0.
 ***** Axes restored to original set *****
 -------------------------------------------------------------------
 Center     Atomic                   Forces (Hartrees/Bohr)
 Number     Number              X              Y              Z
 -------------------------------------------------------------------
      1        6           0.000766638   -0.000669904   -0.000395688
      2        6           0.000550670   -0.000261492   -0.000010447
      3        6          -0.002150106    0.000578060    0.000535407
      4        6          -0.000353831   -0.000028263   -0.001295648
      5        6           0.000008780    0.000588492   -0.003580127
      6        6           0.003542717   -0.005432451   -0.007528697
      7        6          -0.002769123    0.001472375   -0.000067855
      8        6          -0.009440748    0.006752731    0.008730214
      9        6           0.000338796   -0.001274970    0.005549054
     10        7           0.001387969    0.000134893    0.004258969
     11        7           0.004076663    0.000012752   -0.002967126
     12        8           0.017598996    0.003025171   -0.000562032
     13        1          -0.000057698   -0.000007102    0.000079628
     14        1           0.000022666   -0.000228526    0.000057671
     15        1          -0.000057527   -0.000466133   -0.000190288
     16        1           0.000259920   -0.000793613    0.001139917
     17        1           0.000041747    0.000257806    0.000825844
     18        1          -0.000180510   -0.000200898    0.000391791
     19        1          -0.000736077   -0.000869010    0.000698024
     20        1          -0.002271758    0.000309121   -0.000598308
     21        1          -0.007838740   -0.000604198   -0.000849796
     22        1          -0.002382926    0.000153834   -0.000893110
     23        1          -0.002405163   -0.002877666   -0.001287375
     24        1           0.001493993    0.001472713   -0.002702190
     25        1           0.000554651   -0.001043725    0.000662168
 -------------------------------------------------------------------
 Cartesian Forces:  Max     0.017598996 RMS     0.003361596

 GradGradGradGradGradGradGradGradGradGradGradGradGradGradGradGradGradGrad
 Berny optimization.
 Using GEDIIS/GDIIS optimizer.
 Internal  Forces:  Max     0.054616769 RMS     0.010834658
 Search for a local minimum.
 Step number   2 out of a maximum of  129
 All quantities printed in internal units (Hartrees-Bohrs-Radians)
 Mixed Optimization -- RFO/linear search
 Update second derivatives using D2CorX and points    2    1
 DE=  1.35D-03 DEPred=-6.96D-03 R=-1.94D-01
 Trust test=-1.94D-01 RLast= 4.25D-01 DXMaxT set to 1.50D-01
 ITU= -1  0
 Use linear search instead of GDIIS.
 Quartic linear search produced a step of -0.44800.
 Iteration  1 RMS(Cart)=  0.10366674 RMS(Int)=  0.00230423
 Iteration  2 RMS(Cart)=  0.00388479 RMS(Int)=  0.00006833
 Iteration  3 RMS(Cart)=  0.00000475 RMS(Int)=  0.00006827
 Iteration  4 RMS(Cart)=  0.00000000 RMS(Int)=  0.00006827
 Variable       Old X    -DE/DX   Delta X   Delta X   Delta X     New X
                                 (Linear)    (Quad)   (Total)
    R1        2.63864  -0.00420  -0.01120   0.00000  -0.01119   2.62746
    R2        2.63082  -0.00300  -0.00396   0.00000  -0.00394   2.62688
    R3        2.05131  -0.00007   0.00181   0.00000   0.00181   2.05312
    R4        2.61008  -0.00201   0.00580   0.00000   0.00580   2.61589
    R5        2.04887  -0.00021   0.00194   0.00000   0.00194   2.05081
    R6        2.63426   0.00218   0.01343   0.00000   0.01343   2.64769
    R7        2.04876   0.00043   0.00355   0.00000   0.00355   2.05231
    R8        2.56580   0.00106  -0.00412   0.00000  -0.00414   2.56167
    R9        2.04545   0.00010   0.00231   0.00000   0.00231   2.04776
   R10        2.87021   0.01364  -0.00384   0.00000  -0.00384   2.86637
   R11        2.57176   0.02163   0.00225   0.00000   0.00223   2.57400
   R12        2.86811  -0.00395  -0.01166   0.00000  -0.01166   2.85644
   R13        2.59766   0.00544  -0.00335   0.00000  -0.00335   2.59430
   R14        2.31569  -0.00629   0.00307   0.00000   0.00307   2.31876
   R15        2.06109   0.00041   0.00235   0.00000   0.00235   2.06344
   R16        2.07036   0.00026  -0.00207   0.00000  -0.00207   2.06829
   R17        2.06986  -0.00060  -0.00138   0.00000  -0.00138   2.06847
   R18        2.80818   0.00168  -0.01093   0.00000  -0.01093   2.79725
   R19        2.06137   0.00031   0.00181   0.00000   0.00181   2.06318
   R20        2.06746  -0.00791  -0.00305   0.00000  -0.00305   2.06442
   R21        2.05771   0.00079   0.00363   0.00000   0.00363   2.06134
   R22        2.73772   0.02313   0.00451   0.00000   0.00451   2.74223
   R23        2.06021  -0.00129   0.00147   0.00000   0.00147   2.06168
   R24        2.06832  -0.00105   0.00122   0.00000   0.00122   2.06954
   R25        1.90894   0.00035   0.00490   0.00000   0.00490   1.91384
    A1        2.07753  -0.00025  -0.00139   0.00000  -0.00137   2.07616
    A2        2.10523   0.00009  -0.00005   0.00000  -0.00006   2.10517
    A3        2.10042   0.00016   0.00144   0.00000   0.00144   2.10186
    A4        2.07239   0.00014   0.00520   0.00000   0.00521   2.07760
    A5        2.12767  -0.00009  -0.00939   0.00000  -0.00939   2.11828
    A6        2.08311  -0.00003   0.00419   0.00000   0.00420   2.08731
    A7        2.10854   0.00718  -0.00026   0.00000  -0.00026   2.10828
    A8        2.10561  -0.00356  -0.00916   0.00000  -0.00915   2.09646
    A9        2.06902  -0.00361   0.00942   0.00000   0.00942   2.07844
   A10        2.11933   0.00632   0.00031   0.00000   0.00028   2.11961
   A11        2.12970  -0.00175  -0.00804   0.00000  -0.00802   2.12169
   A12        2.03414  -0.00456   0.00773   0.00000   0.00775   2.04188
   A13        2.11003  -0.02851  -0.01715   0.00000  -0.01707   2.09296
   A14        2.07231  -0.00728  -0.00059   0.00000  -0.00057   2.07174
   A15        2.09995   0.03597   0.01813   0.00000   0.01820   2.11815
   A16        2.03271  -0.01114  -0.01828   0.00000  -0.01828   2.01443
   A17        2.16939  -0.01374  -0.01258   0.00000  -0.01258   2.15681
   A18        2.08097   0.02486   0.03082   0.00000   0.03082   2.11179
   A19        1.89950   0.00001   0.00471   0.00000   0.00472   1.90422
   A20        1.91487  -0.00061  -0.00397   0.00000  -0.00394   1.91093
   A21        1.96552  -0.00082  -0.01356   0.00000  -0.01353   1.95200
   A22        1.89000   0.00005   0.00931   0.00000   0.00932   1.89932
   A23        1.90214   0.00109  -0.00395   0.00000  -0.00393   1.89822
   A24        1.89039   0.00030   0.00802   0.00000   0.00807   1.89845
   A25        1.92109  -0.00186  -0.01452   0.00000  -0.01455   1.90654
   A26        1.89717   0.00153  -0.00140   0.00000  -0.00139   1.89578
   A27        1.89284  -0.00271   0.01496   0.00000   0.01492   1.90777
   A28        1.93090   0.00127   0.01085   0.00000   0.01086   1.94176
   A29        1.89954   0.00013  -0.00076   0.00000  -0.00082   1.89871
   A30        1.92197   0.00155  -0.00891   0.00000  -0.00891   1.91305
   A31        1.94798   0.02170   0.00750   0.00000   0.00774   1.95572
   A32        1.92839  -0.00250   0.01779   0.00000   0.01804   1.94643
   A33        1.91901  -0.00940  -0.00793   0.00000  -0.00789   1.91112
   A34        1.86348   0.00934   0.01017   0.00000   0.01049   1.87397
   A35        1.92646  -0.02138  -0.02445   0.00000  -0.02443   1.90203
   A36        1.87654   0.00194  -0.00438   0.00000  -0.00448   1.87206
   A37        2.11616  -0.00608  -0.00325   0.00000  -0.00322   2.11294
   A38        2.07391  -0.02360  -0.00789   0.00000  -0.00778   2.06613
   A39        2.09239   0.02990   0.01146   0.00000   0.01157   2.10396
   A40        2.07207   0.05462   0.03272   0.00000   0.03273   2.10480
   A41        2.11122  -0.02740  -0.01404   0.00000  -0.01403   2.09719
   A42        2.09986  -0.02723  -0.01867   0.00000  -0.01867   2.08120
    D1       -0.00280  -0.00173  -0.00039   0.00000  -0.00038  -0.00318
    D2        3.13305   0.00085   0.00293   0.00000   0.00298   3.13603
    D3       -3.14048  -0.00197  -0.00111   0.00000  -0.00114   3.14156
    D4       -0.00463   0.00061   0.00221   0.00000   0.00222  -0.00242
    D5        0.01324  -0.00198  -0.00579   0.00000  -0.00585   0.00739
    D6       -3.13220   0.00025  -0.00263   0.00000  -0.00269  -3.13489
    D7       -3.13225  -0.00175  -0.00507   0.00000  -0.00509  -3.13734
    D8        0.00550   0.00049  -0.00192   0.00000  -0.00193   0.00357
    D9       -0.00872   0.00207   0.00389   0.00000   0.00393  -0.00479
   D10        3.12730   0.00427   0.00748   0.00000   0.00752   3.13482
   D11        3.13847  -0.00045   0.00065   0.00000   0.00067   3.13914
   D12       -0.00870   0.00175   0.00424   0.00000   0.00426  -0.00443
   D13       -3.10858   0.00015  -0.00938   0.00000  -0.00957  -3.11815
   D14       -0.01224   0.00547   0.00849   0.00000   0.00852  -0.00372
   D15        0.03678  -0.00204  -0.01251   0.00000  -0.01266   0.02412
   D16        3.13313   0.00328   0.00536   0.00000   0.00543   3.13856
   D17        0.00995   0.00143  -0.00117   0.00000  -0.00125   0.00869
   D18        3.11049   0.00841   0.02028   0.00000   0.02035   3.13084
   D19       -3.12637  -0.00067  -0.00459   0.00000  -0.00464  -3.13100
   D20       -0.02582   0.00631   0.01685   0.00000   0.01696  -0.00886
   D21        1.22752  -0.02407  -0.05745   0.00000  -0.05736   1.17015
   D22       -2.98499  -0.00006  -0.02653   0.00000  -0.02667  -3.01166
   D23       -0.91641  -0.00506  -0.02608   0.00000  -0.02606  -0.94247
   D24       -1.86811  -0.02832  -0.07554   0.00000  -0.07543  -1.94355
   D25        0.20256  -0.00432  -0.04462   0.00000  -0.04473   0.15783
   D26        2.27115  -0.00932  -0.04417   0.00000  -0.04413   2.22702
   D27        0.00063  -0.00518  -0.00499   0.00000  -0.00497  -0.00434
   D28       -3.09948  -0.01098  -0.02673   0.00000  -0.02658  -3.12606
   D29        3.09725  -0.00161   0.01266   0.00000   0.01244   3.10969
   D30       -0.00287  -0.00741  -0.00908   0.00000  -0.00917  -0.01203
   D31        2.70798   0.00053  -0.00612   0.00000  -0.00610   2.70188
   D32       -1.51010   0.00025   0.00566   0.00000   0.00570  -1.50440
   D33        0.59683  -0.00033   0.00430   0.00000   0.00431   0.60114
   D34       -0.44999   0.00003  -0.00837   0.00000  -0.00839  -0.45839
   D35        1.61511  -0.00025   0.00341   0.00000   0.00340   1.61851
   D36       -2.56114  -0.00083   0.00204   0.00000   0.00201  -2.55913
   D37        3.06507  -0.00079   0.02903   0.00000   0.02906   3.09413
   D38       -0.06744   0.00077   0.02286   0.00000   0.02290  -0.04454
   D39       -0.06101   0.00004   0.03173   0.00000   0.03170  -0.02931
   D40        3.08966   0.00161   0.02556   0.00000   0.02554   3.11520
   D41        2.10044  -0.00448   0.00551   0.00000   0.00558   2.10602
   D42       -1.08163   0.00155   0.02672   0.00000   0.02671  -1.05492
   D43       -2.06541  -0.00310   0.00907   0.00000   0.00910  -2.05632
   D44        1.03570   0.00294   0.03027   0.00000   0.03023   1.06593
   D45        0.02413  -0.00193   0.00622   0.00000   0.00623   0.03035
   D46        3.12524   0.00411   0.02742   0.00000   0.02736  -3.13058
   D47        1.34986   0.01097   0.04563   0.00000   0.04559   1.39545
   D48       -1.80075   0.00941   0.05174   0.00000   0.05172  -1.74903
   D49       -0.75913  -0.00471   0.01153   0.00000   0.01160  -0.74754
   D50        2.37344  -0.00626   0.01764   0.00000   0.01772   2.39116
   D51       -2.79366  -0.00113   0.02383   0.00000   0.02379  -2.76988
   D52        0.33891  -0.00269   0.02995   0.00000   0.02991   0.36882
         Item               Value     Threshold  Converged?
 Maximum Force            0.054617     0.000450     NO 
 RMS     Force            0.010835     0.000300     NO 
 Maximum Displacement     0.387764     0.001800     NO 
 RMS     Displacement     0.103485     0.001200     NO 
 Predicted change in Energy=-7.144145D-03
 GradGradGradGradGradGradGradGradGradGradGradGradGradGradGradGradGradGrad

                          Input orientation:                          
 ---------------------------------------------------------------------
 Center     Atomic      Atomic             Coordinates (Angstroms)
 Number     Number       Type             X           Y           Z
 ---------------------------------------------------------------------
      1          6           0        1.617301   -1.258041   -0.202925
      2          6           0        1.060682   -0.288895    0.624188
      3          6           0        2.398633   -2.258404    0.363754
      4          6           0        1.297937   -0.351382    1.986539
      5          6           0        2.618225   -2.300159    1.746907
      6          6           0        5.703185   -2.329436    2.565819
      7          6           0        7.140891   -2.320430    2.099185
      8          6           0        2.275558   -1.331005    3.991742
      9          6           0        3.499080   -3.382846    2.340719
     10          7           0        2.054207   -1.337429    2.528159
     11          7           0        4.886107   -3.237727    1.939642
     12          8           0        5.273640   -1.600698    3.454665
     13          1           0        1.447700   -1.233663   -1.275794
     14          1           0        0.448742    0.512530    0.222951
     15          1           0        2.847724   -3.021291   -0.265371
     16          1           0        0.889636    0.385789    2.667804
     17          1           0        7.573371   -1.336721    2.293036
     18          1           0        7.709932   -3.072139    2.655103
     19          1           0        7.223139   -2.536499    1.029290
     20          1           0        1.893690   -2.261062    4.417383
     21          1           0        3.345329   -1.218168    4.182235
     22          1           0        1.734525   -0.493751    4.434653
     23          1           0        3.472047   -3.367450    3.431270
     24          1           0        3.136676   -4.365442    2.020517
     25          1           0        5.248126   -3.816989    1.191927
 ---------------------------------------------------------------------
                    Distance matrix (angstroms):
                    1          2          3          4          5
     1  C    0.000000
     2  C    1.390390   0.000000
     3  C    1.390083   2.395183   0.000000
     4  C    2.391188   1.384267   2.735269   0.000000
     5  C    2.426871   2.780579   1.401098   2.366076   0.000000
     6  C    5.050572   5.430154   3.971675   4.863587   3.191935
     7  C    6.077699   6.578122   5.050206   6.166843   4.536410
     8  C    4.246629   3.728584   3.746667   2.436440   2.469001
     9  C    3.811301   4.297068   2.526607   3.763011   1.516816
    10  N    2.766949   2.389900   2.377283   1.355575   1.362102
    11  N    4.381191   5.005986   3.103227   4.605230   2.461598
    12  O    5.183068   5.242274   4.272233   4.418416   3.233715
    13  H    1.086465   2.156919   2.154643   3.382849   3.412369
    14  H    2.163752   1.085239   3.391162   2.139561   3.865271
    15  H    2.151021   3.383906   1.086037   3.821172   2.149875
    16  H    3.387146   2.158894   3.818046   1.083629   3.324213
    17  H    6.458388   6.804271   5.599066   6.359710   5.077395
    18  H    6.969894   7.488897   5.841433   6.997369   5.229364
    19  H    5.880325   6.572040   4.878128   6.387416   4.666483
    20  H    4.736000   4.355649   4.084958   3.148143   2.767296
    21  H    4.713523   4.329302   4.069290   3.124774   2.762283
    22  H    4.701596   3.875006   4.486341   2.490811   3.356787
    23  H    4.593154   4.813719   3.433927   3.988818   2.169148
    24  H    4.111950   4.783065   2.780139   4.415290   2.146869
    25  H    4.655826   5.504949   3.351816   5.314681   3.086285
                    6          7          8          9         10
     6  C    0.000000
     7  C    1.511565   0.000000
     8  C    3.844314   5.313398   0.000000
     9  C    2.453247   3.801297   2.903952   0.000000
    10  N    3.781605   5.198525   1.480241   2.511279   0.000000
    11  N    1.372846   2.439455   3.829056   1.451125   3.460800
    12  O    1.227036   2.417017   3.057725   2.750634   3.360427
    13  H    5.836768   6.707009   5.333082   4.680419   3.853398
    14  H    6.416773   7.505383   4.575988   5.381771   3.363607
    15  H    4.080191   4.951123   4.615999   2.710478   3.356914
    16  H    5.527486   6.835579   2.573125   4.595519   2.084516
    17  H    2.134827   1.091925   5.563493   4.559468   5.524170
    18  H    2.141637   1.094494   5.860936   4.233987   5.917141
    19  H    2.171187   1.094589   5.891340   4.037916   5.513822
    20  H    4.236180   5.736784   1.091788   2.854508   2.109036
    21  H    3.067117   4.467704   1.092442   2.846165   2.101710
    22  H    4.755265   6.166033   1.090817   3.980589   2.109196
    23  H    2.608535   4.041178   2.427514   1.090995   2.635691
    24  H    3.321090   4.496888   3.719551   1.095153   3.255503
    25  H    2.075445   2.577861   4.780716   2.137139   4.258504
                   11         12         13         14         15
    11  N    0.000000
    12  O    2.263921   0.000000
    13  H    5.116439   6.095062   0.000000
    14  H    6.058189   6.179753   2.508653   0.000000
    15  H    3.010636   4.662813   2.485284   4.299007   0.000000
    16  H    5.443516   4.876963   4.299537   2.487520   4.903653
    17  H    3.310604   2.589947   7.090206   7.646262   5.631604
    18  H    2.917754   2.956342   7.618890   8.455181   5.672109
    19  H    2.604262   3.249417   6.353463   7.472564   4.588620
    20  H    4.005950   3.575887   5.802303   5.232012   4.839041
    21  H    3.388486   2.096204   5.778522   5.202063   4.824942
    22  H    4.866924   3.835498   5.765322   4.517109   5.451412
    23  H    2.059453   2.523430   5.550449   5.872643   3.764938
    24  H    2.082976   3.777195   4.850396   5.852422   2.667492
    25  H    1.012759   3.167425   5.215982   6.535881   2.918696
                   16         17         18         19         20
    16  H    0.000000
    17  H    6.912293   0.000000
    18  H    7.646820   1.778037   0.000000
    19  H    7.165037   1.777409   1.779647   0.000000
    20  H    3.327908   6.134006   6.131244   6.321240   0.000000
    21  H    3.301001   4.632436   4.981877   5.168798   1.802825
    22  H    2.146901   6.276085   6.746879   6.774526   1.774548
    23  H    4.619365   4.715961   4.318484   4.531079   2.165116
    24  H    5.295504   5.378817   4.794789   4.585493   3.423215
    25  H    6.232014   3.573645   2.959083   2.359403   4.906803
                   21         22         23         24         25
    21  H    0.000000
    22  H    1.784148   0.000000
    23  H    2.280224   3.504841   0.000000
    24  H    3.823859   4.773266   1.760308   0.000000
    25  H    4.395049   5.822764   2.893302   2.333577   0.000000
 Stoichiometry    C9H13N2O(1+)
 Framework group  C1[X(C9H13N2O)]
 Deg. of freedom    69
 Full point group                 C1      NOp   1
 Largest Abelian subgroup         C1      NOp   1
 Largest concise Abelian subgroup C1      NOp   1
                         Standard orientation:                         
 ---------------------------------------------------------------------
 Center     Atomic      Atomic             Coordinates (Angstroms)
 Number     Number       Type             X           Y           Z
 ---------------------------------------------------------------------
      1          6           0       -2.393275   -1.622965   -0.338865
      2          6           0       -2.997247   -0.474047   -0.837251
      3          6           0       -1.218048   -1.501843    0.393598
      4          6           0       -2.412667    0.755331   -0.586069
      5          6           0       -0.650851   -0.244001    0.636902
      6          6           0        2.385788    0.010487   -0.313102
      7          6           0        3.577081   -0.665463   -0.952430
      8          6           0       -0.697168    2.208220    0.353302
      9          6           0        0.648286   -0.137155    1.412502
     10          7           0       -1.271268    0.861011    0.137550
     11          7           0        1.766941   -0.704080    0.682453
     12          8           0        1.989780    1.128255   -0.628361
     13          1           0       -2.830030   -2.601034   -0.520612
     14          1           0       -3.912486   -0.523591   -1.418309
     15          1           0       -0.727018   -2.387318    0.786409
     16          1           0       -2.844972    1.675972   -0.959947
     17          1           0        3.710263   -0.274025   -1.963043
     18          1           0        4.476910   -0.448612   -0.368306
     19          1           0        3.447274   -1.750824   -1.009584
     20          1           0       -0.642829    2.408641    1.425161
     21          1           0        0.293027    2.243200   -0.106825
     22          1           0       -1.343307    2.954238   -0.111289
     23          1           0        0.897339    0.901466    1.635007
     24          1           0        0.546485   -0.659179    2.369836
     25          1           0        2.090000   -1.634870    0.916850
 ---------------------------------------------------------------------
 Rotational constants (GHZ):      1.6593206      0.6244843      0.5427703
 Standard basis: 6-31G(d) (6D, 7F)
 There are   206 symmetry adapted basis functions of A   symmetry.
 Integral buffers will be    131072 words long.
 Raffenetti 2 integral format.
 Two-electron integral symmetry is turned on.
   206 basis functions,   388 primitive gaussians,   206 cartesian basis functions
    44 alpha electrons       44 beta electrons
       nuclear repulsion energy       706.5554353128 Hartrees.
 NAtoms=   25 NActive=   25 NUniq=   25 SFac= 1.00D+00 NAtFMM=   60 NAOKFM=F Big=F
 One-electron integrals computed using PRISM.
 NBasis=   206 RedAO= T  NBF=   206
 NBsUse=   206 1.00D-06 NBFU=   206
 Initial guess read from the read-write file.
 B after Tr=     0.000000    0.000000    0.000000
         Rot=    1.000000    0.000000    0.000000    0.000000 Ang=   0.00 deg.
 Initial guess orbital symmetries:
       Occupied  (A) (A) (A) (A) (A) (A) (A) (A) (A) (A) (A) (A)
                 (A) (A) (A) (A) (A) (A) (A) (A) (A) (A) (A) (A)
                 (A) (A) (A) (A) (A) (A) (A) (A) (A) (A) (A) (A)
                 (A) (A) (A) (A) (A) (A) (A) (A)
       Virtual   (A) (A) (A) (A) (A) (A) (A) (A) (A) (A) (A) (A)
                 (A) (A) (A) (A) (A) (A) (A) (A) (A) (A) (A) (A)
                 (A) (A) (A) (A) (A) (A) (A) (A) (A) (A) (A) (A)
                 (A) (A) (A) (A) (A) (A) (A) (A) (A) (A) (A) (A)
                 (A) (A) (A) (A) (A) (A) (A) (A) (A) (A) (A) (A)
                 (A) (A) (A) (A) (A) (A) (A) (A) (A) (A) (A) (A)
                 (A) (A) (A) (A) (A) (A) (A) (A) (A) (A) (A) (A)
                 (A) (A) (A) (A) (A) (A) (A) (A) (A) (A) (A) (A)
                 (A) (A) (A) (A) (A) (A) (A) (A) (A) (A) (A) (A)
                 (A) (A) (A) (A) (A) (A) (A) (A) (A) (A) (A) (A)
                 (A) (A) (A) (A) (A) (A) (A) (A) (A) (A) (A) (A)
                 (A) (A) (A) (A) (A) (A) (A) (A) (A) (A) (A) (A)
                 (A) (A) (A) (A) (A) (A) (A) (A) (A) (A) (A) (A)
                 (A) (A) (A) (A) (A) (A)
 Harris functional with IExCor=  402 diagonalized for initial guess.
 ExpMin= 1.61D-01 ExpMax= 5.48D+03 ExpMxC= 8.25D+02 IAcc=3 IRadAn=         5 AccDes= 0.00D+00
 HarFok:  IExCor=  402 AccDes= 0.00D+00 IRadAn=         5 IDoV= 1
 ScaDFX=  1.000000  1.000000  1.000000  1.000000
 FoFCou: FMM=F IPFlag=           0 FMFlag=      100000 FMFlg1=           0
         NFxFlg=           0 DoJE=T BraDBF=F KetDBF=T FulRan=T
         Omega=  0.000000  0.000000  1.000000  0.000000  0.000000 ICntrl=     500 IOpCl=  0
         NMat0=    1 NMatS0=    1 NMatT0=    0 NMatD0=    1 NMtDS0=    0 NMtDT0=    0
         I1Cent=           4 NGrid=           0.
 Petite list used in FoFCou.
 Requested convergence on RMS density matrix=1.00D-08 within 128 cycles.
 Requested convergence on MAX density matrix=1.00D-06.
 Requested convergence on             energy=1.00D-06.
 No special actions if energy rises.
 Integral accuracy reduced to 1.0D-05 until final iterations.
 Initial convergence to 1.0D-05 achieved.  Increase integral accuracy.
 SCF Done:  E(RB3LYP) =  -535.308547839     A.U. after   13 cycles
             Convg  =    0.4158D-08             -V/T =  2.0097
 Calling FoFJK, ICntrl=      2127 FMM=F ISym2X=0 I1Cent= 0 IOpClX= 0 NMat=1 NMatS=1 NMatT=0.
 ***** Axes restored to original set *****
 -------------------------------------------------------------------
 Center     Atomic                   Forces (Hartrees/Bohr)
 Number     Number              X              Y              Z
 -------------------------------------------------------------------
      1        6           0.001929834   -0.002812596   -0.003127702
[...]
 .00093197,0.00112292,0.00058066,-0.00038313,-0.00000440,0.00000160,-0.
 00000111,0.00000016,0.00000037,0.00000054,-0.00000759,-0.00001364,-0.0
 0000043,0.00000020,0.00000363,-0.00000141,0.07431729,0.29105141,-0.000
 01684,0.00003115,0.00000035,-0.00000017,-0.00000773,-0.00003333,0.0000
 2472,-0.00000433,0.00001733,0.00000946,-0.00001623,0.00002998,-0.00003
 365,-0.00001953,0.00004962,-0.00124959,0.00589154,-0.00289863,0.029641
 00,0.08348658,-0.07895596,-0.00000453,0.00000629,0.00002827,-0.0003197
 4,0.00017583,-0.00001142,-0.00000904,0.00003794,-0.00001394,0.00043158
 ,-0.00045957,0.00014537,0.00030358,-0.00141448,0.00044103,-0.00000763,
 0.00000044,-0.00000260,-0.00000196,-0.00000043,-0.00000003,-0.00001800
 ,-0.00002356,-0.00000717,0.00000146,0.00000302,-0.00000014,-0.02968665
 ,-0.09254903,0.08086257,0.00001635,-0.00003201,-0.00000005,-0.00000818
 ,0.00000861,0.00002849,-0.00001111,0.00003572,-0.00002916,-0.00003164,
 0.00001978,-0.00001675,0.00022771,-0.00018198,0.00010152,-0.01954407,0
 .00673155,-0.03119495,-0.11841166,0.02739626,-0.11872766,-0.00005578,0
 .00000350,0.00000065,-0.00028232,-0.00110122,0.00079360,0.00006045,0.0
 0002699,0.00000836,-0.00231656,-0.00013923,0.00255787,0.00200787,-0.00
 177262,0.00362273,-0.00000171,0.00000649,-0.00000121,-0.00000181,-0.00
 000064,0.00000166,0.00000262,0.00000312,0.00001894,-0.00000374,0.00000
 138,-0.00000359,0.00570687,-0.00117896,0.00862111,0.12867172,-0.000012
 50,0.00001228,0.00000058,-0.00000057,-0.00000253,-0.00000833,0.0000205
 1,-0.00001714,-0.00000467,-0.00001269,0.00000603,0.00001027,0.00005000
 ,-0.00004563,-0.00001491,-0.00194851,-0.00155326,-0.00059816,0.0268547
 0,-0.05232375,0.03917687,0.00001111,0.00000234,-0.00000344,-0.00002570
 ,-0.00034550,0.00051556,0.00000854,0.00000969,0.00000118,-0.00102711,-
 0.00044075,0.00080720,0.00097625,0.00004960,-0.00159123,-0.00000102,0.
 00000014,-0.00000139,-0.00000072,0.00000151,0.00000108,0.00000773,-0.0
 0000308,0.00000563,0.00000028,0.00000231,0.00000038,0.01647063,-0.0044
 6223,0.02542215,-0.02721194,0.05368467,-0.00001610,0.00002522,-0.00000
 351,0.00000333,-0.00001013,-0.00001240,0.00002637,-0.00004048,0.000007
 51,-0.00000158,0.00000459,0.00000689,-0.00008070,0.00000821,-0.0000800
 9,0.00332527,-0.00316638,0.00949795,-0.11587260,0.03918067,-0.23738100
 ,0.00001203,-0.00000456,-0.00001631,-0.00007979,0.00035121,-0.00022693
 ,-0.00001329,0.00001997,0.00002153,0.00059487,0.00088959,-0.00003520,0
 .00051286,-0.00011069,-0.00109283,0.00000706,-0.00000336,0.00000165,0.
 00000105,0.00000161,-0.00000024,0.00001057,0.00000772,-0.00001203,-0.0
 0000035,-0.00000008,0.00000177,-0.00544516,0.00123021,-0.00924183,0.12
 730530,-0.04375017,0.25527088,0.00002308,-0.00004137,-0.00000448,0.000
 00071,0.00002767,-0.00000898,-0.00007016,0.00001875,-0.00002523,0.0000
 6053,-0.00009002,0.00001001,0.00034641,0.00029300,0.00013990,0.0004104
 8,0.02633411,0.02243165,-0.06498632,0.03846940,0.04077847,-0.00010592,
 0.00004125,0.00004875,0.00037719,0.00019588,-0.00011634,-0.00012873,-0
 .00003753,0.00014108,0.00079879,-0.00113135,-0.00174804,-0.00956696,0.
 00099026,0.00233845,-0.00000497,-0.00000016,-0.00000060,0.00000283,-0.
 00000323,-0.00000378,-0.00003285,-0.00000479,-0.00001298,0.00000334,-0
 .00001004,0.00000220,0.00181186,-0.00567798,-0.00806472,0.00478146,-0.
 01385427,-0.01053819,0.06752721,-0.00002382,0.00002959,-0.00000686,0.0
 0000978,-0.00001567,-0.00001035,0.00003864,-0.00005778,0.00002342,-0.0
 0001909,0.00000759,0.00001987,-0.00004361,0.00004836,-0.00010743,-0.00
 084487,-0.00234474,0.00274222,0.04152893,-0.18405070,-0.12953832,0.000
 02017,0.00000470,-0.00001840,0.00046667,0.00019280,0.00022118,0.000018
 66,0.00000365,-0.00001387,-0.00076872,-0.00019302,0.00066840,0.0002346
 7,0.00257163,-0.00082198,0.00000945,-0.00000304,0.00000065,-0.00000129
 ,0.00000193,-0.00000026,0.00002680,0.00001851,-0.00000390,-0.00000456,
 0.00000014,-0.00000063,0.00715840,-0.01718207,-0.02078237,-0.00262074,
 0.00505240,0.00503886,-0.04441717,0.19507494,-0.00001662,0.00002419,-0
 .00001234,0.00000094,-0.00001380,-0.00000773,0.00003019,0.00001286,0.0
 0002890,-0.00002971,0.00003244,0.00000917,-0.00017307,-0.00008230,-0.0
 0004093,-0.00296377,-0.00360511,-0.00595374,0.04316683,-0.12891676,-0.
 17335241,-0.00000420,-0.00000087,0.00002441,0.00013058,0.00018813,0.00
 002398,0.00004905,0.00002842,-0.00006165,-0.00055487,0.00046628,0.0005
 0679,0.00196365,-0.00009791,0.00176929,-0.00000476,0.00000081,-0.00000
 143,-0.00000261,0.00000074,-0.00000024,-0.00000614,-0.00000913,0.00000
 389,-0.00000449,0.00000492,-0.00000256,-0.00403881,0.00825165,0.009517
 17,0.00738164,-0.01941736,-0.01651643,-0.04559905,0.14258322,0.1833664
 3,0.00014185,-0.00010319,-0.00000181,-0.00083218,-0.00012354,0.0000611
 8,-0.00022179,0.00012939,-0.00016928,-0.00021179,0.00040661,-0.0017030
 7,0.00050862,-0.00017008,0.00081653,-0.00028491,-0.00116118,-0.0005410
 3,-0.00004767,0.00011767,0.00002407,-0.09590210,-0.09700143,0.04135768
 ,-0.00021161,-0.00021680,0.00124755,0.00225798,0.00783383,-0.00436871,
 0.00067222,0.00048516,-0.00023742,-0.00064462,0.00093748,0.00087786,0.
 00006141,0.00005150,-0.00002567,0.00000098,0.00001763,-0.00008091,0.00
 000760,-0.00001060,0.00003324,0.00037406,0.00020818,-0.00010844,0.0000
 2901,0.00001102,-0.00000551,-0.00000831,0.00000623,0.00000942,-0.00003
 198,0.00000907,0.00001395,0.09522899,-0.00026829,0.00042900,-0.0001601
 0,0.00012123,0.00002548,-0.00028308,-0.00029553,-0.00033346,0.00077207
 ,0.00009722,-0.00027966,0.00053086,0.00066187,-0.00001882,-0.00117077,
 -0.00007164,-0.00043270,-0.00007528,0.00000370,0.00000766,0.00001448,-
 0.09554849,-0.25119487,0.08359789,0.00041948,-0.00038038,0.00037644,0.
 00325771,0.00481042,0.00003296,0.00052337,0.00015934,-0.00006899,-0.00
 016687,0.00019097,0.00001963,-0.00002167,0.00001608,0.00002363,-0.0000
 3623,-0.00002631,0.00000123,0.00001271,-0.00001272,0.00002787,-0.00044
 250,0.00000507,0.00013492,0.00000422,-0.00000175,-0.00000764,0.0000019
 2,-0.00000036,-0.00000028,-0.00000600,0.00000248,0.00000112,0.10104390
 ,0.26595584,-0.00013722,0.00055846,0.00021153,-0.00131423,-0.00014481,
 -0.00118909,-0.00089262,-0.00073544,-0.00000968,0.00303063,-0.00180819
 ,-0.00196216,-0.00110283,0.00224750,0.00056037,-0.00001317,-0.00032368
 ,-0.00022791,-0.00005201,0.00004951,-0.00004774,0.03720124,0.07599325,
 -0.08088964,0.00031900,-0.00008536,-0.00007459,0.01034818,0.03081647,-
 0.02358733,0.00030423,0.00003460,0.00036041,-0.00029905,0.00020744,0.0
 0046982,0.00013308,0.00008374,0.00001140,-0.00011943,-0.00010385,-0.00
 026579,-0.00005540,-0.00006772,-0.00005740,0.00006271,0.00033902,-0.00
 007157,0.00000543,0.00000202,-0.00000544,-0.00001564,-0.00000332,0.000
 01007,-0.00000825,0.00000840,0.00000471,-0.04165584,-0.08958607,0.0965
 1705,-0.00006115,0.00012424,0.00041748,-0.00028452,-0.00003369,-0.0002
 5744,-0.00004767,-0.00033322,-0.00002463,-0.00012082,-0.00088773,0.000
 75868,0.00005427,0.00078083,0.00084020,-0.00000345,0.00555440,0.003150
 16,0.00018064,-0.00060985,0.00002555,-0.32144674,-0.01698766,-0.053409
 47,0.00160368,0.00048792,-0.00029901,0.00071736,0.00125167,-0.00552243
 ,-0.00188760,-0.00196148,-0.00103985,-0.00199972,-0.00287426,-0.001821
 52,0.00003219,0.00003634,-0.00003164,0.00004046,0.00002189,0.00002000,
 0.00006233,0.00002515,0.00008803,-0.00000914,-0.00001097,-0.00011267,-
 0.00008348,-0.00004230,-0.00000465,0.00006679,-0.00004785,-0.00008127,
 0.00022057,-0.00007236,-0.00007843,-0.00744303,0.00089000,-0.00080137,
 0.34005385,-0.00018373,0.00023365,-0.00005200,-0.00032324,-0.00051743,
 -0.00003754,0.00019945,-0.00011185,0.00041502,0.00064966,-0.00063733,0
 .00117659,-0.00038821,0.00046438,-0.00115921,0.00105141,-0.00015566,-0
 .00067024,-0.00011493,0.00002957,-0.00018684,-0.01658608,-0.05448232,-
 0.00419196,0.00031229,0.00002086,-0.00122304,0.00213883,0.00000803,0.0
 0121595,-0.00027687,-0.00040665,0.00020167,-0.00102965,-0.00129529,0.0
 0107211,0.00006264,0.00005265,0.00003124,0.00003715,0.00000756,0.00003
 195,-0.00000510,0.00000195,-0.00002981,0.00024821,0.00048452,0.0000986
 1,0.00000534,0.00001477,0.00002200,-0.00003576,0.00002368,0.00001937,-
 0.00000482,0.00001102,-0.00001314,-0.02734950,0.00031288,-0.00653559,0
 .01595336,0.05439620,-0.00044457,0.00024164,0.00006862,0.00065129,0.00
 122732,-0.00120712,0.00068090,0.00081031,-0.00012137,0.00052570,-0.003
 18697,-0.00258942,-0.00209831,0.00120064,0.00056131,-0.00014433,-0.004
 22900,-0.00257303,-0.00028378,0.00066723,0.00025784,-0.04217826,-0.003
 80389,-0.05598380,-0.00085736,-0.00058870,-0.00005518,-0.03793691,0.00
 040733,-0.01953238,0.00118984,0.00125314,0.00089275,-0.00120874,0.0023
 0732,0.00185489,-0.00010072,-0.00010814,0.00003394,0.00008549,0.000058
 34,-0.00029531,0.00002174,-0.00000304,-0.00006610,-0.00039856,-0.00008
 196,-0.00009132,0.00008011,0.00003878,0.00000738,-0.00006271,0.0000391
 1,0.00005874,-0.00028182,0.00005928,0.00007032,0.01157415,-0.00114832,
 0.00397394,0.05860437,0.00356674,0.07087781,0.00002848,-0.00000969,-0.
 00009533,0.00002197,-0.00039747,0.00004979,0.00046582,0.00006064,-0.00
 016401,0.00025824,-0.00028376,-0.00226132,-0.00002097,0.00057750,-0.00
 143107,0.00022763,-0.00056898,-0.00035059,-0.00008182,0.00010041,0.000
 03458,-0.11795387,0.11141617,0.05473126,0.00019420,0.00030332,-0.00048
 108,0.00072228,-0.00542202,-0.00396983,-0.00007106,0.00009070,0.000205
 43,-0.00108993,-0.00002041,0.00087115,0.00003162,0.00001158,0.,-0.0000
 3462,-0.00001670,0.00002792,-0.00008106,-0.00003213,-0.00007839,0.0005
 3116,0.00033909,-0.00120316,0.00000286,0.00000952,0.00000864,-0.000009
 51,0.00001426,0.00001104,-0.00005064,0.00000300,0.00000548,0.00755772,
 -0.01134686,-0.00623170,-0.00939697,0.02582167,0.01204128,0.11891619,0
 .00005308,0.00002220,0.00013893,-0.00033184,0.00039524,0.00008440,0.00
 004339,0.00035192,0.00015593,0.00049462,0.00022085,0.00312844,0.000264
 97,0.00025230,0.00141065,-0.00012667,-0.00040752,-0.00013715,0.0000127
 3,0.00003167,0.00001441,0.10920749,-0.23155970,-0.08872565,-0.00003802
 ,-0.00015449,0.00070716,-0.00175865,0.00144401,0.00235512,0.00038337,0
 .00014607,-0.00021330,-0.00015635,0.00012927,0.00014138,-0.00001810,0.
 00002638,0.00001080,-0.00003717,-0.00004048,-0.00002439,-0.00006845,-0
 .00005365,0.00006630,0.00019645,0.00074236,0.00129191,0.00000844,0.000
 00143,-0.00000165,0.00000303,0.00000306,-0.00000184,-0.00000901,0.0000
 0116,0.00000267,0.01398507,-0.01883573,-0.01008577,-0.00158815,0.00367
 950,0.00230387,-0.12044470,0.24353265,0.00019554,-0.00034758,0.0001168
 5,-0.00016002,0.00022502,0.00046559,0.00091644,-0.00116323,-0.00099967
 ,0.00197396,-0.00288099,-0.00046303,-0.00299191,0.00276009,-0.00442088
 ,0.00014630,-0.00012851,-0.00019529,-0.00004663,0.00002846,-0.00000277
 ,0.04530709,-0.07487587,-0.08600499,-0.00038388,0.00082825,-0.00090756
 ,0.01768858,-0.02926594,-0.02282346,-0.00014888,-0.00006416,0.00037558
 ,-0.00033369,0.00001787,0.00039219,-0.00003903,0.00005555,0.00003621,0
 .00000987,0.00001833,-0.00000624,-0.00006726,0.00015549,-0.00047204,-0
 .00116946,0.00119839,-0.00095480,0.00000136,0.00000282,0.00000239,-0.0
 0000263,0.00000382,0.00000652,-0.00001404,0.00000455,0.00000298,-0.007
 23230,0.00886628,0.00652478,-0.00145897,0.00660916,0.00389259,-0.05232
 015,0.08816239,0.10462696,0.00026998,-0.00033076,-0.00103727,0.0000317
 4,0.00002255,0.00035855,-0.00181088,0.00365803,-0.00076147,-0.00037678
 ,0.00024419,-0.00027494,0.00148856,-0.00164088,-0.01813328,0.00197416,
 0.00663644,0.00521416,-0.00053614,0.00072086,-0.00124715,-0.00025214,0
 .00148495,0.00021915,-0.04750687,0.00065040,0.00291471,0.00062974,-0.0
 0078397,-0.00004421,-0.01741319,-0.00184119,0.03603516,0.00181770,-0.0
 0230819,-0.00237657,-0.00023772,0.00017321,-0.00008136,-0.00000307,0.0
 0002943,0.00005113,-0.00011004,0.00000747,0.00022590,-0.00001488,0.000
 00263,0.00000649,0.00016028,0.00000751,0.00005208,-0.00034177,-0.00018
 058,0.00005312,0.00018395,-0.00008979,-0.00002959,-0.00101405,0.001156
 98,0.00121406,0.00010772,-0.00013563,0.00027731,-0.00017272,-0.0000813
 6,0.00006382,0.06325712,-0.00010216,0.00070903,0.00147586,-0.00001553,
 0.00001265,-0.00048439,0.00337448,-0.00393279,0.00012892,0.00026526,-0
 .00035342,0.00060351,0.00074091,-0.00170277,0.02844534,-0.00114771,0.0
 0085316,0.00200375,0.00000725,0.00008177,-0.00039200,0.00132421,-0.001
 30325,-0.00026479,-0.00021145,-0.05245329,0.00051734,-0.00121903,0.001
 94655,-0.00005740,-0.00003376,0.00207200,0.00107790,0.00102941,0.00029
 182,-0.00073090,0.00020454,-0.00032591,0.00012097,0.00000075,-0.000024
 03,-0.00005922,-0.00024513,-0.00005720,0.00009117,-0.00005675,-0.00001
 892,-0.00005650,0.00004882,0.00000400,0.00001148,-0.00007418,-0.000003
 75,0.00000997,0.00007434,-0.00001022,-0.00002799,0.00078500,-0.0003677
 6,-0.00081073,0.00048058,-0.00205043,-0.00111427,-0.00017187,-0.000007
 99,-0.00013048,-0.00644901,0.05426363,0.00057027,-0.00040360,-0.000429
 98,-0.00011081,0.00010993,0.00039886,-0.00116567,0.00186868,-0.0000284
 3,-0.00023583,0.00041358,-0.00047239,-0.00201154,0.00014808,-0.0111850
 0,-0.00113426,-0.00373910,-0.00032511,0.00010263,0.00007081,-0.0001139
 9,0.00168380,-0.00202506,-0.00132408,0.00264890,0.00683930,-0.32083953
 ,0.00031220,-0.00065004,-0.00050830,0.01281406,-0.00097488,-0.00450060
 ,-0.00126921,0.00139559,0.00076541,-0.00012421,0.00008320,0.00000438,-
 0.00001544,0.00000485,0.00002861,0.00004674,-0.00008773,0.00018433,0.0
 0003023,0.00005821,0.00004666,-0.00002515,0.00003553,0.00000992,-0.000
 04920,0.00005380,-0.00000402,-0.00004627,0.00005629,0.00002227,0.00033
 687,-0.00157429,-0.00025829,0.00085219,-0.00072127,-0.00028468,0.00039
 445,-0.00064063,0.00061008,-0.01337680,-0.00138699,0.34819552,0.000382
 36,-0.00094328,0.00037505,-0.00020422,0.00050522,0.00099301,-0.0003772
 6,0.00060243,-0.00071817,-0.00155115,0.00052957,-0.00069712,0.00661182
 ,0.01710887,0.00700757,-0.00483848,0.00331111,0.00401606,-0.00035520,-
 0.00127207,-0.00061714,0.00038350,0.00005509,-0.00049861,-0.08278328,-
 0.07989598,-0.03252465,-0.00008597,0.00118656,-0.00125290,-0.02166364,
 -0.03395868,-0.01188681,0.00146252,0.00036014,-0.00014099,0.00010589,0
 .00002260,-0.00000829,0.00006333,0.00002579,0.00001095,0.00015490,-0.0
 0014285,-0.00004454,-0.00030097,-0.00006030,-0.00007726,-0.00039180,0.
 00002287,0.00004214,-0.00021945,-0.00005130,0.00005854,0.00010026,0.00
 003913,0.00001574,-0.00005067,0.00002717,0.00009911,-0.00008228,-0.000
 05113,0.00008506,-0.00001022,-0.00001032,0.00005341,0.00131385,0.00131
 449,-0.00030770,0.10175952,0.00073282,0.00022508,-0.00011390,-0.000181
 12,-0.00005852,-0.00006581,0.00065459,0.00168191,-0.00147259,0.0008178
 9,-0.00005566,-0.00030858,-0.00417208,-0.02305870,-0.00782271,0.000305
 07,-0.00034132,-0.00059404,0.00001371,0.00002693,0.00002858,-0.0002497
 4,-0.00017879,0.00031544,-0.09003617,-0.24713586,-0.07914990,0.0001877
 0,-0.00198033,0.00235034,0.00060478,-0.00017481,-0.00044491,-0.0009500
 6,0.00043471,0.00031391,-0.00011371,-0.00006046,0.00001408,-0.00010955
 ,-0.00003954,0.00003905,-0.00053889,-0.00017364,0.00062706,0.00028583,
 -0.00000215,0.00010883,-0.00000259,0.00001765,-0.00001457,-0.00000607,
 0.00000123,0.00001094,-0.00003101,0.00000787,0.00000161,0.00000236,-0.
 00005970,-0.00002650,0.00000081,0.00000658,-0.00000665,-0.00002253,0.0
 0001640,-0.00005338,0.00123139,0.00240811,-0.00030289,0.09146665,0.267
 31036,0.00087021,-0.00115464,0.00024151,-0.00027184,0.00051443,0.00102
 635,-0.00131413,0.00135056,-0.00081194,-0.00110525,0.00043415,-0.00072
 866,0.00446836,0.01266743,0.00516577,0.00237210,-0.00200896,-0.0017235
 4,0.00012559,0.00033149,0.00034992,0.00053075,-0.00012097,-0.00063915,
 -0.03668839,-0.08268597,-0.08556696,-0.00020506,0.00032860,-0.00090132
 ,0.00914120,0.01307510,0.00357890,-0.00168214,-0.00041131,0.00086415,0
 .00014247,0.00003665,0.00000323,-0.00001509,-0.00004652,0.00000950,-0.
 00008368,-0.00005173,-0.00028232,-0.00017731,-0.00004238,-0.00001315,0
 .00005501,0.00002081,-0.00000674,0.00009761,0.00000084,-0.00002149,-0.
 00005949,-0.00000295,0.00001813,-0.00018649,-0.00030660,-0.00004793,0.
 00000329,0.00034746,0.00024913,0.00018359,-0.00010682,0.00017294,-0.01
 226701,-0.02854156,-0.00856099,0.03644546,0.08642497,0.08655014,0.0002
 3452,-0.00005463,-0.00018187,-0.00008004,-0.00001391,0.00014707,-0.000
 17345,0.00045714,0.00032643,0.00007329,0.00037212,0.00005789,-0.003613
 89,-0.00086873,0.00291439,0.01841331,-0.01139971,-0.00794243,-0.000543
 88,-0.00027498,-0.00128926,-0.00001572,-0.00003278,-0.00014193,-0.0092
 8424,0.02363476,0.00783755,-0.00060070,0.00056295,-0.00078359,-0.13888
 089,0.12728843,0.07985362,-0.00158233,-0.00728267,-0.00314487,-0.00002
 388,0.00002329,-0.00001475,-0.00002224,-0.00003847,-0.00001749,-0.0002
 5584,0.00003263,-0.00032479,0.00001607,0.00011746,-0.00005652,0.000059
 28,0.00046332,0.00028690,-0.00029423,-0.00004549,0.00019819,-0.0016701
 4,-0.00065737,0.00074804,0.00006425,-0.00001742,-0.00001891,-0.0002733
 1,0.00000463,0.00017882,0.00001522,0.00001616,0.00001249,-0.00144454,0
 .00007653,0.00007977,0.00057663,0.00010993,-0.00037975,0.13930676,0.00
 004041,-0.00003237,0.00011449,-0.00003034,0.00006529,0.00004175,0.0001
 0287,-0.00012424,-0.00054854,0.00000813,0.00010519,0.00000621,0.000009
 00,-0.00112659,0.00072743,0.01920605,-0.01400152,-0.00385680,0.0003708
 0,0.00003597,-0.00017777,-0.00008181,0.00003891,-0.00013565,-0.0071088
 4,0.00758797,0.00769838,-0.00007283,0.00043682,0.00008429,0.12823613,-
 0.31662804,-0.15319071,-0.00505224,-0.00238101,-0.00405067,0.00000060,
 -0.00000257,0.00000350,-0.00001062,0.00000232,0.00001563,0.00016279,0.
 00010223,0.00024195,-0.00002403,0.00000247,-0.00001304,0.00016465,0.00
 028807,0.00021270,0.00011699,0.00034902,0.00028984,-0.00112593,0.00082
 848,0.00058532,0.00010622,0.00002900,-0.00002337,-0.00015766,-0.000090
 85,0.00008988,-0.00001075,0.00006307,-0.00002632,-0.00218465,-0.000031
 00,0.00136860,-0.00019177,0.00118263,-0.00005209,-0.13247316,0.3233007
 5,0.00043264,-0.00045931,-0.00023538,-0.00012397,0.00012001,0.00038695
 ,-0.00052043,0.00091520,0.00009496,-0.00003193,0.00040693,-0.00025249,
 -0.00253807,0.00079951,0.00087473,0.00402827,-0.00648197,-0.01168475,-
 0.00034780,0.00225047,-0.00138582,-0.00002700,-0.00022098,-0.00012863,
 0.00082554,-0.00353201,-0.00748437,-0.00012878,0.00025425,-0.00048800,
 0.07557422,-0.14003844,-0.06839097,-0.00170942,-0.00375064,0.00579196,
 -0.00007058,0.00001418,-0.00001218,0.00000785,-0.00002950,-0.00001751,
 -0.00036583,0.00007352,-0.00031042,0.00002878,0.00009707,-0.00001736,0
 .00042023,0.00008099,0.00006586,-0.00043595,-0.00064549,-0.00023920,0.
 00064174,-0.00011901,0.00058103,-0.00003601,-0.00001796,0.00005049,0.0
 0018339,0.00001274,0.00000046,0.00002202,-0.00003717,0.00002507,0.0029
 4404,-0.00042900,-0.00143064,-0.00042793,0.00014163,0.00107454,-0.0783
 4500,0.15059498,0.08313169\\0.00000454,-0.00000555,-0.00000256,-0.0000
 0349,0.00000596,0.00000674,0.00000026,-0.00000504,-0.00000291,-0.00000
 229,0.00000517,-0.00000573,-0.00000110,0.00000747,0.00001087,-0.000009
 22,-0.00002542,-0.00001195,0.00000309,-0.00000252,-0.00000299,-0.00000
 215,-0.00000073,-0.00000184,0.00000132,0.00000356,-0.00000743,0.000006
 74,-0.00000418,-0.00000862,0.00000464,0.00001741,0.00000841,-0.0000019
 2,0.00000921,0.00000376,0.00000009,0.00000063,0.00000026,-0.00000017,-
 0.00000142,-0.00000070,-0.00000159,-0.00000035,0.00000242,0.00000003,-
 0.00000213,-0.00000105,-0.00000036,0.00000120,0.00000186,0.00000116,0.
 00000214,0.00000147,0.00000102,0.00000037,0.00000025,0.00000272,0.0000
 0016,0.00000267,0.00000160,-0.00000324,0.00000043,-0.00000200,-0.00000
 252,-0.00000053,-0.00000351,-0.00000153,0.00000490,0.00000039,0.000000
 24,0.00000172,0.00000019,0.00000110,0.00000056\\\@


 NECESSARY EVIL: ONE WE LIKE TOO MUCH TO RELINQUISH.
 Job cpu time:  0 days  2 hours  3 minutes 13.0 seconds.
 File lengths (MBytes):  RWF=    138 Int=      0 D2E=      0 Chk=      4 Scr=      1
 Normal termination of Gaussian 09 at Fri Feb 16 21:25:32 2018.
