 Entering Gaussian System, Link 0=g09
 Initial command:
 /home/fb_chem/chemsoft/lx24-amd64/Gaussian_09_C.01_NBO_3.1_64_istanbul-64/g09/l1.exe /local/2401514.1.parallel_long/Gau-17689.inp -scrdir=/local/2401514.1.parallel_long/
 Entering Link 1 = /home/fb_chem/chemsoft/lx24-amd64/Gaussian_09_C.01_NBO_3.1_64_istanbul-64/g09/l1.exe PID=     17690.
  
 Copyright (c) 1988,1990,1992,1993,1995,1998,2003,2009,2011,
            Gaussian, Inc.  All Rights Reserved.
  
 This is part of the Gaussian(R) 09 program.  It is based on
 the Gaussian(R) 03 system (copyright 2003, Gaussian, Inc.),
 the Gaussian(R) 98 system (copyright 1998, Gaussian, Inc.),
 the Gaussian(R) 94 system (copyright 1995, Gaussian, Inc.),
 the Gaussian 92(TM) system (copyright 1992, Gaussian, Inc.),
 the Gaussian 90(TM) system (copyright 1990, Gaussian, Inc.),
 the Gaussian 88(TM) system (copyright 1988, Gaussian, Inc.),
 the Gaussian 86(TM) system (copyright 1986, Carnegie Mellon
 University), and the Gaussian 82(TM) system (copyright 1983,
 Carnegie Mellon University). Gaussian is a federally registered
 trademark of Gaussian, Inc.
  
 This software contains proprietary and confidential information,
 including trade secrets, belonging to Gaussian, Inc.
  
 This software is provided under written license and may be
 used, copied, transmitted, or stored only in accord with that
 written license.
  
 The following legend is applicable only to US Government
 contracts under FAR:
  
                    RESTRICTED RIGHTS LEGEND
  
 Use, reproduction and disclosure by the US Government is
 subject to restrictions as set forth in subparagraphs (a)
 and (c) of the Commercial Computer Software - Restricted
 Rights clause in FAR 52.227-19.
  
 Gaussian, Inc.
 340 Quinnipiac St., Bldg. 40, Wallingford CT 06492
  
  
 ---------------------------------------------------------------
 Warning -- This program may not be used in any manner that
 competes with the business of Gaussian, Inc. or will provide
 assistance to any competitor of Gaussian, Inc.  The licensee
 of this program is prohibited from giving any competitor of
 Gaussian, Inc. access to this program.  By using this program,
 the user acknowledges that Gaussian, Inc. is engaged in the
 business of creating and licensing software in the field of
 computational chemistry and represents and warrants to the
 licensee that it is not a competitor of Gaussian, Inc. and that
 it will not use this program in any manner prohibited above.
 ---------------------------------------------------------------
  

 Cite this work as:
 Gaussian 09, Revision C.01,
 M. J. Frisch, G. W. Trucks, H. B. Schlegel, G. E. Scuseria, 
 M. A. Robb, J. R. Cheeseman, G. Scalmani, V. Barone, B. Mennucci, 
 G. A. Petersson, H. Nakatsuji, M. Caricato, X. Li, H. P. Hratchian, 
 A. F. Izmaylov, J. Bloino, G. Zheng, J. L. Sonnenberg, M. Hada, 
 M. Ehara, K. Toyota, R. Fukuda, J. Hasegawa, M. Ishida, T. Nakajima, 
 Y. Honda, O. Kitao, H. Nakai, T. Vreven, J. A. Montgomery, Jr., 
 J. E. Peralta, F. Ogliaro, M. Bearpark, J. J. Heyd, E. Brothers, 
 K. N. Kudin, V. N. Staroverov, T. Keith, R. Kobayashi, J. Normand, 
 K. Raghavachari, A. Rendell, J. C. Burant, S. S. Iyengar, J. Tomasi, 
 M. Cossi, N. Rega, J. M. Millam, M. Klene, J. E. Knox, J. B. Cross, 
 V. Bakken, C. Adamo, J. Jaramillo, R. Gomperts, R. E. Stratmann, 
 O. Yazyev, A. J. Austin, R. Cammi, C. Pomelli, J. W. Ochterski, 
 R. L. Martin, K. Morokuma, V. G. Zakrzewski, G. A. Voth, 
 P. Salvador, J. J. Dannenberg, S. Dapprich, A. D. Daniels, 
 O. Farkas, J. B. Foresman, J. V. Ortiz, J. Cioslowski, 
 and D. J. Fox, Gaussian, Inc., Wallingford CT, 2010.
 
 ******************************************
 Gaussian 09:  AM64L-G09RevC.01 23-Sep-2011
                18-Feb-2018 
 ******************************************
 %nprocs=2
 Will use up to    2 processors via shared memory.
 %chk=frag2-conf0.chk
 ----------------------------------------------------------------------
 #HF/6-31G* Geom=AllCheck Guess=Read Pop=(MK,ReadRadii) Integral=(Grid=
 UltraFine) iop(6/33=2)
 ----------------------------------------------------------------------
 1/29=7,38=1/1;
 2/12=2,40=1/2;
 3/5=1,6=6,7=1,11=9,14=-4,16=1,25=1,30=1,75=-5,116=-2/1,2,3;
 4/5=1/1;
 5/5=2,38=6/2;
 6/7=2,8=2,9=2,10=2,15=8,20=101,28=1,33=2/1,2;
 99/5=1,9=1/99;
 Structure from the checkpoint file:  frag2-conf0.chk
 ----------------------------
 Optimization for frag2-conf0
 ----------------------------
 Charge =  0 Multiplicity = 1
 Redundant internal coordinates found in file.
 C,0,3.7094040132,-5.5010282889,-0.6830176453
 C,0,6.2118347373,-1.7320009639,0.6133476598
 C,0,-0.9590472331,-2.7060179362,-2.6673116051
 C,0,0.0530151513,-1.5600163858,-2.8033388639
 C,0,-0.4997838533,-3.7209136432,-1.6120750354
 C,0,1.4662687004,-2.0862778688,-3.0922561886
 C,0,0.9150173511,-4.2491041514,-1.9026109706
 C,0,1.944409005,-3.106748526,-2.0359965212
 C,0,3.2563927462,-7.8816061343,-0.8178783593
 C,0,4.5051437499,-6.8279161173,-2.6579798762
 C,0,5.018669497,-1.9026334021,-0.3874291304
 C,0,3.3659773299,-3.5860800485,-2.4096908864
 C,0,4.258242014,-4.2013596023,-1.3076057247
 N,0,3.8450515701,-6.6597667143,-1.3656050034
 N,0,4.45523885,-3.2708743944,-0.1457815005
 O,0,6.7382071154,-0.6085989672,0.6518321913
 O,0,3.1497445779,-5.4197277632,0.4204872943
 O,0,6.5012658836,-2.7897567822,1.2501349182
 H,0,-1.949986245,-2.3104997909,-2.4102269849
 H,0,-1.0645340888,-3.2139969503,-3.6373976197
 H,0,-0.2552814639,-0.8680974512,-3.5973645291
 H,0,0.0686599047,-0.9783380467,-1.8698145591
 H,0,-0.5092937661,-3.2425294453,-0.6214549239
 H,0,-1.2029660976,-4.5616936779,-1.5581074615
 H,0,1.4798578299,-2.5693620256,-4.0812326268
 H,0,2.1752323148,-1.2494921608,-3.1436905256
 H,0,1.2110350579,-4.9424701705,-1.1099174581
 H,0,0.9026327035,-4.8209523341,-2.842936221
 H,0,1.9824733878,-2.5731924764,-1.0727642483
 H,0,2.5281495527,-8.2926630771,-1.5260080084
 H,0,2.7625924859,-7.6476171771,0.1226969064
 H,0,4.0401130585,-8.6280931933,-0.6478306297
 H,0,5.2046869236,-7.667771432,-2.5949488123
 H,0,5.0667466936,-5.9425218221,-2.9479036333
 H,0,3.7678401418,-7.0485297186,-3.4387558793
 H,0,5.3886957043,-1.8341793792,-1.4115545531
 H,0,4.2492924065,-1.1455787062,-0.23752828
 H,0,3.2968219379,-4.319280302,-3.2218633401
 H,0,3.9229857114,-2.7396617566,-2.8283634863
 H,0,5.2582863339,-4.3592930395,-1.7168074735
 H,0,5.1984191791,-3.6362201051,0.5222406036
 H,0,3.5862598509,-3.2575786435,0.3973285404
 Recover connectivity data from disk.
                          Input orientation:                          
 ---------------------------------------------------------------------
 Center     Atomic      Atomic             Coordinates (Angstroms)
 Number     Number       Type             X           Y           Z
 ---------------------------------------------------------------------
      1          6           0        3.709404   -5.501028   -0.683018
      2          6           0        6.211835   -1.732001    0.613348
      3          6           0       -0.959047   -2.706018   -2.667312
      4          6           0        0.053015   -1.560016   -2.803339
      5          6           0       -0.499784   -3.720914   -1.612075
      6          6           0        1.466269   -2.086278   -3.092256
      7          6           0        0.915017   -4.249104   -1.902611
      8          6           0        1.944409   -3.106749   -2.035997
      9          6           0        3.256393   -7.881606   -0.817878
     10          6           0        4.505144   -6.827916   -2.657980
     11          6           0        5.018669   -1.902633   -0.387429
     12          6           0        3.365977   -3.586080   -2.409691
     13          6           0        4.258242   -4.201360   -1.307606
     14          7           0        3.845052   -6.659767   -1.365605
     15          7           0        4.455239   -3.270874   -0.145782
     16          8           0        6.738207   -0.608599    0.651832
     17          8           0        3.149745   -5.419728    0.420487
     18          8           0        6.501266   -2.789757    1.250135
     19          1           0       -1.949986   -2.310500   -2.410227
     20          1           0       -1.064534   -3.213997   -3.637398
     21          1           0       -0.255281   -0.868097   -3.597365
     22          1           0        0.068660   -0.978338   -1.869815
     23          1           0       -0.509294   -3.242529   -0.621455
     24          1           0       -1.202966   -4.561694   -1.558107
     25          1           0        1.479858   -2.569362   -4.081233
     26          1           0        2.175232   -1.249492   -3.143691
     27          1           0        1.211035   -4.942470   -1.109917
     28          1           0        0.902633   -4.820952   -2.842936
     29          1           0        1.982473   -2.573192   -1.072764
     30          1           0        2.528150   -8.292663   -1.526008
     31          1           0        2.762592   -7.647617    0.122697
     32          1           0        4.040113   -8.628093   -0.647831
     33          1           0        5.204687   -7.667771   -2.594949
     34          1           0        5.066747   -5.942522   -2.947904
     35          1           0        3.767840   -7.048530   -3.438756
     36          1           0        5.388696   -1.834179   -1.411555
     37          1           0        4.249292   -1.145579   -0.237528
     38          1           0        3.296822   -4.319280   -3.221863
     39          1           0        3.922986   -2.739662   -2.828363
     40          1           0        5.258286   -4.359293   -1.716807
     41          1           0        5.198419   -3.636220    0.522241
     42          1           0        3.586260   -3.257579    0.397329
 ---------------------------------------------------------------------
                    Distance matrix (angstroms):
                    1          2          3          4          5
     1  C    0.000000
     2  C    4.706197   0.000000
     3  C    5.791713   7.945627   0.000000
     4  C    5.778972   7.045167   1.534957   0.000000
     5  C    4.663606   7.345346   1.534425   2.528670   0.000000
     6  C    4.743059   6.031369   2.539058   1.535484   2.954375
     7  C    3.295955   6.381389   2.545192   2.964043   1.537875
     8  C    3.267772   5.207675   2.998200   2.560970   2.555580
     9  C    2.427047   6.971419   6.926547   7.359768   5.661358
    10  C    2.508846   6.291481   6.844524   6.898793   5.983033
    11  C    3.840572   1.566625   6.447976   5.532787   5.937948
    12  C    2.601225   4.547007   4.421167   3.903282   3.949491
    13  C    1.542878   3.688403   5.595083   5.186313   4.791904
    14  N    1.351666   5.813845   6.356566   6.515679   5.251209
    15  N    2.412152   2.455613   5.999306   5.419338   5.186984
    16  O    5.906889   1.241201   8.640811   7.585196   8.197578
    17  O    1.239980   4.797178   5.812133   5.905943   4.509583
    18  O    4.345407   1.268115   8.426724   7.715105   7.620630
    19  H    6.722457   8.723072   1.097491   2.174805   2.174719
    20  H    6.062125   8.556325   1.100108   2.163382   2.162831
    21  H    6.758417   7.765309   2.176749   1.097395   3.484210
    22  H    5.926064   6.668785   2.162651   1.100028   2.812700
    23  H    4.785605   6.998571   2.162326   2.812056   1.100123
    24  H    5.077353   8.228101   2.175629   3.483986   1.097401
    25  H    5.011328   6.718025   2.822429   2.165103   3.367758
    26  H    5.146276   5.535550   3.488855   2.171651   3.950884
    27  H    2.595396   6.187467   3.483741   3.955968   2.161311
    28  H    3.606344   7.048060   2.823056   3.370033   2.166074
    29  H    3.421464   4.630127   3.348547   2.782844   2.787422
    30  H    3.146303   7.822318   6.683840   7.286041   5.484221
    31  H    2.480619   6.865313   6.786321   7.277526   5.391802
    32  H    3.144701   7.339144   8.008800   8.396480   6.754320
    33  H    3.253633   6.822088   7.913018   7.992986   7.006048
    34  H    2.677126   5.632249   6.845720   6.660687   6.140541
    35  H    3.161055   7.117453   6.464983   6.657887   5.711603
    36  H    4.098362   2.188202   6.529232   5.521025   6.186612
    37  H    4.411336   2.217984   5.955302   4.935979   5.574536
    38  H    2.830634   5.468104   4.585037   4.279133   4.166975
    39  H    3.503323   4.254361   4.884805   4.045845   4.690747
    40  H    2.184335   3.638893   6.503231   6.009272   5.794296
    41  H    2.673448   2.159019   6.996636   6.468793   6.085392
    42  H    2.493066   3.044289   5.509633   5.060613   4.576913
                    6          7          8          9         10
     6  C    0.000000
     7  C    2.529220   0.000000
     8  C    1.544559   1.543507   0.000000
     9  C    6.477898   4.455755   5.099449   0.000000
    10  C    5.648583   4.484402   4.559749   2.460816   0.000000
    11  C    4.468710   4.964037   3.690358   6.248121   5.447708
    12  C    2.514795   2.589196   1.546047   4.582294   3.445120
    13  C    3.931115   3.396095   2.661306   3.845484   2.963658
    14  N    5.436610   3.832071   4.084826   1.462674   1.460900
    15  N    4.361069   4.071431   3.147081   4.811215   4.355017
    16  O    6.632878   7.327209   6.037025   8.196323   7.390625
    17  O    5.126924   3.429453   3.582879   2.757856   3.646514
    18  O    6.685988   6.578425   5.627085   6.382226   5.963606
    19  H    3.490879   3.496299   3.992540   7.789684   7.882711
    20  H    2.823808   2.828349   3.410238   6.957490   6.711258
    21  H    2.168602   3.958913   3.505434   8.321460   7.685280
    22  H    2.162222   3.378655   2.841862   7.676153   7.383844
    23  H    3.368178   2.164074   2.835493   5.978295   6.492073
    24  H    3.950457   2.168467   3.500173   5.608533   6.239231
    25  H    1.100740   2.808375   2.165083   6.482707   5.414175
    26  H    1.097946   3.482254   2.174780   7.110784   6.064917
    27  H    3.486064   1.093959   2.182964   3.592672   4.099092
    28  H    2.803264   1.100625   2.162162   4.359891   4.127978
    29  H    2.140538   2.153320   1.101793   5.465079   5.194174
    30  H    6.488447   4.369713   5.243525   1.095789   2.708385
    31  H    6.553234   4.366383   5.094003   1.087783   3.382389
    32  H    7.442798   5.524151   6.066649   1.095617   2.738173
    33  H    6.736183   5.528823   5.634250   2.645667   1.094847
    34  H    5.277774   4.604037   4.315342   3.402122   1.087831
    35  H    5.480989   4.281953   4.564019   2.797248   1.096311
    36  H    4.274780   5.107523   3.724577   6.439762   5.222226
    37  H    4.096292   4.849924   3.520392   6.833500   6.181667
    38  H    2.890333   2.723664   2.169224   4.297784   2.840996
    39  H    2.555779   3.490460   2.162721   5.561114   4.133009
    40  H    4.630103   4.348638   3.557040   4.149981   2.747204
    41  H    5.421794   4.960148   4.172949   4.857025   4.558657
    42  H    4.247765   3.661746   2.939302   4.792408   4.788169
                   11         12         13         14         15
    11  C    0.000000
    12  C    3.107238   0.000000
    13  C    2.590196   1.545735   0.000000
    14  N    4.996451   3.281338   2.493563   0.000000
    15  N    1.499310   2.532021   1.501481   3.653066   0.000000
    16  O    2.389853   5.441530   4.785139   7.004073   3.596643
    17  O    4.063934   3.379191   2.387361   2.282822   2.577314
    18  O    2.380482   4.884515   3.683180   5.373504   2.523150
    19  H    7.267753   5.466861   6.582797   7.320507   6.861264
    20  H    7.020494   4.612498   5.893620   6.413923   6.531655
    21  H    6.260073   4.680974   6.060159   7.438879   6.314726
    22  H    5.249227   4.238406   5.315689   6.840613   5.241191
    23  H    5.692844   4.281768   4.911166   5.584943   4.987349
    24  H    6.866574   4.748922   5.478812   5.470050   5.972953
    25  H    5.158672   2.717575   4.251569   5.449788   4.983251
    26  H    4.013565   2.723283   4.052611   5.934725   4.274561
    27  H    4.925513   2.858843   3.142260   3.154763   3.774738
    28  H    5.611404   2.789387   3.741824   3.771150   4.722118
    29  H    3.183994   2.174258   2.808060   4.500560   2.731415
    30  H    6.952088   4.861561   4.447436   2.103880   5.553113
    31  H    6.193137   4.824225   4.019879   2.088686   4.700320
    32  H    6.801264   5.383355   4.480943   2.104176   5.396682
    33  H    6.176128   4.480556   3.816939   2.091881   5.088496
    34  H    4.783204   2.955521   2.525055   2.123829   3.919634
    35  H    6.111908   3.634422   3.590080   2.110700   5.058347
    36  H    1.091072   2.856015   2.625314   5.066680   2.130168
    37  H    1.089745   3.384462   3.237737   5.642893   2.137221
    38  H    4.103530   1.096353   2.145371   3.037125   3.450125
    39  H    2.803444   1.096343   2.135805   4.184849   2.785988
    40  H    2.803541   2.158421   1.092006   2.722637   2.073081
    41  H    1.965994   3.457829   2.133460   3.812794   1.063977
    42  H    2.122150   2.834748   2.061330   3.840546   1.024827
                   16         17         18         19         20
    16  O    0.000000
    17  O    6.006459   0.000000
    18  O    2.274106   4.340249   0.000000
    19  H    9.367891   6.609652   9.222342   0.000000
    20  H    9.277304   6.252345   9.017166   1.762464   0.000000
    21  H    8.187301   6.960939   8.534750   2.522270   2.481882
    22  H    7.139907   5.870648   7.375211   2.478232   3.067026
    23  H    7.815697   4.383423   7.270199   2.478705   3.066760
    24  H    9.141828   4.857690   8.389349   2.520322   2.481713
    25  H    7.341439   5.583779   7.327114   3.824016   2.662043
    26  H    5.969713   5.571706   6.355524   4.322168   3.820878
    27  H    7.241259   2.515653   6.179851   4.313946   3.814969
    28  H    8.000703   4.007241   7.226595   3.824532   2.661432
    29  H    5.426865   3.419808   5.085494   4.161977   4.033885
    30  H    9.028423   3.525476   7.333117   7.524747   6.569489
    31  H    8.101436   2.280802   6.232785   7.557045   6.960043
    32  H    8.560439   3.496808   6.614055   8.882529   8.019188
    33  H    7.919923   4.285947   6.345141   8.940013   7.760537
    34  H    6.648504   3.910789   5.442545   7.919294   6.746322
    35  H    8.187106   4.234241   6.898874   7.496688   6.172110
    36  H    2.753324   4.607107   3.039002   7.421622   6.964370
    37  H    2.697036   4.462100   3.160356   6.671485   6.638842
    38  H    6.373210   3.807799   5.710225   5.676526   4.518379
    39  H    4.957687   4.282019   4.825369   5.903458   5.074927
    40  H    4.676358   3.184101   3.579272   7.525794   6.706596
    41  H    3.399151   2.718147   1.715733   7.839426   7.530302
    42  H    4.125123   2.205895   3.073011   6.279279   6.157175
                   21         22         23         24         25
    21  H    0.000000
    22  H    1.761113   0.000000
    23  H    3.815559   2.649339   0.000000
    24  H    4.324272   3.815053   1.760311   0.000000
    25  H    2.477728   3.068095   4.047214   4.187253   0.000000
    26  H    2.501735   2.476678   4.188144   4.989687   1.761984
    27  H    4.993795   4.194855   2.467372   2.484606   3.812168
    28  H    4.187480   4.050699   3.069191   2.480231   2.633672
    29  H    3.780014   2.615632   2.619274   3.786386   3.050167
    30  H    8.195254   7.724419   5.962225   5.276589   6.354861
    31  H    8.301103   7.463689   5.537490   5.298460   6.716182
    32  H    9.347069   8.705426   7.049971   6.697319   7.419662
    33  H    8.777907   8.464816   7.491797   7.195886   6.486692
    34  H    7.382111   7.126448   6.617745   6.568677   5.052565
    35  H    7.376205   7.279611   6.380964   5.867717   5.070560
    36  H    6.129075   5.407888   6.115062   7.135182   4.790270
    37  H    5.626427   4.491104   5.214283   6.568173   4.946816
    38  H    4.966800   4.838487   4.733712   4.803638   2.664974
    39  H    4.642417   4.344756   4.976788   5.586478   2.750919
    40  H    6.791493   6.195683   5.975947   6.466370   4.803216
    41  H    7.374042   6.253055   5.834468   6.794268   6.013140
    42  H    6.035282   4.765332   4.220392   5.334897   4.996807
                   26         27         28         29         30
    26  H    0.000000
    27  H    4.324812   0.000000
    28  H    3.803326   1.764435   0.000000
    29  H    2.465375   2.491982   3.058102   0.000000
    30  H    7.235171   3.623771   4.053317   5.763292   0.000000
    31  H    7.207654   3.353280   4.499385   5.271385   1.785854
    32  H    8.009423   4.669157   5.399685   6.409077   1.780377
    33  H    7.118499   5.057849   5.164644   6.217270   2.949064
    34  H    5.515770   4.386891   4.313790   4.937739   3.740244
    35  H    6.020988   4.049226   3.677841   5.367876   2.596787
    36  H    3.697094   5.215870   5.576238   3.501895   7.064548
    37  H    3.571877   4.940491   5.612188   2.806095   7.463466
    38  H    3.269201   3.033016   2.475359   3.065120   4.388001
    39  H    2.318335   3.893597   3.668040   2.622104   5.871756
    40  H    4.605657   4.133843   4.522501   3.786278   4.791811
    41  H    5.317441   4.502162   5.584065   3.743845   5.745270
    42  H    4.308390   3.279077   4.488352   2.280721   5.492804
                   31         32         33         34         35
    31  H    0.000000
    32  H    1.785246   0.000000
    33  H    3.653742   2.463680   0.000000
    34  H    4.200603   3.681930   1.766378   0.000000
    35  H    3.748783   3.218449   1.777639   1.775204   0.000000
    36  H    6.560976   6.968444   5.955256   4.398011   5.824617
    37  H    6.679562   7.496674   7.000658   5.570012   6.732346
    38  H    4.748611   5.073854   3.904531   2.417147   2.778075
    39  H    5.843227   6.280292   5.097402   3.403056   4.354652
    40  H    4.519440   4.566105   3.423454   2.014671   3.523993
    41  H    4.710010   5.256381   5.096108   4.168725   5.420323
    42  H    4.475074   5.490061   5.569814   4.537768   5.396279
                   36         37         38         39         40
    36  H    0.000000
    37  H    1.775035   0.000000
    38  H    3.718720   4.459354   0.000000
    39  H    2.230594   3.059412   1.744167   0.000000
    40  H    2.546838   3.678899   2.472678   2.375245   0.000000
    41  H    2.650117   2.771531   4.254522   3.695551   2.353668
    42  H    2.923508   2.302868   3.782795   3.284313   2.911875
                   41         42
    41  H    0.000000
    42  H    1.660732   0.000000
 Stoichiometry    C13H24N2O3
 Framework group  C1[X(C13H24N2O3)]
 Deg. of freedom   120
 Full point group                 C1      NOp   1
 Largest Abelian subgroup         C1      NOp   1
 Largest concise Abelian subgroup C1      NOp   1
                         Standard orientation:                         
 ---------------------------------------------------------------------
 Center     Atomic      Atomic             Coordinates (Angstroms)
 Number     Number       Type             X           Y           Z
 ---------------------------------------------------------------------
      1          6           0        0.544959    1.736234   -0.344516
      2          6           0        3.686662   -1.764371   -0.190392
      3          6           0       -4.251927   -1.508770   -0.405914
      4          6           0       -3.303612   -2.536820    0.226467
      5          6           0       -3.469952   -0.469168   -1.219674
      6          6           0       -2.211865   -1.856747    1.065096
      7          6           0       -2.377699    0.213017   -0.379039
      8          6           0       -1.413045   -0.809594    0.258240
      9          6           0       -0.131268    4.056364   -0.568734
     10          6           0        0.275817    3.175553    1.692696
     11          6           0        2.166156   -1.705306    0.182281
     12          6           0       -0.346736   -0.173784    1.179649
     13          6           0        0.878812    0.514274    0.536295
     14          7           0        0.264895    2.914694    0.255316
     15          7           0        1.645757   -0.409998   -0.364795
     16          8           0        4.274553   -2.825217    0.073372
     17          8           0        0.533641    1.575829   -1.574026
     18          8           0        4.129919   -0.693034   -0.704080
     19          1           0       -4.991251   -2.012940   -1.041288
     20          1           0       -4.815565   -0.998041    0.388885
     21          1           0       -3.865036   -3.243750    0.850428
     22          1           0       -2.829806   -3.129818   -0.569726
     23          1           0       -3.002895   -0.963196   -2.084580
     24          1           0       -4.150528    0.290109   -1.625388
     25          1           0       -2.674972   -1.357638    1.929996
     26          1           0       -1.525364   -2.611477    1.470785
     27          1           0       -1.827976    0.920089   -1.007210
     28          1           0       -2.850686    0.796714    0.425297
     29          1           0       -0.910470   -1.352871   -0.557981
     30          1           0       -1.129147    4.399217   -0.273028
     31          1           0       -0.141273    3.754126   -1.613638
     32          1           0        0.578063    4.879621   -0.429188
     33          1           0        0.854725    4.084465    1.886175
     34          1           0        0.730513    2.360875    2.252097
     35          1           0       -0.744978    3.329402    2.061756
     36          1           0        2.055775   -1.715539    1.267707
     37          1           0        1.610451   -2.543168   -0.238104
     38          1           0       -0.828874    0.561947    1.834043
     39          1           0        0.044103   -0.947941    1.850391
     40          1           0        1.580936    0.785933    1.327308
     41          1           0        2.570386    0.021248   -0.666684
     42          1           0        1.106597   -0.526157   -1.228557
 ---------------------------------------------------------------------
 Rotational constants (GHZ):      0.4157271      0.2777309      0.1906630
 Standard basis: 6-31G(d) (6D, 7F)
 There are   318 symmetry adapted basis functions of A   symmetry.
 Integral buffers will be    131072 words long.
 Raffenetti 1 integral format.
 Two-electron integral symmetry is turned on.
   318 basis functions,   600 primitive gaussians,   318 cartesian basis functions
    70 alpha electrons       70 beta electrons
       nuclear repulsion energy      1436.5806115290 Hartrees.
 NAtoms=   42 NActive=   42 NUniq=   42 SFac= 1.00D+00 NAtFMM=   60 NAOKFM=F Big=F
 One-electron integrals computed using PRISM.
 NBasis=   318 RedAO= T  NBF=   318
 NBsUse=   318 1.00D-06 NBFU=   318
 Initial guess read from the checkpoint file:  frag2-conf0.chk
 B after Tr=     0.000000    0.000000    0.000000
         Rot=    1.000000    0.000000    0.000000    0.000000 Ang=   0.00 deg.
 Initial guess orbital symmetries:
       Occupied  (A) (A) (A) (A) (A) (A) (A) (A) (A) (A) (A) (A)
                 (A) (A) (A) (A) (A) (A) (A) (A) (A) (A) (A) (A)
                 (A) (A) (A) (A) (A) (A) (A) (A) (A) (A) (A) (A)
                 (A) (A) (A) (A) (A) (A) (A) (A) (A) (A) (A) (A)
                 (A) (A) (A) (A) (A) (A) (A) (A) (A) (A) (A) (A)
                 (A) (A) (A) (A) (A) (A) (A) (A) (A) (A)
       Virtual   (A) (A) (A) (A) (A) (A) (A) (A) (A) (A) (A) (A)
                 (A) (A) (A) (A) (A) (A) (A) (A) (A) (A) (A) (A)
                 (A) (A) (A) (A) (A) (A) (A) (A) (A) (A) (A) (A)
                 (A) (A) (A) (A) (A) (A) (A) (A) (A) (A) (A) (A)
                 (A) (A) (A) (A) (A) (A) (A) (A) (A) (A) (A) (A)
                 (A) (A) (A) (A) (A) (A) (A) (A) (A) (A) (A) (A)
                 (A) (A) (A) (A) (A) (A) (A) (A) (A) (A) (A) (A)
                 (A) (A) (A) (A) (A) (A) (A) (A) (A) (A) (A) (A)
                 (A) (A) (A) (A) (A) (A) (A) (A) (A) (A) (A) (A)
                 (A) (A) (A) (A) (A) (A) (A) (A) (A) (A) (A) (A)
                 (A) (A) (A) (A) (A) (A) (A) (A) (A) (A) (A) (A)
                 (A) (A) (A) (A) (A) (A) (A) (A) (A) (A) (A) (A)
                 (A) (A) (A) (A) (A) (A) (A) (A) (A) (A) (A) (A)
                 (A) (A) (A) (A) (A) (A) (A) (A) (A) (A) (A) (A)
                 (A) (A) (A) (A) (A) (A) (A) (A) (A) (A) (A) (A)
                 (A) (A) (A) (A) (A) (A) (A) (A) (A) (A) (A) (A)
                 (A) (A) (A) (A) (A) (A) (A) (A) (A) (A) (A) (A)
                 (A) (A) (A) (A) (A) (A) (A) (A) (A) (A) (A) (A)
                 (A) (A) (A) (A) (A) (A) (A) (A) (A) (A) (A) (A)
                 (A) (A) (A) (A) (A) (A) (A) (A) (A) (A) (A) (A)
                 (A) (A) (A) (A) (A) (A) (A) (A)
 Requested convergence on RMS density matrix=1.00D-08 within 128 cycles.
 Requested convergence on MAX density matrix=1.00D-06.
 Requested convergence on             energy=1.00D-06.
 No special actions if energy rises.
 SCF Done:  E(RHF) =  -839.727743415     A.U. after   13 cycles
             Convg  =    0.7070D-08             -V/T =  2.0023

 **********************************************************************

            Population analysis using the SCF density.

 **********************************************************************

 Orbital symmetries:
 BldTbl:  Degeneracy threshold= 1.00D-02
       Occupied  (A) (A) (A) (A) (A) (A) (A) (A) (A) (A) (A) (A)
                 (A) (A) (A) (A) (A) (A) (A) (A) (A) (A) (A) (A)
                 (A) (A) (A) (A) (A) (A) (A) (A) (A) (A) (A) (A)
                 (A) (A) (A) (A) (A) (A) (A) (A) (A) (A) (A) (A)
                 (A) (A) (A) (A) (A) (A) (A) (A) (A) (A) (A) (A)
                 (A) (A) (A) (A) (A) (A) (A) (A) (A) (A)
       Virtual   (A) (A) (A) (A) (A) (A) (A) (A) (A) (A) (A) (A)
                 (A) (A) (A) (A) (A) (A) (A) (A) (A) (A) (A) (A)
                 (A) (A) (A) (A) (A) (A) (A) (A) (A) (A) (A) (A)
                 (A) (A) (A) (A) (A) (A) (A) (A) (A) (A) (A) (A)
                 (A) (A) (A) (A) (A) (A) (A) (A) (A) (A) (A) (A)
                 (A) (A) (A) (A) (A) (A) (A) (A) (A) (A) (A) (A)
                 (A) (A) (A) (A) (A) (A) (A) (A) (A) (A) (A) (A)
                 (A) (A) (A) (A) (A) (A) (A) (A) (A) (A) (A) (A)
                 (A) (A) (A) (A) (A) (A) (A) (A) (A) (A) (A) (A)
                 (A) (A) (A) (A) (A) (A) (A) (A) (A) (A) (A) (A)
                 (A) (A) (A) (A) (A) (A) (A) (A) (A) (A) (A) (A)
                 (A) (A) (A) (A) (A) (A) (A) (A) (A) (A) (A) (A)
                 (A) (A) (A) (A) (A) (A) (A) (A) (A) (A) (A) (A)
                 (A) (A) (A) (A) (A) (A) (A) (A) (A) (A) (A) (A)
                 (A) (A) (A) (A) (A) (A) (A) (A) (A) (A) (A) (A)
                 (A) (A) (A) (A) (A) (A) (A) (A) (A) (A) (A) (A)
                 (A) (A) (A) (A) (A) (A) (A) (A) (A) (A) (A) (A)
                 (A) (A) (A) (A) (A) (A) (A) (A) (A) (A) (A) (A)
                 (A) (A) (A) (A) (A) (A) (A) (A) (A) (A) (A) (A)
                 (A) (A) (A) (A) (A) (A) (A) (A) (A) (A) (A) (A)
                 (A) (A) (A) (A) (A) (A) (A) (A)
 The electronic state is 1-A.
 Alpha  occ. eigenvalues --  -20.56653 -20.47104 -20.45396 -15.68601 -15.64087
 Alpha  occ. eigenvalues --  -11.40185 -11.34403 -11.31142 -11.31082 -11.28839
 Alpha  occ. eigenvalues --  -11.28567 -11.28195 -11.26655 -11.24675 -11.24357
 Alpha  occ. eigenvalues --  -11.23904 -11.23856 -11.23613  -1.42079  -1.34731
 Alpha  occ. eigenvalues --   -1.30713  -1.28767  -1.23344  -1.15164  -1.09685
 Alpha  occ. eigenvalues --   -1.03843  -1.02433  -1.01099  -0.98128  -0.97298
 Alpha  occ. eigenvalues --   -0.90378  -0.85569  -0.83059  -0.79500  -0.79183
 Alpha  occ. eigenvalues --   -0.77232  -0.75339  -0.70931  -0.69490  -0.68785
 Alpha  occ. eigenvalues --   -0.67066  -0.65980  -0.65478  -0.63997  -0.63156
 Alpha  occ. eigenvalues --   -0.62319  -0.61638  -0.60756  -0.59721  -0.59492
 Alpha  occ. eigenvalues --   -0.58296  -0.57715  -0.56773  -0.56093  -0.55170
 Alpha  occ. eigenvalues --   -0.54431  -0.54230  -0.53518  -0.52080  -0.50510
 Alpha  occ. eigenvalues --   -0.50197  -0.49582  -0.47486  -0.46209  -0.45226
 Alpha  occ. eigenvalues --   -0.44578  -0.41204  -0.38114  -0.35817  -0.35058
 Alpha virt. eigenvalues --    0.14006   0.17380   0.17786   0.20760   0.21015
 Alpha virt. eigenvalues --    0.22091   0.23098   0.23175   0.25538   0.26398
 Alpha virt. eigenvalues --    0.26810   0.27081   0.27219   0.28114   0.28697
 Alpha virt. eigenvalues --    0.29286   0.29506   0.29842   0.30640   0.31214
 Alpha virt. eigenvalues --    0.31369   0.31521   0.32489   0.32817   0.33207
 Alpha virt. eigenvalues --    0.34173   0.34414   0.35019   0.36112   0.37367
 Alpha virt. eigenvalues --    0.37992   0.38726   0.40121   0.41307   0.42131
 Alpha virt. eigenvalues --    0.43514   0.44304   0.46251   0.47904   0.48836
 Alpha virt. eigenvalues --    0.51983   0.55922   0.58006   0.63682   0.66034
 Alpha virt. eigenvalues --    0.66064   0.68461   0.69626   0.70494   0.71176
 Alpha virt. eigenvalues --    0.71769   0.73160   0.73625   0.74222   0.76324
 Alpha virt. eigenvalues --    0.77152   0.78188   0.81006   0.84169   0.84436
 Alpha virt. eigenvalues --    0.86296   0.86717   0.88114   0.88607   0.90453
 Alpha virt. eigenvalues --    0.90681   0.91515   0.92185   0.93484   0.94088
 Alpha virt. eigenvalues --    0.94666   0.96571   0.98090   0.98804   0.99163
 Alpha virt. eigenvalues --    0.99938   1.01042   1.02034   1.03227   1.04651
 Alpha virt. eigenvalues --    1.05892   1.06351   1.06981   1.07806   1.09385
 Alpha virt. eigenvalues --    1.09636   1.10095   1.10789   1.10977   1.11420
 Alpha virt. eigenvalues --    1.12821   1.13283   1.13998   1.14179   1.14894
 Alpha virt. eigenvalues --    1.15695   1.15731   1.16477   1.17782   1.18177
 Alpha virt. eigenvalues --    1.18746   1.19833   1.19972   1.21036   1.21715
 Alpha virt. eigenvalues --    1.22299   1.22896   1.23378   1.23750   1.24536
 Alpha virt. eigenvalues --    1.26083   1.27236   1.29398   1.31324   1.33748
 Alpha virt. eigenvalues --    1.34978   1.35877   1.39160   1.40530   1.42575
 Alpha virt. eigenvalues --    1.44217   1.45523   1.46931   1.47651   1.50150
 Alpha virt. eigenvalues --    1.55478   1.58354   1.60124   1.60921   1.61490
 Alpha virt. eigenvalues --    1.63169   1.64385   1.65225   1.66349   1.70524
 Alpha virt. eigenvalues --    1.73278   1.74580   1.76464   1.78120   1.81301
 Alpha virt. eigenvalues --    1.82946   1.85837   1.90904   1.92893   1.93680
 Alpha virt. eigenvalues --    1.96124   1.99623   2.00551   2.01763   2.02409
 Alpha virt. eigenvalues --    2.03238   2.05374   2.07787   2.09673   2.10886
 Alpha virt. eigenvalues --    2.11677   2.12213   2.13112   2.15771   2.16856
 Alpha virt. eigenvalues --    2.17917   2.19438   2.19787   2.20307   2.20619
 Alpha virt. eigenvalues --    2.22259   2.23028   2.24643   2.25462   2.26069
 Alpha virt. eigenvalues --    2.27304   2.27787   2.28268   2.30735   2.31286
 Alpha virt. eigenvalues --    2.32417   2.32690   2.35122   2.35696   2.37998
 Alpha virt. eigenvalues --    2.39308   2.39559   2.40881   2.41584   2.44121
 Alpha virt. eigenvalues --    2.47640   2.48193   2.49965   2.50085   2.52697
 Alpha virt. eigenvalues --    2.53890   2.56205   2.59022   2.61175   2.62614
 Alpha virt. eigenvalues --    2.63990   2.66707   2.67435   2.69668   2.71244
 Alpha virt. eigenvalues --    2.71826   2.72166   2.73873   2.76707   2.78869
 Alpha virt. eigenvalues --    2.81779   2.83752   2.84183   2.86412   2.87001
 Alpha virt. eigenvalues --    2.91676   2.93529   2.95646   2.96385   2.98855
 Alpha virt. eigenvalues --    3.02965   3.04443   3.04993   3.06314   3.12742
 Alpha virt. eigenvalues --    3.13057   3.15339   3.17861   3.25245   3.28942
 Alpha virt. eigenvalues --    3.32445   3.36082   3.40138   3.52272   3.57202
 Alpha virt. eigenvalues --    4.30829   4.40200   4.41752   4.49245   4.57055
 Alpha virt. eigenvalues --    4.61472   4.63484   4.67119   4.67206   4.71898
 Alpha virt. eigenvalues --    4.74471   4.77672   4.89315   4.94794   4.96612
 Alpha virt. eigenvalues --    4.97445   5.04416   5.08707
          Condensed to atoms (all electrons):
              1          2          3          4          5          6
     1  C    4.161814  -0.000191  -0.000001   0.000000  -0.000006  -0.000002
     2  C   -0.000191   3.991168   0.000000   0.000000   0.000000   0.000000
     3  C   -0.000001   0.000000   5.108857   0.338754   0.338719  -0.055841
     4  C    0.000000   0.000000   0.338754   5.095018  -0.058171   0.339376
     5  C   -0.000006   0.000000   0.338719  -0.058171   5.094060  -0.004319
     6  C   -0.000002   0.000000  -0.055841   0.339376  -0.004319   5.129530
     7  C    0.001071   0.000000  -0.056163  -0.003372   0.338331  -0.056791
     8  C   -0.003345   0.000004  -0.003954  -0.048280  -0.048233   0.351555
     9  C   -0.031529   0.000000   0.000000   0.000000  -0.000002   0.000000
    10  C   -0.028337   0.000000   0.000000   0.000000   0.000000   0.000000
    11  C    0.002873   0.279933   0.000000  -0.000002   0.000000  -0.000075
    12  C   -0.038102  -0.000029  -0.000386   0.004140   0.003864  -0.056239
    13  C    0.345658   0.001843   0.000002  -0.000079  -0.000104   0.003696
    14  N    0.323219   0.000001   0.000000   0.000000   0.000015  -0.000004
    15  N   -0.056386  -0.029901   0.000000   0.000001  -0.000002  -0.000106
    16  O    0.000000   0.553093   0.000000   0.000000   0.000000   0.000000
    17  O    0.532855  -0.000016  -0.000001   0.000000   0.000031   0.000010
    18  O   -0.000213   0.453398   0.000000   0.000000   0.000000   0.000000
    19  H    0.000000   0.000000   0.404302  -0.036942  -0.036920   0.004401
    20  H    0.000000   0.000000   0.395045  -0.043319  -0.043404  -0.003201
    21  H    0.000000   0.000000  -0.036150   0.403976   0.004320  -0.037827
    22  H    0.000000   0.000000  -0.043070   0.397743  -0.002825  -0.043751
    23  H    0.000000   0.000000  -0.043383  -0.002874   0.397781   0.000443
    24  H    0.000002   0.000000  -0.036649   0.004367   0.404125  -0.000340
    25  H   -0.000003   0.000000  -0.002965  -0.039790   0.000409   0.392925
    26  H   -0.000001   0.000001   0.004099  -0.034246  -0.000342   0.401009
    27  H    0.002472   0.000000   0.003709  -0.000304  -0.032286   0.003903
    28  H   -0.000020   0.000000  -0.003105   0.000392  -0.039689  -0.003299
    29  H   -0.000664   0.000025  -0.000035  -0.001714  -0.001568  -0.046037
    30  H    0.001134   0.000000   0.000000   0.000000  -0.000001   0.000000
    31  H   -0.004489   0.000000   0.000000   0.000000   0.000000   0.000000
    32  H    0.001199   0.000000   0.000000   0.000000   0.000000   0.000000
    33  H    0.001119   0.000000   0.000000   0.000000   0.000000   0.000000
    34  H   -0.003024   0.000000   0.000000   0.000000   0.000000  -0.000002
    35  H    0.000262   0.000000   0.000000   0.000000  -0.000001   0.000001
    36  H    0.000063  -0.018865   0.000000   0.000000   0.000000  -0.000028
    37  H   -0.000145  -0.015634   0.000000  -0.000001   0.000000   0.000023
    38  H   -0.003092   0.000003   0.000012  -0.000077  -0.000005  -0.001678
    39  H    0.003800   0.000009   0.000007   0.000099  -0.000089  -0.005150
    40  H   -0.034307   0.000185   0.000000   0.000001   0.000002  -0.000051
    41  H   -0.001645  -0.009943   0.000000   0.000000   0.000000   0.000000
    42  H   -0.006087   0.000554   0.000000   0.000001   0.000002   0.000006
              7          8          9         10         11         12
     1  C    0.001071  -0.003345  -0.031529  -0.028337   0.002873  -0.038102
     2  C    0.000000   0.000004   0.000000   0.000000   0.279933  -0.000029
     3  C   -0.056163  -0.003954   0.000000   0.000000   0.000000  -0.000386
     4  C   -0.003372  -0.048280   0.000000   0.000000  -0.000002   0.004140
     5  C    0.338331  -0.048233  -0.000002   0.000000   0.000000   0.003864
     6  C   -0.056791   0.351555   0.000000   0.000000  -0.000075  -0.056239
     7  C    5.169919   0.336362  -0.000058  -0.000005   0.000013  -0.048899
     8  C    0.336362   5.132321   0.000010   0.000051   0.000141   0.329031
     9  C   -0.000058   0.000010   4.988773  -0.047555   0.000001  -0.000224
    10  C   -0.000005   0.000051  -0.047555   4.961778  -0.000001  -0.002152
    11  C    0.000013   0.000141   0.000001  -0.000001   5.482800  -0.008569
    12  C   -0.048899   0.329031  -0.000224  -0.002152  -0.008569   5.197989
    13  C   -0.001561  -0.040610   0.003520  -0.000507  -0.020430   0.313920
    14  N    0.001375  -0.000503   0.205212   0.217126  -0.000039   0.002466
    15  N    0.000369  -0.002014  -0.000076   0.000277   0.056334  -0.052299
    16  O    0.000000   0.000000   0.000000   0.000000  -0.103342   0.000000
    17  O   -0.006385   0.002649  -0.006909   0.001544   0.000400  -0.001785
    18  O    0.000000   0.000000   0.000000   0.000000  -0.131800  -0.000041
    19  H    0.004335  -0.000252   0.000000   0.000000   0.000000   0.000010
    20  H   -0.003098   0.000293   0.000000   0.000000   0.000000  -0.000050
    21  H   -0.000374   0.004248   0.000000   0.000000   0.000000  -0.000089
    22  H    0.000473  -0.004187   0.000000   0.000000   0.000000  -0.000102
    23  H   -0.043743  -0.004035   0.000000   0.000000   0.000000  -0.000094
    24  H   -0.037760   0.004192   0.000000   0.000000   0.000000  -0.000077
    25  H   -0.003109  -0.045654   0.000000  -0.000001   0.000000  -0.004253
    26  H    0.004205  -0.039197   0.000000   0.000000   0.000112  -0.005538
    27  H    0.394969  -0.035102   0.000335  -0.000002  -0.000006  -0.002920
    28  H    0.388439  -0.046960   0.000005  -0.000013   0.000000  -0.004907
    29  H   -0.045602   0.402009   0.000000  -0.000002  -0.000037  -0.048008
    30  H   -0.000023   0.000003   0.398087  -0.001662   0.000000   0.000008
    31  H   -0.000017  -0.000001   0.395114   0.002877   0.000000  -0.000014
    32  H    0.000003   0.000000   0.400138  -0.002580   0.000000   0.000000
    33  H    0.000002  -0.000003  -0.002548   0.400665   0.000000   0.000077
    34  H    0.000007   0.000029   0.003265   0.397704   0.000002  -0.002889
    35  H   -0.000071   0.000049  -0.000727   0.398897   0.000000   0.000049
    36  H    0.000000   0.000200   0.000000   0.000001   0.389167  -0.003672
    37  H    0.000003   0.000017   0.000000   0.000000   0.382841   0.000288
    38  H   -0.003856  -0.033440  -0.000032  -0.001097   0.000089   0.391854
    39  H    0.003753  -0.041847   0.000003   0.000032   0.000690   0.403196
    40  H   -0.000134   0.003369  -0.000118  -0.003592  -0.000311  -0.037181
    41  H    0.000006  -0.000030  -0.000002   0.000002  -0.043455   0.001251
    42  H   -0.000166   0.002462  -0.000007  -0.000029  -0.013395  -0.002869
             13         14         15         16         17         18
     1  C    0.345658   0.323219  -0.056386   0.000000   0.532855  -0.000213
     2  C    0.001843   0.000001  -0.029901   0.553093  -0.000016   0.453398
     3  C    0.000002   0.000000   0.000000   0.000000  -0.000001   0.000000
     4  C   -0.000079   0.000000   0.000001   0.000000   0.000000   0.000000
     5  C   -0.000104   0.000015  -0.000002   0.000000   0.000031   0.000000
     6  C    0.003696  -0.000004  -0.000106   0.000000   0.000010   0.000000
     7  C   -0.001561   0.001375   0.000369   0.000000  -0.006385   0.000000
     8  C   -0.040610  -0.000503  -0.002014   0.000000   0.002649   0.000000
     9  C    0.003520   0.205212  -0.000076   0.000000  -0.006909   0.000000
    10  C   -0.000507   0.217126   0.000277   0.000000   0.001544   0.000000
    11  C   -0.020430  -0.000039   0.056334  -0.103342   0.000400  -0.131800
    12  C    0.313920   0.002466  -0.052299   0.000000  -0.001785  -0.000041
    13  C    5.205895  -0.101188   0.186792  -0.000013  -0.081635   0.000522
    14  N   -0.101188   7.359509   0.001011   0.000000  -0.087119   0.000000
    15  N    0.186792   0.001011   7.378430   0.001534  -0.013773  -0.051682
    16  O   -0.000013   0.000000   0.001534   8.295853   0.000000  -0.071710
    17  O   -0.081635  -0.087119  -0.013773   0.000000   8.273979  -0.000006
    18  O    0.000522   0.000000  -0.051682  -0.071710  -0.000006   8.451695
    19  H    0.000000   0.000000   0.000000   0.000000   0.000000   0.000000
    20  H    0.000000   0.000000   0.000000   0.000000   0.000000   0.000000
    21  H    0.000001   0.000000   0.000000   0.000000   0.000000   0.000000
    22  H    0.000004   0.000000  -0.000001   0.000000   0.000000   0.000000
    23  H    0.000010   0.000000  -0.000002   0.000000   0.000021   0.000000
    24  H    0.000000   0.000000   0.000000   0.000000  -0.000001   0.000000
    25  H    0.000026  -0.000001  -0.000004   0.000000   0.000000   0.000000
    26  H   -0.000128   0.000000   0.000026   0.000000   0.000000   0.000000
    27  H    0.000886  -0.003184  -0.000014   0.000000   0.008043   0.000000
    28  H    0.000304  -0.000134  -0.000006   0.000000   0.000115   0.000000
    29  H   -0.002902  -0.000045  -0.000272   0.000000   0.000070   0.000002
    30  H   -0.000020  -0.047449   0.000000   0.000000   0.000461   0.000000
    31  H    0.000541  -0.028800  -0.000010   0.000000   0.009507   0.000000
    32  H   -0.000101  -0.045695   0.000003   0.000000   0.000341   0.000000
    33  H   -0.000178  -0.044333   0.000005   0.000000  -0.000022   0.000000
    34  H    0.001754  -0.034556   0.000156   0.000000   0.000036  -0.000001
    35  H   -0.000319  -0.049862  -0.000012   0.000000   0.000002   0.000000
    36  H    0.001935  -0.000008  -0.039750   0.001282  -0.000016   0.001107
    37  H   -0.000047   0.000000  -0.032166   0.003070  -0.000005   0.001494
    38  H   -0.037416   0.000420   0.003165   0.000000   0.000057   0.000000
    39  H   -0.040566  -0.000079  -0.001713   0.000000  -0.000082   0.000004
    40  H    0.408388   0.002909  -0.040730  -0.000006   0.001705   0.000843
    41  H   -0.014649  -0.000041   0.207948   0.002002   0.003993   0.100050
    42  H   -0.019975   0.000604   0.292481  -0.000003   0.019459   0.000729
             19         20         21         22         23         24
     1  C    0.000000   0.000000   0.000000   0.000000   0.000000   0.000002
     2  C    0.000000   0.000000   0.000000   0.000000   0.000000   0.000000
     3  C    0.404302   0.395045  -0.036150  -0.043070  -0.043383  -0.036649
     4  C   -0.036942  -0.043319   0.403976   0.397743  -0.002874   0.004367
     5  C   -0.036920  -0.043404   0.004320  -0.002825   0.397781   0.404125
     6  C    0.004401  -0.003201  -0.037827  -0.043751   0.000443  -0.000340
     7  C    0.004335  -0.003098  -0.000374   0.000473  -0.043743  -0.037760
     8  C   -0.000252   0.000293   0.004248  -0.004187  -0.004035   0.004192
     9  C    0.000000   0.000000   0.000000   0.000000   0.000000   0.000000
    10  C    0.000000   0.000000   0.000000   0.000000   0.000000   0.000000
    11  C    0.000000   0.000000   0.000000   0.000000   0.000000   0.000000
    12  C    0.000010  -0.000050  -0.000089  -0.000102  -0.000094  -0.000077
    13  C    0.000000   0.000000   0.000001   0.000004   0.000010   0.000000
    14  N    0.000000   0.000000   0.000000   0.000000   0.000000   0.000000
    15  N    0.000000   0.000000   0.000000  -0.000001  -0.000002   0.000000
    16  O    0.000000   0.000000   0.000000   0.000000   0.000000   0.000000
    17  O    0.000000   0.000000   0.000000   0.000000   0.000021  -0.000001
    18  O    0.000000   0.000000   0.000000   0.000000   0.000000   0.000000
    19  H    0.528130  -0.027651  -0.002188  -0.003067  -0.003043  -0.002176
    20  H   -0.027651   0.564247  -0.003045   0.004536   0.004539  -0.003036
    21  H   -0.002188  -0.003045   0.527782  -0.027266  -0.000083  -0.000085
    22  H   -0.003067   0.004536  -0.027266   0.555334   0.002835  -0.000084
    23  H   -0.003043   0.004539  -0.000083   0.002835   0.553650  -0.027133
    24  H   -0.002176  -0.003036  -0.000085  -0.000084  -0.027133   0.529854
    25  H   -0.000087   0.002812  -0.003051   0.004425   0.000073  -0.000039
    26  H   -0.000079  -0.000087  -0.002523  -0.002930  -0.000041   0.000011
    27  H   -0.000069  -0.000085   0.000010  -0.000040  -0.002718  -0.002505
    28  H   -0.000087   0.002885  -0.000039   0.000075   0.004483  -0.003108
    29  H   -0.000051   0.000085  -0.000077   0.002869   0.002806  -0.000079
    30  H    0.000000   0.000000   0.000000   0.000000   0.000000   0.000000
    31  H    0.000000   0.000000   0.000000   0.000000   0.000000   0.000000
    32  H    0.000000   0.000000   0.000000   0.000000   0.000000   0.000000
    33  H    0.000000   0.000000   0.000000   0.000000   0.000000   0.000000
    34  H    0.000000   0.000000   0.000000   0.000000   0.000000   0.000000
    35  H    0.000000   0.000000   0.000000   0.000000   0.000000   0.000000
    36  H    0.000000   0.000000   0.000000   0.000000   0.000000   0.000000
    37  H    0.000000   0.000000   0.000000   0.000002   0.000000   0.000000
    38  H    0.000000  -0.000005   0.000002  -0.000002   0.000002  -0.000002
    39  H    0.000000   0.000001  -0.000011   0.000007   0.000001   0.000002
    40  H    0.000000   0.000000   0.000000   0.000000   0.000000   0.000000
    41  H    0.000000   0.000000   0.000000   0.000000   0.000000   0.000000
    42  H    0.000000   0.000000   0.000000  -0.000002  -0.000001   0.000000
             25         26         27         28         29         30
     1  C   -0.000003  -0.000001   0.002472  -0.000020  -0.000664   0.001134
     2  C    0.000000   0.000001   0.000000   0.000000   0.000025   0.000000
     3  C   -0.002965   0.004099   0.003709  -0.003105  -0.000035   0.000000
     4  C   -0.039790  -0.034246  -0.000304   0.000392  -0.001714   0.000000
     5  C    0.000409  -0.000342  -0.032286  -0.039689  -0.001568  -0.000001
     6  C    0.392925   0.401009   0.003903  -0.003299  -0.046037   0.000000
     7  C   -0.003109   0.004205   0.394969   0.388439  -0.045602  -0.000023
     8  C   -0.045654  -0.039197  -0.035102  -0.046960   0.402009   0.000003
     9  C    0.000000   0.000000   0.000335   0.000005   0.000000   0.398087
    10  C   -0.000001   0.000000  -0.000002  -0.000013  -0.000002  -0.001662
    11  C    0.000000   0.000112  -0.000006   0.000000  -0.000037   0.000000
    12  C   -0.004253  -0.005538  -0.002920  -0.004907  -0.048008   0.000008
    13  C    0.000026  -0.000128   0.000886   0.000304  -0.002902  -0.000020
    14  N   -0.000001   0.000000  -0.003184  -0.000134  -0.000045  -0.047449
    15  N   -0.000004   0.000026  -0.000014  -0.000006  -0.000272   0.000000
    16  O    0.000000   0.000000   0.000000   0.000000   0.000000   0.000000
    17  O    0.000000   0.000000   0.008043   0.000115   0.000070   0.000461
    18  O    0.000000   0.000000   0.000000   0.000000   0.000002   0.000000
    19  H   -0.000087  -0.000079  -0.000069  -0.000087  -0.000051   0.000000
    20  H    0.002812  -0.000087  -0.000085   0.002885   0.000085   0.000000
    21  H   -0.003051  -0.002523   0.000010  -0.000039  -0.000077   0.000000
    22  H    0.004425  -0.002930  -0.000040   0.000075   0.002869   0.000000
    23  H    0.000073  -0.000041  -0.002718   0.004483   0.002806   0.000000
    24  H   -0.000039   0.000011  -0.002505  -0.003108  -0.000079   0.000000
    25  H    0.562007  -0.028199  -0.000069   0.002953   0.004923   0.000000
    26  H   -0.028199   0.534135  -0.000086  -0.000083  -0.002677   0.000000
    27  H   -0.000069  -0.000086   0.493377  -0.026016  -0.002194   0.000173
    28  H    0.002953  -0.000083  -0.026016   0.573448   0.004874   0.000022
    29  H    0.004923  -0.002677  -0.002194   0.004874   0.575373   0.000000
    30  H    0.000000   0.000000   0.000173   0.000022   0.000000   0.529408
    31  H    0.000000   0.000000   0.000061   0.000000   0.000000  -0.020978
    32  H    0.000000   0.000000  -0.000008   0.000000   0.000000  -0.036975
    33  H    0.000000   0.000000  -0.000003   0.000000   0.000000  -0.001245
    34  H    0.000000   0.000000  -0.000006  -0.000010  -0.000001  -0.000043
    35  H    0.000001   0.000000   0.000076   0.000128   0.000001   0.003398
    36  H    0.000000   0.000009   0.000000   0.000000  -0.000069   0.000000
    37  H    0.000000   0.000112   0.000000   0.000000   0.000613   0.000000
    38  H    0.001583   0.000234   0.000241   0.003378   0.003783  -0.000001
    39  H    0.000249   0.002895  -0.000086  -0.000052  -0.000121   0.000000
    40  H    0.000000  -0.000003   0.000022  -0.000005  -0.000023  -0.000002
    41  H    0.000000   0.000000  -0.000004   0.000000   0.000065   0.000000
    42  H    0.000000  -0.000002   0.000164   0.000001   0.000980   0.000000
             31         32         33         34         35         36
     1  C   -0.004489   0.001199   0.001119  -0.003024   0.000262   0.000063
     2  C    0.000000   0.000000   0.000000   0.000000   0.000000  -0.018865
     3  C    0.000000   0.000000   0.000000   0.000000   0.000000   0.000000
     4  C    0.000000   0.000000   0.000000   0.000000   0.000000   0.000000
     5  C    0.000000   0.000000   0.000000   0.000000  -0.000001   0.000000
     6  C    0.000000   0.000000   0.000000  -0.000002   0.000001  -0.000028
     7  C   -0.000017   0.000003   0.000002   0.000007  -0.000071   0.000000
     8  C   -0.000001   0.000000  -0.000003   0.000029   0.000049   0.000200
     9  C    0.395114   0.400138  -0.002548   0.003265  -0.000727   0.000000
    10  C    0.002877  -0.002580   0.400665   0.397704   0.398897   0.000001
    11  C    0.000000   0.000000   0.000000   0.000002   0.000000   0.389167
    12  C   -0.000014   0.000000   0.000077  -0.002889   0.000049  -0.003672
    13  C    0.000541  -0.000101  -0.000178   0.001754  -0.000319   0.001935
    14  N   -0.028800  -0.045695  -0.044333  -0.034556  -0.049862  -0.000008
    15  N   -0.000010   0.000003   0.000005   0.000156  -0.000012  -0.039750
    16  O    0.000000   0.000000   0.000000   0.000000   0.000000   0.001282
    17  O    0.009507   0.000341  -0.000022   0.000036   0.000002  -0.000016
    18  O    0.000000   0.000000   0.000000  -0.000001   0.000000   0.001107
    19  H    0.000000   0.000000   0.000000   0.000000   0.000000   0.000000
    20  H    0.000000   0.000000   0.000000   0.000000   0.000000   0.000000
    21  H    0.000000   0.000000   0.000000   0.000000   0.000000   0.000000
    22  H    0.000000   0.000000   0.000000   0.000000   0.000000   0.000000
    23  H    0.000000   0.000000   0.000000   0.000000   0.000000   0.000000
    24  H    0.000000   0.000000   0.000000   0.000000   0.000000   0.000000
    25  H    0.000000   0.000000   0.000000   0.000000   0.000001   0.000000
    26  H    0.000000   0.000000   0.000000   0.000000   0.000000   0.000009
    27  H    0.000061  -0.000008  -0.000003  -0.000006   0.000076   0.000000
    28  H    0.000000   0.000000   0.000000  -0.000010   0.000128   0.000000
    29  H    0.000000   0.000000   0.000000  -0.000001   0.000001  -0.000069
    30  H   -0.020978  -0.036975  -0.001245  -0.000043   0.003398   0.000000
    31  H    0.419139  -0.020114   0.000008  -0.000083  -0.000063   0.000000
    32  H   -0.020114   0.516579   0.003859  -0.000014  -0.000672   0.000000
    33  H    0.000008   0.003859   0.500524  -0.022851  -0.035961   0.000000
    34  H   -0.000083  -0.000014  -0.022851   0.501228  -0.027221   0.000007
    35  H   -0.000063  -0.000672  -0.035961  -0.027221   0.523717   0.000000
    36  H    0.000000   0.000000   0.000000   0.000007   0.000000   0.468921
    37  H    0.000000   0.000000   0.000000   0.000000   0.000000  -0.019687
    38  H   -0.000001   0.000001   0.000114  -0.000444  -0.000048  -0.000023
    39  H    0.000000   0.000000   0.000001   0.000142  -0.000027   0.002005
    40  H   -0.000013   0.000001   0.000024  -0.000769   0.000146   0.000167
    41  H   -0.000002   0.000001   0.000002  -0.000001  -0.000001   0.001766
    42  H   -0.000006   0.000000   0.000000  -0.000006   0.000001   0.001475
             37         38         39         40         41         42
     1  C   -0.000145  -0.003092   0.003800  -0.034307  -0.001645  -0.006087
     2  C   -0.015634   0.000003   0.000009   0.000185  -0.009943   0.000554
     3  C    0.000000   0.000012   0.000007   0.000000   0.000000   0.000000
     4  C   -0.000001  -0.000077   0.000099   0.000001   0.000000   0.000001
     5  C    0.000000  -0.000005  -0.000089   0.000002   0.000000   0.000002
     6  C    0.000023  -0.001678  -0.005150  -0.000051   0.000000   0.000006
     7  C    0.000003  -0.003856   0.003753  -0.000134   0.000006  -0.000166
     8  C    0.000017  -0.033440  -0.041847   0.003369  -0.000030   0.002462
     9  C    0.000000  -0.000032   0.000003  -0.000118  -0.000002  -0.000007
    10  C    0.000000  -0.001097   0.000032  -0.003592   0.000002  -0.000029
    11  C    0.382841   0.000089   0.000690  -0.000311  -0.043455  -0.013395
    12  C    0.000288   0.391854   0.403196  -0.037181   0.001251  -0.002869
    13  C   -0.000047  -0.037416  -0.040566   0.408388  -0.014649  -0.019975
    14  N    0.000000   0.000420  -0.000079   0.002909  -0.000041   0.000604
    15  N   -0.032166   0.003165  -0.001713  -0.040730   0.207948   0.292481
    16  O    0.003070   0.000000   0.000000  -0.000006   0.002002  -0.000003
    17  O   -0.000005   0.000057  -0.000082   0.001705   0.003993   0.019459
    18  O    0.001494   0.000000   0.000004   0.000843   0.100050   0.000729
    19  H    0.000000   0.000000   0.000000   0.000000   0.000000   0.000000
    20  H    0.000000  -0.000005   0.000001   0.000000   0.000000   0.000000
    21  H    0.000000   0.000002  -0.000011   0.000000   0.000000   0.000000
    22  H    0.000002  -0.000002   0.000007   0.000000   0.000000  -0.000002
    23  H    0.000000   0.000002   0.000001   0.000000   0.000000  -0.000001
    24  H    0.000000  -0.000002   0.000002   0.000000   0.000000   0.000000
    25  H    0.000000   0.001583   0.000249   0.000000   0.000000   0.000000
    26  H    0.000112   0.000234   0.002895  -0.000003   0.000000  -0.000002
    27  H    0.000000   0.000241  -0.000086   0.000022  -0.000004   0.000164
    28  H    0.000000   0.003378  -0.000052  -0.000005   0.000000   0.000001
    29  H    0.000613   0.003783  -0.000121  -0.000023   0.000065   0.000980
    30  H    0.000000  -0.000001   0.000000  -0.000002   0.000000   0.000000
    31  H    0.000000  -0.000001   0.000000  -0.000013  -0.000002  -0.000006
    32  H    0.000000   0.000001   0.000000   0.000001   0.000001   0.000000
    33  H    0.000000   0.000114   0.000001   0.000024   0.000002   0.000000
    34  H    0.000000  -0.000444   0.000142  -0.000769  -0.000001  -0.000006
    35  H    0.000000  -0.000048  -0.000027   0.000146  -0.000001   0.000001
    36  H   -0.019687  -0.000023   0.002005   0.000167   0.001766   0.001475
    37  H    0.456611   0.000002  -0.000350   0.000102   0.002716  -0.002603
    38  H    0.000002   0.511939  -0.024544  -0.001552  -0.000008  -0.000004
    39  H   -0.000350  -0.024544   0.503260  -0.004183  -0.000108  -0.000086
    40  H    0.000102  -0.001552  -0.004183   0.460839  -0.000606   0.003266
    41  H    0.002716  -0.000008  -0.000108  -0.000606   0.258347  -0.005096
    42  H   -0.002603  -0.000004  -0.000086   0.003266  -0.005096   0.274790
 Mulliken atomic charges:
              1
     1  C    0.834048
     2  C    0.794362
     3  C   -0.311804
     4  C   -0.314697
     5  C   -0.313691
     6  C   -0.312139
     7  C   -0.332447
     8  C   -0.171347
     9  C   -0.304677
    10  C   -0.293422
    11  C   -0.273937
    12  C   -0.326755
    13  C   -0.113269
    14  N   -0.670826
    15  N   -0.807611
    16  O   -0.681761
    17  O   -0.657524
    18  O   -0.754392
    19  H    0.171436
    20  H    0.152535
    21  H    0.172470
    22  H    0.159024
    23  H    0.160509
    24  H    0.170521
    25  H    0.154838
    26  H    0.169314
    27  H    0.199264
    28  H    0.146028
    29  H    0.153703
    30  H    0.175708
    31  H    0.247344
    32  H    0.184035
    33  H    0.200745
    34  H    0.187590
    35  H    0.188258
    36  H    0.214014
    37  H    0.222745
    38  H    0.190445
    39  H    0.198940
    40  H    0.241618
    41  H    0.497442
    42  H    0.453362
 Sum of Mulliken atomic charges =   0.00000
 Mulliken charges with hydrogens summed into heavy atoms:
              1
     1  C    0.834048
     2  C    0.794362
     3  C    0.012168
     4  C    0.016797
     5  C    0.017339
     6  C    0.012013
     7  C    0.012844
     8  C   -0.017644
     9  C    0.302410
    10  C    0.283171
    11  C    0.162821
    12  C    0.062630
    13  C    0.128349
    14  N   -0.670826
    15  N    0.143193
    16  O   -0.681761
    17  O   -0.657524
    18  O   -0.754392
 Sum of Mulliken charges with hydrogens summed into heavy atoms =   0.00000
 DipInt: DoE/N= T F RetVal/Mat= T F Init=T NMatP=  1 IDeriv=0 Min/MaxMlt=  0  4
 Entering OneElI...
 OneElI was handed    33293311 working-precision words.
 Multipole integrals L=0 to 4 MinM= 0 MaxM= 0.
 Requested accuracy = 0.1000D-12
 PrsmSu:  NPrtUS=   1 ThrOK=F IAlg=1 NPAlg=1 LenDen=           0.
 Prism:   IPart=     0 DynPar=F LinDyn=F Incr=          59.
 PRISM was handed    32815468 working-precision words and  5984 shell-pairs
 IPart=  0 NShTot=        5984 NBatch=          79 AvBLen=        75.7
 PrSmSu:  NxtVal=             60.
 Electronic moments (au):
       -140.00000000         -4.72804151          2.72153508          1.72053175
      -3281.91162958      -2161.15980109       -504.88271527         19.66160026
          5.56139394          5.47373864       -813.77729470      -4400.56390881
       -210.50221411       -748.50011174       8759.66188146       1588.74434669
        419.06220401       -682.25073035       -624.86261735       -254.57707913
    -171070.19926034     -80227.60334171      -5266.77190659      10465.89233269
      -1914.51089537       2057.40529363       -675.55626616       -441.50851922
      -1023.41079949     -40801.32269623      -7869.23382322      -8178.57675747
       -844.18339550        192.26724898      -1652.62703412
 Electronic spatial extent (au):  <R**2>=           5947.9541
 DipInt: DoE/N= F T RetVal/Mat= T F Init=T NMatP=  1 IDeriv=0 Min/MaxMlt=  0  4
 Nuclear    moments (au):
        140.00000000          0.00000000          0.00000000          0.00000000
       3155.27494296       2079.68657255        422.88374494          0.00000000
          0.00000000          0.00000000        424.60970377       4566.91150557
        220.60374856        655.45762148      -8584.36597693      -1556.17520600
       -408.50315690        683.77975760        632.41056321        261.23591694
     156057.70432097      72969.70348317       3526.45278818      -9005.05476054
       2197.49288902      -1502.78254546        738.31648452        447.56390292
       1085.52268950      36757.47382807       5659.86226117       6703.05000709
        851.73050993       -201.41466262       1610.06668571
 Total      moments (au):
          0.00000000         -4.72804151          2.72153508          1.72053175
       -126.63668662        -81.47322854        -81.99897033         19.66160026
          5.56139394          5.47373864       -389.16759094        166.34759676
         10.10153445        -93.04249026        175.29590454         32.56914069
         10.55904711          1.52902724          7.54794586          6.65883781
     -15012.49493937      -7257.89985855      -1740.31911840       1460.83757214
        282.98199365        554.62274817         62.76021837          6.05538369
         62.11189001      -4043.84886816      -2209.37156204      -1475.52675039
          7.54711442         -9.14741364        -42.56034841
 Traceless Quadrup. (au):
        -29.93372479         15.22973329         14.70399150         19.66160026
          5.56139394          5.47373864
 Charge=              0.0000 electrons
 Dipole moment (field-independent basis, Debye):
    X=            -12.0175    Y=              6.9175    Z=              4.3732  Tot=             14.5394
 Quadrupole moment (field-independent basis, Debye-Ang):
   XX=           -170.3307   YY=           -109.5843   ZZ=           -110.2914
   XY=             26.4455   XZ=              7.4803   YZ=              7.3624
 Traceless Quadrupole moment (field-independent basis, Debye-Ang):
   XX=            -40.2619   YY=             20.4845   ZZ=             19.7774
   XY=             26.4455   XZ=              7.4803   YZ=              7.3624
 Octapole moment (field-independent basis, Debye-Ang**2):
  XXX=           -276.9945  YYY=            118.3998  ZZZ=              7.1899  XYY=            -66.2241
  XXY=            124.7689  XXZ=             23.1815  XZZ=              7.5155  YZZ=              1.0883
  YYZ=              5.3723  XYZ=              4.7395
 Hexadecapole moment (field-independent basis, Debye-Ang**3):
 XXXX=          -5654.4251 YYYY=          -2733.6729 ZZZZ=           -655.4876 XXXY=            550.2214
 XXXZ=            106.5846 YYYX=            208.8975 YYYZ=             23.6385 ZZZX=              2.2807
 ZZZY=             23.3943 XXYY=          -1523.1073 XXZZ=           -832.1552 YYZZ=           -555.7541
 XXYZ=              2.8426 YYXZ=             -3.4454 ZZXY=            -16.0303
 N-N= 1.436580611529D+03 E-N=-4.835785175218D+03  KE= 8.377674640262D+02
 Entering OneElI...
 OneElI was handed    33089695 working-precision words.
 Calculate electrostatic properties
    NBasis =   318  MinDer = 0  MaxDer = 0
    NGrid  =    42  NMatD  =   1
 Requested accuracy = 0.1000D-12
 PrsmSu:  NPrtUS=   2 ThrOK=T IAlg=1 NPAlg=1 LenDen=           0.
 Prism:   IPart=     0 DynPar=F LinDyn=F Incr=         512.
 PRISM was handed    16258808 working-precision words and  5346 shell-pairs
 PRISM was handed    16258808 working-precision words and  5346 shell-pairs
 IPart=  0 NShTot=      112686 NBatch=        2683 AvBLen=        42.0
 IPart=  1 NShTot=      111846 NBatch=        2663 AvBLen=        42.0
 PrSmSu:  NxtVal=           1025.
 --------------------------------------------------------
       Center         ----      EFG at Nuclei      ----
                      3XX-RR        3YY-RR        3ZZ-RR
 --------------------------------------------------------
     1   Atom       -0.484663      0.156222      0.328440
     2   Atom        0.095724      0.274858     -0.370582
     3   Atom       -0.007123      0.000808      0.006314
     4   Atom       -0.004377     -0.001347      0.005724
     5   Atom       -0.004255      0.010331     -0.006077
     6   Atom        0.017611     -0.004558     -0.013053
     7   Atom       -0.000256     -0.015684      0.015939
     8   Atom       -0.025196      0.025558     -0.000362
     9   Atom        0.084409     -0.149708      0.065299
    10   Atom        0.144204      0.131837     -0.276041
    11   Atom        0.197613     -0.294127      0.096514
    12   Atom       -0.034651      0.026131      0.008520
    13   Atom        0.078595     -0.082310      0.003715
    14   Atom        0.880868     -0.387874     -0.492993
    15   Atom        0.148328     -0.055004     -0.093324
    16   Atom        0.851875     -0.602684     -0.249191
    17   Atom       -0.405203      1.402202     -0.996998
    18   Atom        0.860593     -0.664062     -0.196531
    19   Atom       -0.050232      0.051385     -0.001153
    20   Atom        0.032912      0.049048     -0.081960
    21   Atom        0.029318     -0.032673      0.003355
    22   Atom        0.060933      0.021184     -0.082117
    23   Atom        0.063725      0.056124     -0.119849
    24   Atom       -0.024018     -0.065454      0.089472
    25   Atom        0.066622      0.052402     -0.119024
    26   Atom       -0.030067     -0.060323      0.090391
    27   Atom        0.031050     -0.035936      0.004886
    28   Atom        0.063004      0.025805     -0.088809
    29   Atom        0.043006      0.044105     -0.087111
    30   Atom       -0.212260      0.100831      0.111429
    31   Atom        0.152910      0.110812     -0.263723
    32   Atom       -0.034536     -0.103131      0.137667
    33   Atom        0.032303     -0.150692      0.118389
    34   Atom        0.084116     -0.108493      0.024377
    35   Atom       -0.229690      0.143758      0.085932
    36   Atom        0.151970      0.137519     -0.289489
    37   Atom        0.034035     -0.116363      0.082328
    38   Atom        0.056592     -0.053282     -0.003310
    39   Atom        0.079417     -0.069465     -0.009952
    40   Atom       -0.028330      0.111569     -0.083239
    41   Atom       -0.079611      0.006285      0.073325
    42   Atom        0.024103      0.161418     -0.185521
 --------------------------------------------------------
                        XY            XZ            YZ
 --------------------------------------------------------
     1   Atom       -0.186473      0.044365     -0.032738
     2   Atom       -0.092476     -0.109706     -0.274023
     3   Atom        0.006820      0.006432      0.009159
     4   Atom       -0.008251     -0.017813     -0.014269
     5   Atom       -0.016621     -0.014252     -0.007818
     6   Atom       -0.009309      0.017227      0.021215
     7   Atom        0.040970     -0.015695     -0.012878
     8   Atom       -0.030213     -0.028845     -0.044366
     9   Atom        0.099565     -0.069282      0.231720
    10   Atom        0.006054     -0.007271     -0.083898
    11   Atom        0.219523     -0.131165      0.195401
    12   Atom       -0.059807      0.075118      0.035456
    13   Atom        0.181220      0.132917     -0.169500
    14   Atom        0.381406     -0.087604     -0.061754
    15   Atom        0.229013     -0.018323     -0.126570
    16   Atom        0.913601     -0.647618     -0.162624
    17   Atom       -0.533326      0.077203     -0.390819
    18   Atom       -0.685167      0.048791      0.390430
    19   Atom       -0.135330     -0.171305     -0.114125
    20   Atom        0.102875      0.159308     -0.143162
    21   Atom       -0.144205      0.124637      0.160999
    22   Atom        0.100149      0.132494     -0.167762
    23   Atom        0.080229      0.143402     -0.152595
    24   Atom        0.185343     -0.100837      0.111342
    25   Atom        0.078260      0.142147     -0.154081
    26   Atom        0.183175     -0.100897      0.110290
    27   Atom       -0.142187      0.117548      0.161469
    28   Atom        0.099259      0.131267     -0.167301
    29   Atom        0.092368      0.145308     -0.155313
    30   Atom        0.127226      0.109926     -0.025979
    31   Atom        0.001925     -0.009941     -0.102898
    32   Atom       -0.209791     -0.044788     -0.034506
    33   Atom       -0.193339     -0.040032     -0.062244
    34   Atom        0.148006     -0.095095      0.164290
    35   Atom        0.056549      0.132220     -0.021634
    36   Atom        0.010871      0.048044      0.001363
    37   Atom       -0.171398     -0.100656     -0.125622
    38   Atom        0.121935      0.116519     -0.175556
    39   Atom        0.104919     -0.094325      0.187580
    40   Atom       -0.060792     -0.195392     -0.087164
    41   Atom       -0.135217      0.072585      0.046876
    42   Atom       -0.030152     -0.222761     -0.070142
 --------------------------------------------------------


 ---------------------------------------------------------------------------------
              Nuclear Quadrupole in Principal Axis System
 ---------------------------------------------------------------------------------

       Atom             a.u.   MegaHertz   Gauss  10(-4) cm-1        Axes

              Baa    -0.5363   -71.971   -25.681   -24.007  0.9653  0.2580 -0.0398
     1 C(13)  Bbb     0.1929    25.891     9.239     8.636 -0.2348  0.9245  0.3002
              Bcc     0.3434    46.080    16.443    15.371  0.1142 -0.2805  0.9530
 
              Baa    -0.5018   -67.337   -24.028   -22.461  0.2211  0.3478  0.9111
     2 C(13)  Bbb     0.1173    15.745     5.618     5.252  0.9585  0.0950 -0.2689
              Bcc     0.3845    51.592    18.409    17.209 -0.1801  0.9327 -0.3124
 
              Baa    -0.0112    -1.496    -0.534    -0.499  0.8961 -0.4316 -0.1037
     3 C(13)  Bbb    -0.0056    -0.747    -0.266    -0.249  0.2561  0.6935 -0.6734
              Bcc     0.0167     2.243     0.800     0.748  0.3625  0.5768  0.7320
 
              Baa    -0.0271    -3.638    -1.298    -1.214  0.6358  0.5197  0.5707
     4 C(13)  Bbb     0.0055     0.741     0.264     0.247 -0.6252  0.7803 -0.0140
              Bcc     0.0216     2.897     1.034     0.966 -0.4526 -0.3479  0.8210
 
              Baa    -0.0274    -3.681    -1.313    -1.228  0.6749  0.4223  0.6051
     5 C(13)  Bbb     0.0062     0.827     0.295     0.276 -0.4701 -0.3859  0.7938
              Bcc     0.0213     2.854     1.018     0.952 -0.5687  0.8202  0.0619
 
              Baa    -0.0372    -4.994    -1.782    -1.666 -0.3323 -0.5786  0.7449
     6 C(13)  Bbb     0.0119     1.593     0.569     0.532 -0.2475  0.8156  0.5231
              Bcc     0.0253     3.401     1.213     1.134  0.9101  0.0105  0.4142
 
              Baa    -0.0497    -6.664    -2.378    -2.223 -0.6387  0.7695 -0.0017
     7 C(13)  Bbb     0.0027     0.358     0.128     0.119  0.4201  0.3506  0.8370
              Bcc     0.0470     6.306     2.250     2.103  0.6447  0.5338 -0.5472
 
              Baa    -0.0710    -9.526    -3.399    -3.178  0.6714  0.4725  0.5710
     8 C(13)  Bbb     0.0115     1.538     0.549     0.513  0.7340 -0.3171 -0.6006
              Bcc     0.0595     7.988     2.850     2.665 -0.1027  0.8223 -0.5597
 
              Baa    -0.3329   -44.666   -15.938   -14.899 -0.2790  0.8081 -0.5188
     9 C(13)  Bbb     0.1194    16.021     5.717     5.344  0.9591  0.2614 -0.1085
              Bcc     0.2135    28.646    10.221     9.555 -0.0480  0.5279  0.8480
 
              Baa    -0.2927   -39.278   -14.015   -13.102  0.0136  0.1937  0.9810
    10 C(13)  Bbb     0.1387    18.615     6.642     6.209  0.7971 -0.5945  0.1063
              Bcc     0.1540    20.664     7.373     6.893  0.6037  0.7804 -0.1625
 
              Baa    -0.4711   -63.220   -22.558   -21.088 -0.3548  0.8558 -0.3766
    11 C(13)  Bbb     0.1681    22.559     8.050     7.525  0.2429  0.4733  0.8468
              Bcc     0.3030    40.661    14.509    13.563  0.9029  0.2089 -0.3758
 
              Baa    -0.1233   -16.540    -5.902    -5.517  0.7349  0.4205 -0.5321
    12 C(13)  Bbb     0.0538     7.225     2.578     2.410  0.0222  0.7692  0.6386
              Bcc     0.0694     9.315     3.324     3.107  0.6778 -0.4811  0.5560
 
              Baa    -0.3359   -45.080   -16.086   -15.037 -0.4765  0.6978  0.5347
    13 C(13)  Bbb     0.1351    18.131     6.470     6.048  0.0721 -0.5752  0.8148
              Bcc     0.2008    26.949     9.616     8.989  0.8762  0.4268  0.2238
 
              Baa    -0.5329   -20.553    -7.334    -6.856 -0.1338  0.6648  0.7349
    14 N(14)  Bbb    -0.4606   -17.766    -6.339    -5.926 -0.2423  0.6971 -0.6748
              Bcc     0.9936    38.319    13.673    12.782  0.9609  0.2683 -0.0678
 
              Baa    -0.2628   -10.137    -3.617    -3.381 -0.3975  0.7553  0.5210
    15 N(14)  Bbb    -0.0526    -2.029    -0.724    -0.677  0.4536 -0.3318  0.8271
              Bcc     0.3154    12.165     4.341     4.058  0.7976  0.5651 -0.2107
 
              Baa    -1.0715    77.530    27.664    25.861 -0.4755  0.8554 -0.2053
    16 O(17)  Bbb    -0.4618    33.414    11.923    11.146  0.2153  0.3394  0.9156
              Bcc     1.5332  -110.944   -39.587   -37.007  0.8530  0.3912 -0.3456
 
              Baa    -1.0592    76.640    27.347    25.564  0.0137  0.1597  0.9871
    17 O(17)  Bbb    -0.5493    39.746    14.182    13.258  0.9659  0.2531 -0.0544
              Bcc     1.6084  -116.386   -41.529   -38.822 -0.2585  0.9542 -0.1508
 
              Baa    -1.0907    78.921    28.161    26.325  0.3132  0.8639 -0.3943
    18 O(17)  Bbb    -0.0396     2.868     1.023     0.957  0.2105  0.3418  0.9159
              Bcc     1.1303   -81.789   -29.184   -27.282  0.9261 -0.3699 -0.0748
 
              Baa    -0.2904  -154.954   -55.291   -51.687  0.6726  0.4599  0.5798
    19 H(1)   Bbb     0.1422    75.854    27.067    25.302 -0.0716  0.8202 -0.5675
              Bcc     0.1483    79.100    28.225    26.385  0.7365 -0.3402 -0.5846
 
              Baa    -0.2865  -152.855   -54.543   -50.987 -0.5105  0.4651  0.7232
    20 H(1)   Bbb     0.1409    75.200    26.833    25.084 -0.0777  0.8127 -0.5775
              Bcc     0.1455    77.655    27.709    25.903  0.8563  0.3510  0.3788
 
              Baa    -0.2903  -154.892   -55.269   -51.666  0.5122  0.6427 -0.5697
    21 H(1)   Bbb     0.1416    75.557    26.961    25.203  0.7725 -0.0547  0.6327
              Bcc     0.1487    79.335    28.309    26.463 -0.3755  0.7641  0.5245
 
              Baa    -0.2856  -152.380   -54.373   -50.828 -0.4322  0.5372  0.7243
    22 H(1)   Bbb     0.1400    74.684    26.649    24.912  0.8564 -0.0071  0.5163
              Bcc     0.1456    77.696    27.724    25.916  0.2825  0.8434 -0.4570
 
              Baa    -0.2853  -152.247   -54.325   -50.784 -0.4259  0.4507  0.7846
    23 H(1)   Bbb     0.1401    74.732    26.666    24.928  0.8133  0.5706  0.1138
              Bcc     0.1453    77.515    27.659    25.856 -0.3964  0.6866 -0.6095
 
              Baa    -0.2906  -155.051   -55.326   -51.720 -0.6206  0.6926 -0.3676
    24 H(1)   Bbb     0.1417    75.582    26.969    25.211  0.7102  0.6952  0.1109
              Bcc     0.1489    79.470    28.357    26.508 -0.3323  0.1922  0.9234
 
              Baa    -0.2846  -151.825   -54.175   -50.644 -0.4194  0.4563  0.7848
    25 H(1)   Bbb     0.1380    73.654    26.282    24.568  0.6943  0.7181 -0.0465
              Bcc     0.1465    78.171    27.893    26.075  0.5848 -0.5254  0.6180
 
              Baa    -0.2880  -153.684   -54.838   -51.263 -0.6297  0.6845 -0.3674
    26 H(1)   Bbb     0.1386    73.942    26.384    24.665  0.7456  0.6653 -0.0385
              Bcc     0.1495    79.741    28.454    26.599 -0.2180  0.2982  0.9293
 
              Baa    -0.2857  -152.415   -54.385   -50.840  0.5032  0.6527 -0.5663
    27 H(1)   Bbb     0.1361    72.625    25.915    24.225  0.7854 -0.0722  0.6147
              Bcc     0.1495    79.790    28.471    26.615 -0.3604  0.7542  0.5490
 
              Baa    -0.2859  -152.553   -54.435   -50.886 -0.4265  0.5294  0.7334
    28 H(1)   Bbb     0.1383    73.779    26.326    24.610  0.7852 -0.1858  0.5907
              Bcc     0.1476    78.774    28.108    26.276  0.4490  0.8278 -0.3364
 
              Baa    -0.2815  -150.169   -53.584   -50.091 -0.4687  0.4852  0.7382
    29 H(1)   Bbb     0.1337    71.337    25.455    23.795  0.8625  0.4319  0.2638
              Bcc     0.1477    78.832    28.129    26.295 -0.1908  0.7603 -0.6209
 
              Baa    -0.2890  -154.172   -55.013   -51.426  0.9098 -0.3150 -0.2702
    30 H(1)   Bbb     0.1325    70.711    25.231    23.587 -0.0246 -0.6909  0.7225
              Bcc     0.1564    83.462    29.781    27.840  0.4143  0.6507  0.6364
 
              Baa    -0.2903  -154.901   -55.272   -51.669  0.0206  0.2483  0.9685
    31 H(1)   Bbb     0.1361    72.624    25.914    24.225 -0.2472  0.9399 -0.2357
              Bcc     0.1542    82.277    29.358    27.445  0.9687  0.2345 -0.0808
 
              Baa    -0.2886  -153.977   -54.943   -51.361  0.6448  0.7534  0.1287
    32 H(1)   Bbb     0.1326    70.746    25.244    23.598  0.4921 -0.5381  0.6843
              Bcc     0.1560    83.231    29.699    27.763 -0.5849  0.3779  0.7177
 
              Baa    -0.2866  -152.923   -54.567   -51.010  0.5264  0.8310  0.1797
[...]
  836 Fit      -0.067592
  837 Fit      -0.055824
  838 Fit      -0.040298
  839 Fit      -0.089779
  840 Fit      -0.072923
  841 Fit      -0.063958
  842 Fit      -0.051871
  843 Fit      -0.036131
  844 Fit      -0.078615
  845 Fit      -0.063969
  846 Fit      -0.054252
  847 Fit      -0.038493
  848 Fit      -0.024951
  849 Fit      -0.039205
  850 Fit      -0.060791
  851 Fit      -0.049735
  852 Fit       0.011469
  853 Fit       0.012386
  854 Fit       0.011649
  855 Fit       0.011905
  856 Fit       0.012178
  857 Fit       0.012220
  858 Fit       0.013106
  859 Fit       0.012333
  860 Fit       0.012477
  861 Fit       0.012497
  862 Fit       0.012369
  863 Fit       0.013440
  864 Fit       0.012415
  865 Fit       0.012447
  866 Fit       0.012489
  867 Fit       0.013081
  868 Fit       0.012366
  869 Fit       0.021914
  870 Fit       0.021385
  871 Fit       0.017916
  872 Fit       0.017728
  873 Fit       0.023199
  874 Fit       0.018992
  875 Fit       0.016063
  876 Fit       0.014223
  877 Fit       0.014322
  878 Fit       0.019537
  879 Fit       0.016172
  880 Fit       0.013544
  881 Fit       0.011812
  882 Fit       0.017103
  883 Fit       0.016230
  884 Fit       0.015078
  885 Fit       0.015290
  886 Fit       0.015618
  887 Fit       0.014552
  888 Fit       0.013826
  889 Fit       0.013014
  890 Fit       0.013035
  891 Fit       0.013297
  892 Fit       0.012631
  893 Fit       0.011623
  894 Fit       0.010746
  895 Fit       0.011353
  896 Fit       0.009981
  897 Fit       0.009682
  898 Fit       0.010252
  899 Fit       0.012555
  900 Fit       0.018619
  901 Fit       0.011257
  902 Fit       0.010986
  903 Fit       0.012357
  904 Fit       0.016545
  905 Fit       0.019169
  906 Fit       0.012951
  907 Fit       0.014241
  908 Fit       0.016170
  909 Fit       0.015773
  910 Fit       0.006410
  911 Fit       0.013080
  912 Fit       0.014216
  913 Fit       0.016040
  914 Fit       0.018082
  915 Fit       0.010577
  916 Fit       0.007808
  917 Fit       0.008592
  918 Fit       0.009797
  919 Fit       0.011356
  920 Fit       0.012321
  921 Fit       0.009717
  922 Fit       0.021345
  923 Fit       0.019037
  924 Fit       0.016837
  925 Fit       0.018958
  926 Fit       0.018133
  927 Fit       0.016769
  928 Fit       0.015152
  929 Fit       0.013690
  930 Fit       0.015189
  931 Fit       0.015008
  932 Fit       0.013914
  933 Fit       0.012802
  934 Fit       0.010184
  935 Fit       0.012134
  936 Fit       0.011502
  937 Fit       0.009454
  938 Fit       0.022987
  939 Fit       0.026413
  940 Fit       0.030136
  941 Fit       0.026389
  942 Fit       0.021630
  943 Fit       0.018906
  944 Fit       0.019997
  945 Fit       0.034040
  946 Fit       0.027225
  947 Fit       0.022814
  948 Fit       0.019799
  949 Fit       0.018265
  950 Fit       0.020405
  951 Fit       0.025470
  952 Fit       0.016561
  953 Fit       0.018143
  954 Fit       0.014890
  955 Fit       0.015624
  956 Fit       0.019820
  957 Fit       0.014177
  958 Fit       0.015538
  959 Fit       0.021298
  960 Fit       0.017280
  961 Fit       0.024230
  962 Fit       0.015333
  963 Fit       0.016520
  964 Fit       0.008551
  965 Fit       0.003130
  966 Fit       0.037382
  967 Fit       0.033513
  968 Fit       0.029317
  969 Fit       0.034989
  970 Fit       0.028231
  971 Fit       0.025322
  972 Fit       0.033728
  973 Fit       0.027507
  974 Fit       0.023742
  975 Fit       0.022135
  976 Fit       0.026073
  977 Fit       0.029352
  978 Fit       0.028749
  979 Fit       0.024205
  980 Fit       0.036798
  981 Fit       0.030462
  982 Fit       0.030577
  983 Fit       0.032075
  984 Fit       0.034668
  985 Fit       0.026882
  986 Fit       0.027154
  987 Fit       0.027795
  988 Fit       0.028406
  989 Fit       0.028357
  990 Fit       0.024500
  991 Fit       0.024263
  992 Fit       0.023697
  993 Fit      -0.002976
  994 Fit       0.009678
  995 Fit       0.018374
  996 Fit       0.013248
  997 Fit      -0.001396
  998 Fit       0.010340
  999 Fit       0.014086
 1000 Fit       0.010525
 1001 Fit      -0.004529
 1002 Fit       0.004380
 1003 Fit       0.028862
 1004 Fit       0.028057
 1005 Fit       0.028213
 1006 Fit       0.028915
 1007 Fit       0.018305
 1008 Fit       0.020688
 1009 Fit       0.022709
 1010 Fit       0.024161
 1011 Fit       0.025815
 1012 Fit       0.012563
 1013 Fit       0.016761
 1014 Fit       0.019828
 1015 Fit       0.022256
 1016 Fit       0.016960
 1017 Fit       0.032373
 1018 Fit       0.031417
 1019 Fit       0.034049
 1020 Fit       0.028976
 1021 Fit       0.028614
 1022 Fit       0.030167
 1023 Fit       0.031922
 1024 Fit       0.034679
 1025 Fit       0.026523
 1026 Fit       0.027260
 1027 Fit       0.029829
 1028 Fit       0.032141
 1029 Fit       0.034055
 1030 Fit       0.025874
 1031 Fit       0.029368
 1032 Fit       0.038060
 1033 Fit       0.035850
 1034 Fit       0.042136
 1035 Fit       0.040156
 1036 Fit       0.034644
 1037 Fit       0.041934
 1038 Fit       0.035948
 1039 Fit       0.037575
 1040 Fit       0.034784
 1041 Fit       0.036035
 1042 Fit       0.039945
 1043 Fit       0.034719
 1044 Fit       0.034281
 1045 Fit       0.035329
 1046 Fit       0.037758
 1047 Fit       0.043321
 1048 Fit       0.035991
 1049 Fit       0.035911
 1050 Fit       0.036349
 1051 Fit       0.038298
 1052 Fit       0.023009
 1053 Fit       0.005715
 1054 Fit       0.026402
 1055 Fit       0.020049
 1056 Fit       0.004351
 1057 Fit       0.004572
 1058 Fit       0.023092
 1059 Fit       0.004635
 1060 Fit      -0.017777
 1061 Fit       0.018046
 1062 Fit       0.000835
 1063 Fit       0.020873
 1064 Fit       0.007433
 1065 Fit      -0.012913
 1066 Fit       0.017450
 1067 Fit       0.001681
 1068 Fit      -0.022168
 1069 Fit       0.033501
 1070 Fit       0.013513
 1071 Fit      -0.005640
 1072 Fit       0.017365
 1073 Fit       0.037607
 1074 Fit       0.041694
 1075 Fit       0.035998
 1076 Fit       0.033396
 1077 Fit       0.038093
 1078 Fit       0.031521
 1079 Fit       0.033651
 1080 Fit       0.040383
 1081 Fit       0.031131
 1082 Fit       0.027794
 1083 Fit       0.028422
 1084 Fit       0.027183
 1085 Fit       0.047046
 1086 Fit       0.035180
 1087 Fit       0.038716
 1088 Fit       0.021418
 1089 Fit       0.031470
 1090 Fit       0.023797
 1091 Fit       0.003241
 1092 Fit       0.019950
 1093 Fit       0.017484
 1094 Fit      -0.016485
 1095 Fit      -0.024582
 1096 Fit       0.032038
 1097 Fit      -0.000399
 1098 Fit       0.013396
 1099 Fit       0.023753
 1100 Fit       0.014206
 1101 Fit       0.007837
 1102 Fit       0.014438
 1103 Fit       0.002409
 1104 Fit      -0.033317
 1105 Fit      -0.011287
 1106 Fit      -0.037170
 1107 Fit      -0.015709
 1108 Fit      -0.010571
 1109 Fit      -0.036902
 1110 Fit      -0.010409
 1111 Fit      -0.024944
 1112 Fit      -0.045950
 1113 Fit       0.012727
 1114 Fit       0.011115
 1115 Fit       0.013078
 1116 Fit       0.011484
 1117 Fit       0.011077
 1118 Fit       0.009380
 1119 Fit       0.010258
 1120 Fit       0.007187
 1121 Fit       0.010689
 1122 Fit       0.011324
 1123 Fit       0.008781
 1124 Fit       0.009206
 1125 Fit       0.024418
 1126 Fit       0.018686
 1127 Fit       0.016138
 1128 Fit       0.015286
 1129 Fit       0.022882
 1130 Fit       0.023414
 1131 Fit       0.028862
 1132 Fit       0.025438
 1133 Fit       0.009026
 1134 Fit       0.022748
 1135 Fit       0.002457
 1136 Fit       0.019735
 1137 Fit       0.020596
 1138 Fit       0.021124
 1139 Fit       0.018684
 1140 Fit       0.009418
 1141 Fit       0.014521
 1142 Fit       0.017099
 1143 Fit       0.018039
 1144 Fit       0.033343
 1145 Fit       0.032432
 1146 Fit       0.031297
 1147 Fit       0.032289
 1148 Fit       0.034479
 1149 Fit       0.036591
 1150 Fit       0.030897
 1151 Fit       0.031343
 1152 Fit       0.040375
 1153 Fit       0.028449
 1154 Fit       0.025368
 1155 Fit       0.032480
 1156 Fit       0.022339
 1157 Fit       0.011814
 1158 Fit      -0.008379
 1159 Fit       0.032978
 1160 Fit       0.020781
 1161 Fit       0.021749
 1162 Fit       0.014007
 1163 Fit      -0.014361
 1164 Fit      -0.034248
 1165 Fit      -0.047553
 1166 Fit      -0.035785
 1167 Fit      -0.035375
 1168 Fit      -0.046669
 1169 Fit      -0.057435
 1170 Fit      -0.053991
 1171 Fit      -0.037230
 1172 Fit      -0.048024
 1173 Fit      -0.053957
 1174 Fit      -0.057024
 1175 Fit      -0.065006
 1176 Fit      -0.065821
 1177 Fit      -0.038462
 1178 Fit      -0.049382
 1179 Fit      -0.055792
 1180 Fit      -0.060045
 1181 Fit      -0.063097
 1182 Fit      -0.070452
 1183 Fit      -0.075040
 1184 Fit      -0.033595
 1185 Fit      -0.046626
 1186 Fit      -0.054358
 1187 Fit      -0.059530
 1188 Fit      -0.063586
 1189 Fit      -0.067108
 1190 Fit      -0.073299
 1191 Fit      -0.038901
 1192 Fit      -0.050723
 1193 Fit      -0.058032
 1194 Fit      -0.063413
 1195 Fit      -0.068138
 1196 Fit      -0.072496
 1197 Fit      -0.039916
 1198 Fit      -0.051930
 1199 Fit      -0.059781
 1200 Fit      -0.065927
 1201 Fit      -0.066277
 1202 Fit      -0.043183
 1203 Fit      -0.056749
 1204 Fit      -0.022780
 1205 Fit      -0.015821
 1206 Fit      -0.007324
 1207 Fit      -0.021445
 1208 Fit      -0.017773
 1209 Fit      -0.010750
 1210 Fit      -0.001967
 1211 Fit      -0.003368
 1212 Fit      -0.001984
 1213 Fit       0.001781
 1214 Fit      -0.017238
 1215 Fit      -0.018447
 1216 Fit      -0.015146
 1217 Fit      -0.010643
 1218 Fit      -0.010048
 1219 Fit      -0.009491
 1220 Fit      -0.013375
 1221 Fit      -0.014783
 1222 Fit      -0.021202
 1223 Fit      -0.058161
 1224 Fit      -0.044959
 1225 Fit      -0.029257
 1226 Fit      -0.005113
 1227 Fit      -0.066382
 1228 Fit      -0.054954
 1229 Fit      -0.043059
 1230 Fit      -0.026989
 1231 Fit      -0.001554
 1232 Fit      -0.068598
 1233 Fit      -0.059532
 1234 Fit      -0.050135
 1235 Fit      -0.038594
 1236 Fit      -0.022713
 1237 Fit      -0.080973
 1238 Fit      -0.066736
 1239 Fit      -0.058783
 1240 Fit      -0.049656
 1241 Fit      -0.038400
 1242 Fit      -0.024173
 1243 Fit      -0.075177
 1244 Fit      -0.061806
 1245 Fit      -0.055160
 1246 Fit      -0.046416
 1247 Fit      -0.036044
 1248 Fit      -0.065885
 1249 Fit      -0.053977
 1250 Fit      -0.046097
 1251 Fit      -0.033946
 1252 Fit      -0.023775
 1253 Fit      -0.034731
 1254 Fit      -0.051523
 1255 Fit      -0.042343
 1256 Fit       0.011020
 1257 Fit       0.011126
 1258 Fit       0.011410
 1259 Fit       0.011598
 1260 Fit       0.011246
 1261 Fit       0.011253
 1262 Fit       0.011245
 1263 Fit       0.011214
 1264 Fit       0.012427
 1265 Fit       0.011542
 1266 Fit       0.011389
 1267 Fit       0.011309
 1268 Fit       0.011335
 1269 Fit       0.012471
 1270 Fit       0.011366
 1271 Fit       0.011339
 1272 Fit       0.012062
 1273 Fit       0.011453
 1274 Fit       0.020745
 1275 Fit       0.017533
 1276 Fit       0.017542
 1277 Fit       0.022938
 1278 Fit       0.018661
 1279 Fit       0.015890
 1280 Fit       0.014367
 1281 Fit       0.014622
 1282 Fit       0.021186
 1283 Fit       0.017440
 1284 Fit       0.014779
 1285 Fit       0.012937
 1286 Fit       0.012066
 1287 Fit       0.016115
 1288 Fit       0.013409
 1289 Fit       0.016391
 1290 Fit       0.015480
 1291 Fit       0.014189
 1292 Fit       0.014613
 1293 Fit       0.015317
 1294 Fit       0.013828
 1295 Fit       0.012950
 1296 Fit       0.012315
 1297 Fit       0.012644
 1298 Fit       0.013230
 1299 Fit       0.012513
 1300 Fit       0.011735
 1301 Fit       0.010928
 1302 Fit       0.010558
 1303 Fit       0.011827
 1304 Fit       0.010815
 1305 Fit       0.009841
 1306 Fit       0.009729
 1307 Fit       0.012104
 1308 Fit       0.009247
 1309 Fit       0.009624
 1310 Fit       0.011559
 1311 Fit       0.017488
 1312 Fit       0.010879
 1313 Fit       0.010288
 1314 Fit       0.011172
 1315 Fit       0.014695
 1316 Fit       0.017126
 1317 Fit       0.012082
 1318 Fit       0.012914
 1319 Fit       0.019725
 1320 Fit       0.011763
 1321 Fit       0.004795
 1322 Fit       0.011541
 1323 Fit       0.012235
 1324 Fit       0.013307
 1325 Fit       0.014305
 1326 Fit       0.008840
 1327 Fit       0.007024
 1328 Fit       0.008121
 1329 Fit       0.009121
 1330 Fit       0.010056
 1331 Fit       0.010442
 1332 Fit       0.008647
 1333 Fit       0.019359
 1334 Fit       0.019212
 1335 Fit       0.017303
 1336 Fit       0.015609
 1337 Fit       0.016660
 1338 Fit       0.016337
 1339 Fit       0.015355
 1340 Fit       0.014184
 1341 Fit       0.013085
 1342 Fit       0.011636
 1343 Fit       0.013214
 1344 Fit       0.013155
 1345 Fit       0.012377
 1346 Fit       0.011647
 1347 Fit       0.009221
 1348 Fit       0.010796
 1349 Fit       0.010467
 1350 Fit       0.021821
 1351 Fit       0.024876
 1352 Fit       0.027910
 1353 Fit       0.024643
 1354 Fit       0.020459
 1355 Fit       0.018245
 1356 Fit       0.019470
 1357 Fit       0.031545
 1358 Fit       0.025532
 1359 Fit       0.021437
 1360 Fit       0.018722
 1361 Fit       0.017205
 1362 Fit       0.027400
 1363 Fit       0.023127
 1364 Fit       0.015935
 1365 Fit       0.016926
 1366 Fit       0.013814
 1367 Fit       0.014121
 1368 Fit       0.017711
 1369 Fit       0.012952
 1370 Fit       0.012370
 1371 Fit       0.013097
 1372 Fit       0.018282
 1373 Fit       0.012652
 1374 Fit       0.014144
 1375 Fit       0.016995
 1376 Fit       0.014175
 1377 Fit       0.006892
 1378 Fit       0.002573
 1379 Fit       0.032807
 1380 Fit       0.028837
 1381 Fit       0.035417
 1382 Fit       0.028108
 1383 Fit       0.025080
 1384 Fit       0.031011
 1385 Fit       0.025374
 1386 Fit       0.022678
 1387 Fit       0.026603
 1388 Fit       0.022572
 1389 Fit       0.023615
 1390 Fit       0.024903
 1391 Fit       0.024415
 1392 Fit       0.029982
 1393 Fit       0.029804
 1394 Fit       0.031513
 1395 Fit       0.035155
 1396 Fit       0.026110
 1397 Fit       0.026059
 1398 Fit       0.026793
 1399 Fit       0.028014
 1400 Fit       0.029646
 1401 Fit       0.023949
 1402 Fit       0.023617
 1403 Fit       0.023875
 1404 Fit       0.024284
 1405 Fit       0.024511
 1406 Fit       0.021800
 1407 Fit       0.021425
 1408 Fit       0.020844
 1409 Fit      -0.004489
 1410 Fit       0.006760
 1411 Fit       0.013075
 1412 Fit       0.016820
 1413 Fit       0.015196
 1414 Fit       0.010488
 1415 Fit      -0.002006
 1416 Fit       0.007789
 1417 Fit       0.011169
 1418 Fit       0.008162
 1419 Fit      -0.003562
 1420 Fit       0.002892
 1421 Fit       0.027905
 1422 Fit       0.028578
 1423 Fit       0.019433
 1424 Fit       0.020606
 1425 Fit       0.021968
 1426 Fit       0.023157
 1427 Fit       0.024544
 1428 Fit       0.012628
 1429 Fit       0.015693
 1430 Fit       0.018199
 1431 Fit       0.020088
 1432 Fit       0.021907
 1433 Fit       0.009113
 1434 Fit       0.013499
 1435 Fit       0.016724
 1436 Fit       0.019384
 1437 Fit       0.030011
 1438 Fit       0.028970
 1439 Fit       0.026838
 1440 Fit       0.026086
 1441 Fit       0.027339
 1442 Fit       0.029165
 1443 Fit       0.024075
 1444 Fit       0.024189
 1445 Fit       0.026020
 1446 Fit       0.027998
 1447 Fit       0.029891
 1448 Fit       0.022396
 1449 Fit       0.023755
 1450 Fit       0.026947
 1451 Fit       0.030004
 1452 Fit       0.034561
 1453 Fit       0.032321
 1454 Fit       0.037732
 1455 Fit       0.035518
 1456 Fit       0.030596
 1457 Fit       0.041484
 1458 Fit       0.035169
 1459 Fit       0.029839
 1460 Fit       0.032233
 1461 Fit       0.033280
 1462 Fit       0.036703
 1463 Fit       0.032038
 1464 Fit       0.031481
 1465 Fit       0.032377
 1466 Fit       0.034650
 1467 Fit       0.039236
 1468 Fit       0.032638
 1469 Fit       0.032124
 1470 Fit       0.032543
 1471 Fit       0.033882
 1472 Fit       0.037262
 1473 Fit       0.034587
 1474 Fit       0.034687
 1475 Fit       0.020200
 1476 Fit       0.005809
 1477 Fit       0.023107
 1478 Fit       0.017769
 1479 Fit       0.004617
 1480 Fit       0.004955
 1481 Fit       0.020759
 1482 Fit       0.004701
 1483 Fit      -0.012691
 1484 Fit       0.000400
 1485 Fit       0.014459
 1486 Fit       0.000599
 1487 Fit      -0.021339
 1488 Fit       0.014058
 1489 Fit       0.000794
 1490 Fit      -0.019344
 1491 Fit       0.014574
 1492 Fit       0.000182
 1493 Fit      -0.019788
 1494 Fit       0.010661
 1495 Fit      -0.005928
 1496 Fit       0.034946
 1497 Fit       0.038239
 1498 Fit       0.033441
 1499 Fit       0.035199
 1500 Fit       0.028990
 1501 Fit       0.029823
 1502 Fit       0.029125
 1503 Fit       0.025535
 1504 Fit       0.025379
 1505 Fit       0.023037
 1506 Fit       0.031937
 1507 Fit       0.034459
 1508 Fit       0.020068
 1509 Fit       0.029095
 1510 Fit       0.020896
 1511 Fit       0.004137
 1512 Fit       0.017019
 1513 Fit       0.008525
 1514 Fit      -0.020959
 1515 Fit      -0.025114
 1516 Fit       0.022826
 1517 Fit      -0.004183
 1518 Fit       0.008716
 1519 Fit       0.016528
 1520 Fit       0.008015
 1521 Fit       0.003496
 -----------------------------------------------------------------
 Leave Link  602 at Sun Feb 18 17:09:22 2018, MaxMem=   33554432 cpu:       1.3

 Test job not archived.
 1\1\GINC-NODE053\SP\RHF\6-31G(d)\C13H24N2O3\WULSDORT\18-Feb-2018\0\\#H
 F/6-31G* Geom=AllCheck Guess=Read Pop=(MK,ReadRadii) Integral=(Grid=Ul
 traFine) iop(6/33=2)\\Optimization for frag2-conf0\\0,1\C,0,3.70940401
 32,-5.5010282889,-0.6830176453\C,0,6.2118347373,-1.7320009639,0.613347
 6598\C,0,-0.9590472331,-2.7060179362,-2.6673116051\C,0,0.0530151513,-1
 .5600163858,-2.8033388639\C,0,-0.4997838533,-3.7209136432,-1.612075035
 4\C,0,1.4662687004,-2.0862778688,-3.0922561886\C,0,0.9150173511,-4.249
 1041514,-1.9026109706\C,0,1.944409005,-3.106748526,-2.0359965212\C,0,3
 .2563927462,-7.8816061343,-0.8178783593\C,0,4.5051437499,-6.8279161173
 ,-2.6579798762\C,0,5.018669497,-1.9026334021,-0.3874291304\C,0,3.36597
 73299,-3.5860800485,-2.4096908864\C,0,4.258242014,-4.2013596023,-1.307
 6057247\N,0,3.8450515701,-6.6597667143,-1.3656050034\N,0,4.45523885,-3
 .2708743944,-0.1457815005\O,0,6.7382071154,-0.6085989672,0.6518321913\
 O,0,3.1497445779,-5.4197277632,0.4204872943\O,0,6.5012658836,-2.789756
 7822,1.2501349182\H,0,-1.949986245,-2.3104997909,-2.4102269849\H,0,-1.
 0645340888,-3.2139969503,-3.6373976197\H,0,-0.2552814639,-0.8680974512
 ,-3.5973645291\H,0,0.0686599047,-0.9783380467,-1.8698145591\H,0,-0.509
 2937661,-3.2425294453,-0.6214549239\H,0,-1.2029660976,-4.5616936779,-1
 .5581074615\H,0,1.4798578299,-2.5693620256,-4.0812326268\H,0,2.1752323
 148,-1.2494921608,-3.1436905256\H,0,1.2110350579,-4.9424701705,-1.1099
 174581\H,0,0.9026327035,-4.8209523341,-2.842936221\H,0,1.9824733878,-2
 .5731924764,-1.0727642483\H,0,2.5281495527,-8.2926630771,-1.5260080084
 \H,0,2.7625924859,-7.6476171771,0.1226969064\H,0,4.0401130585,-8.62809
 31933,-0.6478306297\H,0,5.2046869236,-7.667771432,-2.5949488123\H,0,5.
 0667466936,-5.9425218221,-2.9479036333\H,0,3.7678401418,-7.0485297186,
 -3.4387558793\H,0,5.3886957043,-1.8341793792,-1.4115545531\H,0,4.24929
 24065,-1.1455787062,-0.23752828\H,0,3.2968219379,-4.319280302,-3.22186
 33401\H,0,3.9229857114,-2.7396617566,-2.8283634863\H,0,5.2582863339,-4
 .3592930395,-1.7168074735\H,0,5.1984191791,-3.6362201051,0.5222406036\
 H,0,3.5862598509,-3.2575786435,0.3973285404\\Version=AM64L-G09RevC.01\
 State=1-A\HF=-839.7277434\RMSD=7.070e-09\Dipole=-3.1943106,-3.0181249,
 -3.6617838\Quadrupole=-12.4454277,10.7709856,1.6744421,-22.7079049,-20
 .8445176,-5.7064277\PG=C01 [X(C13H24N2O3)]\\@


 HERE WE GO......
 SLIDING DOWN THE RAZOR BLADE OF LIFE......
                                 TOM LEHRER
 Job cpu time:  0 days  0 hours  7 minutes 14.1 seconds.
 File lengths (MBytes):  RWF=     57 Int=      0 D2E=      0 Chk=     19 Scr=      1
 Normal termination of Gaussian 09 at Sun Feb 18 17:09:22 2018.
