 Entering Gaussian System, Link 0=g09
 Initial command:
 /home/fb_chem/chemsoft/lx24-amd64/Gaussian_09_C.01_NBO_3.1_64_istanbul-64/g09/l1.exe /local/2399799.1.parallel/Gau-25315.inp -scrdir=/local/2399799.1.parallel/
 Entering Link 1 = /home/fb_chem/chemsoft/lx24-amd64/Gaussian_09_C.01_NBO_3.1_64_istanbul-64/g09/l1.exe PID=     25316.
  
 Copyright (c) 1988,1990,1992,1993,1995,1998,2003,2009,2011,
            Gaussian, Inc.  All Rights Reserved.
  
 This is part of the Gaussian(R) 09 program.  It is based on
 the Gaussian(R) 03 system (copyright 2003, Gaussian, Inc.),
 the Gaussian(R) 98 system (copyright 1998, Gaussian, Inc.),
 the Gaussian(R) 94 system (copyright 1995, Gaussian, Inc.),
 the Gaussian 92(TM) system (copyright 1992, Gaussian, Inc.),
 the Gaussian 90(TM) system (copyright 1990, Gaussian, Inc.),
 the Gaussian 88(TM) system (copyright 1988, Gaussian, Inc.),
 the Gaussian 86(TM) system (copyright 1986, Carnegie Mellon
 University), and the Gaussian 82(TM) system (copyright 1983,
 Carnegie Mellon University). Gaussian is a federally registered
 trademark of Gaussian, Inc.
  
 This software contains proprietary and confidential information,
 including trade secrets, belonging to Gaussian, Inc.
  
 This software is provided under written license and may be
 used, copied, transmitted, or stored only in accord with that
 written license.
  
 The following legend is applicable only to US Government
 contracts under FAR:
  
                    RESTRICTED RIGHTS LEGEND
  
 Use, reproduction and disclosure by the US Government is
 subject to restrictions as set forth in subparagraphs (a)
 and (c) of the Commercial Computer Software - Restricted
 Rights clause in FAR 52.227-19.
  
 Gaussian, Inc.
 340 Quinnipiac St., Bldg. 40, Wallingford CT 06492
  
  
 ---------------------------------------------------------------
 Warning -- This program may not be used in any manner that
 competes with the business of Gaussian, Inc. or will provide
 assistance to any competitor of Gaussian, Inc.  The licensee
 of this program is prohibited from giving any competitor of
 Gaussian, Inc. access to this program.  By using this program,
 the user acknowledges that Gaussian, Inc. is engaged in the
 business of creating and licensing software in the field of
 computational chemistry and represents and warrants to the
 licensee that it is not a competitor of Gaussian, Inc. and that
 it will not use this program in any manner prohibited above.
 ---------------------------------------------------------------
  

 Cite this work as:
 Gaussian 09, Revision C.01,
 M. J. Frisch, G. W. Trucks, H. B. Schlegel, G. E. Scuseria, 
 M. A. Robb, J. R. Cheeseman, G. Scalmani, V. Barone, B. Mennucci, 
 G. A. Petersson, H. Nakatsuji, M. Caricato, X. Li, H. P. Hratchian, 
 A. F. Izmaylov, J. Bloino, G. Zheng, J. L. Sonnenberg, M. Hada, 
 M. Ehara, K. Toyota, R. Fukuda, J. Hasegawa, M. Ishida, T. Nakajima, 
 Y. Honda, O. Kitao, H. Nakai, T. Vreven, J. A. Montgomery, Jr., 
 J. E. Peralta, F. Ogliaro, M. Bearpark, J. J. Heyd, E. Brothers, 
 K. N. Kudin, V. N. Staroverov, T. Keith, R. Kobayashi, J. Normand, 
 K. Raghavachari, A. Rendell, J. C. Burant, S. S. Iyengar, J. Tomasi, 
 M. Cossi, N. Rega, J. M. Millam, M. Klene, J. E. Knox, J. B. Cross, 
 V. Bakken, C. Adamo, J. Jaramillo, R. Gomperts, R. E. Stratmann, 
 O. Yazyev, A. J. Austin, R. Cammi, C. Pomelli, J. W. Ochterski, 
 R. L. Martin, K. Morokuma, V. G. Zakrzewski, G. A. Voth, 
 P. Salvador, J. J. Dannenberg, S. Dapprich, A. D. Daniels, 
 O. Farkas, J. B. Foresman, J. V. Ortiz, J. Cioslowski, 
 and D. J. Fox, Gaussian, Inc., Wallingford CT, 2010.
 
 ******************************************
 Gaussian 09:  AM64L-G09RevC.01 23-Sep-2011
                17-Feb-2018 
 ******************************************
 %nprocs=12
 Will use up to   12 processors via shared memory.
 %chk=frag2-conf0.chk
 --------------------------------------------------------------
 #B3LYP/6-31G* Integral=(Grid=UltraFine) freq Opt pop=none SCRF
 --------------------------------------------------------------
 1/14=-1,18=20,19=15,26=3,38=1/1,3;
 2/9=110,12=2,17=6,18=5,40=1/2;
 3/5=1,6=6,7=1,11=2,16=1,25=1,30=1,70=2201,71=1,72=1,74=-5,75=-5/1,2,3;
 4//1;
 5/5=2,38=5/2;
 7//1,2,3,16;
 1/14=-1,18=20,19=15/3(2);
 2/9=110/2;
 99//99;
 2/9=110/2;
 3/5=1,6=6,7=1,11=2,16=1,25=1,30=1,70=2205,71=1,74=-5,75=-5/1,2,3;
 4/5=5,16=3/1;
 5/5=2,38=5/2;
 7//1,2,3,16;
 1/14=-1,18=20,19=15/3(-5);
 2/9=110/2;
 99/9=1/99;
 ----------------------------
 Optimization for frag2-conf0
 ----------------------------
 Charge =  0 Multiplicity = 1
 Symbolic Z-Matrix:
 C                     3.77152  -5.68154  -0.81414 
 C                     5.5338   -1.33256   0.97687 
 C                    -0.87684  -2.68237  -2.41458 
 C                     0.10857  -1.69667  -3.02909 
 C                    -0.3045   -3.32091  -1.15574 
 C                     1.45624  -2.35627  -3.30527 
 C                     1.0517   -3.9771   -1.41211 
 C                     2.05977  -3.0052   -2.04256 
 C                     3.27721  -8.05422  -1.24255 
 C                     4.5048   -6.79301  -2.96735 
 C                     5.15707  -2.07044  -0.33154 
 C                     3.40213  -3.67786  -2.41927 
 C                     4.26465  -4.28952  -1.29902 
 N                     3.84536  -6.77995  -1.66508 
 N                     4.38142  -3.34776  -0.13796 
 O                     5.98924  -0.15725   0.87183 
 O                     3.34113  -5.80323   0.34408 
 O                     5.34212  -1.99444   2.04595 
 H                    -1.81401  -2.16764  -2.17488 
 H                    -1.11826  -3.46419  -3.14509 
 H                    -0.30381  -1.29664  -3.96224 
 H                     0.24941  -0.84609  -2.35095 
 H                    -0.19528  -2.55611  -0.37672 
 H                    -1.00677  -4.06881  -0.7703 
 H                     1.33018  -3.11474  -4.08877 
 H                     2.14688  -1.60247  -3.70235 
 H                     1.42661  -4.3447   -0.45366 
 H                     0.91532  -4.84866  -2.06446 
 H                     2.25156  -2.19699  -1.32613 
 H                     2.60334  -8.41652  -2.02468 
 H                     2.71532  -7.96774  -0.30931 
 H                     4.09191  -8.77055  -1.10144 
 H                     5.2204   -7.62065  -2.98999 
 H                     5.04436  -5.87082  -3.17935 
 H                     3.74522  -6.95073  -3.73854 
 H                     6.08124  -2.33513  -0.85523 
 H                     4.54872  -1.41808  -0.9642 
 H                     3.19394  -4.43935  -3.17964 
 H                     4.02024  -2.9238   -2.9262 
 H                     5.29283  -4.42688  -1.65182 
 H                     4.83883  -3.84395   0.64096 
 H                     3.46019  -3.14849   0.26554 
 

 GradGradGradGradGradGradGradGradGradGradGradGradGradGradGradGradGradGrad
 Berny optimization.
 Initialization pass.
                           ----------------------------
                           !    Initial Parameters    !
                           ! (Angstroms and Degrees)  !
 --------------------------                            --------------------------
 ! Name  Definition              Value          Derivative Info.                !
 --------------------------------------------------------------------------------
 ! R1    R(1,13)                 1.5544         estimate D2E/DX2                !
 ! R2    R(1,14)                 1.3914         estimate D2E/DX2                !
 ! R3    R(1,17)                 1.2416         estimate D2E/DX2                !
 ! R4    R(2,11)                 1.5487         estimate D2E/DX2                !
 ! R5    R(2,16)                 1.2648         estimate D2E/DX2                !
 ! R6    R(2,18)                 1.2719         estimate D2E/DX2                !
 ! R7    R(3,4)                  1.5232         estimate D2E/DX2                !
 ! R8    R(3,5)                  1.5231         estimate D2E/DX2                !
 ! R9    R(3,19)                 1.0958         estimate D2E/DX2                !
 ! R10   R(3,20)                 1.0969         estimate D2E/DX2                !
 ! R11   R(4,6)                  1.5256         estimate D2E/DX2                !
 ! R12   R(4,21)                 1.0958         estimate D2E/DX2                !
 ! R13   R(4,22)                 1.0969         estimate D2E/DX2                !
 ! R14   R(5,7)                  1.5283         estimate D2E/DX2                !
 ! R15   R(5,23)                 1.0971         estimate D2E/DX2                !
 ! R16   R(5,24)                 1.0959         estimate D2E/DX2                !
 ! R17   R(6,8)                  1.5427         estimate D2E/DX2                !
 ! R18   R(6,25)                 1.0977         estimate D2E/DX2                !
 ! R19   R(6,26)                 1.0968         estimate D2E/DX2                !
 ! R20   R(7,8)                  1.5357         estimate D2E/DX2                !
 ! R21   R(7,27)                 1.0928         estimate D2E/DX2                !
 ! R22   R(7,28)                 1.0972         estimate D2E/DX2                !
 ! R23   R(8,12)                 1.548          estimate D2E/DX2                !
 ! R24   R(8,29)                 1.0969         estimate D2E/DX2                !
 ! R25   R(9,14)                 1.4578         estimate D2E/DX2                !
 ! R26   R(9,30)                 1.0941         estimate D2E/DX2                !
 ! R27   R(9,31)                 1.0928         estimate D2E/DX2                !
 ! R28   R(9,32)                 1.094          estimate D2E/DX2                !
 ! R29   R(10,14)                1.4598         estimate D2E/DX2                !
 ! R30   R(10,33)                1.0943         estimate D2E/DX2                !
 ! R31   R(10,34)                1.0893         estimate D2E/DX2                !
 ! R32   R(10,35)                1.0939         estimate D2E/DX2                !
 ! R33   R(11,15)                1.5069         estimate D2E/DX2                !
 ! R34   R(11,36)                1.0947         estimate D2E/DX2                !
 ! R35   R(11,37)                1.0936         estimate D2E/DX2                !
 ! R36   R(12,13)                1.5405         estimate D2E/DX2                !
 ! R37   R(12,38)                1.0961         estimate D2E/DX2                !
 ! R38   R(12,39)                1.0989         estimate D2E/DX2                !
 ! R39   R(13,15)                1.4995         estimate D2E/DX2                !
 ! R40   R(13,40)                1.0957         estimate D2E/DX2                !
 ! R41   R(15,41)                1.0306         estimate D2E/DX2                !
 ! R42   R(15,42)                1.0253         estimate D2E/DX2                !
 ! A1    A(13,1,14)            119.9577         estimate D2E/DX2                !
 ! A2    A(13,1,17)            119.2588         estimate D2E/DX2                !
 ! A3    A(14,1,17)            120.7655         estimate D2E/DX2                !
 ! A4    A(11,2,16)            117.3978         estimate D2E/DX2                !
 ! A5    A(11,2,18)            115.185          estimate D2E/DX2                !
 ! A6    A(16,2,18)            127.4171         estimate D2E/DX2                !
 ! A7    A(4,3,5)              111.1996         estimate D2E/DX2                !
 ! A8    A(4,3,19)             109.7287         estimate D2E/DX2                !
 ! A9    A(4,3,20)             109.5685         estimate D2E/DX2                !
 ! A10   A(5,3,19)             109.7259         estimate D2E/DX2                !
 ! A11   A(5,3,20)             109.5304         estimate D2E/DX2                !
 ! A12   A(19,3,20)            106.9933         estimate D2E/DX2                !
 ! A13   A(3,4,6)              111.3902         estimate D2E/DX2                !
 ! A14   A(3,4,21)             109.6523         estimate D2E/DX2                !
 ! A15   A(3,4,22)             109.5995         estimate D2E/DX2                !
 ! A16   A(6,4,21)             109.6394         estimate D2E/DX2                !
 ! A17   A(6,4,22)             109.4963         estimate D2E/DX2                !
 ! A18   A(21,4,22)            106.9594         estimate D2E/DX2                !
 ! A19   A(3,5,7)              112.0128         estimate D2E/DX2                !
 ! A20   A(3,5,23)             109.39           estimate D2E/DX2                !
 ! A21   A(3,5,24)             109.6318         estimate D2E/DX2                !
 ! A22   A(7,5,23)             109.2734         estimate D2E/DX2                !
 ! A23   A(7,5,24)             109.55           estimate D2E/DX2                !
 ! A24   A(23,5,24)            106.845          estimate D2E/DX2                !
 ! A25   A(4,6,8)              112.2895         estimate D2E/DX2                !
 ! A26   A(4,6,25)             109.0554         estimate D2E/DX2                !
 ! A27   A(4,6,26)             108.9446         estimate D2E/DX2                !
 ! A28   A(8,6,25)             109.7846         estimate D2E/DX2                !
 ! A29   A(8,6,26)             109.8222         estimate D2E/DX2                !
 ! A30   A(25,6,26)            106.7857         estimate D2E/DX2                !
 ! A31   A(5,7,8)              112.3127         estimate D2E/DX2                !
 ! A32   A(5,7,27)             107.5618         estimate D2E/DX2                !
 ! A33   A(5,7,28)             109.3004         estimate D2E/DX2                !
 ! A34   A(8,7,27)             110.3485         estimate D2E/DX2                !
 ! A35   A(8,7,28)             109.8918         estimate D2E/DX2                !
 ! A36   A(27,7,28)            107.2716         estimate D2E/DX2                !
 ! A37   A(6,8,7)              110.2091         estimate D2E/DX2                !
 ! A38   A(6,8,12)             108.8359         estimate D2E/DX2                !
 ! A39   A(6,8,29)             107.0413         estimate D2E/DX2                !
 ! A40   A(7,8,12)             113.2118         estimate D2E/DX2                !
 ! A41   A(7,8,29)             108.2371         estimate D2E/DX2                !
 ! A42   A(12,8,29)            109.116          estimate D2E/DX2                !
 ! A43   A(14,9,30)            108.8017         estimate D2E/DX2                !
 ! A44   A(14,9,31)            112.2566         estimate D2E/DX2                !
 ! A45   A(14,9,32)            108.6333         estimate D2E/DX2                !
 ! A46   A(30,9,31)            108.664          estimate D2E/DX2                !
 ! A47   A(30,9,32)            109.5148         estimate D2E/DX2                !
 ! A48   A(31,9,32)            108.941          estimate D2E/DX2                !
 ! A49   A(14,10,33)           108.7005         estimate D2E/DX2                !
 ! A50   A(14,10,34)           112.9438         estimate D2E/DX2                !
 ! A51   A(14,10,35)           108.4544         estimate D2E/DX2                !
 ! A52   A(33,10,34)           108.2004         estimate D2E/DX2                !
 ! A53   A(33,10,35)           109.2948         estimate D2E/DX2                !
 ! A54   A(34,10,35)           109.1971         estimate D2E/DX2                !
 ! A55   A(2,11,15)            114.87           estimate D2E/DX2                !
 ! A56   A(2,11,36)            108.3015         estimate D2E/DX2                !
 ! A57   A(2,11,37)            109.8695         estimate D2E/DX2                !
 ! A58   A(15,11,36)           106.9204         estimate D2E/DX2                !
 ! A59   A(15,11,37)           107.0754         estimate D2E/DX2                !
 ! A60   A(36,11,37)           109.7007         estimate D2E/DX2                !
 ! A61   A(8,12,13)            118.7574         estimate D2E/DX2                !
 ! A62   A(8,12,38)            107.8181         estimate D2E/DX2                !
 ! A63   A(8,12,39)            107.5679         estimate D2E/DX2                !
 ! A64   A(13,12,38)           109.5718         estimate D2E/DX2                !
 ! A65   A(13,12,39)           107.0368         estimate D2E/DX2                !
 ! A66   A(38,12,39)           105.2796         estimate D2E/DX2                !
 ! A67   A(1,13,12)            113.8791         estimate D2E/DX2                !
 ! A68   A(1,13,15)            110.219          estimate D2E/DX2                !
 ! A69   A(1,13,40)            106.6121         estimate D2E/DX2                !
 ! A70   A(12,13,15)           110.9346         estimate D2E/DX2                !
 ! A71   A(12,13,40)           109.9407         estimate D2E/DX2                !
 ! A72   A(15,13,40)           104.772          estimate D2E/DX2                !
 ! A73   A(1,14,9)             119.4791         estimate D2E/DX2                !
 ! A74   A(1,14,10)            125.2125         estimate D2E/DX2                !
 ! A75   A(9,14,10)            115.2656         estimate D2E/DX2                !
 ! A76   A(11,15,13)           118.2276         estimate D2E/DX2                !
 ! A77   A(11,15,41)           106.0661         estimate D2E/DX2                !
 ! A78   A(11,15,42)           110.384          estimate D2E/DX2                !
 ! A79   A(13,15,41)           108.5049         estimate D2E/DX2                !
 ! A80   A(13,15,42)           110.9052         estimate D2E/DX2                !
 ! A81   A(41,15,42)           101.2401         estimate D2E/DX2                !
 ! D1    D(14,1,13,12)          67.4574         estimate D2E/DX2                !
 ! D2    D(14,1,13,15)        -167.1301         estimate D2E/DX2                !
 ! D3    D(14,1,13,40)         -53.9617         estimate D2E/DX2                !
 ! D4    D(17,1,13,12)        -114.07           estimate D2E/DX2                !
 ! D5    D(17,1,13,15)          11.3425         estimate D2E/DX2                !
 ! D6    D(17,1,13,40)         124.5108         estimate D2E/DX2                !
 ! D7    D(13,1,14,9)         -174.832          estimate D2E/DX2                !
 ! D8    D(13,1,14,10)           7.665          estimate D2E/DX2                !
 ! D9    D(17,1,14,9)            6.7188         estimate D2E/DX2                !
 ! D10   D(17,1,14,10)        -170.7842         estimate D2E/DX2                !
 ! D11   D(16,2,11,15)        -168.7986         estimate D2E/DX2                !
 ! D12   D(16,2,11,36)          71.7819         estimate D2E/DX2                !
 ! D13   D(16,2,11,37)         -48.0247         estimate D2E/DX2                !
 ! D14   D(18,2,11,15)          11.1126         estimate D2E/DX2                !
 ! D15   D(18,2,11,36)        -108.3069         estimate D2E/DX2                !
 ! D16   D(18,2,11,37)         131.8866         estimate D2E/DX2                !
 ! D17   D(5,3,4,6)             55.1988         estimate D2E/DX2                !
 ! D18   D(5,3,4,21)           176.7439         estimate D2E/DX2                !
 ! D19   D(5,3,4,22)           -66.1304         estimate D2E/DX2                !
 ! D20   D(19,3,4,6)           176.7789         estimate D2E/DX2                !
 ! D21   D(19,3,4,21)          -61.676          estimate D2E/DX2                !
 ! D22   D(19,3,4,22)           55.4497         estimate D2E/DX2                !
 ! D23   D(20,3,4,6)           -66.0279         estimate D2E/DX2                !
 ! D24   D(20,3,4,21)           55.5172         estimate D2E/DX2                !
 ! D25   D(20,3,4,22)          172.6428         estimate D2E/DX2                !
 ! D26   D(4,3,5,7)            -54.702          estimate D2E/DX2                !
 ! D27   D(4,3,5,23)            66.6123         estimate D2E/DX2                !
 ! D28   D(4,3,5,24)          -176.5339         estimate D2E/DX2                !
 ! D29   D(19,3,5,7)          -176.2837         estimate D2E/DX2                !
 ! D30   D(19,3,5,23)          -54.9694         estimate D2E/DX2                !
 ! D31   D(19,3,5,24)           61.8843         estimate D2E/DX2                !
 ! D32   D(20,3,5,7)            66.5471         estimate D2E/DX2                !
 ! D33   D(20,3,5,23)         -172.1386         estimate D2E/DX2                !
 ! D34   D(20,3,5,24)          -55.2849         estimate D2E/DX2                !
 ! D35   D(3,4,6,8)            -55.5256         estimate D2E/DX2                !
 ! D36   D(3,4,6,25)            66.3864         estimate D2E/DX2                !
 ! D37   D(3,4,6,26)          -177.4079         estimate D2E/DX2                !
 ! D38   D(21,4,6,8)          -177.0782         estimate D2E/DX2                !
 ! D39   D(21,4,6,25)          -55.1662         estimate D2E/DX2                !
 ! D40   D(21,4,6,26)           61.0395         estimate D2E/DX2                !
 ! D41   D(22,4,6,8)            65.8638         estimate D2E/DX2                !
 ! D42   D(22,4,6,25)         -172.2242         estimate D2E/DX2                !
 ! D43   D(22,4,6,26)          -56.0186         estimate D2E/DX2                !
 ! D44   D(3,5,7,8)             54.3194         estimate D2E/DX2                !
 ! D45   D(3,5,7,27)           175.9292         estimate D2E/DX2                !
 ! D46   D(3,5,7,28)           -67.9162         estimate D2E/DX2                !
 ! D47   D(23,5,7,8)           -67.062          estimate D2E/DX2                !
 ! D48   D(23,5,7,27)           54.5478         estimate D2E/DX2                !
 ! D49   D(23,5,7,28)          170.7024         estimate D2E/DX2                !
 ! D50   D(24,5,7,8)           176.1983         estimate D2E/DX2                !
 ! D51   D(24,5,7,27)          -62.192          estimate D2E/DX2                !
 ! D52   D(24,5,7,28)           53.9626         estimate D2E/DX2                !
 ! D53   D(4,6,8,7)             53.9018         estimate D2E/DX2                !
 ! D54   D(4,6,8,12)           178.6048         estimate D2E/DX2                !
 ! D55   D(4,6,8,29)           -63.5903         estimate D2E/DX2                !
 ! D56   D(25,6,8,7)           -67.5939         estimate D2E/DX2                !
 ! D57   D(25,6,8,12)           57.109          estimate D2E/DX2                !
 ! D58   D(25,6,8,29)          174.914          estimate D2E/DX2                !
 ! D59   D(26,6,8,7)           175.283          estimate D2E/DX2                !
 ! D60   D(26,6,8,12)          -60.0141         estimate D2E/DX2                !
 ! D61   D(26,6,8,29)           57.7909         estimate D2E/DX2                !
 ! D62   D(5,7,8,6)            -53.0694         estimate D2E/DX2                !
 ! D63   D(5,7,8,12)          -175.2236         estimate D2E/DX2                !
 ! D64   D(5,7,8,29)            63.6804         estimate D2E/DX2                !
 ! D65   D(27,7,8,6)          -173.0738         estimate D2E/DX2                !
 ! D66   D(27,7,8,12)           64.7719         estimate D2E/DX2                !
 ! D67   D(27,7,8,29)          -56.3241         estimate D2E/DX2                !
 ! D68   D(28,7,8,6)            68.8302         estimate D2E/DX2                !
 ! D69   D(28,7,8,12)          -53.324          estimate D2E/DX2                !
 ! D70   D(28,7,8,29)         -174.42           estimate D2E/DX2                !
 ! D71   D(6,8,12,13)          174.5726         estimate D2E/DX2                !
 ! D72   D(6,8,12,38)          -60.1345         estimate D2E/DX2                !
 ! D73   D(6,8,12,39)           52.9513         estimate D2E/DX2                !
 ! D74   D(7,8,12,13)          -62.5099         estimate D2E/DX2                !
 ! D75   D(7,8,12,38)           62.783          estimate D2E/DX2                !
 ! D76   D(7,8,12,39)          175.8688         estimate D2E/DX2                !
 ! D77   D(29,8,12,13)          58.0887         estimate D2E/DX2                !
 ! D78   D(29,8,12,38)        -176.6185         estimate D2E/DX2                !
 ! D79   D(29,8,12,39)         -63.5326         estimate D2E/DX2                !
 ! D80   D(30,9,14,1)          127.994          estimate D2E/DX2                !
 ! D81   D(30,9,14,10)         -54.2617         estimate D2E/DX2                !
 ! D82   D(31,9,14,1)            7.689          estimate D2E/DX2                !
 ! D83   D(31,9,14,10)        -174.5667         estimate D2E/DX2                !
 ! D84   D(32,9,14,1)         -112.8495         estimate D2E/DX2                !
 ! D85   D(32,9,14,10)          64.8948         estimate D2E/DX2                !
 ! D86   D(33,10,14,1)         126.4251         estimate D2E/DX2                !
 ! D87   D(33,10,14,9)         -51.1713         estimate D2E/DX2                !
 ! D88   D(34,10,14,1)           6.3346         estimate D2E/DX2                !
 ! D89   D(34,10,14,9)        -171.2618         estimate D2E/DX2                !
 ! D90   D(35,10,14,1)        -114.8428         estimate D2E/DX2                !
 ! D91   D(35,10,14,9)          67.5608         estimate D2E/DX2                !
 ! D92   D(2,11,15,13)        -165.364          estimate D2E/DX2                !
 ! D93   D(2,11,15,41)         -43.3947         estimate D2E/DX2                !
 ! D94   D(2,11,15,42)          65.4744         estimate D2E/DX2                !
 ! D95   D(36,11,15,13)        -45.1791         estimate D2E/DX2                !
 ! D96   D(36,11,15,41)         76.7903         estimate D2E/DX2                !
 ! D97   D(36,11,15,42)       -174.3406         estimate D2E/DX2                !
 ! D98   D(37,11,15,13)         72.3407         estimate D2E/DX2                !
 ! D99   D(37,11,15,41)       -165.69           estimate D2E/DX2                !
 ! D100  D(37,11,15,42)        -56.8209         estimate D2E/DX2                !
 ! D101  D(8,12,13,1)           78.7325         estimate D2E/DX2                !
 ! D102  D(8,12,13,15)         -46.2995         estimate D2E/DX2                !
 ! D103  D(8,12,13,40)        -161.716          estimate D2E/DX2                !
 ! D104  D(38,12,13,1)         -45.7086         estimate D2E/DX2                !
 ! D105  D(38,12,13,15)       -170.7405         estimate D2E/DX2                !
 ! D106  D(38,12,13,40)         73.843          estimate D2E/DX2                !
 ! D107  D(39,12,13,1)        -159.3788         estimate D2E/DX2                !
 ! D108  D(39,12,13,15)         75.5892         estimate D2E/DX2                !
 ! D109  D(39,12,13,40)        -39.8273         estimate D2E/DX2                !
 ! D110  D(1,13,15,11)         165.1196         estimate D2E/DX2                !
 ! D111  D(1,13,15,41)          44.3963         estimate D2E/DX2                !
 ! D112  D(1,13,15,42)         -65.961          estimate D2E/DX2                !
 ! D113  D(12,13,15,11)        -67.8113         estimate D2E/DX2                !
 ! D114  D(12,13,15,41)        171.4654         estimate D2E/DX2                !
 ! D115  D(12,13,15,42)         61.1081         estimate D2E/DX2                !
 ! D116  D(40,13,15,11)         50.7766         estimate D2E/DX2                !
 ! D117  D(40,13,15,41)        -69.9467         estimate D2E/DX2                !
 ! D118  D(40,13,15,42)        179.6961         estimate D2E/DX2                !
 --------------------------------------------------------------------------------
 Trust Radius=3.00D-01 FncErr=1.00D-07 GrdErr=1.00D-06
 Number of steps in this run=    251 maximum allowed number of steps=    252.
 GradGradGradGradGradGradGradGradGradGradGradGradGradGradGradGradGradGrad

                          Input orientation:                          
 ---------------------------------------------------------------------
 Center     Atomic      Atomic             Coordinates (Angstroms)
 Number     Number       Type             X           Y           Z
 ---------------------------------------------------------------------
      1          6           0        3.771519   -5.681540   -0.814144
      2          6           0        5.533800   -1.332563    0.976873
      3          6           0       -0.876841   -2.682365   -2.414575
      4          6           0        0.108570   -1.696672   -3.029091
      5          6           0       -0.304502   -3.320913   -1.155740
      6          6           0        1.456240   -2.356266   -3.305270
      7          6           0        1.051698   -3.977105   -1.412115
      8          6           0        2.059772   -3.005203   -2.042561
      9          6           0        3.277206   -8.054219   -1.242546
     10          6           0        4.504795   -6.793006   -2.967345
     11          6           0        5.157073   -2.070436   -0.331539
     12          6           0        3.402130   -3.677863   -2.419266
     13          6           0        4.264654   -4.289519   -1.299023
     14          7           0        3.845361   -6.779948   -1.665076
     15          7           0        4.381420   -3.347764   -0.137959
     16          8           0        5.989240   -0.157250    0.871832
     17          8           0        3.341129   -5.803226    0.344080
     18          8           0        5.342122   -1.994435    2.045953
     19          1           0       -1.814009   -2.167641   -2.174882
     20          1           0       -1.118258   -3.464192   -3.145093
     21          1           0       -0.303815   -1.296638   -3.962235
     22          1           0        0.249414   -0.846088   -2.350950
     23          1           0       -0.195278   -2.556106   -0.376720
     24          1           0       -1.006768   -4.068810   -0.770304
     25          1           0        1.330175   -3.114744   -4.088767
     26          1           0        2.146883   -1.602471   -3.702345
     27          1           0        1.426610   -4.344697   -0.453664
     28          1           0        0.915325   -4.848663   -2.064464
     29          1           0        2.251564   -2.196991   -1.326129
     30          1           0        2.603339   -8.416515   -2.024682
     31          1           0        2.715323   -7.967737   -0.309312
     32          1           0        4.091910   -8.770555   -1.101444
     33          1           0        5.220399   -7.620649   -2.989990
     34          1           0        5.044360   -5.870823   -3.179353
     35          1           0        3.745219   -6.950735   -3.738539
     36          1           0        6.081236   -2.335132   -0.855233
     37          1           0        4.548722   -1.418085   -0.964199
     38          1           0        3.193938   -4.439346   -3.179644
     39          1           0        4.020240   -2.923805   -2.926204
     40          1           0        5.292829   -4.426878   -1.651817
     41          1           0        4.838833   -3.843953    0.640959
     42          1           0        3.460194   -3.148492    0.265543
 ---------------------------------------------------------------------
                    Distance matrix (angstroms):
                    1          2          3          4          5
     1  C    0.000000
     2  C    5.022647   0.000000
     3  C    5.758791   7.377005   0.000000
     4  C    5.848278   6.753772   1.523238   0.000000
     5  C    4.722626   6.525898   1.523148   2.513609   0.000000
     6  C    4.756434   6.000934   2.518520   1.525633   2.941298
     7  C    3.264980   5.726264   2.529929   2.950335   1.528265
     8  C    3.406151   4.897303   2.977635   2.548075   2.544782
     9  C    2.461195   7.429583   6.891050   7.324644   5.936358
    10  C    2.531665   6.814114   6.794478   6.730768   6.202152
    11  C    3.897786   1.548652   6.412614   5.736190   5.663197
    12  C    2.593760   4.645235   4.393248   3.891599   3.932306
    13  C    1.554352   3.941323   5.501124   5.195096   4.672891
    14  N    1.391416   6.285279   6.296914   6.454754   5.426390
    15  N    2.505138   2.575241   5.768452   5.416825   4.795255
    16  O    6.186968   1.264840   8.019959   7.222831   7.330143
    17  O    1.241581   5.019468   5.928003   6.220250   4.658537
    18  O    4.923585   1.271907   7.684078   7.296218   6.625311
    19  H    6.737746   8.038732   1.095755   2.155874   2.155759
    20  H    5.853193   8.110753   1.096901   2.154690   2.154124
    21  H    6.763593   7.646818   2.154959   1.095832   3.460362
    22  H    6.176455   6.263848   2.155090   1.096907   2.803589
    23  H    5.069039   6.012620   2.152516   2.804643   1.097148
    24  H    5.043297   7.301966   2.154702   3.460222   1.095942
    25  H    4.824081   6.819629   2.803710   2.150851   3.364123
    26  H    5.255469   5.782659   3.459397   2.148690   3.930335
    27  H    2.723177   5.290406   3.451725   3.922001   2.130210
    28  H    3.227201   6.553091   2.833246   3.393583   2.155870
    29  H    3.835945   4.101723   3.347718   2.782592   2.797446
    30  H    3.210940   8.232820   6.718939   7.238025   5.930916
    31  H    2.568482   7.322815   6.728368   7.315642   5.606136
    32  H    3.118846   7.856346   7.967362   8.344018   7.002141
    33  H    3.254797   7.441388   7.867279   7.824693   7.237177
    34  H    2.692614   6.173296   6.768439   6.465922   6.261579
    35  H    3.188045   7.549701   6.429253   6.429130   6.020522
    36  H    4.066316   2.159038   7.139114   6.387960   6.468363
    37  H    4.336313   2.178406   5.756625   4.904726   5.216439
    38  H    2.733539   5.692423   4.499284   4.130911   4.193586
    39  H    3.482494   4.478496   4.929651   4.100927   4.689950
    40  H    2.142489   4.067292   6.456776   6.018925   5.727073
    41  H    2.575502   2.627336   6.584414   6.360462   5.473171
    42  H    2.771097   2.846652   5.119588   4.918920   4.027743
                    6          7          8          9         10
     6  C    0.000000
     7  C    2.524838   0.000000
     8  C    1.542661   1.535665   0.000000
     9  C    6.327512   4.648064   5.254972   0.000000
    10  C    5.393750   4.719314   4.602262   2.464258   0.000000
    11  C    4.756147   4.653722   3.659872   6.337941   5.447533
    12  C    2.513584   2.574574   1.548000   4.533517   3.349684
    13  C    3.955968   3.230089   2.657785   3.892455   3.018015
    14  N    5.288393   3.965410   4.192794   1.457772   1.459770
    15  N    4.423980   3.620303   3.022401   4.958843   4.459859
    16  O    6.544611   6.647332   5.660852   8.613237   7.808721
    17  O    5.362098   3.414738   3.894465   2.754712   3.646823
    18  O    6.623185   5.856359   5.339609   7.197158   6.990033
    19  H    3.465240   3.473939   3.965501   7.838464   7.870787
    20  H    2.807347   2.824005   3.395014   6.633863   6.536920
    21  H    2.156898   3.940232   3.491545   8.116977   7.370386
    22  H    2.155875   3.365760   2.834480   7.896407   7.338532
    23  H    3.368064   2.155511   2.839360   6.560263   6.837642
    24  H    3.927502   2.158151   3.486196   5.870173   6.528826
    25  H    1.097747   2.825895   2.175148   6.024145   4.986523
    26  H    1.096751   3.476129   2.174886   6.996663   5.748185
    27  H    3.476549   1.092845   2.172494   4.219905   4.667766
    28  H    2.836235   1.097165   2.169926   4.065664   4.180905
    29  H    2.138903   2.148459   1.096935   5.946937   5.375314
    30  H    6.299394   4.742488   5.438573   1.094117   2.672065
    31  H    6.484571   4.461947   5.297229   1.092756   3.412820
    32  H    7.276448   5.684766   6.185027   1.093979   2.750047
    33  H    6.479353   5.757011   5.673581   2.649065   1.094346
    34  H    5.024198   4.759270   4.290902   3.411931   1.089265
    35  H    5.151338   4.637864   4.613490   2.768880   1.093880
    36  H    5.233900   5.320004   4.246283   6.381266   5.178690
    37  H    3.990519   4.356419   3.142719   6.762582   5.736227
    38  H    2.715621   2.815496   2.153150   4.102023   2.702431
    39  H    2.653278   3.494875   2.151950   5.450501   3.899642
    40  H    4.662698   4.271644   3.553379   4.169873   2.819606
    41  H    5.406280   4.309900   3.953222   4.869560   4.672083
    42  H    4.170630   3.049916   2.703527   5.135560   4.982494
                   11         12         13         14         15
    11  C    0.000000
    12  C    3.165794   0.000000
    13  C    2.580071   1.540460   0.000000
    14  N    5.067387   3.223072   2.551869   0.000000
    15  N    1.506876   2.504463   1.499535   3.794645   0.000000
    16  O    2.408502   5.469842   4.976189   7.408930   3.712700
    17  O    4.205690   3.486685   2.417435   2.290184   2.709955
    18  O    2.385893   5.151279   4.197286   6.238041   2.742976
    19  H    7.211335   5.435863   6.497664   7.318590   6.627601
    20  H    7.017009   4.583273   5.750207   6.149976   6.269200
    21  H    6.603182   4.667442   6.076261   7.249779   6.386207
    22  H    5.446299   4.238306   5.393137   6.972228   5.313115
    23  H    5.374530   4.286220   4.873023   5.985605   4.650795
    24  H    6.494533   4.723379   5.302466   5.629747   5.472873
    25  H    5.463743   2.719804   4.215914   5.063019   4.997327
    26  H    4.543410   2.743936   4.181045   5.817350   4.554564
    27  H    4.370759   2.865474   2.961785   3.639825   3.134397
    28  H    5.358545   2.771436   3.480883   3.531924   4.240040
    29  H    3.073632   2.170653   2.903781   4.864008   2.696723
    30  H    7.047057   4.821680   4.507621   2.085735   5.693289
    31  H    6.382851   4.829765   4.112084   2.127422   4.914203
    32  H    6.827804   5.305465   4.488714   2.083502   5.515322
    33  H    6.154367   4.379200   3.856066   2.086361   5.205335
    34  H    4.750336   2.843190   2.577617   2.134746   4.006918
    35  H    6.117049   3.545403   3.647344   2.082894   5.133257
    36  H    1.094713   3.380345   2.704912   5.040969   2.104585
    37  H    1.093578   2.922069   2.904813   5.453029   2.105784
    38  H    4.192533   1.096072   2.169243   2.862986   3.442893
    39  H    2.958532   1.098931   2.138372   4.060895   2.843326
    40  H    2.704511   2.173648   1.095662   2.762658   2.070487
    41  H    2.047532   3.384772   2.071652   3.863270   1.030603
    42  H    2.097167   2.737116   2.096894   4.130753   1.025271
                   16         17         18         19         20
    16  O    0.000000
    17  O    6.258439   0.000000
    18  O    2.274329   4.626795   0.000000
    19  H    8.614803   6.792503   8.309973   0.000000
    20  H    8.808409   6.126299   8.416867   1.762505   0.000000
    21  H    8.016791   7.220755   8.274167   2.496791   2.455469
    22  H    6.618642   6.433903   6.825476   2.456668   3.058702
    23  H    6.749937   4.854844   6.070223   2.450426   3.056207
    24  H    8.181751   4.811888   7.248637   2.497784   2.453083
    25  H    7.420323   5.560756   7.415227   3.800770   2.647161
    26  H    6.146175   5.953664   6.588332   4.282666   3.799695
    27  H    6.333186   2.535564   5.206059   4.266588   3.807287
    28  H    7.508382   3.549197   6.681218   3.827445   2.687002
    29  H    4.791847   4.120884   4.578593   4.153327   4.033624
    30  H    9.384539   3.603422   8.081715   7.654015   6.295325
    31  H    8.550868   2.345989   6.937412   7.591859   6.558957
    32  H    9.037848   3.385004   7.575284   8.923599   7.712317
    33  H    8.438430   4.236827   7.551809   8.937706   7.581475
    34  H    7.067518   3.914095   6.512977   7.858737   6.615958
    35  H    8.511321   4.260028   7.783017   7.498535   6.013449
    36  H    2.781076   4.579761   3.013178   8.006524   7.638779
    37  H    2.652509   4.732794   3.165861   6.520118   6.407614
    38  H    6.524148   3.781331   6.156228   5.590145   4.421217
    39  H    5.094689   4.409877   5.228140   5.930829   5.171469
    40  H    5.008344   3.112406   4.426365   7.475620   6.652719
    41  H    3.868916   2.483950   2.376557   7.416151   7.068617
    42  H    3.963734   2.658563   2.836081   5.893637   5.717895
                   21         22         23         24         25
    21  H    0.000000
    22  H    1.762186   0.000000
    23  H    3.801837   2.649434   0.000000
    24  H    4.285733   3.802943   1.761164   0.000000
    25  H    2.447742   3.055299   4.051960   4.169382   0.000000
    26  H    2.483344   2.449240   4.177909   4.962380   1.761619
    27  H    4.959345   4.150392   2.415678   2.469353   3.838757
    28  H    4.207697   4.067692   3.055771   2.444885   2.697476
    29  H    3.780165   2.623699   2.649033   3.798602   3.053423
    30  H    7.930845   7.934657   6.700182   5.788685   5.830109
    31  H    8.183068   7.808129   6.145071   5.410001   6.305114
    32  H    9.130496   8.895123   7.584496   6.943528   6.967028
    33  H    8.453124   8.426965   7.861827   7.504677   6.053456
    34  H    7.080893   6.994693   6.804110   6.757731   4.713616
    35  H    6.957982   7.170270   6.792798   6.300579   4.546418
    36  H    7.176406   6.201981   6.298605   7.297442   5.799665
    37  H    5.705268   4.553494   4.913834   6.158524   4.795896
    38  H    4.766900   4.718947   4.784325   4.856764   2.460628
    39  H    4.734816   4.343611   4.940209   5.588360   2.936743
    40  H    6.816073   6.224699   5.936748   6.371044   4.833534
    41  H    7.356972   6.245117   5.294950   6.017747   5.934032
    42  H    5.955773   4.738798   3.758443   4.676935   4.847488
                   26         27         28         29         30
    26  H    0.000000
    27  H    4.311905   0.000000
    28  H    3.838900   1.763539   0.000000
    29  H    2.451696   2.460566   3.059745   0.000000
    30  H    7.032361   4.520232   3.947220   6.268509   0.000000
    31  H    7.235496   3.848122   4.006143   5.877968   1.776636
    32  H    7.869513   5.206886   5.138029   6.830015   1.787053
    33  H    6.795028   5.617619   5.203284   6.403006   2.900728
    34  H    5.185337   4.779807   4.397354   4.973047   3.711118
    35  H    5.582106   4.791428   3.902503   5.536137   2.527787
    36  H    4.911413   5.085779   5.870836   3.860987   7.102577
    37  H    3.646954   4.309674   5.116740   2.452473   7.340788
    38  H    3.068778   3.250134   2.569678   3.058062   4.183374
    39  H    2.420286   3.854777   3.753422   2.493334   5.743712
    40  H    4.698821   4.048453   4.417094   3.785203   4.825929
    41  H    5.579886   3.618316   4.870593   3.643609   5.745556
    42  H    4.456355   2.466502   3.846541   2.213495   5.807875
                   31         32         33         34         35
    31  H    0.000000
    32  H    1.779601   0.000000
    33  H    3.685364   2.482413   0.000000
    34  H    4.249540   3.692331   1.768824   0.000000
    35  H    3.722173   3.222764   1.784732   1.779512   0.000000
    36  H    6.584348   6.740378   5.764973   4.356347   5.922349
    37  H    6.832874   7.367925   6.559480   4.997944   6.241217
    38  H    4.573557   4.887191   3.776665   2.339484   2.631226
    39  H    5.830282   6.125306   4.848175   3.130148   4.117243
    40  H    4.580779   4.540115   3.463542   2.116621   3.622066
    41  H    4.734755   5.278756   5.252887   4.329576   5.479789
    42  H    4.910236   5.820250   5.804912   4.667760   5.529102
                   36         37         38         39         40
    36  H    0.000000
    37  H    1.789259   0.000000
    38  H    4.262287   3.983924   0.000000
    39  H    2.980463   2.529021   1.744670   0.000000
    40  H    2.373085   3.174799   2.596103   2.345800   0.000000
    41  H    2.461441   2.923274   4.202044   3.773781   2.408887
    42  H    2.964381   2.385680   3.688700   3.248290   2.944332
                   41         42
    41  H    0.000000
    42  H    1.589103   0.000000
 Stoichiometry    C13H24N2O3
 Framework group  C1[X(C13H24N2O3)]
 Deg. of freedom   120
 Full point group                 C1      NOp   1
 Largest Abelian subgroup         C1      NOp   1
 Largest concise Abelian subgroup C1      NOp   1
                         Standard orientation:                         
 ---------------------------------------------------------------------
 Center     Atomic      Atomic             Coordinates (Angstroms)
 Number     Number       Type             X           Y           Z
 ---------------------------------------------------------------------
      1          6           0       -0.081864    2.027857   -0.358034
      2          6           0        3.917686   -1.001893   -0.131781
      3          6           0       -3.220830   -2.792077   -0.638752
      4          6           0       -2.410292   -3.257053    0.564195
      5          6           0       -2.383610   -1.916269   -1.561791
      6          6           0       -1.805580   -2.076333    1.317705
      7          6           0       -1.760721   -0.734003   -0.820273
      8          6           0       -0.947022   -1.177152    0.404382
      9          6           0       -1.624421    3.911003   -0.721024
     10          6           0       -1.105608    3.264372    1.599594
     11          6           0        2.652694   -0.561986    0.645779
     12          6           0       -0.404348    0.008929    1.238061
     13          6           0        0.588834    0.984886    0.579188
     14          7           0       -0.911513    3.009237    0.175458
     15          7           0        1.662288    0.240840   -0.157492
     16          8           0        4.673307   -1.853098    0.419860
     17          8           0        0.154938    1.989820   -1.576231
     18          8           0        4.071684   -0.453964   -1.269237
     19          1           0       -3.593965   -3.661372   -1.191720
     20          1           0       -4.097911   -2.229766   -0.295638
     21          1           0       -3.051203   -3.835440    1.239138
     22          1           0       -1.608915   -3.927803    0.230886
     23          1           0       -1.587169   -2.520515   -2.013790
     24          1           0       -3.006959   -1.546352   -2.383793
     25          1           0       -2.614507   -1.485443    1.766631
     26          1           0       -1.194732   -2.457170    2.145165
     27          1           0       -1.121739   -0.200358   -1.528252
     28          1           0       -2.553544   -0.041497   -0.511017
     29          1           0       -0.104122   -1.785769    0.054566
     30          1           0       -2.686385    3.903129   -0.457847
     31          1           0       -1.521709    3.619334   -1.769115
     32          1           0       -1.223549    4.920742   -0.592502
     33          1           0       -0.909654    4.322907    1.796313
     34          1           0       -0.443899    2.672801    2.231009
     35          1           0       -2.144681    3.035793    1.853861
     36          1           0        2.966459    0.066874    1.485114
     37          1           0        2.123032   -1.441647    1.022033
     38          1           0       -1.264043    0.566727    1.626855
     39          1           0        0.094349   -0.408855    2.123729
     40          1           0        1.121358    1.553096    1.349922
     41          1           0        2.217645    0.919235   -0.699251
     42          1           0        1.261476   -0.332947   -0.906690
 ---------------------------------------------------------------------
 Rotational constants (GHZ):      0.3621831      0.2971560      0.1956023
 Standard basis: 6-31G(d) (6D, 7F)
 There are   318 symmetry adapted basis functions of A   symmetry.
 Integral buffers will be    131072 words long.
 Raffenetti 2 integral format.
 Two-electron integral symmetry is turned on.
   318 basis functions,   600 primitive gaussians,   318 cartesian basis functions
    70 alpha electrons       70 beta electrons
       nuclear repulsion energy      1429.1952492808 Hartrees.
 NAtoms=   42 NActive=   42 NUniq=   42 SFac= 1.00D+00 NAtFMM=   60 NAOKFM=F Big=F
 ------------------------------------------------------------------------------
 Polarizable Continuum Model (PCM)
 =================================
 Model                : PCM.
 Atomic radii         : UFF (Universal Force Field).
 Polarization charges : Total charges.
 Charge compensation  : None.
 Solution method      : Matrix inversion.
 Cavity type          : Scaled VdW (van der Waals Surface) (Alpha=1.100).
 Cavity algorithm     : GePol (No added spheres)
                        Default sphere list used, NSphG=   42.
                        Lebedev-Laikov grids with approx.  5.0 points / Ang**2.
                        Smoothing algorithm: Karplus/York (Gamma=1.0000).
                        Polarization charges: spherical gaussians, with
                                              point-specific exponents (IZeta= 3).
                        Self-potential: point-specific (ISelfS= 7).
                        Self-field    : sphere-specific E.n sum rule (ISelfD= 2).
 1st derivatives      : Analytical E(r).r(x)/FMM algorithm (CHGder, D1EAlg=3).
                        Cavity 1st derivative terms included.
 Solvent              : Water, Eps=  78.355300 Eps(inf)=   1.777849
 ------------------------------------------------------------------------------
 One-electron integrals computed using PRISM.
 PrsmSu:  requested number of processors reduced to:  10 ShMem   1 Linda.
 NBasis=   318 RedAO= T  NBF=   318
 NBsUse=   318 1.00D-06 NBFU=   318
 Harris functional with IExCor=  402 diagonalized for initial guess.
 ExpMin= 1.61D-01 ExpMax= 5.48D+03 ExpMxC= 8.25D+02 IAcc=3 IRadAn=         5 AccDes= 0.00D+00
 HarFok:  IExCor=  402 AccDes= 0.00D+00 IRadAn=         5 IDoV= 1
 ScaDFX=  1.000000  1.000000  1.000000  1.000000
 FoFCou: FMM=F IPFlag=           0 FMFlag=      100000 FMFlg1=           0
         NFxFlg=           0 DoJE=T BraDBF=F KetDBF=T FulRan=T
         Omega=  0.000000  0.000000  1.000000  0.000000  0.000000 ICntrl=     500 IOpCl=  0
         NMat0=    1 NMatS0=    1 NMatT0=    0 NMatD0=    1 NMtDS0=    0 NMtDT0=    0
         I1Cent=           4 NGrid=           0.
 Petite list used in FoFCou.
 Initial guess orbital symmetries:
       Occupied  (A) (A) (A) (A) (A) (A) (A) (A) (A) (A) (A) (A)
                 (A) (A) (A) (A) (A) (A) (A) (A) (A) (A) (A) (A)
                 (A) (A) (A) (A) (A) (A) (A) (A) (A) (A) (A) (A)
                 (A) (A) (A) (A) (A) (A) (A) (A) (A) (A) (A) (A)
                 (A) (A) (A) (A) (A) (A) (A) (A) (A) (A) (A) (A)
                 (A) (A) (A) (A) (A) (A) (A) (A) (A) (A)
       Virtual   (A) (A) (A) (A) (A) (A) (A) (A) (A) (A) (A) (A)
                 (A) (A) (A) (A) (A) (A) (A) (A) (A) (A) (A) (A)
                 (A) (A) (A) (A) (A) (A) (A) (A) (A) (A) (A) (A)
                 (A) (A) (A) (A) (A) (A) (A) (A) (A) (A) (A) (A)
                 (A) (A) (A) (A) (A) (A) (A) (A) (A) (A) (A) (A)
                 (A) (A) (A) (A) (A) (A) (A) (A) (A) (A) (A) (A)
                 (A) (A) (A) (A) (A) (A) (A) (A) (A) (A) (A) (A)
                 (A) (A) (A) (A) (A) (A) (A) (A) (A) (A) (A) (A)
                 (A) (A) (A) (A) (A) (A) (A) (A) (A) (A) (A) (A)
                 (A) (A) (A) (A) (A) (A) (A) (A) (A) (A) (A) (A)
                 (A) (A) (A) (A) (A) (A) (A) (A) (A) (A) (A) (A)
                 (A) (A) (A) (A) (A) (A) (A) (A) (A) (A) (A) (A)
                 (A) (A) (A) (A) (A) (A) (A) (A) (A) (A) (A) (A)
                 (A) (A) (A) (A) (A) (A) (A) (A) (A) (A) (A) (A)
                 (A) (A) (A) (A) (A) (A) (A) (A) (A) (A) (A) (A)
                 (A) (A) (A) (A) (A) (A) (A) (A) (A) (A) (A) (A)
                 (A) (A) (A) (A) (A) (A) (A) (A) (A) (A) (A) (A)
                 (A) (A) (A) (A) (A) (A) (A) (A) (A) (A) (A) (A)
                 (A) (A) (A) (A) (A) (A) (A) (A) (A) (A) (A) (A)
                 (A) (A) (A) (A) (A) (A) (A) (A) (A) (A) (A) (A)
                 (A) (A) (A) (A) (A) (A) (A) (A)
 The electronic state of the initial guess is 1-A.
 Requested convergence on RMS density matrix=1.00D-08 within 128 cycles.
 Requested convergence on MAX density matrix=1.00D-06.
 Requested convergence on             energy=1.00D-06.
 No special actions if energy rises.
 CoulSu:  requested number of processors reduced to:   4 ShMem   1 Linda.
 CoulSu:  requested number of processors reduced to:  11 ShMem   1 Linda.
 CoulSu:  requested number of processors reduced to:   4 ShMem   1 Linda.
 CoulSu:  requested number of processors reduced to:  11 ShMem   1 Linda.
 CoulSu:  requested number of processors reduced to:  11 ShMem   1 Linda.
 CoulSu:  requested number of processors reduced to:  11 ShMem   1 Linda.
 CoulSu:  requested number of processors reduced to:  11 ShMem   1 Linda.
 CoulSu:  requested number of processors reduced to:  11 ShMem   1 Linda.
 CoulSu:  requested number of processors reduced to:  11 ShMem   1 Linda.
 CoulSu:  requested number of processors reduced to:  11 ShMem   1 Linda.
 CoulSu:  requested number of processors reduced to:  11 ShMem   1 Linda.
 CoulSu:  requested number of processors reduced to:  11 ShMem   1 Linda.
 CoulSu:  requested number of processors reduced to:  11 ShMem   1 Linda.
 CoulSu:  requested number of processors reduced to:  11 ShMem   1 Linda.
 CoulSu:  requested number of processors reduced to:  11 ShMem   1 Linda.
 CoulSu:  requested number of processors reduced to:  11 ShMem   1 Linda.
 CoulSu:  requested number of processors reduced to:  11 ShMem   1 Linda.
 Error on total polarization charges =  0.00927
 SCF Done:  E(RB3LYP) =  -845.033436019     A.U. after   13 cycles
             Convg  =    0.8241D-08             -V/T =  2.0097
 PrsmSu:  requested number of processors reduced to:  10 ShMem   1 Linda.
 D1PCM: PCM CHGder 1st derivatives, ID1Alg=3 FixD1E=F DoIter=F DoCFld=F I1PDM=0.
 CoulSu:  requested number of processors reduced to:   8 ShMem   1 Linda.
 CoulSu:  requested number of processors reduced to:   8 ShMem   1 Linda.
 CoulSu:  requested number of processors reduced to:   8 ShMem   1 Linda.
 Calling FoFJK, ICntrl=      2127 FMM=F ISym2X=0 I1Cent= 0 IOpClX= 0 NMat=1 NMatS=1 NMatT=0.
 ***** Axes restored to original set *****
 -------------------------------------------------------------------
 Center     Atomic                   Forces (Hartrees/Bohr)
 Number     Number              X              Y              Z
 -------------------------------------------------------------------
      1        6          -0.001414482   -0.024060890    0.007618606
      2        6          -0.000489552    0.009182995    0.033582048
      3        6          -0.005260448    0.002350348    0.001221908
      4        6          -0.001963006    0.001449258   -0.002889602
      5        6          -0.003359460   -0.001545717    0.000985608
      6        6           0.004276371    0.003750149   -0.000301739
      7        6          -0.000718266    0.000466811    0.005712444
      8        6           0.001728903   -0.006412141   -0.004075893
      9        6           0.000416024   -0.001542626    0.000915782
     10        6          -0.004337602   -0.002260000    0.001343485
     11        6           0.001312990    0.009800366   -0.016947436
     12        6           0.000275374    0.009779209   -0.007401231
     13        6          -0.000435822   -0.011184978   -0.013237040
     14        7           0.001321456    0.036319724    0.015959508
     15        7           0.004583481   -0.009694419    0.022401734
     16        8          -0.008434327   -0.024018822   -0.010763722
     17        8           0.002503179    0.008872808   -0.007045997
     18        8           0.000488899   -0.000052003   -0.017558375
     19        1          -0.002082060   -0.000343944   -0.000640230
     20        1          -0.000451689   -0.001275462   -0.001414250
     21        1           0.000536712    0.001849331   -0.000817691
     22        1           0.000013925    0.001503233    0.001031437
     23        1           0.000029839    0.001161398    0.001291396
     24        1           0.000015818   -0.000551460    0.001959037
     25        1           0.000844892   -0.002123752   -0.000023471
     26        1           0.002170572   -0.000924363   -0.000828344
     27        1           0.002192538   -0.003796405    0.000169212
     28        1           0.001291435   -0.001072836   -0.001514025
     29        1          -0.000376643    0.002702051    0.001468662
     30        1           0.000395503   -0.001984549   -0.001047083
     31        1           0.003317115    0.004887457   -0.002402515
     32        1          -0.000774205   -0.003720056    0.000019077
     33        1           0.000524824   -0.000560363   -0.001559891
     34        1          -0.000832979   -0.000168587    0.001498631
     35        1           0.002096214   -0.000589255   -0.004579526
     36        1          -0.002550071    0.000140714   -0.002421827
     37        1           0.003541070   -0.000805910   -0.000862646
     38        1           0.001797641   -0.001230489    0.002746462
     39        1          -0.000463460   -0.000831827    0.000038144
     40        1          -0.001435702    0.003122903   -0.001445217
     41        1           0.000670758    0.001837369    0.002652869
     42        1          -0.000965756    0.001574732   -0.002838298
 -------------------------------------------------------------------
 Cartesian Forces:  Max     0.036319724 RMS     0.007206027

 GradGradGradGradGradGradGradGradGradGradGradGradGradGradGradGradGradGrad
 Berny optimization.
 Internal  Forces:  Max     0.030065103 RMS     0.004713744
 Search for a local minimum.
 Step number   1 out of a maximum of  251
 All quantities printed in internal units (Hartrees-Bohrs-Radians)
 Mixed Optimization -- RFO/linear search
 Second derivative matrix not updated -- first step.
 ITU=  0
     Eigenvalues ---    0.00230   0.00230   0.00230   0.00230   0.00231
     Eigenvalues ---    0.00278   0.00375   0.00505   0.00570   0.00694
     Eigenvalues ---    0.00873   0.00901   0.00928   0.01163   0.01805
     Eigenvalues ---    0.01898   0.01971   0.02804   0.02854   0.03551
     Eigenvalues ---    0.03565   0.03697   0.03850   0.03946   0.04230
     Eigenvalues ---    0.04408   0.04604   0.04619   0.04693   0.04781
     Eigenvalues ---    0.04863   0.04909   0.05408   0.05471   0.05601
     Eigenvalues ---    0.05806   0.05958   0.06481   0.07248   0.07347
     Eigenvalues ---    0.07727   0.07735   0.08135   0.08159   0.08247
     Eigenvalues ---    0.08253   0.08256   0.08429   0.08639   0.09323
     Eigenvalues ---    0.09402   0.09447   0.12083   0.12152   0.12905
     Eigenvalues ---    0.12937   0.13014   0.14122   0.15918   0.16000
     Eigenvalues ---    0.16000   0.16000   0.16000   0.16000   0.16000
     Eigenvalues ---    0.16962   0.17316   0.18499   0.20738   0.21832
     Eigenvalues ---    0.21992   0.22121   0.24976   0.24987   0.24993
     Eigenvalues ---    0.25000   0.25000   0.25000   0.27282   0.27284
     Eigenvalues ---    0.27766   0.27777   0.27822   0.28313   0.28478
     Eigenvalues ---    0.29530   0.29645   0.29716   0.31666   0.32426
     Eigenvalues ---    0.33801   0.33932   0.33998   0.34000   0.34023
     Eigenvalues ---    0.34026   0.34027   0.34044   0.34120   0.34135
     Eigenvalues ---    0.34147   0.34156   0.34166   0.34274   0.34315
     Eigenvalues ---    0.34341   0.34357   0.34368   0.34402   0.34486
     Eigenvalues ---    0.34496   0.34898   0.36993   0.37245   0.42689
     Eigenvalues ---    0.43508   0.47073   0.75640   0.77986   0.86426
 RFO step:  Lambda=-1.96870299D-02 EMin= 2.30000000D-03
 Linear search not attempted -- first point.
 Iteration  1 RMS(Cart)=  0.08939861 RMS(Int)=  0.00334292
 Iteration  2 RMS(Cart)=  0.00531314 RMS(Int)=  0.00033438
 Iteration  3 RMS(Cart)=  0.00001749 RMS(Int)=  0.00033427
 Iteration  4 RMS(Cart)=  0.00000001 RMS(Int)=  0.00033427
 Variable       Old X    -DE/DX   Delta X   Delta X   Delta X     New X
                                 (Linear)    (Quad)   (Total)
    R1        2.93730  -0.01127   0.00000  -0.03852  -0.03852   2.89878
    R2        2.62940  -0.03007   0.00000  -0.06130  -0.06130   2.56809
    R3        2.34625  -0.00831   0.00000  -0.00940  -0.00940   2.33685
    R4        2.92653  -0.00469   0.00000  -0.01578  -0.01578   2.91075
    R5        2.39020  -0.02447   0.00000  -0.03060  -0.03060   2.35960
    R6        2.40356  -0.01480   0.00000  -0.01906  -0.01906   2.38449
    R7        2.87850   0.00672   0.00000   0.02187   0.02187   2.90038
    R8        2.87833   0.00666   0.00000   0.02162   0.02164   2.89998
    R9        2.07068   0.00148   0.00000   0.00409   0.00409   2.07477
   R10        2.07284   0.00195   0.00000   0.00542   0.00542   2.07826
   R11        2.88303   0.00649   0.00000   0.02043   0.02041   2.90344
   R12        2.07082   0.00117   0.00000   0.00324   0.00324   2.07406
   R13        2.07285   0.00181   0.00000   0.00502   0.00502   2.07788
   R14        2.88800   0.00670   0.00000   0.02123   0.02124   2.90924
   R15        2.07331   0.00173   0.00000   0.00480   0.00480   2.07811
   R16        2.07103   0.00105   0.00000   0.00291   0.00291   2.07394
   R17        2.91521   0.00054   0.00000   0.00090   0.00088   2.91608
   R18        2.07444   0.00138   0.00000   0.00386   0.00386   2.07830
   R19        2.07256   0.00104   0.00000   0.00288   0.00288   2.07544
   R20        2.90199   0.00480   0.00000   0.01461   0.01461   2.91660
   R21        2.06518   0.00217   0.00000   0.00596   0.00596   2.07114
   R22        2.07334   0.00159   0.00000   0.00443   0.00443   2.07777
   R23        2.92530   0.00004   0.00000   0.00014   0.00014   2.92543
   R24        2.07291   0.00289   0.00000   0.00802   0.00802   2.08092
   R25        2.75479   0.00003   0.00000   0.00008   0.00008   2.75487
   R26        2.06758   0.00117   0.00000   0.00322   0.00322   2.07080
   R27        2.06501  -0.00337   0.00000  -0.00925  -0.00925   2.05576
   R28        2.06732   0.00186   0.00000   0.00512   0.00512   2.07244
   R29        2.75857   0.00182   0.00000   0.00467   0.00467   2.76324
   R30        2.06801   0.00080   0.00000   0.00220   0.00220   2.07022
   R31        2.05841  -0.00085   0.00000  -0.00230  -0.00230   2.05611
   R32        2.06713   0.00186   0.00000   0.00511   0.00511   2.07225
   R33        2.84758  -0.00614   0.00000  -0.01826  -0.01826   2.82932
   R34        2.06871  -0.00103   0.00000  -0.00284  -0.00284   2.06586
   R35        2.06656  -0.00196   0.00000  -0.00538  -0.00538   2.06118
   R36        2.91105   0.00408   0.00000   0.01341   0.01341   2.92445
   R37        2.07128  -0.00139   0.00000  -0.00386  -0.00386   2.06742
   R38        2.07668  -0.00085   0.00000  -0.00237  -0.00237   2.07431
   R39        2.83371  -0.00208   0.00000  -0.00603  -0.00603   2.82768
   R40        2.07050  -0.00127   0.00000  -0.00353  -0.00353   2.06697
   R41        1.94756   0.00142   0.00000   0.00318   0.00318   1.95074
   R42        1.93748   0.00006   0.00000   0.00013   0.00013   1.93761
    A1        2.09366  -0.00951   0.00000  -0.03507  -0.03518   2.05848
    A2        2.08146  -0.00451   0.00000  -0.01654  -0.01665   2.06481
    A3        2.10776   0.01403   0.00000   0.05225   0.05214   2.15990
    A4        2.04898  -0.01285   0.00000  -0.04760  -0.04947   1.99951
    A5        2.01036  -0.00479   0.00000  -0.01770  -0.01957   1.99079
    A6        2.22385   0.01764   0.00000   0.06545   0.06357   2.28741
    A7        1.94080  -0.00085   0.00000  -0.00039  -0.00040   1.94040
    A8        1.91513   0.00082   0.00000   0.00836   0.00832   1.92345
    A9        1.91233  -0.00014   0.00000  -0.00575  -0.00576   1.90657
   A10        1.91508   0.00076   0.00000   0.00735   0.00730   1.92238
   A11        1.91167   0.00001   0.00000  -0.00373  -0.00375   1.90792
   A12        1.86738  -0.00059   0.00000  -0.00609  -0.00606   1.86133
   A13        1.94413   0.00039   0.00000   0.00438   0.00435   1.94847
   A14        1.91379   0.00086   0.00000   0.00996   0.00996   1.92375
   A15        1.91287  -0.00037   0.00000  -0.00415  -0.00414   1.90873
   A16        1.91357  -0.00040   0.00000  -0.00172  -0.00178   1.91179
   A17        1.91107  -0.00015   0.00000  -0.00267  -0.00267   1.90840
   A18        1.86679  -0.00037   0.00000  -0.00624  -0.00624   1.86056
   A19        1.95499  -0.00015   0.00000   0.00320   0.00322   1.95821
   A20        1.90922  -0.00005   0.00000  -0.00229  -0.00229   1.90693
   A21        1.91344   0.00093   0.00000   0.00919   0.00918   1.92261
   A22        1.90718   0.00005   0.00000  -0.00260  -0.00261   1.90457
   A23        1.91201  -0.00036   0.00000  -0.00214  -0.00219   1.90982
   A24        1.86480  -0.00043   0.00000  -0.00584  -0.00584   1.85896
   A25        1.95982   0.00046   0.00000   0.00306   0.00302   1.96284
   A26        1.90338   0.00074   0.00000   0.00528   0.00528   1.90866
   A27        1.90144   0.00122   0.00000   0.01576   0.01575   1.91720
   A28        1.91610  -0.00136   0.00000  -0.01534  -0.01535   1.90075
   A29        1.91676  -0.00093   0.00000  -0.00542  -0.00550   1.91126
   A30        1.86376  -0.00013   0.00000  -0.00339  -0.00355   1.86022
   A31        1.96023  -0.00005   0.00000   0.00121   0.00115   1.96137
   A32        1.87731   0.00173   0.00000   0.02155   0.02147   1.89878
   A33        1.90765   0.00063   0.00000   0.00293   0.00290   1.91055
   A34        1.92595  -0.00016   0.00000   0.00372   0.00354   1.92949
   A35        1.91797  -0.00123   0.00000  -0.01662  -0.01663   1.90134
   A36        1.87224  -0.00090   0.00000  -0.01269  -0.01275   1.85949
   A37        1.92351   0.00154   0.00000   0.00795   0.00796   1.93147
   A38        1.89954  -0.00192   0.00000  -0.00823  -0.00832   1.89123
   A39        1.86822  -0.00049   0.00000  -0.01014  -0.01016   1.85806
   A40        1.97592   0.00115   0.00000   0.01166   0.01168   1.98759
   A41        1.88909  -0.00069   0.00000  -0.00181  -0.00179   1.88730
   A42        1.90443   0.00033   0.00000  -0.00065  -0.00073   1.90371
   A43        1.89895   0.00214   0.00000   0.01248   0.01231   1.91125
   A44        1.95925  -0.00909   0.00000  -0.05243  -0.05224   1.90701
   A45        1.89601   0.00576   0.00000   0.03323   0.03324   1.92925
   A46        1.89654   0.00283   0.00000   0.01337   0.01336   1.90991
   A47        1.91139  -0.00281   0.00000  -0.01179  -0.01212   1.89927
   A48        1.90138   0.00117   0.00000   0.00530   0.00566   1.90704
   A49        1.89718   0.00147   0.00000   0.00720   0.00700   1.90418
   A50        1.97124  -0.00393   0.00000  -0.02348  -0.02341   1.94783
   A51        1.89289   0.00725   0.00000   0.04285   0.04278   1.93566
   A52        1.88845   0.00000   0.00000  -0.00476  -0.00482   1.88364
   A53        1.90755  -0.00325   0.00000  -0.01465  -0.01499   1.89256
   A54        1.90585  -0.00164   0.00000  -0.00757  -0.00739   1.89846
   A55        2.00486  -0.02995   0.00000  -0.12796  -0.12748   1.87738
   A56        1.89022   0.00958   0.00000   0.03626   0.03476   1.92497
   A57        1.91758   0.00904   0.00000   0.04214   0.04274   1.96033
   A58        1.86611   0.00669   0.00000   0.01461   0.01434   1.88045
   A59        1.86882   0.01009   0.00000   0.04503   0.04586   1.91468
   A60        1.91464  -0.00532   0.00000  -0.00888  -0.01038   1.90425
   A61        2.07271   0.00011   0.00000  -0.00035  -0.00041   2.07230
   A62        1.88178   0.00134   0.00000   0.00513   0.00500   1.88678
   A63        1.87741   0.00041   0.00000   0.01042   0.01037   1.88778
   A64        1.91239  -0.00233   0.00000  -0.02335  -0.02336   1.88903
   A65        1.86814   0.00024   0.00000   0.00519   0.00517   1.87331
   A66        1.83748   0.00030   0.00000   0.00430   0.00428   1.84175
   A67        1.98757   0.00840   0.00000   0.04137   0.04100   2.02857
   A68        1.92368  -0.01675   0.00000  -0.09672  -0.09631   1.82738
   A69        1.86073   0.00376   0.00000   0.03492   0.03423   1.89496
   A70        1.93617   0.00722   0.00000   0.02371   0.02426   1.96044
   A71        1.91883  -0.00551   0.00000  -0.01245  -0.01345   1.90537
   A72        1.82862   0.00220   0.00000   0.00701   0.00748   1.83610
   A73        2.08530  -0.00261   0.00000  -0.00973  -0.00973   2.07557
   A74        2.18537   0.00330   0.00000   0.01219   0.01219   2.19756
   A75        2.01177  -0.00070   0.00000  -0.00264  -0.00264   2.00912
   A76        2.06346  -0.00313   0.00000  -0.01597  -0.01614   2.04732
   A77        1.85120  -0.00032   0.00000   0.00066   0.00080   1.85200
   A78        1.92656   0.00052   0.00000  -0.00940  -0.00970   1.91686
   A79        1.89377   0.00305   0.00000   0.02768   0.02774   1.92151
   A80        1.93566   0.00039   0.00000  -0.00660  -0.00696   1.92870
   A81        1.76697   0.00005   0.00000   0.00958   0.00959   1.77656
    D1        1.17735  -0.00085   0.00000   0.00982   0.01081   1.18816
    D2       -2.91697   0.00175   0.00000  -0.00467  -0.00435  -2.92132
    D3       -0.94181  -0.00176   0.00000  -0.02465  -0.02525  -0.96706
    D4       -1.99090   0.00006   0.00000   0.03828   0.03880  -1.95210
    D5        0.19796   0.00267   0.00000   0.02380   0.02365   0.22161
    D6        2.17312  -0.00085   0.00000   0.00381   0.00274   2.17586
    D7       -3.05139  -0.00025   0.00000  -0.00129  -0.00096  -3.05235
    D8        0.13378  -0.00007   0.00000   0.00387   0.00422   0.13799
    D9        0.11727  -0.00088   0.00000  -0.02910  -0.02944   0.08783
   D10       -2.98075  -0.00070   0.00000  -0.02393  -0.02426  -3.00501
   D11       -2.94609  -0.00209   0.00000  -0.06409  -0.06397  -3.01006
   D12        1.25283   0.00169   0.00000  -0.02674  -0.02607   1.22676
   D13       -0.83819  -0.00297   0.00000  -0.06271  -0.06330  -0.90149
   D14        0.19395   0.00013   0.00000   0.03724   0.03722   0.23117
   D15       -1.89031   0.00392   0.00000   0.07459   0.07512  -1.81519
   D16        2.30186  -0.00074   0.00000   0.03862   0.03789   2.33975
   D17        0.96340  -0.00080   0.00000  -0.01143  -0.01145   0.95195
   D18        3.08476  -0.00045   0.00000  -0.00395  -0.00393   3.08083
   D19       -1.15419  -0.00062   0.00000  -0.00813  -0.00813  -1.16233
   D20        3.08537   0.00015   0.00000   0.00321   0.00321   3.08859
   D21       -1.07645   0.00050   0.00000   0.01069   0.01073  -1.06572
   D22        0.96778   0.00033   0.00000   0.00651   0.00653   0.97431
   D23       -1.15240  -0.00017   0.00000  -0.00265  -0.00268  -1.15509
   D24        0.96896   0.00018   0.00000   0.00482   0.00483   0.97379
   D25        3.01319   0.00001   0.00000   0.00065   0.00063   3.01382
   D26       -0.95473   0.00063   0.00000   0.01122   0.01123  -0.94349
   D27        1.16260   0.00056   0.00000   0.00847   0.00848   1.17108
   D28       -3.08110   0.00054   0.00000   0.00538   0.00537  -3.07573
   D29       -3.07673  -0.00035   0.00000  -0.00402  -0.00402  -3.08075
   D30       -0.95940  -0.00042   0.00000  -0.00677  -0.00677  -0.96617
   D31        1.08009  -0.00044   0.00000  -0.00986  -0.00988   1.07020
   D32        1.16147  -0.00009   0.00000   0.00126   0.00128   1.16275
   D33       -3.00439  -0.00016   0.00000  -0.00149  -0.00148  -3.00586
   D34       -0.96490  -0.00018   0.00000  -0.00458  -0.00459  -0.96949
   D35       -0.96910   0.00062   0.00000   0.00878   0.00881  -0.96030
   D36        1.15866  -0.00029   0.00000  -0.00495  -0.00497   1.15369
   D37       -3.09635   0.00064   0.00000   0.00265   0.00265  -3.09371
   D38       -3.09060  -0.00046   0.00000  -0.00549  -0.00545  -3.09605
   D39       -0.96283  -0.00136   0.00000  -0.01922  -0.01923  -0.98206
   D40        1.06534  -0.00043   0.00000  -0.01162  -0.01161   1.05373
   D41        1.14954   0.00031   0.00000   0.00461   0.00464   1.15418
   D42       -3.00588  -0.00060   0.00000  -0.00912  -0.00914  -3.01502
   D43       -0.97771   0.00033   0.00000  -0.00152  -0.00152  -0.97923
   D44        0.94805  -0.00079   0.00000  -0.01036  -0.01039   0.93766
   D45        3.07054   0.00016   0.00000   0.00963   0.00968   3.08022
   D46       -1.18536   0.00037   0.00000   0.00793   0.00795  -1.17741
   D47       -1.17045  -0.00066   0.00000  -0.00778  -0.00782  -1.17827
   D48        0.95204   0.00028   0.00000   0.01221   0.01225   0.96429
   D49        2.97932   0.00049   0.00000   0.01051   0.01052   2.98984
   D50        3.07524   0.00004   0.00000   0.00197   0.00192   3.07716
   D51       -1.08546   0.00098   0.00000   0.02196   0.02199  -1.06347
   D52        0.94183   0.00119   0.00000   0.02025   0.02026   0.96208
   D53        0.94076  -0.00061   0.00000  -0.00680  -0.00678   0.93398
   D54        3.11724   0.00055   0.00000   0.00758   0.00755   3.12479
   D55       -1.10986  -0.00033   0.00000  -0.00307  -0.00303  -1.11289
   D56       -1.17974  -0.00090   0.00000  -0.00482  -0.00479  -1.18453
   D57        0.99674   0.00026   0.00000   0.00955   0.00955   1.00629
   D58        3.05282  -0.00063   0.00000  -0.00110  -0.00103   3.05179
   D59        3.05926   0.00060   0.00000   0.01152   0.01148   3.07074
   D60       -1.04744   0.00176   0.00000   0.02589   0.02581  -1.02163
   D61        1.00864   0.00088   0.00000   0.01524   0.01523   1.02387
   D62       -0.92624   0.00042   0.00000   0.00690   0.00693  -0.91931
   D63       -3.05823   0.00096   0.00000   0.00349   0.00345  -3.05478
   D64        1.11143   0.00029   0.00000  -0.00192  -0.00193   1.10950
   D65       -3.02071  -0.00164   0.00000  -0.02382  -0.02377  -3.04448
   D66        1.13048  -0.00109   0.00000  -0.02723  -0.02725   1.10324
   D67       -0.98304  -0.00177   0.00000  -0.03265  -0.03263  -1.01567
   D68        1.20131   0.00032   0.00000  -0.00031  -0.00028   1.20104
   D69       -0.93068   0.00086   0.00000  -0.00372  -0.00375  -0.93443
   D70       -3.04420   0.00019   0.00000  -0.00914  -0.00913  -3.05334
   D71        3.04687  -0.00039   0.00000  -0.01093  -0.01089   3.03598
   D72       -1.04955  -0.00233   0.00000  -0.03889  -0.03891  -1.08845
   D73        0.92417  -0.00113   0.00000  -0.02640  -0.02637   0.89780
   D74       -1.09100   0.00096   0.00000   0.00124   0.00124  -1.08976
   D75        1.09577  -0.00097   0.00000  -0.02672  -0.02678   1.06899
   D76        3.06949   0.00022   0.00000  -0.01423  -0.01424   3.05525
   D77        1.01384   0.00107   0.00000   0.00613   0.00617   1.02000
   D78       -3.08257  -0.00086   0.00000  -0.02183  -0.02186  -3.10443
   D79       -1.10885   0.00033   0.00000  -0.00934  -0.00932  -1.11818
   D80        2.23392  -0.00059   0.00000  -0.00353  -0.00368   2.23023
   D81       -0.94705  -0.00065   0.00000  -0.00781  -0.00792  -0.95497
   D82        0.13420   0.00018   0.00000   0.00454   0.00437   0.13856
   D83       -3.04676   0.00012   0.00000   0.00026   0.00013  -3.04663
   D84       -1.96959   0.00059   0.00000   0.00868   0.00895  -1.96065
   D85        1.13263   0.00053   0.00000   0.00441   0.00471   1.13734
   D86        2.20654  -0.00096   0.00000  -0.01128  -0.01141   2.19513
   D87       -0.89311  -0.00074   0.00000  -0.00613  -0.00623  -0.89934
   D88        0.11056   0.00055   0.00000   0.00473   0.00462   0.11518
   D89       -2.98908   0.00077   0.00000   0.00988   0.00980  -2.97929
   D90       -2.00439   0.00010   0.00000  -0.00037  -0.00018  -2.00456
   D91        1.17916   0.00032   0.00000   0.00477   0.00500   1.18416
   D92       -2.88615  -0.00023   0.00000   0.01233   0.01183  -2.87431
   D93       -0.75738   0.00142   0.00000   0.03864   0.03809  -0.71929
   D94        1.14274   0.00155   0.00000   0.04593   0.04531   1.18805
   D95       -0.78852  -0.00196   0.00000  -0.01090  -0.01065  -0.79917
   D96        1.34024  -0.00030   0.00000   0.01541   0.01561   1.35585
   D97       -3.04282  -0.00017   0.00000   0.02270   0.02282  -3.01999
   D98        1.26258   0.00033   0.00000   0.00882   0.00925   1.27183
   D99       -2.89184   0.00198   0.00000   0.03513   0.03550  -2.85633
   D100      -0.99171   0.00211   0.00000   0.04243   0.04272  -0.94899
   D101       1.37414  -0.00623   0.00000  -0.07486  -0.07473   1.29941
   D102      -0.80808   0.00387   0.00000   0.00358   0.00367  -0.80440
   D103      -2.82248   0.00026   0.00000  -0.01138  -0.01149  -2.83397
   D104      -0.79776  -0.00607   0.00000  -0.06051  -0.06047  -0.85823
   D105      -2.97998   0.00403   0.00000   0.01793   0.01794  -2.96204
   D106       1.28880   0.00042   0.00000   0.00297   0.00278   1.29158
   D107      -2.78169  -0.00540   0.00000  -0.05680  -0.05670  -2.83839
   D108       1.31928   0.00470   0.00000   0.02164   0.02171   1.34099
   D109      -0.69512   0.00109   0.00000   0.00668   0.00654  -0.68858
   D110       2.88188  -0.00138   0.00000   0.01751   0.01755   2.89943
   D111       0.77486  -0.00125   0.00000   0.00515   0.00529   0.78015
   D112      -1.15124  -0.00312   0.00000  -0.01759  -0.01745  -1.16869
   D113      -1.18353   0.00233   0.00000   0.01611   0.01615  -1.16738
   D114       2.99264   0.00246   0.00000   0.00375   0.00390   2.99653
   D115       1.06654   0.00059   0.00000  -0.01899  -0.01885   1.04769
   D116       0.88622   0.00075   0.00000   0.01747   0.01719   0.90341
   D117      -1.22080   0.00088   0.00000   0.00511   0.00493  -1.21587
   D118       3.13629  -0.00099   0.00000  -0.01763  -0.01781   3.11847
         Item               Value     Threshold  Converged?
 Maximum Force            0.030065     0.000450     NO 
 RMS     Force            0.004714     0.000300     NO 
 Maximum Displacement     0.708730     0.001800     NO 
 RMS     Displacement     0.089928     0.001200     NO 
 Predicted change in Energy=-1.107317D-02
 GradGradGradGradGradGradGradGradGradGradGradGradGradGradGradGradGradGrad

                          Input orientation:                          
 ---------------------------------------------------------------------
 Center     Atomic      Atomic             Coordinates (Angstroms)
 Number     Number       Type             X           Y           Z
 ---------------------------------------------------------------------
      1          6           0        3.817480   -5.612618   -0.794552
      2          6           0        5.492821   -1.536254    1.037225
      3          6           0       -0.907599   -2.685575   -2.429888
      4          6           0        0.082596   -1.684937   -3.041352
      5          6           0       -0.322070   -3.349189   -1.176184
      6          6           0        1.443730   -2.337680   -3.327491
      7          6           0        1.048349   -3.996318   -1.446829
      8          6           0        2.051351   -3.006730   -2.076730
      9          6           0        3.317605   -7.964332   -1.122909
     10          6           0        4.469866   -6.755975   -2.935375
     11          6           0        5.157184   -2.085629   -0.362085
     12          6           0        3.401136   -3.651295   -2.475659
     13          6           0        4.286897   -4.269234   -1.367281
     14          7           0        3.862672   -6.701600   -1.606272
     15          7           0        4.415042   -3.372610   -0.176195
     16          8           0        5.984699   -0.388576    1.040022
     17          8           0        3.418988   -5.644006    0.375669
     18          8           0        5.327685   -2.369479    1.970313
     19          1           0       -1.852454   -2.182745   -2.185268
     20          1           0       -1.146111   -3.459837   -3.173608
     21          1           0       -0.326036   -1.266047   -3.969879
     22          1           0        0.221476   -0.840962   -2.350366
     23          1           0       -0.213996   -2.594819   -0.383365
     24          1           0       -1.014794   -4.108664   -0.791731
     25          1           0        1.326009   -3.095818   -4.115465
     26          1           0        2.143058   -1.586063   -3.717645
     27          1           0        1.442069   -4.396193   -0.505392
     28          1           0        0.921367   -4.854312   -2.122581
     29          1           0        2.238399   -2.199868   -1.351073
     30          1           0        2.605224   -8.359772   -1.855684
[...]
 12,0.00029395,0.00046995,0.00096994,0.00008832,-0.01525484,-0.12840839
 ,-0.18931640,-0.00164809,-0.01597751,-0.01890105,0.00034216,0.00036596
 ,0.00008653,-0.00430378,0.00286250,-0.00388989,-0.00019932,-0.00037069
 ,-0.00005503,-0.00009757,0.00039679,0.00009945,-0.00061117,-0.00058735
 ,-0.00018994,0.00000818,0.00002421,-0.00001448,0.00001095,-0.00000069,
 -0.00000230,0.00007217,-0.00001453,0.00001489,-0.00009556,0.00004700,-
 0.00003957,-0.00016888,0.00004249,0.00004582,0.00001056,-0.00000103,0.
 00000621,-0.00004482,-0.00016912,0.00028130,-0.00007010,0.00000842,0.0
 0005183,0.00009487,0.00002939,-0.00011217,0.00049782,0.00046038,0.0001
 7949,0.00174317,-0.00069353,0.00024934,-0.00003332,-0.00001236,-0.0000
 1305,-0.00002873,-0.00005281,0.00001993,-0.00002831,-0.00004091,0.0000
 1401,-0.00011297,-0.00024608,0.00020218,-0.00046819,-0.00031793,0.0001
 2402,-0.00002492,0.00012494,0.00001907,-0.00013501,-0.00007387,0.00005
 848,0.00003842,-0.00005275,-0.00002238,0.01689225,0.14123609,0.2060030
 4,-0.00338330,-0.00128576,-0.00238897,0.00011654,0.00010788,-0.0000382
 5,0.00023668,-0.00031847,0.00021307,0.00025708,0.00029501,-0.00005307,
 -0.00061920,-0.00202400,-0.00003815,-0.00000681,-0.00210118,0.00097845
 ,-0.00437762,0.00477658,0.00191481,-0.01870234,-0.02274367,0.00846503,
 0.00003699,-0.00010501,0.00026199,0.00012222,-0.00004015,-0.00022016,-
 0.00041739,-0.00006036,-0.00126560,-0.11352161,-0.10363876,0.05011926,
 0.00725626,0.01843681,-0.00927285,0.00024014,0.00072461,0.00010319,0.0
 0042569,-0.00072506,0.00104876,-0.00000627,-0.00002106,0.00001947,0.00
 162683,0.00065638,-0.00098426,-0.00000960,0.00006434,-0.00001838,0.000
 00096,0.00017407,-0.00008526,-0.00000039,0.00001191,-0.00004696,0.0000
 1043,0.00004240,0.00000767,0.00004725,-0.00004325,-0.00001898,0.000006
 04,0.00008754,0.00007819,-0.00083566,0.00021735,0.00010345,-0.00001758
 ,-0.00000509,-0.00025454,-0.00002989,0.00125585,-0.00033076,0.00018184
 ,-0.00001574,0.00007761,0.00024651,0.00017226,-0.00020927,0.00043611,0
 .00039356,0.00029381,0.00006356,0.00010438,-0.00003048,0.00000131,-0.0
 0005053,-0.00001832,-0.00000882,0.00004709,0.00000276,-0.00002547,0.00
 001979,0.00003931,-0.00005149,0.00002575,0.00003332,0.00000951,0.00003
 257,0.00007951,-0.00076095,-0.00085237,-0.00086485,-0.00010196,-0.0000
 3404,0.00037644,-0.00166040,-0.00221335,0.00079697,0.13201305,0.002796
 15,0.00205786,0.00031113,0.00037003,0.00008740,-0.00010581,0.00005945,
 0.00018992,-0.00005178,-0.00006745,0.00017117,-0.00012386,0.00056187,0
 .00020554,0.00013859,0.00227343,0.00101403,-0.00021865,0.00127892,-0.0
 0021226,-0.00012393,0.00562454,0.00781316,-0.00367271,0.00002367,0.000
 19940,-0.00028888,0.00000952,0.00013295,0.00028655,-0.00099694,-0.0002
 5313,-0.00088407,-0.10220800,-0.20496508,0.07444797,-0.00465497,-0.012
 61986,0.00596055,-0.00008904,-0.00064904,0.00012728,0.00018293,0.00013
 376,-0.00001760,-0.00001202,0.00000613,0.00002654,-0.00087645,-0.00058
 183,0.00087749,-0.00012632,0.00018540,-0.00006206,-0.00003598,-0.00000
 394,-0.00001417,0.00000925,0.00000024,-0.00000756,-0.00007060,0.000036
 16,0.00001147,-0.00000488,0.00000488,0.00000660,-0.00007623,0.00002629
 ,0.00002833,0.00011043,-0.00002823,0.00001275,-0.00025396,-0.00005279,
 -0.00000117,0.00006545,0.00004066,-0.00031822,0.00003988,-0.00009996,-
 0.00002967,0.00016667,0.00013583,0.00011608,-0.00046311,0.00015562,0.0
 0008603,-0.00007846,-0.00011313,0.00003207,-0.00000781,0.00003218,0.00
 001935,-0.00000106,-0.00008442,0.00000735,0.00001917,-0.00010448,0.000
 01950,-0.00010291,-0.00021532,0.00001880,-0.00002230,0.00006300,-0.000
 08170,-0.00020319,-0.00014492,-0.00083255,-0.00003052,0.00005395,0.000
 12100,-0.01093680,-0.01753830,0.00843054,0.10797473,0.22472968,-0.0049
 9796,-0.00147983,-0.00156040,-0.00115531,-0.00022830,-0.00048817,-0.00
 004659,-0.00001618,-0.00002280,-0.00004847,-0.00003812,-0.00034968,0.0
 0009273,0.00063633,0.00026006,-0.00213672,0.00057029,0.00070067,0.0004
 0131,-0.00162539,-0.00017984,0.00648700,0.00773696,-0.00317837,0.00011
 290,-0.00008297,0.00038929,0.00021619,-0.00003631,-0.00028468,0.000658
 38,-0.00012321,-0.00058743,0.05074023,0.07426446,-0.08509154,0.0093908
 5,0.02396111,-0.01388098,0.00051663,0.00099999,-0.00012505,0.00097490,
 0.00021997,0.00124266,0.00036147,0.00027927,0.00016863,0.00138770,0.00
 051678,-0.00071585,0.00051487,-0.00022610,0.00038906,0.00000524,-0.000
 03585,0.00003545,-0.00000379,-0.00000582,0.00001162,-0.00007857,0.0000
 1851,0.00000377,0.00004392,0.00000239,-0.00000766,-0.00008018,0.000006
 11,0.00000835,0.00021880,-0.00007469,-0.00002347,0.00001255,-0.0002017
 4,0.00007206,-0.00012629,-0.00036867,0.00047825,-0.00012822,-0.0000751
 4,-0.00001864,0.00015821,0.00026018,0.00022703,-0.00019597,0.00003707,
 -0.00007702,0.00007307,0.00014017,-0.00006268,0.00000490,-0.00006265,-
 0.00001225,-0.00002597,0.00005167,0.00000593,-0.00005435,-0.00001733,0
 .00011901,-0.00010340,-0.00010931,-0.00001865,-0.00001140,0.00012888,0
 .00010558,-0.00146541,-0.00073553,-0.00045255,-0.00011508,-0.00011290,
 0.00002392,-0.01238665,-0.01955666,0.01046014,-0.04930084,-0.08414832,
 0.09138129,-0.00785174,0.00365266,0.00423195,0.00017464,-0.00023317,0.
 00018579,0.00005560,0.00004605,0.00005588,0.00006063,0.00023412,-0.000
 41297,0.00001417,-0.00013220,-0.00004283,-0.00102183,-0.00002873,0.000
 75097,0.00016653,0.00022659,0.00003909,0.00107547,0.00082368,-0.003863
 24,0.00013324,-0.00016834,-0.00014996,-0.00037768,0.00024397,0.0008593
 1,0.00055640,0.00000007,-0.00014768,-0.01829257,0.00368343,0.00536057,
 -0.28114798,0.03420496,0.09655286,0.00026264,-0.00077625,0.00044094,0.
 00626203,-0.00178625,-0.00361325,0.00007791,0.00021980,-0.00002322,-0.
 00028094,-0.00208077,0.00074063,0.00015905,0.00038293,0.00015503,-0.00
 004527,-0.00000057,-0.00000294,-0.00000075,-0.00001335,-0.00001578,-0.
 00018414,0.00007959,0.00001591,-0.00000465,0.00000613,0.00003539,-0.00
 000435,0.00002018,0.00001302,-0.00008245,-0.00000282,0.00001864,-0.000
 00740,-0.00002420,-0.00006141,0.00004305,0.00006706,-0.00002142,0.0000
 6684,-0.00002381,0.00000965,-0.00004140,-0.00003506,-0.00004141,0.0002
 3132,-0.00002919,0.00017998,-0.00001507,-0.00000575,-0.00005975,0.0000
 4551,0.00014545,-0.00000454,-0.00003907,-0.00005211,0.00002693,0.00025
 198,0.00042335,-0.00016853,0.00114173,0.00016674,-0.00067492,0.0001308
 7,0.00015632,-0.00011928,0.00001945,0.00050398,0.00007764,0.00003830,0
 .00004415,-0.00003669,0.00037703,-0.00030704,0.00004209,0.00133492,-0.
 00010101,0.00025421,0.29579429,-0.02532273,0.01133437,0.00942385,-0.00
 015543,-0.00005764,-0.00007000,-0.00005413,-0.00000870,-0.00001092,-0.
 00003736,-0.00013279,0.00019350,0.00004155,0.00014994,-0.00003727,0.00
 057129,0.00000211,-0.00027483,0.00020047,-0.00029095,0.00006524,0.0002
 8929,0.00014177,0.00246725,0.00061681,-0.00023903,0.00023049,-0.000464
 17,-0.00209351,-0.00031198,0.00143460,0.00122375,-0.00065913,0.0145240
 4,-0.00281705,-0.00327483,0.02635088,-0.05520839,-0.01220409,0.0013718
 1,-0.00066331,-0.00040945,0.02149028,-0.00777161,-0.01739439,0.0000492
 7,0.00005054,0.00001938,-0.00080557,-0.00544181,0.00524526,-0.00017710
 ,-0.00015769,0.00005424,0.00001213,0.00000878,-0.00000538,0.00000201,0
 .00000469,0.00000737,0.00008801,-0.00003931,-0.00000758,0.00000221,-0.
 00000285,-0.00001541,-0.00000162,-0.00000600,-0.00000243,0.00005106,-0
 .00000955,-0.00001211,0.00000937,0.00000741,0.00002506,-0.00002681,-0.
 00002927,-0.00000560,0.00011473,0.00008353,-0.00002657,0.00000461,0.00
 003313,-0.00001189,-0.00032150,0.00006566,-0.00007643,0.00004766,0.000
 07998,-0.00007166,0.00008819,0.00019499,-0.00003571,-0.00004947,-0.000
 18044,0.00010137,0.00001076,-0.00016587,-0.00013694,-0.00056835,-0.002
 35653,-0.00232000,0.00020581,0.00039723,-0.00023813,-0.00023458,-0.000
 00077,0.00063274,-0.00009997,-0.00003146,0.00030358,-0.00047522,0.0004
 3544,-0.00013626,0.00038167,0.00029427,-0.00080167,-0.03814039,0.06585
 164,0.01101418,-0.00035071,-0.00564449,0.00031454,-0.00026330,0.000349
 94,0.00007558,0.00004124,0.00005074,0.00005265,0.00027053,-0.00045128,
 -0.00001277,-0.00019721,-0.00001841,-0.00114864,0.00009592,0.00077676,
 0.00008176,0.00036599,0.00001522,-0.00035854,0.00117249,-0.00426598,-0
 .00019208,-0.00000308,-0.00013781,-0.00047115,-0.00151348,-0.00013110,
 0.00056263,0.00117007,0.00004782,-0.02467405,0.00564703,0.00847102,0.0
 8836940,-0.01484527,-0.08174891,-0.00003209,-0.00012386,-0.00050984,0.
 02543568,-0.00896334,-0.01934351,-0.00011375,0.00001729,-0.00014247,0.
 00058788,0.00230039,-0.00087025,-0.00041063,0.00023471,0.00002127,-0.0
 0004038,-0.00000418,-0.00000033,-0.00000211,-0.00001299,-0.00001621,-0
 .00020532,0.00008947,0.00000798,0.00000379,0.00000330,0.00003299,0.000
 00155,0.00001858,0.00001307,-0.00010146,0.00000383,0.00002075,-0.00000
 604,-0.00004053,-0.00006359,0.00006079,0.00007048,-0.00001742,-0.00002
 278,-0.00007667,0.00001412,-0.00002345,-0.00004590,-0.00002871,0.00017
 721,0.00008091,0.00018033,-0.00001816,-0.00005148,0.00010307,0.0000044
 0,-0.00005491,-0.00004505,0.00004883,0.00003239,-0.00003659,-0.0000996
 2,-0.00014960,0.00001476,-0.00058261,-0.00242756,-0.00071836,0.0000683
 3,0.00017122,-0.00003522,-0.00025832,0.00001825,0.00055801,-0.00006173
 ,-0.00007170,0.00013221,0.00054244,-0.00058854,0.00074772,0.00033920,-
 0.00001794,0.00100116,-0.09946884,0.02131370,0.10457181,0.00048000,-0.
 00455518,-0.00247795,0.00656316,-0.02841257,0.01611622,0.00000777,-0.0
 0004272,-0.00009084,-0.00006771,-0.00005792,0.00019711,-0.00004907,0.0
 0012850,0.00011132,0.00033471,0.00013686,-0.00034064,0.00003781,-0.000
 23496,-0.00006870,-0.00056264,0.00001298,0.00047358,-0.00039869,-0.000
 36161,0.00049124,0.00027090,0.00000617,-0.00054011,0.01152112,0.007081
 21,0.00243034,0.00051325,0.00336614,0.00189997,0.00297196,-0.00933846,
 -0.00258026,-0.00010892,0.00231869,0.00055716,-0.15480718,0.06001942,-
 0.07799940,0.00048958,0.01079235,-0.00517061,0.00147195,0.00299765,0.0
 0211902,0.00105836,0.02286308,0.00094917,0.00006036,-0.00001702,0.0000
 1823,-0.00000514,0.00001256,0.00001974,0.00011682,-0.00006765,0.000012
 22,0.00001482,-0.00000443,-0.00003276,0.00000983,-0.00002934,-0.000019
 67,0.00011729,0.00000457,-0.00001706,-0.00000075,0.00000195,0.00006263
 ,-0.00002242,-0.00002294,0.00001745,-0.00013920,-0.00005576,0.00000787
 ,0.00003464,0.00003855,0.00006212,-0.00018795,0.00007648,-0.00012846,0
 .00010730,0.00022991,0.00001971,-0.00002641,-0.00017575,0.00000206,0.0
 0003218,0.00026354,-0.00004340,-0.00009689,0.00017980,0.00014161,0.000
 12865,-0.00006778,-0.00011351,-0.00000705,0.00009920,0.00020185,-0.001
 49949,-0.00180617,0.00012263,-0.00198681,-0.00251424,-0.00070238,0.000
 94068,-0.00032190,0.00126148,-0.00014320,-0.00019476,-0.00025729,0.000
 30997,0.00067207,0.00174173,0.15391078,-0.00078820,-0.00066877,-0.0032
 1112,-0.00474149,-0.02079745,0.00399630,0.00001096,0.00000875,0.000008
 72,0.00001741,0.00002049,-0.00002571,-0.00000505,-0.00004840,0.0000108
 5,-0.00006376,-0.00001654,0.00006447,-0.00000851,0.00010328,-0.0000007
 0,0.00038041,-0.00018036,-0.00013258,-0.00007315,-0.00007656,0.0000837
 5,0.00012680,0.00008282,-0.00015146,0.01506537,-0.02791173,0.01992188,
 -0.00016022,-0.00344261,-0.00244766,-0.01595333,0.00859076,-0.01349154
 ,-0.00008470,0.00023298,0.00030543,0.07186531,-0.08715397,0.05659730,0
 .00139063,0.00488696,0.00034935,0.00035744,-0.00009111,0.00144667,0.00
 888382,0.00212575,0.00222799,-0.00000968,-0.00000171,0.00000006,0.0000
 0075,-0.00000247,-0.00000396,-0.00002266,0.00001242,-0.00000330,-0.000
 00893,0.00000284,0.00000598,-0.00000285,0.00000513,0.00000098,-0.00002
 580,0.00000055,0.00000275,0.00000989,-0.00000252,0.00001403,0.00000767
 ,0.00000552,-0.00000286,-0.00002348,-0.00001280,0.00000404,0.00000631,
 0.00000337,0.00000550,-0.00000154,0.00000693,0.00012207,0.00002418,0.0
 0004425,0.00000690,-0.00001337,-0.00005279,0.00001159,0.00000093,0.000
 04045,-0.00000529,-0.00003821,-0.00000054,0.00004995,-0.00004093,0.000
 00989,-0.00000109,-0.00000995,0.00002966,0.00007452,-0.00015124,-0.001
 64746,0.00009047,-0.00204439,-0.00329897,0.00153507,-0.00065299,0.0005
 0560,-0.00091333,0.00014783,-0.00002084,0.00016367,0.00016771,0.000830
 79,0.00012662,-0.07417885,0.12825391,-0.00046591,-0.00263793,0.0006845
 0,0.00643532,-0.01363374,0.01172366,0.00000102,-0.00003372,-0.00006688
 ,-0.00006419,-0.00002260,0.00014784,-0.00004782,0.00010022,0.00008013,
 0.00021538,0.00028017,-0.00008776,-0.00005828,-0.00015064,0.00008865,0
 .00000933,-0.00050753,0.00007314,-0.00025297,-0.00016686,0.00034136,0.
 00018051,-0.00002725,-0.00028349,-0.00124838,0.02023024,-0.00678383,0.
 00062448,-0.00214020,-0.00141765,-0.01474975,0.00250751,-0.01898415,0.
 00032462,0.00141029,-0.00000682,-0.08635684,0.05097953,-0.13881636,-0.
 00215343,0.00683312,-0.00222741,0.00013179,0.00183333,-0.00018618,0.00
 547870,0.01214567,-0.01122069,0.00004575,-0.00001056,0.00001224,-0.000
 00403,0.00000917,0.00001452,0.00008754,-0.00004888,0.00000911,0.000003
 27,0.00000474,-0.00002741,-0.00000165,-0.00002216,-0.00000885,0.000086
 98,0.00000305,-0.00001194,0.00005235,-0.00007530,0.00013976,-0.0000242
 9,-0.00002438,0.00000857,-0.00008868,-0.00003791,-0.00000493,0.0000893
 1,0.00009591,0.00006228,-0.00031689,0.00036104,0.00031484,0.00007081,0
 .00015453,-0.00000236,-0.00001758,-0.00009263,-0.00000980,0.00002982,0
 .00017097,-0.00002475,-0.00003325,0.00013502,0.00006623,0.00009194,-0.
 00003709,-0.00015976,0.00000127,0.00008463,0.00011874,-0.00079145,-0.0
 0009874,-0.00053754,-0.00076143,-0.00114180,-0.00091697,-0.00020231,0.
 00042003,-0.00004452,0.00015553,-0.00007379,0.00014996,0.00033686,0.00
 108907,0.00053154,0.07886763,-0.06782366,0.15015658,0.00139588,-0.0005
 6812,-0.00167064,-0.00167601,-0.00092997,-0.00071822,0.00000513,-0.000
 01681,-0.00004453,-0.00004769,0.00000659,0.00004750,-0.00006423,0.0000
 2173,0.00005127,-0.00004005,0.00055099,0.00029525,-0.00021437,-0.00001
 879,0.00006313,0.00016975,-0.00103044,-0.00105069,0.00003528,-0.000157
 10,0.00002619,0.00016122,0.00010143,-0.00006377,-0.00295637,-0.0006798
 8,0.00004591,0.00076024,-0.00036253,-0.00058257,0.00786699,0.00360214,
 -0.00059539,-0.00033547,0.00039959,0.00098732,-0.30902817,0.00982485,0
 .15479877,0.00037499,0.00029195,0.00025680,-0.00354982,-0.00111333,0.0
 0039016,0.00093244,-0.00034041,-0.00094636,0.00002993,-0.00001271,0.00
 001012,-0.00000331,0.00000424,0.00001077,0.00004018,-0.00002594,0.0000
 0108,0.00000374,0.00001011,-0.00001798,-0.00001148,-0.00000753,0.00000
 194,0.00004958,0.00000686,0.,0.00009154,-0.00013949,0.00018859,-0.0000
 2301,-0.00006040,0.00000568,-0.00009924,-0.00014609,-0.00005151,0.0001
 2579,0.00009325,0.00008966,-0.00103664,0.00107297,-0.00031523,0.000015
 04,0.00002057,0.00000289,-0.00003317,-0.00005343,0.00001011,-0.0000203
 0,0.00000679,0.00000822,-0.00003573,0.00000109,0.00005030,-0.00002316,
 0.00005179,0.00006824,-0.00004036,0.00001454,0.00010463,0.00072056,0.0
 0069533,-0.00098817,0.00140093,0.00086286,-0.00045022,-0.00035940,0.00
 012241,-0.00003964,0.00001005,0.00004865,0.00009240,0.00061372,-0.0016
 9616,-0.00117805,-0.02139438,0.00063986,0.01431898,0.32618936,0.005150
 75,-0.00380277,-0.01045970,-0.00020241,-0.00274873,0.00191626,0.000055
 21,0.00000737,-0.00001309,0.00003397,0.00002705,-0.00004319,-0.0000252
 9,-0.00007998,0.00010183,-0.00008914,-0.00023388,-0.00005769,0.0000780
 4,0.00018023,-0.00043141,-0.00027057,0.00086535,0.00050858,-0.00030106
 ,-0.00045713,0.00040447,0.00058423,0.00034698,-0.00081145,-0.02652452,
 0.00114981,0.01720434,-0.00062690,0.00012932,0.00084081,0.02057028,-0.
 00102544,-0.01079820,-0.00102653,0.00279116,0.00278425,0.00881196,-0.0
 5250771,-0.00892089,-0.00036895,-0.00001329,-0.00108492,-0.00297482,0.
 00396994,0.00557847,0.00059499,0.00152234,0.00079212,-0.00000528,-0.00
 001863,0.00001164,-0.00000110,-0.00000289,-0.00000380,-0.00003695,0.00
 001194,-0.00000469,0.00000057,-0.00001003,0.00000359,0.00001017,0.0000
 0363,-0.00001223,-0.00002054,0.00000333,0.00000098,-0.00003245,0.00004
 085,-0.00009600,0.00001217,-0.00000276,0.00002309,-0.00021912,-0.00021
 863,-0.00000358,-0.00004775,-0.00012467,0.00004026,0.00061055,-0.00051
 225,0.00000795,0.00008518,0.00019888,0.00006781,-0.00011283,-0.0003320
 7,0.00005807,-0.00002304,0.00022068,-0.00000502,-0.00020362,0.00004122
 ,0.00025700,-0.00014227,-0.00010002,0.00017665,-0.00010089,0.00001512,
 0.00035982,-0.00266602,-0.00404572,-0.00035667,0.00078072,0.00087958,0
 .00041475,0.00000681,-0.00007792,-0.00008509,0.00012751,-0.00008195,0.
 00016885,-0.00155793,-0.00348548,-0.00344216,0.01115835,-0.00037550,-0
 .01004085,-0.01109148,0.05785267,0.00079197,-0.00071249,-0.00007187,0.
 00022059,0.00089508,0.00005769,-0.00001120,-0.00004292,-0.00008044,-0.
 00011280,0.00000428,0.00012496,-0.00006966,0.00012927,0.00007531,0.000
 04658,0.00071132,0.00024168,-0.00021659,-0.00024543,0.00030035,-0.0002
 0893,-0.00092703,-0.00109921,-0.00008012,0.00008310,0.00007461,0.00018
 693,-0.00007595,-0.00019347,0.00351156,0.00138852,-0.00345852,0.001012
 23,0.00065960,0.00029222,0.02527325,-0.00722588,-0.01829653,0.00044766
 ,0.00016512,-0.00061355,0.15440392,-0.00876669,-0.15139457,-0.00065065
 ,-0.00093735,-0.00022440,0.00004094,0.00235331,-0.00109236,-0.00109532
 ,-0.00188179,-0.00203538,0.00005956,-0.00001148,0.00001438,-0.00000485
 ,0.00001168,0.00001754,0.00009634,-0.00005837,0.00001143,0.00000927,0.
 00000934,-0.00003406,-0.00000080,-0.00002825,-0.00000823,0.00011350,0.
 00000456,-0.00001409,0.00013183,-0.00018917,0.00028018,-0.00003103,-0.
 00006072,-0.00000030,-0.00007219,-0.00006139,-0.00003981,0.00016972,0.
 00019353,0.00007652,-0.00127212,0.00120606,0.00063742,0.00001302,0.000
 02067,-0.00000970,-0.00001155,-0.00002123,0.00001153,0.00000610,0.0000
 4554,0.00000811,-0.00002791,-0.00004206,-0.00003055,-0.00007302,-0.000
 10505,0.00008127,-0.00003100,-0.00006962,0.00002444,0.00045532,0.00112
 790,0.00030752,-0.00096270,-0.00081338,0.00080879,-0.00000128,-0.00003
 600,0.00047354,-0.00006788,-0.00001154,-0.00009616,-0.00145468,-0.0026
 2144,-0.00343673,-0.01732106,0.00098733,0.01710640,-0.16321297,0.01494
 903,0.16120403\\0.00000429,-0.00000194,-0.00000900,-0.00000394,0.00004
 237,-0.00002485,-0.00000144,-0.00000087,0.00000274,-0.00000350,-0.0000
 0183,0.00000201,0.00000282,-0.00000360,0.00000416,-0.00000178,-0.00000
 178,0.00000009,-0.00000550,0.00000105,0.00000458,0.00000105,-0.0000084
 7,0.00000264,0.00000048,-0.00000025,-0.00000043,-0.00000176,0.00000182
 ,0.00000288,-0.00000159,0.00000211,0.00001038,-0.00000617,0.00000308,-
 0.00001295,0.00000505,0.00001775,0.00002488,0.00000367,0.00000214,0.00
 000086,-0.00002686,-0.00001463,-0.00004762,0.00000015,-0.00001235,-0.0
 0000331,0.00000126,0.00000508,0.00000724,0.00001320,-0.00001562,0.0000
 0895,-0.00000207,-0.00000299,0.00000501,-0.00000326,-0.00000364,0.0000
 0436,-0.00000463,-0.00000285,0.00000206,-0.00000178,-0.00000190,0.0000
 0154,0.00000035,-0.00000122,0.00000395,0.00000024,-0.00000183,0.000005
 55,-0.00000389,-0.00000145,-0.00000018,-0.00000357,-0.00000089,-0.0000
 0143,0.00000182,-0.00000032,0.00000196,-0.00000008,-0.00000184,0.00000
 177,0.00000211,0.00000252,0.00000120,0.00000370,-0.00000091,0.00000183
 ,0.00000540,0.00000158,0.00000141,0.00000398,0.00000003,0.00000127,0.0
 0000222,-0.00000020,-0.00000199,-0.00000193,-0.00000222,-0.00000275,-0
 .00000087,-0.00000218,0.00000089,0.00000019,0.00000170,-0.00000640,-0.
 00000097,0.00000090,-0.00000706,-0.00000254,-0.00000029,0.00000149,-0.
 00000235,0.,0.00000130,0.00000093,-0.00000208,-0.00000472,0.00002208,0
 .00000033,0.00001452,0.00000548,0.00000571,0.00000118\\\@


 TO SEE A WORLD IN A GRAIN OF SAND
 AND A HEAVEN IN A WILD FLOWER
 HOLD INFINITY IN THE PALM OF YOUR HAND
 AND ETERNITY IN AN HOUR

                       -- WILLIAM BLAKE
 Job cpu time:  0 days  8 hours  7 minutes 40.2 seconds.
 File lengths (MBytes):  RWF=    628 Int=      0 D2E=      0 Chk=     19 Scr=      1
 Normal termination of Gaussian 09 at Sat Feb 17 20:46:56 2018.
