 Entering Gaussian System, Link 0=g09
 Initial command:
 /home/fb_chem/chemsoft/lx24-amd64/Gaussian_09_C.01_NBO_3.1_64_istanbul-64/g09/l1.exe /local/2426253.1.parallel/Gau-7557.inp -scrdir=/local/2426253.1.parallel/
 Entering Link 1 = /home/fb_chem/chemsoft/lx24-amd64/Gaussian_09_C.01_NBO_3.1_64_istanbul-64/g09/l1.exe PID=      7560.
  
 Copyright (c) 1988,1990,1992,1993,1995,1998,2003,2009,2011,
            Gaussian, Inc.  All Rights Reserved.
  
 This is part of the Gaussian(R) 09 program.  It is based on
 the Gaussian(R) 03 system (copyright 2003, Gaussian, Inc.),
 the Gaussian(R) 98 system (copyright 1998, Gaussian, Inc.),
 the Gaussian(R) 94 system (copyright 1995, Gaussian, Inc.),
 the Gaussian 92(TM) system (copyright 1992, Gaussian, Inc.),
 the Gaussian 90(TM) system (copyright 1990, Gaussian, Inc.),
 the Gaussian 88(TM) system (copyright 1988, Gaussian, Inc.),
 the Gaussian 86(TM) system (copyright 1986, Carnegie Mellon
 University), and the Gaussian 82(TM) system (copyright 1983,
 Carnegie Mellon University). Gaussian is a federally registered
 trademark of Gaussian, Inc.
  
 This software contains proprietary and confidential information,
 including trade secrets, belonging to Gaussian, Inc.
  
 This software is provided under written license and may be
 used, copied, transmitted, or stored only in accord with that
 written license.
  
 The following legend is applicable only to US Government
 contracts under FAR:
  
                    RESTRICTED RIGHTS LEGEND
  
 Use, reproduction and disclosure by the US Government is
 subject to restrictions as set forth in subparagraphs (a)
 and (c) of the Commercial Computer Software - Restricted
 Rights clause in FAR 52.227-19.
  
 Gaussian, Inc.
 340 Quinnipiac St., Bldg. 40, Wallingford CT 06492
  
  
 ---------------------------------------------------------------
 Warning -- This program may not be used in any manner that
 competes with the business of Gaussian, Inc. or will provide
 assistance to any competitor of Gaussian, Inc.  The licensee
 of this program is prohibited from giving any competitor of
 Gaussian, Inc. access to this program.  By using this program,
 the user acknowledges that Gaussian, Inc. is engaged in the
 business of creating and licensing software in the field of
 computational chemistry and represents and warrants to the
 licensee that it is not a competitor of Gaussian, Inc. and that
 it will not use this program in any manner prohibited above.
 ---------------------------------------------------------------
  

 Cite this work as:
 Gaussian 09, Revision C.01,
 M. J. Frisch, G. W. Trucks, H. B. Schlegel, G. E. Scuseria, 
 M. A. Robb, J. R. Cheeseman, G. Scalmani, V. Barone, B. Mennucci, 
 G. A. Petersson, H. Nakatsuji, M. Caricato, X. Li, H. P. Hratchian, 
 A. F. Izmaylov, J. Bloino, G. Zheng, J. L. Sonnenberg, M. Hada, 
 M. Ehara, K. Toyota, R. Fukuda, J. Hasegawa, M. Ishida, T. Nakajima, 
 Y. Honda, O. Kitao, H. Nakai, T. Vreven, J. A. Montgomery, Jr., 
 J. E. Peralta, F. Ogliaro, M. Bearpark, J. J. Heyd, E. Brothers, 
 K. N. Kudin, V. N. Staroverov, T. Keith, R. Kobayashi, J. Normand, 
 K. Raghavachari, A. Rendell, J. C. Burant, S. S. Iyengar, J. Tomasi, 
 M. Cossi, N. Rega, J. M. Millam, M. Klene, J. E. Knox, J. B. Cross, 
 V. Bakken, C. Adamo, J. Jaramillo, R. Gomperts, R. E. Stratmann, 
 O. Yazyev, A. J. Austin, R. Cammi, C. Pomelli, J. W. Ochterski, 
 R. L. Martin, K. Morokuma, V. G. Zakrzewski, G. A. Voth, 
 P. Salvador, J. J. Dannenberg, S. Dapprich, A. D. Daniels, 
 O. Farkas, J. B. Foresman, J. V. Ortiz, J. Cioslowski, 
 and D. J. Fox, Gaussian, Inc., Wallingford CT, 2010.
 
 ******************************************
 Gaussian 09:  AM64L-G09RevC.01 23-Sep-2011
                26-Feb-2018 
 ******************************************
 %nprocs=4
 Will use up to    4 processors via shared memory.
 %chk=frag2-conf1.chk
 ---------------------------------------------------------
 #B3LYP/6-31G* Integral=(Grid=UltraFine) freq Opt pop=none
 ---------------------------------------------------------
 1/14=-1,18=20,19=15,26=3,38=1/1,3;
 2/9=110,12=2,17=6,18=5,40=1/2;
 3/5=1,6=6,7=1,11=2,16=1,25=1,30=1,71=1,74=-5,75=-5/1,2,3;
 4//1;
 5/5=2,38=5/2;
 7//1,2,3,16;
 1/14=-1,18=20,19=15/3(2);
 2/9=110/2;
 99//99;
 2/9=110/2;
 3/5=1,6=6,7=1,11=2,16=1,25=1,30=1,71=1,74=-5,75=-5/1,2,3;
 4/5=5,16=3/1;
 5/5=2,38=5/2;
 7//1,2,3,16;
 1/14=-1,18=20,19=15/3(-5);
 2/9=110/2;
 99/9=1/99;
 ----------------------------
 Optimization for frag2-conf1
 ----------------------------
 Charge =  0 Multiplicity = 1
 Symbolic Z-Matrix:
 C                     0.00773   1.71861  -1.65093 
 C                     3.06688  -0.12746  -1.45736 
 C                    -1.53954  -3.07356  -2.457 
 C                    -0.22089   0.4383   -0.85137 
 N                     2.30751  -0.71618  -0.35 
 N                    -0.46058  -0.69426  -1.84318 
 O                    -1.78043  -1.95875  -0.07658 
 O                     0.50065  -2.77466  -0.80326 
 O                     0.6434   -0.60602   1.51099 
 O                     1.75921   1.49647   0.73729 
 S                    -0.78947  -2.18516  -1.11083 
 S                     1.13      0.22427   0.41981 
 H                     0.93708   1.67615  -2.22605 
 H                    -0.81124   1.88427  -2.35946 
 H                     0.06037   2.59141  -0.99234 
 H                     3.40929   0.88217  -1.21889 
 H                     2.47604  -0.11876  -2.37486 
 H                     3.95184  -0.74531  -1.63724 
 H                    -1.79037  -4.07484  -2.1005 
 H                    -2.44644  -2.54969  -2.76419 
 H                    -0.82464  -3.1397   -3.27909 
 H                    -1.13771   0.57351  -0.26461 
 H                     1.9359   -1.66209  -0.54397 
 H                     0.36759  -0.80177  -2.44017 
 

 GradGradGradGradGradGradGradGradGradGradGradGradGradGradGradGradGradGrad
 Berny optimization.
 Initialization pass.
                           ----------------------------
                           !    Initial Parameters    !
                           ! (Angstroms and Degrees)  !
 --------------------------                            --------------------------
 ! Name  Definition              Value          Derivative Info.                !
 --------------------------------------------------------------------------------
 ! R1    R(1,4)                  1.5267         estimate D2E/DX2                !
 ! R2    R(1,13)                 1.0937         estimate D2E/DX2                !
 ! R3    R(1,14)                 1.0955         estimate D2E/DX2                !
 ! R4    R(1,15)                 1.0947         estimate D2E/DX2                !
 ! R5    R(2,5)                  1.4661         estimate D2E/DX2                !
 ! R6    R(2,16)                 1.0925         estimate D2E/DX2                !
 ! R7    R(2,17)                 1.0913         estimate D2E/DX2                !
 ! R8    R(2,18)                 1.0942         estimate D2E/DX2                !
 ! R9    R(3,11)                 1.7788         estimate D2E/DX2                !
 ! R10   R(3,19)                 1.092          estimate D2E/DX2                !
 ! R11   R(3,20)                 1.0914         estimate D2E/DX2                !
 ! R12   R(3,21)                 1.0915         estimate D2E/DX2                !
 ! R13   R(4,6)                  1.5244         estimate D2E/DX2                !
 ! R14   R(4,12)                 1.8673         estimate D2E/DX2                !
 ! R15   R(4,22)                 1.0969         estimate D2E/DX2                !
 ! R16   R(5,12)                 1.6922         estimate D2E/DX2                !
 ! R17   R(5,23)                 1.0346         estimate D2E/DX2                !
 ! R18   R(6,11)                 1.6933         estimate D2E/DX2                !
 ! R19   R(6,24)                 1.0266         estimate D2E/DX2                !
 ! R20   R(7,11)                 1.4501         estimate D2E/DX2                !
 ! R21   R(8,11)                 1.4514         estimate D2E/DX2                !
 ! R22   R(9,12)                 1.4549         estimate D2E/DX2                !
 ! R23   R(10,12)                1.4544         estimate D2E/DX2                !
 ! A1    A(4,1,13)             111.7201         estimate D2E/DX2                !
 ! A2    A(4,1,14)             110.7066         estimate D2E/DX2                !
 ! A3    A(4,1,15)             111.1472         estimate D2E/DX2                !
 ! A4    A(13,1,14)            107.5173         estimate D2E/DX2                !
 ! A5    A(13,1,15)            107.8455         estimate D2E/DX2                !
 ! A6    A(14,1,15)            107.7275         estimate D2E/DX2                !
 ! A7    A(5,2,16)             111.6277         estimate D2E/DX2                !
 ! A8    A(5,2,17)             110.9646         estimate D2E/DX2                !
 ! A9    A(5,2,18)             108.4414         estimate D2E/DX2                !
 ! A10   A(16,2,17)            110.2335         estimate D2E/DX2                !
 ! A11   A(16,2,18)            107.712          estimate D2E/DX2                !
 ! A12   A(17,2,18)            107.7081         estimate D2E/DX2                !
 ! A13   A(11,3,19)            107.9224         estimate D2E/DX2                !
 ! A14   A(11,3,20)            108.8847         estimate D2E/DX2                !
 ! A15   A(11,3,21)            108.9103         estimate D2E/DX2                !
 ! A16   A(19,3,20)            109.9446         estimate D2E/DX2                !
 ! A17   A(19,3,21)            109.9231         estimate D2E/DX2                !
 ! A18   A(20,3,21)            111.1823         estimate D2E/DX2                !
 ! A19   A(1,4,6)              107.8095         estimate D2E/DX2                !
 ! A20   A(1,4,12)             110.1407         estimate D2E/DX2                !
 ! A21   A(1,4,22)             107.5754         estimate D2E/DX2                !
 ! A22   A(6,4,12)             118.1326         estimate D2E/DX2                !
 ! A23   A(6,4,22)             107.9507         estimate D2E/DX2                !
 ! A24   A(12,4,22)            104.7538         estimate D2E/DX2                !
 ! A25   A(2,5,12)             118.7406         estimate D2E/DX2                !
 ! A26   A(2,5,23)             114.3021         estimate D2E/DX2                !
 ! A27   A(12,5,23)            110.0876         estimate D2E/DX2                !
 ! A28   A(4,6,11)             113.7839         estimate D2E/DX2                !
 ! A29   A(4,6,24)             109.2277         estimate D2E/DX2                !
 ! A30   A(11,6,24)            108.4214         estimate D2E/DX2                !
 ! A31   A(3,11,6)             101.2057         estimate D2E/DX2                !
 ! A32   A(3,11,7)             109.2426         estimate D2E/DX2                !
 ! A33   A(3,11,8)             109.4113         estimate D2E/DX2                !
 ! A34   A(6,11,7)             107.6814         estimate D2E/DX2                !
 ! A35   A(6,11,8)             106.0583         estimate D2E/DX2                !
 ! A36   A(7,11,8)             121.3121         estimate D2E/DX2                !
 ! A37   A(4,12,5)             104.9174         estimate D2E/DX2                !
 ! A38   A(4,12,9)             109.5128         estimate D2E/DX2                !
 ! A39   A(4,12,10)            111.1821         estimate D2E/DX2                !
 ! A40   A(5,12,9)             104.8774         estimate D2E/DX2                !
 ! A41   A(5,12,10)            106.5233         estimate D2E/DX2                !
 ! A42   A(9,12,10)            118.6966         estimate D2E/DX2                !
 ! D1    D(13,1,4,6)           -66.6509         estimate D2E/DX2                !
 ! D2    D(13,1,4,12)           63.539          estimate D2E/DX2                !
 ! D3    D(13,1,4,22)          177.1612         estimate D2E/DX2                !
 ! D4    D(14,1,4,6)            53.1475         estimate D2E/DX2                !
 ! D5    D(14,1,4,12)         -176.6625         estimate D2E/DX2                !
 ! D6    D(14,1,4,22)          -63.0404         estimate D2E/DX2                !
 ! D7    D(15,1,4,6)           172.833          estimate D2E/DX2                !
 ! D8    D(15,1,4,12)          -56.9771         estimate D2E/DX2                !
 ! D9    D(15,1,4,22)           56.6451         estimate D2E/DX2                !
 ! D10   D(16,2,5,12)           45.426          estimate D2E/DX2                !
 ! D11   D(16,2,5,23)          178.0698         estimate D2E/DX2                !
 ! D12   D(17,2,5,12)          -77.9636         estimate D2E/DX2                !
 ! D13   D(17,2,5,23)           54.6801         estimate D2E/DX2                !
 ! D14   D(18,2,5,12)          163.9288         estimate D2E/DX2                !
 ! D15   D(18,2,5,23)          -63.4275         estimate D2E/DX2                !
 ! D16   D(19,3,11,6)          179.3982         estimate D2E/DX2                !
 ! D17   D(19,3,11,7)          -67.2047         estimate D2E/DX2                !
 ! D18   D(19,3,11,8)           67.7569         estimate D2E/DX2                !
 ! D19   D(20,3,11,6)          -61.2914         estimate D2E/DX2                !
 ! D20   D(20,3,11,7)           52.1057         estimate D2E/DX2                !
 ! D21   D(20,3,11,8)         -172.9328         estimate D2E/DX2                !
 ! D22   D(21,3,11,6)           60.0992         estimate D2E/DX2                !
 ! D23   D(21,3,11,7)          173.4963         estimate D2E/DX2                !
 ! D24   D(21,3,11,8)          -51.5422         estimate D2E/DX2                !
 ! D25   D(1,4,6,11)          -177.8834         estimate D2E/DX2                !
 ! D26   D(1,4,6,24)            60.8214         estimate D2E/DX2                !
 ! D27   D(12,4,6,11)           56.534          estimate D2E/DX2                !
 ! D28   D(12,4,6,24)          -64.7612         estimate D2E/DX2                !
 ! D29   D(22,4,6,11)          -61.9413         estimate D2E/DX2                !
 ! D30   D(22,4,6,24)          176.7635         estimate D2E/DX2                !
 ! D31   D(1,4,12,5)           -92.2095         estimate D2E/DX2                !
 ! D32   D(1,4,12,9)           155.6857         estimate D2E/DX2                !
 ! D33   D(1,4,12,10)           22.5549         estimate D2E/DX2                !
 ! D34   D(6,4,12,5)            32.2287         estimate D2E/DX2                !
 ! D35   D(6,4,12,9)           -79.8762         estimate D2E/DX2                !
 ! D36   D(6,4,12,10)          146.993          estimate D2E/DX2                !
 ! D37   D(22,4,12,5)          152.3751         estimate D2E/DX2                !
 ! D38   D(22,4,12,9)           40.2702         estimate D2E/DX2                !
 ! D39   D(22,4,12,10)         -92.8606         estimate D2E/DX2                !
 ! D40   D(2,5,12,4)            68.5899         estimate D2E/DX2                !
 ! D41   D(2,5,12,9)          -176.0421         estimate D2E/DX2                !
 ! D42   D(2,5,12,10)          -49.3842         estimate D2E/DX2                !
 ! D43   D(23,5,12,4)          -65.8633         estimate D2E/DX2                !
 ! D44   D(23,5,12,9)           49.5047         estimate D2E/DX2                !
 ! D45   D(23,5,12,10)         176.1626         estimate D2E/DX2                !
 ! D46   D(4,6,11,3)           161.5272         estimate D2E/DX2                !
 ! D47   D(4,6,11,7)            46.9584         estimate D2E/DX2                !
 ! D48   D(4,6,11,8)           -84.2939         estimate D2E/DX2                !
 ! D49   D(24,6,11,3)          -76.7294         estimate D2E/DX2                !
 ! D50   D(24,6,11,7)          168.7018         estimate D2E/DX2                !
 ! D51   D(24,6,11,8)           37.4495         estimate D2E/DX2                !
 --------------------------------------------------------------------------------
 Trust Radius=3.00D-01 FncErr=1.00D-07 GrdErr=1.00D-06
 Number of steps in this run=    126 maximum allowed number of steps=    144.
 GradGradGradGradGradGradGradGradGradGradGradGradGradGradGradGradGradGrad

                          Input orientation:                          
 ---------------------------------------------------------------------
 Center     Atomic      Atomic             Coordinates (Angstroms)
 Number     Number       Type             X           Y           Z
 ---------------------------------------------------------------------
      1          6           0        0.007727    1.718614   -1.650928
      2          6           0        3.066877   -0.127460   -1.457359
      3          6           0       -1.539544   -3.073555   -2.456997
      4          6           0       -0.220894    0.438304   -0.851366
      5          7           0        2.307505   -0.716180   -0.349998
      6          7           0       -0.460578   -0.694263   -1.843181
      7          8           0       -1.780433   -1.958754   -0.076585
      8          8           0        0.500646   -2.774661   -0.803258
      9          8           0        0.643395   -0.606022    1.510992
     10          8           0        1.759207    1.496470    0.737287
     11         16           0       -0.789473   -2.185160   -1.110828
     12         16           0        1.130003    0.224269    0.419812
     13          1           0        0.937080    1.676148   -2.226047
     14          1           0       -0.811244    1.884271   -2.359462
     15          1           0        0.060367    2.591415   -0.992345
     16          1           0        3.409292    0.882168   -1.218885
     17          1           0        2.476039   -0.118759   -2.374861
     18          1           0        3.951842   -0.745309   -1.637235
     19          1           0       -1.790368   -4.074839   -2.100499
     20          1           0       -2.446440   -2.549695   -2.764190
     21          1           0       -0.824637   -3.139698   -3.279093
     22          1           0       -1.137709    0.573505   -0.264608
     23          1           0        1.935897   -1.662086   -0.543967
     24          1           0        0.367592   -0.801771   -2.440166
 ---------------------------------------------------------------------
                    Distance matrix (angstroms):
                    1          2          3          4          5
     1  C    0.000000
     2  C    3.578248   0.000000
     3  C    5.099871   5.558585   0.000000
     4  C    1.526683   3.390687   4.080447   0.000000
     5  N    3.592996   1.466112   4.979604   2.824360   0.000000
     6  N    2.465410   3.593476   2.683649   1.524420   3.145213
     7  O    4.381679   5.362518   2.639540   2.962826   4.281354
     8  O    4.599025   3.744471   2.643211   3.293339   2.776244
     9  O    3.975644   3.861786   5.157411   2.723665   2.498936
    10  O    2.969949   3.027147   6.478452   2.750333   2.525597
    11  S    4.020782   4.384706   1.778771   2.696881   3.511131
    12  S    2.789361   2.720103   5.126222   1.867251   1.692206
    13  H    1.093738   2.894809   5.361594   2.182410   3.334796
    14  H    1.095525   4.461017   5.011983   2.171102   4.530661
    15  H    1.094662   4.080150   6.066038   2.175975   4.049991
    16  H    3.529440   1.092459   6.455358   3.675641   2.126879
    17  H    3.161104   1.091318   4.986229   3.147190   2.117874
    18  H    4.650499   1.094191   6.020636   4.407976   2.088462
    19  H    6.082709   6.291920   1.092049   4.938830   5.580090
    20  H    5.047846   6.162118   1.091448   4.188089   5.638271
    21  H    5.191044   5.247492   1.091470   4.365829   4.925784
    22  H    2.131943   4.426348   4.274236   1.096866   3.679685
    23  H    4.046274   2.113877   4.210774   3.026199   1.034628
    24  H    2.665472   2.950719   2.966219   2.099617   2.852962
                    6          7          8          9         10
     6  N    0.000000
     7  O    2.542011   0.000000
     8  O    2.516634   2.529245   0.000000
     9  O    3.532283   3.197692   3.174764   0.000000
    10  O    4.047909   5.012984   4.711668   2.502823   0.000000
    11  S    1.693307   1.450145   1.451384   3.379457   4.844140
    12  S    2.914582   3.671872   3.299329   1.454938   1.454367
    13  H    2.778288   5.021712   4.693028   4.388623   3.080507
    14  H    2.652989   4.573806   5.084139   4.826795   4.043199
    15  H    3.433801   4.993116   5.387427   4.102465   2.660185
    16  H    4.225018   6.025690   4.690988   4.161385   2.631874
    17  H    3.039344   5.175444   3.664142   4.323872   3.578866
    18  H    4.417519   6.063585   4.089565   4.569087   3.933393
    19  H    3.641819   2.928163   2.936331   5.567653   7.189714
    20  H    2.869587   2.831254   3.546996   5.621577   6.805825
    21  H    2.859114   3.544606   2.831852   5.614227   6.655945
    22  H    2.134862   2.619310   3.766241   2.777836   3.201215
    23  H    2.892703   3.757336   1.834394   2.647393   3.413108
    24  H    1.026556   3.396931   2.566995   3.965607   4.161095
                   11         12         13         14         15
    11  S    0.000000
    12  S    3.439854   0.000000
    13  H    4.374289   3.024193   0.000000
    14  H    4.256740   3.774706   1.765715   0.000000
    15  H    4.853034   2.956635   1.768717   1.768832   0.000000
    16  H    5.200943   2.883282   2.785070   4.485315   3.766715
    17  H    4.065878   3.120846   2.369015   3.849493   3.884825
    18  H    4.983005   3.624127   3.911386   5.488468   5.166545
    19  H    2.356295   5.776059   6.366207   6.044562   7.006580
    20  H    2.368973   5.533867   5.440180   4.743176   5.987865
    21  H    2.369336   5.368313   5.234972   5.107461   6.233627
    22  H    2.906475   2.394351   3.060689   2.492609   2.457020
    23  H    2.832416   2.266422   3.869217   4.839365   4.670217
    24  H    2.240470   3.132651   2.551519   2.934449   3.701930
                   16         17         18         19         20
    16  H    0.000000
    17  H    1.791395   0.000000
    18  H    1.765802   1.764837   0.000000
    19  H    7.237791   5.824781   6.653823   0.000000
    20  H    6.960980   5.503802   6.742689   1.788011   0.000000
    21  H    6.192416   4.564885   5.589593   1.787794   1.800964
    22  H    4.656301   4.241648   5.433867   5.040195   4.208927
    23  H    3.016560   2.454748   2.469767   4.704170   4.992206
    24  H    3.684985   2.217278   3.673517   3.935116   3.328514
                   21         22         23         24
    21  H    0.000000
    22  H    4.793017   0.000000
    23  H    4.157499   3.810901   0.000000
    24  H    2.755197   2.981673   2.606778   0.000000
 Stoichiometry    C4H12N2O4S2
 Framework group  C1[X(C4H12N2O4S2)]
 Deg. of freedom    66
 Full point group                 C1      NOp   1
 Largest Abelian subgroup         C1      NOp   1
 Largest concise Abelian subgroup C1      NOp   1
                         Standard orientation:                         
 ---------------------------------------------------------------------
 Center     Atomic      Atomic             Coordinates (Angstroms)
 Number     Number       Type             X           Y           Z
 ---------------------------------------------------------------------
      1          6           0       -1.215630    2.334766    0.425821
      2          6           0       -1.889649   -0.794427    2.025105
      3          6           0        3.419592    0.230859    0.737231
      4          6           0       -0.409624    1.231647   -0.255533
      5          7           0       -1.337161   -1.242139    0.742999
      6          7           0        0.855954    1.005172    0.563538
      7          8           0        2.037087    0.126622   -1.508874
      8          8           0        1.406797   -1.442928    0.371638
      9          8           0       -0.946575   -1.005186   -1.713823
     10          8           0       -2.904504    0.149387   -0.666160
     11         16           0        1.895883   -0.158216   -0.094007
     12         16           0       -1.504138   -0.239154   -0.609666
     13          1           0       -1.591833    2.016881    1.402388
     14          1           0       -0.596967    3.224840    0.584569
     15          1           0       -2.074810    2.630572   -0.184584
     16          1           0       -2.897935   -0.390028    1.909835
     17          1           0       -1.237976   -0.055454    2.494378
     18          1           0       -1.951569   -1.657018    2.695446
     19          1           0        4.179005   -0.475270    0.394820
     20          1           0        3.713840    1.249208    0.477151
     21          1           0        3.272222    0.125635    1.813575
     22          1           0       -0.110922    1.601954   -1.243846
     23          1           0       -0.369676   -1.604404    0.799504
     24          1           0        0.596577    0.709538    1.511769
 ---------------------------------------------------------------------
 Rotational constants (GHZ):      1.2183522      0.5381962      0.5323961
 Standard basis: 6-31G(d) (6D, 7F)
 There are   212 symmetry adapted basis functions of A   symmetry.
 Integral buffers will be    131072 words long.
 Raffenetti 2 integral format.
 Two-electron integral symmetry is turned on.
   212 basis functions,   432 primitive gaussians,   212 cartesian basis functions
    57 alpha electrons       57 beta electrons
       nuclear repulsion energy      1145.6663535344 Hartrees.
 NAtoms=   24 NActive=   24 NUniq=   24 SFac= 1.00D+00 NAtFMM=   60 NAOKFM=F Big=F
 One-electron integrals computed using PRISM.
 NBasis=   212 RedAO= T  NBF=   212
 NBsUse=   212 1.00D-06 NBFU=   212
 Harris functional with IExCor=  402 diagonalized for initial guess.
 ExpMin= 1.17D-01 ExpMax= 2.19D+04 ExpMxC= 3.30D+03 IAcc=3 IRadAn=         5 AccDes= 0.00D+00
 HarFok:  IExCor=  402 AccDes= 0.00D+00 IRadAn=         5 IDoV= 1
 ScaDFX=  1.000000  1.000000  1.000000  1.000000
 FoFCou: FMM=F IPFlag=           0 FMFlag=      100000 FMFlg1=           0
         NFxFlg=           0 DoJE=T BraDBF=F KetDBF=T FulRan=T
         Omega=  0.000000  0.000000  1.000000  0.000000  0.000000 ICntrl=     500 IOpCl=  0
         NMat0=    1 NMatS0=    1 NMatT0=    0 NMatD0=    1 NMtDS0=    0 NMtDT0=    0
         I1Cent=           4 NGrid=           0.
 Petite list used in FoFCou.
 Initial guess orbital symmetries:
       Occupied  (A) (A) (A) (A) (A) (A) (A) (A) (A) (A) (A) (A)
                 (A) (A) (A) (A) (A) (A) (A) (A) (A) (A) (A) (A)
                 (A) (A) (A) (A) (A) (A) (A) (A) (A) (A) (A) (A)
                 (A) (A) (A) (A) (A) (A) (A) (A) (A) (A) (A) (A)
                 (A) (A) (A) (A) (A) (A) (A) (A) (A)
       Virtual   (A) (A) (A) (A) (A) (A) (A) (A) (A) (A) (A) (A)
                 (A) (A) (A) (A) (A) (A) (A) (A) (A) (A) (A) (A)
                 (A) (A) (A) (A) (A) (A) (A) (A) (A) (A) (A) (A)
                 (A) (A) (A) (A) (A) (A) (A) (A) (A) (A) (A) (A)
                 (A) (A) (A) (A) (A) (A) (A) (A) (A) (A) (A) (A)
                 (A) (A) (A) (A) (A) (A) (A) (A) (A) (A) (A) (A)
                 (A) (A) (A) (A) (A) (A) (A) (A) (A) (A) (A) (A)
                 (A) (A) (A) (A) (A) (A) (A) (A) (A) (A) (A) (A)
                 (A) (A) (A) (A) (A) (A) (A) (A) (A) (A) (A) (A)
                 (A) (A) (A) (A) (A) (A) (A) (A) (A) (A) (A) (A)
                 (A) (A) (A) (A) (A) (A) (A) (A) (A) (A) (A) (A)
                 (A) (A) (A) (A) (A) (A) (A) (A) (A) (A) (A) (A)
                 (A) (A) (A) (A) (A) (A) (A) (A) (A) (A) (A)
 The electronic state of the initial guess is 1-A.
 Requested convergence on RMS density matrix=1.00D-08 within 128 cycles.
 Requested convergence on MAX density matrix=1.00D-06.
 Requested convergence on             energy=1.00D-06.
 No special actions if energy rises.
 Integral accuracy reduced to 1.0D-05 until final iterations.
 Initial convergence to 1.0D-05 achieved.  Increase integral accuracy.
 SCF Done:  E(RB3LYP) =  -1366.27130173     A.U. after   15 cycles
             Convg  =    0.4259D-08             -V/T =  2.0059
 Calling FoFJK, ICntrl=      2127 FMM=F ISym2X=0 I1Cent= 0 IOpClX= 0 NMat=1 NMatS=1 NMatT=0.
 ***** Axes restored to original set *****
 -------------------------------------------------------------------
 Center     Atomic                   Forces (Hartrees/Bohr)
 Number     Number              X              Y              Z
 -------------------------------------------------------------------
      1        6           0.001980378    0.005141075   -0.004575608
      2        6           0.000452140   -0.007009234    0.003386780
      3        6          -0.002388023   -0.002936462   -0.007865179
      4        6          -0.021197095    0.006347016   -0.018924213
      5        7           0.000022037    0.003176095   -0.001537958
      6        7           0.010669295    0.027197366    0.018370577
      7        8          -0.007898273    0.000122064    0.004905147
      8        8           0.015911419   -0.027777870    0.002186373
      9        8          -0.012485978   -0.002990875    0.000427070
     10        8          -0.002799587    0.018217974   -0.008291674
     11       16          -0.012181602    0.008376550    0.001574662
     12       16           0.025519715   -0.028746643    0.005671401
     13        1           0.000842801    0.001201829    0.000107150
     14        1          -0.001181921   -0.003239585    0.001536484
     15        1           0.001666349   -0.003112553    0.000848167
     16        1          -0.003338263   -0.000571352    0.002162705
     17        1           0.001421474    0.004509357   -0.009304888
     18        1           0.000206687   -0.000579234    0.000747632
     19        1           0.001188316   -0.000136302    0.001506349
     20        1           0.000717027    0.000430115    0.000233917
     21        1          -0.000502819   -0.000812143   -0.001256356
     22        1           0.002501270   -0.007587143    0.000040544
     23        1           0.004866187    0.010497088    0.006267738
     24        1          -0.003991534    0.000282869    0.001783182
 -------------------------------------------------------------------
 Cartesian Forces:  Max     0.028746643 RMS     0.009188282

 GradGradGradGradGradGradGradGradGradGradGradGradGradGradGradGradGradGrad
 Berny optimization.
 Internal  Forces:  Max     0.039465811 RMS     0.008494573
 Search for a local minimum.
 Step number   1 out of a maximum of  126
 All quantities printed in internal units (Hartrees-Bohrs-Radians)
 Mixed Optimization -- RFO/linear search
 Second derivative matrix not updated -- first step.
 ITU=  0
     Eigenvalues ---    0.00230   0.00230   0.00413   0.00651   0.00817
     Eigenvalues ---    0.01385   0.01399   0.02143   0.02728   0.03405
     Eigenvalues ---    0.04867   0.05467   0.05572   0.05721   0.06071
     Eigenvalues ---    0.06230   0.07138   0.07628   0.07716   0.08371
     Eigenvalues ---    0.08433   0.09401   0.11200   0.12367   0.12772
     Eigenvalues ---    0.13291   0.16000   0.16000   0.16000   0.16000
     Eigenvalues ---    0.16000   0.16000   0.16000   0.16000   0.16000
     Eigenvalues ---    0.16682   0.17641   0.18370   0.19054   0.21462
     Eigenvalues ---    0.22863   0.23429   0.25000   0.25000   0.27863
     Eigenvalues ---    0.29732   0.29945   0.34031   0.34182   0.34279
     Eigenvalues ---    0.34333   0.34384   0.34530   0.34577   0.34643
     Eigenvalues ---    0.34646   0.34661   0.36210   0.36708   0.36845
     Eigenvalues ---    0.42084   0.43308   0.93768   0.94016   0.95324
     Eigenvalues ---    0.95875
 RFO step:  Lambda=-4.04066487D-02 EMin= 2.30000000D-03
 Linear search not attempted -- first point.
 Maximum step size (   0.300) exceeded in Quadratic search.
    -- Step size scaled by   0.929
 Iteration  1 RMS(Cart)=  0.26264715 RMS(Int)=  0.01411179
 Iteration  2 RMS(Cart)=  0.03034408 RMS(Int)=  0.00167819
 Iteration  3 RMS(Cart)=  0.00063773 RMS(Int)=  0.00166327
 Iteration  4 RMS(Cart)=  0.00000219 RMS(Int)=  0.00166327
 Iteration  5 RMS(Cart)=  0.00000001 RMS(Int)=  0.00166327
 Variable       Old X    -DE/DX   Delta X   Delta X   Delta X     New X
                                 (Linear)    (Quad)   (Total)
    R1        2.88501   0.00159   0.00000   0.00436   0.00436   2.88937
    R2        2.06686   0.00062   0.00000   0.00149   0.00149   2.06835
    R3        2.07024  -0.00060   0.00000  -0.00146  -0.00146   2.06878
    R4        2.06861  -0.00189   0.00000  -0.00459  -0.00459   2.06402
    R5        2.77055   0.00014   0.00000   0.00033   0.00033   2.77088
    R6        2.06445  -0.00110   0.00000  -0.00266  -0.00266   2.06179
    R7        2.06229   0.00709   0.00000   0.01700   0.01700   2.07930
    R8        2.06772   0.00037   0.00000   0.00090   0.00090   2.06862
    R9        3.36139   0.00773   0.00000   0.02250   0.02250   3.38389
   R10        2.06367   0.00034   0.00000   0.00082   0.00082   2.06450
   R11        2.06254  -0.00045   0.00000  -0.00109  -0.00109   2.06145
   R12        2.06258   0.00067   0.00000   0.00160   0.00160   2.06418
   R13        2.88074  -0.01771   0.00000  -0.04840  -0.04840   2.83233
   R14        3.52859   0.01012   0.00000   0.03686   0.03686   3.56545
   R15        2.07278  -0.00301   0.00000  -0.00733  -0.00733   2.06545
   R16        3.19781  -0.00383   0.00000  -0.00870  -0.00870   3.18911
   R17        1.95516  -0.01252   0.00000  -0.02521  -0.02521   1.92996
   R18        3.19989   0.02157   0.00000   0.04915   0.04915   3.24904
   R19        1.93991  -0.00429   0.00000  -0.00841  -0.00841   1.93150
   R20        2.74038   0.00892   0.00000   0.00829   0.00829   2.74866
   R21        2.74272   0.02589   0.00000   0.02420   0.02420   2.76691
   R22        2.74943   0.00620   0.00000   0.00589   0.00589   2.75532
   R23        2.74836   0.01291   0.00000   0.01223   0.01223   2.76059
    A1        1.94988   0.00266   0.00000   0.01274   0.01280   1.96269
    A2        1.93220  -0.00481   0.00000  -0.02157  -0.02162   1.91057
    A3        1.93988  -0.00283   0.00000  -0.01422  -0.01429   1.92559
    A4        1.87653   0.00169   0.00000   0.00990   0.00998   1.88651
    A5        1.88226  -0.00022   0.00000  -0.00228  -0.00223   1.88003
    A6        1.88020   0.00381   0.00000   0.01687   0.01668   1.89688
    A7        1.94827  -0.00771   0.00000  -0.03925  -0.03916   1.90911
    A8        1.93670   0.01258   0.00000   0.06116   0.06124   1.99794
    A9        1.89266  -0.00175   0.00000  -0.00751  -0.00793   1.88473
   A10        1.92394  -0.00321   0.00000  -0.01605  -0.01556   1.90838
   A11        1.87993   0.00240   0.00000   0.00513   0.00470   1.88463
   A12        1.87986  -0.00242   0.00000  -0.00386  -0.00425   1.87561
   A13        1.88360  -0.00292   0.00000  -0.01420  -0.01419   1.86941
   A14        1.90040  -0.00075   0.00000  -0.00319  -0.00321   1.89719
   A15        1.90084   0.00266   0.00000   0.01270   0.01272   1.91357
   A16        1.91890   0.00153   0.00000   0.00628   0.00624   1.92513
   A17        1.91852  -0.00002   0.00000  -0.00071  -0.00066   1.91786
   A18        1.94050  -0.00057   0.00000  -0.00125  -0.00126   1.93924
   A19        1.88163  -0.00278   0.00000  -0.01162  -0.01133   1.87030
   A20        1.92232  -0.00959   0.00000  -0.03414  -0.03408   1.88824
   A21        1.87755   0.00556   0.00000   0.02239   0.02205   1.89960
   A22        2.06180   0.01414   0.00000   0.06647   0.06663   2.12843
   A23        1.88410  -0.00644   0.00000  -0.04067  -0.04062   1.84348
   A24        1.82830  -0.00104   0.00000  -0.00426  -0.00377   1.82453
   A25        2.07241   0.00551   0.00000   0.02323   0.02290   2.09531
   A26        1.99495   0.00078   0.00000   0.01508   0.01482   2.00977
   A27        1.92139  -0.00321   0.00000  -0.00576  -0.00628   1.91511
   A28        1.98590   0.03947   0.00000   0.15094   0.14497   2.13087
   A29        1.90638  -0.00865   0.00000   0.00864  -0.00007   1.90632
   A30        1.89231  -0.00679   0.00000   0.02696   0.01951   1.91182
   A31        1.76637  -0.01218   0.00000  -0.04011  -0.03939   1.72698
   A32        1.90664   0.00088   0.00000  -0.01888  -0.01953   1.88711
   A33        1.90959  -0.01165   0.00000  -0.05937  -0.05836   1.85123
   A34        1.87939   0.00050   0.00000   0.00218   0.00033   1.87972
   A35        1.85107   0.01981   0.00000   0.10343   0.10200   1.95306
   A36        2.11730   0.00107   0.00000   0.00964   0.00558   2.12287
   A37        1.83115   0.02668   0.00000   0.09035   0.09141   1.92256
   A38        1.91136  -0.01221   0.00000  -0.04904  -0.05333   1.85803
   A39        1.94049  -0.02005   0.00000  -0.09752  -0.09907   1.84142
   A40        1.83046   0.00199   0.00000   0.04478   0.04586   1.87631
   A41        1.85918  -0.00417   0.00000  -0.00436  -0.00115   1.85804
   A42        2.07165   0.01254   0.00000   0.03809   0.03263   2.10428
    D1       -1.16328  -0.00521   0.00000  -0.02996  -0.03007  -1.19334
    D2        1.10896   0.00396   0.00000   0.02221   0.02229   1.13125
    D3        3.09205   0.00088   0.00000   0.01197   0.01202   3.10407
    D4        0.92760  -0.00455   0.00000  -0.02356  -0.02375   0.90385
    D5       -3.08334   0.00462   0.00000   0.02861   0.02861  -3.05473
    D6       -1.10026   0.00154   0.00000   0.01837   0.01834  -1.08192
    D7        3.01650  -0.00480   0.00000  -0.02594  -0.02599   2.99051
    D8       -0.99444   0.00437   0.00000   0.02623   0.02636  -0.96808
    D9        0.98864   0.00129   0.00000   0.01599   0.01609   1.00474
   D10        0.79283  -0.00046   0.00000  -0.01566  -0.01618   0.77665
   D11        3.10790   0.00148   0.00000   0.01863   0.01841   3.12631
   D12       -1.36072   0.00010   0.00000  -0.01110  -0.01091  -1.37163
   D13        0.95435   0.00203   0.00000   0.02319   0.02368   0.97803
   D14        2.86110  -0.00321   0.00000  -0.03744  -0.03756   2.82354
   D15       -1.10702  -0.00127   0.00000  -0.00315  -0.00297  -1.10999
   D16        3.13109   0.00573   0.00000   0.03261   0.03263  -3.11947
   D17       -1.17294   0.00094   0.00000   0.00944   0.00909  -1.16386
   D18        1.18258  -0.00672   0.00000  -0.04365  -0.04340   1.13918
   D19       -1.06974   0.00547   0.00000   0.03019   0.03024  -1.03949
   D20        0.90942   0.00068   0.00000   0.00702   0.00670   0.91612
   D21       -3.01825  -0.00698   0.00000  -0.04607  -0.04578  -3.06403
   D22        1.04893   0.00593   0.00000   0.03447   0.03452   1.08345
   D23        3.02808   0.00114   0.00000   0.01129   0.01098   3.03907
   D24       -0.89958  -0.00652   0.00000  -0.04180  -0.04150  -0.94108
   D25       -3.10465   0.00875   0.00000   0.17997   0.18043  -2.92422
   D26        1.06153  -0.00291   0.00000   0.03698   0.03638   1.09791
   D27        0.98670   0.01341   0.00000   0.18554   0.18570   1.17240
   D28       -1.13030   0.00175   0.00000   0.04255   0.04164  -1.08865
   D29       -1.08108   0.01051   0.00000   0.17924   0.18022  -0.90086
   D30        3.08511  -0.00115   0.00000   0.03625   0.03616   3.12127
   D31       -1.60936   0.00568   0.00000   0.06024   0.06071  -1.54865
   D32        2.71723  -0.00441   0.00000  -0.01423  -0.01189   2.70534
   D33        0.39366   0.00600   0.00000   0.05875   0.05645   0.45011
   D34        0.56250   0.00465   0.00000   0.06724   0.06727   0.62977
   D35       -1.39410  -0.00545   0.00000  -0.00723  -0.00533  -1.39943
   D36        2.56551   0.00496   0.00000   0.06575   0.06301   2.62852
   D37        2.65945   0.00423   0.00000   0.05238   0.05278   2.71222
   D38        0.70285  -0.00587   0.00000  -0.02209  -0.01982   0.68302
   D39       -1.62072   0.00455   0.00000   0.05089   0.04851  -1.57221
   D40        1.19712  -0.00177   0.00000  -0.00304  -0.00409   1.19303
   D41       -3.07251  -0.00336   0.00000  -0.00099   0.00007  -3.07244
   D42       -0.86192   0.01026   0.00000   0.06697   0.06678  -0.79514
   D43       -1.14953  -0.00515   0.00000  -0.04432  -0.04525  -1.19478
   D44        0.86402  -0.00674   0.00000  -0.04227  -0.04108   0.82294
   D45        3.07462   0.00688   0.00000   0.02569   0.02562   3.10024
   D46        2.81918  -0.00565   0.00000  -0.10989  -0.11064   2.70854
   D47        0.81958  -0.00144   0.00000  -0.07201  -0.07250   0.74708
   D48       -1.47121  -0.01650   0.00000  -0.15540  -0.15870  -1.62991
   D49       -1.33918   0.00458   0.00000   0.02097   0.02324  -1.31594
   D50        2.94440   0.00879   0.00000   0.05884   0.06138   3.00579
   D51        0.65362  -0.00626   0.00000  -0.02454  -0.02482   0.62880
         Item               Value     Threshold  Converged?
 Maximum Force            0.039466     0.000450     NO 
 RMS     Force            0.008495     0.000300     NO 
 Maximum Displacement     0.966633     0.001800     NO 
 RMS     Displacement     0.280226     0.001200     NO 
 Predicted change in Energy=-2.598896D-02
 GradGradGradGradGradGradGradGradGradGradGradGradGradGradGradGradGradGrad

                          Input orientation:                          
 ---------------------------------------------------------------------
 Center     Atomic      Atomic             Coordinates (Angstroms)
 Number     Number       Type             X           Y           Z
 ---------------------------------------------------------------------
      1          6           0       -0.031202    1.547266   -1.699420
      2          6           0        3.318389    0.083640   -1.386940
      3          6           0       -1.810204   -2.981523   -2.567763
      4          6           0       -0.166362    0.310396   -0.810774
      5          7           0        2.596081   -0.502107   -0.253288
      6          7           0       -0.445966   -0.853631   -1.712595
      7          8           0       -1.978084   -2.116432   -0.084614
      8          8           0        0.145403   -3.286181   -0.869391
      9          8           0        0.825603   -0.464524    1.568295
     10          8           0        1.666791    1.702310    0.556590
     11         16           0       -0.974450   -2.372975   -1.105673
     12         16           0        1.270752    0.303661    0.411723
     13          1           0        0.866390    1.516488   -2.325014
     14          1           0       -0.902431    1.620104   -2.358314
     15          1           0        0.021044    2.450374   -1.087337
     16          1           0        3.478789    1.147151   -1.203603
     17          1           0        2.822443   -0.047633   -2.360338
     18          1           0        4.298400   -0.400038   -1.449659
     19          1           0       -2.227990   -3.959001   -2.315737
     20          1           0       -2.607899   -2.285162   -2.829993
     21          1           0       -1.092699   -3.083658   -3.385022
     22          1           0       -1.056950    0.419818   -0.186676
     23          1           0        2.386121   -1.497802   -0.340116
     24          1           0        0.350181   -0.993588   -2.338107
 ---------------------------------------------------------------------
                    Distance matrix (angstroms):
                    1          2          3          4          5
     1  C    0.000000
     2  C    3.668733   0.000000
     3  C    4.942550   6.090323   0.000000
     4  C    1.528989   3.539332   4.077494   0.000000
     5  N    3.632333   1.466286   5.560544   2.932924   0.000000
     6  N    2.436496   3.892929   2.668404   1.498806   3.392226
     7  O    4.452038   5.881241   2.634881   3.114344   4.853606
     8  O    4.907377   4.657401   2.608004   3.610540   3.759851
     9  O    3.931841   3.904854   5.512689   2.691554   2.540506
    10  O    2.827862   3.020791   6.617354   2.677230   2.525656
    11  S    4.075604   4.954042   1.790677   2.817881   4.120122
    12  S    2.774628   2.734304   5.400191   1.886754   1.687602
    13  H    1.094526   2.990874   5.239770   2.194118   3.370252
    14  H    1.094754   4.595607   4.694985   2.156852   4.601575
    15  H    1.092235   4.069849   5.920357   2.165898   4.005446
    16  H    3.567346   1.091053   6.846921   3.760531   2.098171
    17  H    3.335237   1.100317   5.487455   3.385600   2.167359
    18  H    4.753927   1.094668   6.725271   4.565850   2.083173
    19  H    5.960261   6.925888   1.092486   4.974231   6.282951
    20  H    4.754479   6.543279   1.090870   4.095762   6.074545
    21  H    5.041180   5.786346   1.092317   4.359410   5.484456
    22  H    2.147485   4.549422   4.219727   1.092987   3.768159
    23  H    4.118689   2.113272   4.977247   3.163269   1.021289
    24  H    2.647511   3.297786   2.944808   2.073629   3.103561
                    6          7          8          9         10
     6  N    0.000000
     7  O    2.567562   0.000000
     8  O    2.641592   2.548212   0.000000
     9  O    3.540131   3.649872   3.790348   0.000000
    10  O    4.018181   5.317805   5.406763   2.535018   0.000000
    11  S    1.719318   1.454530   1.464187   3.745996   5.132955
    12  S    2.966340   4.081438   3.974246   1.458055   1.460840
    13  H    2.777553   5.129184   5.069939   4.368515   2.996467
    14  H    2.597052   4.504269   5.233209   4.769699   3.886428
    15  H    3.394922   5.085045   5.742040   4.024466   2.443477
    16  H    4.434626   6.456049   5.556761   4.161768   2.586467
    17  H    3.428076   5.701221   4.458437   4.426661   3.592534
    18  H    4.773247   6.648579   5.090571   4.601361   3.920493
    19  H    3.630800   2.904380   2.859650   6.051570   7.447821
    20  H    2.823440   2.821745   3.525148   5.869292   6.755876
    21  H    2.861520   3.551355   2.811104   5.922423   6.786500
    22  H    2.079280   2.700273   3.955526   2.721395   3.100967
    23  H    3.212378   4.415232   2.915348   2.672998   3.400329
    24  H    1.022108   3.429261   2.730392   3.970631   4.169005
                   11         12         13         14         15
    11  S    0.000000
    12  S    3.808911   0.000000
    13  H    4.472516   3.020626   0.000000
    14  H    4.185567   3.758836   1.772166   0.000000
    15  H    4.925042   2.901263   1.765955   1.776945   0.000000
    16  H    5.677342   2.862897   2.866810   4.555450   3.697013
    17  H    4.625776   3.196166   2.504768   4.081181   3.963383
    18  H    5.640368   3.623063   4.027158   5.652898   5.152853
    19  H    2.356076   6.152278   6.289376   5.734573   6.902695
    20  H    2.376792   5.679319   5.174769   4.287447   5.689771
    21  H    2.390498   5.610268   5.111065   4.818268   6.094693
    22  H    2.941268   2.406194   3.078053   2.486076   2.469092
    23  H    3.556044   2.248240   3.916036   4.960749   4.662619
    24  H    2.275137   3.176771   2.562640   2.898418   3.678808
                   16         17         18         19         20
    16  H    0.000000
    17  H    1.787829   0.000000
    18  H    1.768077   1.769738   0.000000
    19  H    7.738020   6.388088   7.483988   0.000000
    20  H    7.174516   5.892005   7.290814   1.791794   0.000000
    21  H    6.599760   5.059226   6.325456   1.788430   1.800412
    22  H    4.704900   4.471354   5.563008   5.007823   4.087724
    23  H    2.989198   2.524809   2.468396   5.590224   5.635571
    24  H    3.957025   2.647151   4.090241   3.929522   3.265019
                   21         22         23         24
    21  H    0.000000
    22  H    4.743948   0.000000
    23  H    4.887594   3.944053   0.000000
    24  H    2.747058   2.933665   2.896766   0.000000
 Stoichiometry    C4H12N2O4S2
 Framework group  C1[X(C4H12N2O4S2)]
 Deg. of freedom    66
 Full point group                 C1      NOp   1
 Largest Abelian subgroup         C1      NOp   1
 Largest concise Abelian subgroup C1      NOp   1
                         Standard orientation:                         
 ---------------------------------------------------------------------
 Center     Atomic      Atomic             Coordinates (Angstroms)
 Number     Number       Type             X           Y           Z
 ---------------------------------------------------------------------
      1          6           0       -1.057090    2.244608    0.626619
      2          6           0       -2.371846   -0.939064    1.889652
      3          6           0        3.497787    0.344451    0.893645
      4          6           0       -0.361925    1.132223   -0.158971
      5          7           0       -1.802173   -1.310303    0.590556
      6          7           0        0.879804    0.766753    0.596648
      7          8           0        2.319234    0.227993   -1.460085
      8          8           0        1.927254   -1.631553    0.237508
      9          8           0       -1.154691   -0.832431   -1.819128
     10          8           0       -2.928516    0.566717   -0.669239
     11         16           0        2.111243   -0.216575   -0.090868
     12         16           0       -1.658705   -0.154497   -0.630726
     13          1           0       -1.460510    1.892852    1.581347
     14          1           0       -0.341343    3.046396    0.834773
     15          1           0       -1.886017    2.657248    0.047320
     16          1           0       -3.263845   -0.330544    1.733321
     17          1           0       -1.678051   -0.404403    2.555596
     18          1           0       -2.675184   -1.858278    2.400856
     19          1           0        4.380675   -0.194289    0.541805
     20          1           0        3.623452    1.417318    0.741451
     21          1           0        3.317425    0.114877    1.946224
     22          1           0       -0.017015    1.537014   -1.113854
     23          1           0       -0.950827   -1.872702    0.634684
     24          1           0        0.619426    0.397401    1.513429
 ---------------------------------------------------------------------
 Rotational constants (GHZ):      1.2161158      0.4622021      0.4570892
 Standard basis: 6-31G(d) (6D, 7F)
 There are   212 symmetry adapted basis functions of A   symmetry.
 Integral buffers will be    131072 words long.
 Raffenetti 2 integral format.
 Two-electron integral symmetry is turned on.
   212 basis functions,   432 primitive gaussians,   212 cartesian basis functions
    57 alpha electrons       57 beta electrons
       nuclear repulsion energy      1107.6334387245 Hartrees.
 NAtoms=   24 NActive=   24 NUniq=   24 SFac= 1.00D+00 NAtFMM=   60 NAOKFM=F Big=F
 One-electron integrals computed using PRISM.
 NBasis=   212 RedAO= T  NBF=   212
 NBsUse=   212 1.00D-06 NBFU=   212
 Initial guess read from the read-write file.
 B after Tr=     0.000000    0.000000    0.000000
         Rot=    1.000000    0.000000    0.000000    0.000000 Ang=   0.00 deg.
 Initial guess orbital symmetries:
       Occupied  (A) (A) (A) (A) (A) (A) (A) (A) (A) (A) (A) (A)
                 (A) (A) (A) (A) (A) (A) (A) (A) (A) (A) (A) (A)
                 (A) (A) (A) (A) (A) (A) (A) (A) (A) (A) (A) (A)
                 (A) (A) (A) (A) (A) (A) (A) (A) (A) (A) (A) (A)
                 (A) (A) (A) (A) (A) (A) (A) (A) (A)
       Virtual   (A) (A) (A) (A) (A) (A) (A) (A) (A) (A) (A) (A)
                 (A) (A) (A) (A) (A) (A) (A) (A) (A) (A) (A) (A)
                 (A) (A) (A) (A) (A) (A) (A) (A) (A) (A) (A) (A)
                 (A) (A) (A) (A) (A) (A) (A) (A) (A) (A) (A) (A)
                 (A) (A) (A) (A) (A) (A) (A) (A) (A) (A) (A) (A)
                 (A) (A) (A) (A) (A) (A) (A) (A) (A) (A) (A) (A)
                 (A) (A) (A) (A) (A) (A) (A) (A) (A) (A) (A) (A)
                 (A) (A) (A) (A) (A) (A) (A) (A) (A) (A) (A) (A)
                 (A) (A) (A) (A) (A) (A) (A) (A) (A) (A) (A) (A)
                 (A) (A) (A) (A) (A) (A) (A) (A) (A) (A) (A) (A)
                 (A) (A) (A) (A) (A) (A) (A) (A) (A) (A) (A) (A)
                 (A) (A) (A) (A) (A) (A) (A) (A) (A) (A) (A) (A)
                 (A) (A) (A) (A) (A) (A) (A) (A) (A) (A) (A)
 Harris functional with IExCor=  402 diagonalized for initial guess.
 ExpMin= 1.17D-01 ExpMax= 2.19D+04 ExpMxC= 3.30D+03 IAcc=3 IRadAn=         5 AccDes= 0.00D+00
 HarFok:  IExCor=  402 AccDes= 0.00D+00 IRadAn=         5 IDoV= 1
 ScaDFX=  1.000000  1.000000  1.000000  1.000000
 FoFCou: FMM=F IPFlag=           0 FMFlag=      100000 FMFlg1=           0
         NFxFlg=           0 DoJE=T BraDBF=F KetDBF=T FulRan=T
         Omega=  0.000000  0.000000  1.000000  0.000000  0.000000 ICntrl=     500 IOpCl=  0
         NMat0=    1 NMatS0=    1 NMatT0=    0 NMatD0=    1 NMtDS0=    0 NMtDT0=    0
         I1Cent=           4 NGrid=           0.
 Petite list used in FoFCou.
 Requested convergence on RMS density matrix=1.00D-08 within 128 cycles.
 Requested convergence on MAX density matrix=1.00D-06.
 Requested convergence on             energy=1.00D-06.
 No special actions if energy rises.
 Integral accuracy reduced to 1.0D-05 until final iterations.
 Initial convergence to 1.0D-05 achieved.  Increase integral accuracy.
 SCF Done:  E(RB3LYP) =  -1366.27737539     A.U. after   15 cycles
             Convg  =    0.5574D-08             -V/T =  2.0061
 Calling FoFJK, ICntrl=      2127 FMM=F ISym2X=0 I1Cent= 0 IOpClX= 0 NMat=1 NMatS=1 NMatT=0.
 ***** Axes restored to original set *****
 -------------------------------------------------------------------
 Center     Atomic                   Forces (Hartrees/Bohr)
 Number     Number              X              Y              Z
 -------------------------------------------------------------------
      1        6          -0.002723024    0.004355275   -0.002936201
      2        6           0.003163365   -0.002139050   -0.000900156
      3        6          -0.002805326    0.002163270   -0.005571025
      4        6          -0.017326090   -0.002226321   -0.018069696
      5        7          -0.008376647   -0.002930827   -0.003370123
      6        7           0.019931764    0.011991215    0.015275307
      7        8          -0.001447398    0.005918159    0.006832690
      8        8           0.009024272    0.002139121    0.002848755
      9        8           0.001204674   -0.006798352   -0.000350263
     10        8           0.002504338    0.004894374   -0.001721680
     11       16          -0.003744022   -0.003785209   -0.004208262
     12       16          -0.001955844   -0.005351815    0.003100481
     13        1           0.000495094   -0.000508917   -0.000147808
     14        1          -0.000148621   -0.001270648    0.000583775
     15        1           0.000927460   -0.001321948   -0.000434823
     16        1          -0.001383458   -0.000128316    0.001283816
     17        1          -0.000983778    0.000734816    0.000414412
     18        1          -0.000092132    0.000059538    0.000963091
     19        1           0.001073179   -0.000029445    0.001118606
     20        1          -0.000037805   -0.000420047   -0.000651464
     21        1          -0.000430033   -0.000253985   -0.000180307
     22        1           0.003422028   -0.002172775    0.005438036
     23        1           0.001671110    0.000661497    0.001769929
     24        1          -0.001963107   -0.003579612   -0.001087090
 -------------------------------------------------------------------
 Cartesian Forces:  Max     0.019931764 RMS     0.005299653

 GradGradGradGradGradGradGradGradGradGradGradGradGradGradGradGradGradGrad
 Berny optimization.
 Using GEDIIS/GDIIS optimizer.
 Internal  Forces:  Max     0.023288728 RMS     0.004743652
 Search for a local minimum.
 Step number   2 out of a maximum of  126
 All quantities printed in internal units (Hartrees-Bohrs-Radians)
 Mixed Optimization -- RFO/linear search
 Update second derivatives using D2CorX and points    1    2
 DE= -6.07D-03 DEPred=-2.60D-02 R= 2.34D-01
 Trust test= 2.34D-01 RLast= 5.33D-01 DXMaxT set to 3.00D-01
 ITU=  0  0
 Use linear search instead of GDIIS.
     Eigenvalues ---    0.00230   0.00272   0.00413   0.00651   0.00817
     Eigenvalues ---    0.01399   0.01403   0.02003   0.02300   0.03211
     Eigenvalues ---    0.04797   0.05468   0.05728   0.05862   0.06025
     Eigenvalues ---    0.06301   0.06924   0.07680   0.07846   0.08709
     Eigenvalues ---    0.09320   0.09820   0.11854   0.12579   0.13072
     Eigenvalues ---    0.13215   0.15492   0.16000   0.16000   0.16000
     Eigenvalues ---    0.16000   0.16000   0.16000   0.16000   0.16007
     Eigenvalues ---    0.16835   0.18462   0.19185   0.19997   0.21530
     Eigenvalues ---    0.22727   0.24125   0.24983   0.26101   0.28000
     Eigenvalues ---    0.29734   0.33552   0.34083   0.34181   0.34271
     Eigenvalues ---    0.34334   0.34383   0.34531   0.34577   0.34643
     Eigenvalues ---    0.34646   0.34782   0.36207   0.36778   0.39238
     Eigenvalues ---    0.41991   0.43296   0.92651   0.93817   0.94538
     Eigenvalues ---    0.95882
 RFO step:  Lambda=-1.05840386D-02 EMin= 2.29972846D-03
 Quartic linear search produced a step of -0.44693.
 Iteration  1 RMS(Cart)=  0.21176535 RMS(Int)=  0.02266391
 Iteration  2 RMS(Cart)=  0.07357605 RMS(Int)=  0.00191774
 Iteration  3 RMS(Cart)=  0.00252886 RMS(Int)=  0.00065524
 Iteration  4 RMS(Cart)=  0.00000459 RMS(Int)=  0.00065524
 Iteration  5 RMS(Cart)=  0.00000000 RMS(Int)=  0.00065524
 Variable       Old X    -DE/DX   Delta X   Delta X   Delta X     New X
                                 (Linear)    (Quad)   (Total)
    R1        2.88937   0.00260  -0.00195   0.00848   0.00653   2.89590
    R2        2.06835   0.00051  -0.00067   0.00208   0.00141   2.06976
    R3        2.06878  -0.00032   0.00065  -0.00174  -0.00109   2.06770
    R4        2.06402  -0.00129   0.00205  -0.00596  -0.00391   2.06012
    R5        2.77088  -0.00161  -0.00015  -0.00224  -0.00238   2.76850
    R6        2.06179  -0.00011   0.00119  -0.00240  -0.00122   2.06057
    R7        2.07930  -0.00001  -0.00760   0.01421   0.00661   2.08590
    R8        2.06862  -0.00016  -0.00040   0.00048   0.00008   2.06871
    R9        3.38389   0.00484  -0.01006   0.02807   0.01801   3.40190
   R10        2.06450  -0.00013  -0.00037   0.00049   0.00012   2.06462
   R11        2.06145  -0.00009   0.00049  -0.00105  -0.00057   2.06088
   R12        2.06418  -0.00012  -0.00072   0.00114   0.00042   2.06461
   R13        2.83233  -0.02329   0.02163  -0.08341  -0.06178   2.77055
   R14        3.56545  -0.00242  -0.01647   0.02267   0.00620   3.57165
   R15        2.06545   0.00010   0.00328  -0.00596  -0.00268   2.06276
   R16        3.18911  -0.00300   0.00389  -0.01191  -0.00802   3.18108
   R17        1.92996  -0.00114   0.01127  -0.02301  -0.01175   1.91821
   R18        3.24904  -0.00550  -0.02197   0.03293   0.01096   3.26000
   R19        1.93150  -0.00037   0.00376  -0.00767  -0.00391   1.92759
   R20        2.74866   0.00684  -0.00370   0.01149   0.00779   2.75646
   R21        2.76691   0.00603  -0.01081   0.02523   0.01442   2.78133
   R22        2.75532   0.00294  -0.00263   0.00705   0.00442   2.75974
   R23        2.76059   0.00520  -0.00547   0.01409   0.00862   2.76921
    A1        1.96269  -0.00051  -0.00572   0.00674   0.00099   1.96367
    A2        1.91057  -0.00169   0.00966  -0.02196  -0.01229   1.89828
    A3        1.92559   0.00006   0.00639  -0.00920  -0.00279   1.92280
    A4        1.88651   0.00092  -0.00446   0.00824   0.00373   1.89024
    A5        1.88003   0.00015   0.00100  -0.00077   0.00020   1.88023
    A6        1.89688   0.00119  -0.00746   0.01828   0.01090   1.90778
    A7        1.90911  -0.00272   0.01750  -0.03845  -0.02098   1.88813
    A8        1.99794  -0.00010  -0.02737   0.04375   0.01635   2.01429
    A9        1.88473  -0.00026   0.00354  -0.00536  -0.00168   1.88305
   A10        1.90838   0.00073   0.00695  -0.01130  -0.00451   1.90388
   A11        1.88463   0.00120  -0.00210   0.00972   0.00776   1.89239
   A12        1.87561   0.00132   0.00190   0.00137   0.00338   1.87899
   A13        1.86941  -0.00254   0.00634  -0.01971  -0.01335   1.85605
   A14        1.89719   0.00148   0.00143   0.00350   0.00493   1.90212
   A15        1.91357   0.00083  -0.00569   0.01200   0.00629   1.91986
   A16        1.92513   0.00057  -0.00279   0.00710   0.00435   1.92948
   A17        1.91786   0.00030   0.00030  -0.00120  -0.00092   1.91694
   A18        1.93924  -0.00069   0.00056  -0.00214  -0.00161   1.93763
   A19        1.87030   0.00348   0.00506   0.00702   0.01216   1.88246
   A20        1.88824   0.01460   0.01523   0.01264   0.02800   1.91624
   A21        1.89960  -0.00249  -0.00986   0.04274   0.03291   1.93251
   A22        2.12843  -0.02034  -0.02978  -0.03008  -0.06015   2.06828
   A23        1.84348   0.00691   0.01815  -0.00072   0.01590   1.85938
   A24        1.82453  -0.00169   0.00168  -0.02340  -0.02276   1.80177
   A25        2.09531   0.00102  -0.01023   0.01920   0.00910   2.10441
   A26        2.00977   0.00016  -0.00662   0.00822   0.00170   2.01147
   A27        1.91511  -0.00001   0.00281  -0.00732  -0.00431   1.91080
   A28        2.13087  -0.01525  -0.06479   0.05985  -0.00322   2.12765
   A29        1.90632   0.00913   0.00003  -0.01307  -0.01050   1.89581
   A30        1.91182   0.00097  -0.00872  -0.04138  -0.04761   1.86421
   A31        1.72698   0.00202   0.01760  -0.02852  -0.01116   1.71582
   A32        1.88711   0.00373   0.00873   0.01222   0.02107   1.90819
   A33        1.85123   0.00532   0.02608  -0.01827   0.00720   1.85843
   A34        1.87972  -0.00356  -0.00015  -0.01916  -0.01838   1.86135
   A35        1.95306  -0.00613  -0.04558   0.04112  -0.00380   1.94926
   A36        2.12287  -0.00013  -0.00249   0.00478   0.00375   2.12662
   A37        1.92256  -0.00622  -0.04085   0.04816   0.00679   1.92935
   A38        1.85803   0.00220   0.02384  -0.03975  -0.01401   1.84401
   A39        1.84142   0.00178   0.04428  -0.05857  -0.01358   1.82784
   A40        1.87631  -0.00372  -0.02050  -0.00074  -0.02176   1.85456
   A41        1.85804   0.00261   0.00051   0.00495   0.00404   1.86208
   A42        2.10428   0.00241  -0.01458   0.05013   0.03818   2.14246
    D1       -1.19334   0.00740   0.01344   0.01635   0.02987  -1.16347
    D2        1.13125  -0.00542  -0.00996  -0.00777  -0.01795   1.11331
    D3        3.10407  -0.00120  -0.00537  -0.00723  -0.01250   3.09157
    D4        0.90385   0.00707   0.01061   0.01611   0.02685   0.93071
    D5       -3.05473  -0.00575  -0.01279  -0.00801  -0.02097  -3.07570
    D6       -1.08192  -0.00152  -0.00820  -0.00747  -0.01552  -1.09744
    D7        2.99051   0.00751   0.01162   0.01921   0.03089   3.02140
    D8       -0.96808  -0.00531  -0.01178  -0.00491  -0.01693  -0.98500
    D9        1.00474  -0.00108  -0.00719  -0.00437  -0.01148   0.99326
   D10        0.77665  -0.00108   0.00723  -0.00847  -0.00106   0.77560
   D11        3.12631   0.00036  -0.00823   0.01330   0.00514   3.13145
   D12       -1.37163   0.00014   0.00487   0.00470   0.00953  -1.36210
   D13        0.97803   0.00158  -0.01058   0.02647   0.01572   0.99376
   D14        2.82354  -0.00129   0.01679  -0.02091  -0.00408   2.81946
   D15       -1.10999   0.00016   0.00133   0.00086   0.00212  -1.10787
   D16       -3.11947  -0.00106  -0.01458   0.01522   0.00066  -3.11881
   D17       -1.16386  -0.00299  -0.00406  -0.01394  -0.01798  -1.18183
   D18        1.13918   0.00312   0.01939  -0.01239   0.00700   1.14618
   D19       -1.03949  -0.00101  -0.01352   0.01451   0.00098  -1.03851
   D20        0.91612  -0.00293  -0.00300  -0.01465  -0.01765   0.89847
   D21       -3.06403   0.00317   0.02046  -0.01310   0.00732  -3.05670
   D22        1.08345  -0.00041  -0.01543   0.02148   0.00606   1.08951
   D23        3.03907  -0.00233  -0.00491  -0.00768  -0.01258   3.02649
   D24       -0.94108   0.00377   0.01855  -0.00613   0.01240  -0.92868
   D25       -2.92422  -0.00090  -0.08064  -0.24965  -0.33070   3.02827
   D26        1.09791   0.00236  -0.01626  -0.23009  -0.24610   0.85181
   D27        1.17240  -0.00861  -0.08299  -0.25003  -0.33337   0.83903
   D28       -1.08865  -0.00534  -0.01861  -0.23047  -0.24877  -1.33742
   D29       -0.90086   0.00117  -0.08054  -0.19788  -0.27866  -1.17952
   D30        3.12127   0.00443  -0.01616  -0.17832  -0.19406   2.92721
   D31       -1.54865  -0.00295  -0.02713  -0.06490  -0.09228  -1.64093
   D32        2.70534   0.00339   0.00531  -0.06655  -0.06239   2.64295
   D33        0.45011  -0.00190  -0.02523  -0.06742  -0.09162   0.35848
   D34        0.62977  -0.00047  -0.03007  -0.06736  -0.09793   0.53184
   D35       -1.39943   0.00587   0.00238  -0.06901  -0.06804  -1.46747
   D36        2.62852   0.00058  -0.02816  -0.06989  -0.09727   2.53125
   D37        2.71222  -0.00581  -0.02359  -0.10795  -0.13116   2.58106
   D38        0.68302   0.00053   0.00886  -0.10961  -0.10127   0.58176
   D39       -1.57221  -0.00476  -0.02168  -0.11048  -0.13050  -1.70272
   D40        1.19303   0.00177   0.00183   0.00630   0.00858   1.20161
   D41       -3.07244  -0.00096  -0.00003  -0.01602  -0.01649  -3.08893
   D42       -0.79514   0.00132  -0.02984   0.04884   0.01904  -0.77610
   D43       -1.19478   0.00035   0.02022  -0.01996   0.00067  -1.19410
   D44        0.82294  -0.00238   0.01836  -0.04227  -0.02439   0.79854
   D45        3.10024  -0.00009  -0.01145   0.02258   0.01113   3.11137
   D46        2.70854  -0.00074   0.04945   0.02093   0.07041   2.77895
   D47        0.74708  -0.00457   0.03240   0.02506   0.05735   0.80444
   D48       -1.62991   0.00425   0.07093  -0.00028   0.07182  -1.55809
   D49       -1.31594  -0.00057  -0.01039   0.01361   0.00252  -1.31342
   D50        3.00579  -0.00440  -0.02743   0.01773  -0.01053   2.99525
   D51        0.62880   0.00442   0.01109  -0.00760   0.00393   0.63273
         Item               Value     Threshold  Converged?
 Maximum Force            0.023289     0.000450     NO 
 RMS     Force            0.004744     0.000300     NO 
 Maximum Displacement     0.945489     0.001800     NO 
 RMS     Displacement     0.276876     0.001200     NO 
 Predicted change in Energy=-1.917345D-03
 GradGradGradGradGradGradGradGradGradGradGradGradGradGradGradGradGradGrad

                          Input orientation:                          
 ---------------------------------------------------------------------
 Center     Atomic      Atomic             Coordinates (Angstroms)
 Number     Number       Type             X           Y           Z
 ---------------------------------------------------------------------
      1          6           0       -0.083835    1.712136   -1.703724
      2          6           0        3.174120   -0.239203   -1.373459
      3          6           0       -1.606168   -2.990406   -2.502524
      4          6           0       -0.273725    0.463797   -0.835401
      5          7           0        2.367023   -0.676814   -0.231798
      6          7           0       -0.552312   -0.666042   -1.727218
      7          8           0       -1.500314   -2.239743    0.053291
      8          8           0        0.645734   -2.956543   -1.146777
      9          8           0        0.610288   -0.387679    1.549564
     10          8           0        1.719252    1.664084    0.474253
     11         16           0       -0.663728   -2.284588   -1.140770
     12         16           0        1.156614    0.313569    0.390888
     13          1           0        0.813966    1.655715   -2.328536
     14          1           0       -0.952834    1.820034   -2.359793
     15          1           0        0.004836    2.597846   -1.074345
     16          1           0        3.463886    0.798793   -1.207348
     17          1           0        2.685186   -0.324047   -2.359433
     18          1           0        4.081014   -0.851821   -1.398703
     19          1           0       -1.775741   -4.039266   -2.247965
     20          1           0       -2.554766   -2.459532   -2.590161
     21          1           0       -1.031815   -2.922105   -3.429402
     22          1           0       -1.146688    0.571979   -0.189064
     23          1           0        2.030102   -1.633080   -0.280920
     24          1           0        0.142055   -0.670132   -2.474424
 ---------------------------------------------------------------------
                    Distance matrix (angstroms):
                    1          2          3          4          5
     1  C    0.000000
     2  C    3.811964   0.000000
     3  C    5.006944   5.629838   0.000000
     4  C    1.532446   3.559685   4.060323   0.000000
     5  N    3.725635   1.465025   5.127880   2.939198   0.000000
     6  N    2.423996   3.767444   2.667280   1.466112   3.280079
     7  O    4.550919   5.280920   2.665876   3.098940   4.180948
     8  O    4.758048   3.718610   2.628738   3.555431   2.999531
     9  O    3.933816   3.890931   5.301536   2.682266   2.518525
    10  O    2.827900   3.025423   6.448558   2.669802   2.529412
    11  S    4.077622   4.355092   1.800208   2.792665   3.549172
    12  S    2.807509   2.736568   5.188551   1.890034   1.683356
    13  H    1.095272   3.173833   5.241543   2.198452   3.499856
    14  H    1.094179   4.716467   4.856702   2.150426   4.667340
    15  H    1.090166   4.264115   5.988622   2.165376   4.124708
    16  H    3.696878   1.090409   6.460724   3.770982   2.081399
    17  H    3.499067   1.103812   5.054272   3.420311   2.180024
    18  H    4.900294   1.094712   6.175436   4.583876   2.080879
    19  H    6.019748   6.301299   1.092548   4.952673   5.703815
    20  H    4.928902   6.263414   1.090571   4.102216   5.741425
    21  H    5.035159   5.395810   1.092542   4.332191   5.178620
    22  H    2.173432   4.553042   4.272448   1.091567   3.729273
    23  H    4.205184   2.108391   4.472172   3.164169   1.015073
    24  H    2.514002   3.254419   2.905297   2.035943   3.159098
                    6          7          8          9         10
     6  N    0.000000
     7  O    2.558409   0.000000
     8  O    2.649267   2.561150   0.000000
     9  O    3.488040   3.181763   3.724321   0.000000
    10  O    3.928863   5.077665   5.013020   2.568234   0.000000
    11  S    1.725116   1.458653   1.471819   3.529770   4.886605
    12  S    2.892480   3.700358   3.649526   1.460394   1.465402
    13  H    2.760228   5.118945   4.764219   4.388235   2.945376
    14  H    2.596371   4.754419   5.180976   4.753989   3.898227
    15  H    3.374852   5.190309   5.591711   4.020551   2.491844
    16  H    4.306489   5.955266   4.695550   4.141413   2.572987
    17  H    3.316330   5.197071   3.543999   4.426003   3.593810
    18  H    4.648671   5.931766   4.036641   4.577515   3.926279
    19  H    3.625823   2.934267   2.872011   5.783463   7.221749
    20  H    2.823313   2.854473   3.545924   5.607803   6.682968
    21  H    2.866561   3.579701   2.832973   5.823222   6.621180
    22  H    2.062013   2.844217   4.071911   2.651554   3.137881
    23  H    3.113808   3.597718   2.101841   2.630127   3.396794
    24  H    1.020039   3.398588   2.691470   4.060972   4.078089
                   11         12         13         14         15
    11  S    0.000000
    12  S    3.522789   0.000000
    13  H    4.372684   3.051890   0.000000
    14  H    4.291564   3.779610   1.774700   0.000000
    15  H    4.928443   2.948122   1.765020   1.781713   0.000000
    16  H    5.152559   2.848386   3.002241   4.677443   3.901193
    17  H    4.067442   3.210506   2.724312   4.222827   4.168115
    18  H    4.963056   3.621171   4.222076   5.779457   5.349825
    19  H    2.354007   5.874473   6.256668   5.917861   6.971305
    20  H    2.389009   5.509182   5.324665   4.575362   5.867395
    21  H    2.404112   5.463829   5.057199   4.861912   6.090222
    22  H    3.049421   2.389210   3.097739   2.511430   2.492763
    23  H    2.901814   2.236906   4.060528   5.014341   4.757306
    24  H    2.243744   3.194841   2.425348   2.722655   3.557911
                   16         17         18         19         20
    16  H    0.000000
    17  H    1.787300   0.000000
    18  H    1.772566   1.774791   0.000000
    19  H    7.207176   5.806474   6.721802   0.000000
    20  H    6.982336   5.663093   6.930936   1.794307   0.000000
    21  H    6.244512   4.659489   5.877996   1.788090   1.799355
    22  H    4.727128   4.494065   5.551513   5.089043   4.115581
    23  H    2.971197   2.542227   2.462934   4.913597   5.199676
    24  H    3.846788   2.569146   4.087246   3.883335   3.238547
                   21         22         23         24
    21  H    0.000000
    22  H    4.766719   0.000000
    23  H    4.577102   3.868167   0.000000
    24  H    2.713179   2.902855   3.050155   0.000000
 Stoichiometry    C4H12N2O4S2
 Framework group  C1[X(C4H12N2O4S2)]
 Deg. of freedom    66
 Full point group                 C1      NOp   1
 Largest Abelian subgroup         C1      NOp   1
 Largest concise Abelian subgroup C1      NOp   1
                         Standard orientation:                         
 ---------------------------------------------------------------------
 Center     Atomic      Atomic             Coordinates (Angstroms)
 Number     Number       Type             X           Y           Z
 ---------------------------------------------------------------------
      1          6           0       -1.200466    2.151027    1.091798
      2          6           0       -1.805771   -1.572592    1.638917
      3          6           0        3.430627    0.283056    0.726897
      4          6           0       -0.440433    1.310806    0.059922
      5          7           0       -1.362881   -1.473682    0.245947
      6          7           0        0.841652    0.920501    0.654402
      7          8           0        2.005101    0.257888   -1.525687
      8          8           0        1.635019   -1.571058    0.228589
      9          8           0       -1.092925   -0.313007   -1.972820
     10          8           0       -2.928216    0.426228   -0.335424
     11         16           0        1.917355   -0.173059   -0.134912
     12         16           0       -1.569663   -0.044317   -0.618833
     13          1           0       -1.496178    1.568602    1.970978
     14          1           0       -0.554815    2.969840    1.423321
     15          1           0       -2.106173    2.563637    0.646928
     16          1           0       -2.797201   -1.124799    1.713335
     17          1           0       -1.139969   -1.100826    2.382250
     18          1           0       -1.885947   -2.634697    1.891701
     19          1           0        4.225414   -0.332805    0.299475
     20          1           0        3.631696    1.341047    0.554930
     21          1           0        3.331112    0.071520    1.794135
     22          1           0       -0.204538    1.905685   -0.824381
     23          1           0       -0.440683   -1.853362    0.056824
     24          1           0        0.667239    0.542264    1.585527
 ---------------------------------------------------------------------
 Rotational constants (GHZ):      1.1720934      0.5275611      0.5102666
 Standard basis: 6-31G(d) (6D, 7F)
 There are   212 symmetry adapted basis functions of A   symmetry.
 Integral buffers will be    131072 words long.
 Raffenetti 2 integral format.
 Two-electron integral symmetry is turned on.
   212 basis functions,   432 primitive gaussians,   212 cartesian basis functions
    57 alpha electrons       57 beta electrons
       nuclear repulsion energy      1131.0363769502 Hartrees.
 NAtoms=   24 NActive=   24 NUniq=   24 SFac= 1.00D+00 NAtFMM=   60 NAOKFM=F Big=F
 One-electron integrals computed using PRISM.
 NBasis=   212 RedAO= T  NBF=   212
 NBsUse=   212 1.00D-06 NBFU=   212
 Initial guess read from the read-write file.
 B after Tr=     0.000000    0.000000    0.000000
         Rot=    1.000000    0.000000    0.000000    0.000000 Ang=   0.00 deg.
 Initial guess orbital symmetries:
       Occupied  (A) (A) (A) (A) (A) (A) (A) (A) (A) (A) (A) (A)
                 (A) (A) (A) (A) (A) (A) (A) (A) (A) (A) (A) (A)
                 (A) (A) (A) (A) (A) (A) (A) (A) (A) (A) (A) (A)
                 (A) (A) (A) (A) (A) (A) (A) (A) (A) (A) (A) (A)
                 (A) (A) (A) (A) (A) (A) (A) (A) (A)
       Virtual   (A) (A) (A) (A) (A) (A) (A) (A) (A) (A) (A) (A)
                 (A) (A) (A) (A) (A) (A) (A) (A) (A) (A) (A) (A)
                 (A) (A) (A) (A) (A) (A) (A) (A) (A) (A) (A) (A)
                 (A) (A) (A) (A) (A) (A) (A) (A) (A) (A) (A) (A)
                 (A) (A) (A) (A) (A) (A) (A) (A) (A) (A) (A) (A)
                 (A) (A) (A) (A) (A) (A) (A) (A) (A) (A) (A) (A)
                 (A) (A) (A) (A) (A) (A) (A) (A) (A) (A) (A) (A)
                 (A) (A) (A) (A) (A) (A) (A) (A) (A) (A) (A) (A)
                 (A) (A) (A) (A) (A) (A) (A) (A) (A) (A) (A) (A)
                 (A) (A) (A) (A) (A) (A) (A) (A) (A) (A) (A) (A)
                 (A) (A) (A) (A) (A) (A) (A) (A) (A) (A) (A) (A)
                 (A) (A) (A) (A) (A) (A) (A) (A) (A) (A) (A) (A)
                 (A) (A) (A) (A) (A) (A) (A) (A) (A) (A) (A)
 Harris functional with IExCor=  402 diagonalized for initial guess.
 ExpMin= 1.17D-01 ExpMax= 2.19D+04 ExpMxC= 3.30D+03 IAcc=3 IRadAn=         5 AccDes= 0.00D+00
 HarFok:  IExCor=  402 AccDes= 0.00D+00 IRadAn=         5 IDoV= 1
 ScaDFX=  1.000000  1.000000  1.000000  1.000000
 FoFCou: FMM=F IPFlag=           0 FMFlag=      100000 FMFlg1=           0
         NFxFlg=           0 DoJE=T BraDBF=F KetDBF=T FulRan=T
         Omega=  0.000000  0.000000  1.000000  0.000000  0.000000 ICntrl=     500 IOpCl=  0
         NMat0=    1 NMatS0=    1 NMatT0=    0 NMatD0=    1 NMtDS0=    0 NMtDT0=    0
         I1Cent=           4 NGrid=           0.
 Petite list used in FoFCou.
 Requested convergence on RMS density matrix=1.00D-08 within 128 cycles.
 Requested convergence on MAX density matrix=1.00D-06.
 Requested convergence on             energy=1.00D-06.
 No special actions if energy rises.
 Integral accuracy reduced to 1.0D-05 until final iterations.
 Initial convergence to 1.0D-05 achieved.  Increase integral accuracy.
 SCF Done:  E(RB3LYP) =  -1366.28126677     A.U. after   15 cycles
             Convg  =    0.5906D-08             -V/T =  2.0060
 Calling FoFJK, ICntrl=      2127 FMM=F ISym2X=0 I1Cent= 0 IOpClX= 0 NMat=1 NMatS=1 NMatT=0.
 ***** Axes restored to original set *****
 -------------------------------------------------------------------
 Center     Atomic                   Forces (Hartrees/Bohr)
 Number     Number              X              Y              Z
 -------------------------------------------------------------------
      1        6          -0.003711657   -0.000462586    0.000316875
      2        6           0.001282970    0.000368482    0.001058133
      3        6          -0.000897621   -0.001186003   -0.001073464
      4        6          -0.007618572    0.001592838   -0.004631889
      5        7          -0.005559593    0.005310463   -0.002791813
      6        7           0.016393866   -0.003667767    0.000087093
      7        8           0.001790789   -0.000920346    0.000789858
      8        8           0.003352314    0.001685591    0.001497548
      9        8           0.001654173   -0.000823247    0.001088862
     10        8           0.001874395    0.001289658    0.003083458
     11       16          -0.014428808    0.003629286   -0.001967994
     12       16           0.003874569    0.000078504   -0.002434055
     13        1           0.000498715   -0.001212932    0.000775746
     14        1          -0.000688898    0.000437895   -0.000077486
     15        1           0.000397794   -0.000198651    0.000018457
     16        1           0.000623322    0.000769936   -0.000359519
     17        1          -0.001219163   -0.000432959    0.002608892
[...]
 00033783,0.00001172,-0.00009523,0.00013111,0.00004093,-0.00074111,-0.0
 0010327,-0.00007764,-0.00024188,0.00112188,0.00041070,0.00051242,0.002
 08125,-0.00054020,0.00068408,-0.00060719,0.00010645,-0.00001924,-0.006
 00417,0.00022588,-0.00006468,-0.00000390,-0.00013029,0.00005972,0.0000
 1248,-0.00001592,-0.00004033,0.00005419,-0.00001278,0.06053710,-0.0000
 8276,-0.00004797,0.00005683,-0.00772928,-0.31797197,0.05676213,-0.0000
 3219,0.00001686,-0.00000603,-0.00003578,0.00001669,0.00014730,-0.00582
 826,-0.00724840,0.00096349,-0.00013981,0.00004235,-0.00009109,-0.00006
 493,0.00001256,0.00000844,-0.00024157,-0.00002468,-0.00001980,-0.00030
 958,0.00039783,0.00032668,0.00240785,0.00008323,-0.00104474,0.00031819
 ,-0.00005666,0.00004067,0.00103780,-0.00237631,-0.00120263,0.00002455,
 0.00001259,-0.00001213,0.00001196,0.00001944,-0.00002534,0.00001589,0.
 00001713,-0.00000600,0.01043234,0.34232441,-0.00010304,-0.00004976,0.0
 0007997,-0.00129081,0.05453923,-0.06235626,-0.00000320,-0.00003418,0.0
 0001239,0.00017686,-0.00014195,0.00029909,0.00275989,0.00060346,-0.000
 73111,-0.00018720,-0.00024199,-0.00028085,-0.00001274,-0.00005475,-0.0
 0002965,0.00005077,-0.00006861,0.00000858,0.00008562,-0.00074366,-0.00
 005130,-0.00130292,-0.00151693,-0.00017944,0.00003434,0.00026407,-0.00
 001800,0.00130235,0.00432699,0.00059290,-0.00001444,0.00002658,-0.0000
 3284,-0.00000686,0.00002287,-0.00004480,0.00006391,-0.00003686,-0.0000
 0342,-0.00029985,-0.05967674,0.06027849,-0.00050012,-0.00017142,-0.000
 13213,-0.08665075,0.05214688,0.07660258,-0.00000347,-0.00007196,0.0000
 2445,0.00031945,0.00127417,0.00138632,-0.02598080,0.01785084,0.0241838
 7,0.00001091,-0.00049458,-0.00024133,-0.00001288,-0.00020673,-0.000119
 35,0.00019257,-0.00026023,-0.00014019,-0.00071085,0.00015249,0.0025220
 0,0.00125409,0.00095196,-0.00021865,0.00000861,0.00073703,0.00017400,-
 0.00354279,-0.00559506,-0.00169387,0.00003100,0.00002382,-0.00000829,-
 0.00001310,0.00015474,-0.00011129,0.00003261,-0.00002408,0.00001467,0.
 00088751,0.00006366,-0.00221168,0.10566739,-0.00009401,-0.00003305,-0.
 00004490,0.05775393,-0.12166025,-0.10572371,0.00002930,-0.00001739,0.0
 0000739,0.00000004,0.00046365,0.00024951,-0.00884085,0.00651695,0.0084
 8560,0.00021096,-0.00010584,0.00007915,0.00005634,-0.00003110,-0.00000
 610,0.00024241,-0.00001933,0.00000442,-0.00016840,0.00053454,0.0008335
 5,0.00213552,0.00091808,-0.00070301,-0.00025617,0.00014865,-0.00003499
 ,-0.00296770,-0.00309906,0.00041137,-0.00000635,-0.00000096,-0.0000308
 5,0.00001496,0.00004428,-0.00001575,-0.00003018,0.00002050,0.00001138,
 0.01267612,-0.01273078,-0.02559165,-0.05768655,0.12459062,0.00003951,-
 0.00001342,0.00003850,0.08021955,-0.10606615,-0.20977927,-0.00000569,0
 .00003366,-0.00000764,-0.00019736,0.00008776,0.00000738,0.00409450,0.0
 0108091,0.00160257,0.00016686,0.00017459,0.00005284,0.00001301,0.00007
 675,-0.00000526,-0.00006127,0.00015061,0.00001664,0.00011011,-0.000092
 98,0.00012922,0.00032867,0.00004445,0.00019501,-0.00001374,-0.00034930
 ,0.00002807,-0.00217790,0.00112003,0.00097485,-0.00000276,0.00000768,-
 0.00001762,0.00001064,-0.00000487,-0.00000286,-0.00000733,0.00000844,-
 0.00000621,-0.00448161,0.00348390,0.00696843,-0.08910570,0.11549625,0.
 22008007,-0.00003687,-0.00008308,0.00004842,-0.10897900,0.02554751,-0.
 10355771,-0.00003707,-0.00007724,0.00002450,-0.00064873,-0.00011353,0.
 00090208,-0.03319461,0.00296149,-0.02031881,-0.00118643,0.00004735,0.0
 0022522,-0.00018734,-0.00021833,0.00019988,-0.00018399,-0.00041957,0.0
 0010210,0.00039905,-0.00041815,0.00119318,0.00099116,0.00144752,0.0007
 3986,0.00067467,0.00107121,-0.00030708,0.00110689,-0.00436049,-0.00896
 538,0.00002608,-0.00007101,0.00000644,0.00000814,0.00003423,-0.0000391
 0,-0.00001892,0.00003259,0.00000940,0.00183075,0.00097410,0.00073296,0
 .00855332,-0.00334152,0.01075574,0.12948474,-0.00008264,-0.00001271,0.
 00005141,0.02619732,-0.06570608,0.04348955,0.00001271,-0.00004255,0.00
 001121,-0.00001115,-0.00010004,0.00012635,-0.00903678,0.00440910,-0.00
 823785,-0.00038011,-0.00009177,-0.00001399,-0.00001393,-0.00008460,0.0
 0001933,0.00009392,-0.00014982,0.00005201,-0.00015061,-0.00033359,0.00
 022986,-0.00062909,0.00038008,-0.00031549,0.00000967,0.00042317,-0.000
 08653,0.00170941,-0.00020347,-0.00047209,-0.00000087,-0.00002572,-0.00
 003052,0.00001611,0.00001309,-0.00003767,0.00000450,-0.00000985,0.0000
 0796,0.01554344,-0.00373726,0.02856965,-0.00882983,0.00423354,-0.01519
 619,-0.02440658,0.06044113,-0.00003743,0.00001559,-0.00005459,-0.10669
 949,0.04380670,-0.24244773,-0.00000301,-0.00002223,0.00000110,0.000419
 35,0.00012929,-0.00002108,0.00193947,-0.00251129,0.01047825,0.00002169
 ,-0.00020377,-0.00008958,-0.00004436,-0.00005029,0.00000829,-0.0000148
 4,-0.00011108,0.00000556,-0.00098467,0.00038876,0.00059247,0.00001779,
 0.00042349,0.00014075,0.00012208,0.00023596,-0.00002777,0.00137106,-0.
 00156881,0.00110794,0.00000788,-0.00001094,0.00002130,-0.00001940,0.00
 000844,-0.00000571,0.00000470,-0.00001725,0.00000484,-0.00163432,0.000
 37136,-0.00460531,-0.01128386,0.00643935,-0.02002398,0.11756570,-0.046
 95664,0.25465326,-0.00009245,-0.00006470,-0.00022832,0.00004440,0.0000
 4765,-0.00000990,-0.06739805,-0.06663723,0.02075602,-0.00092606,0.0002
 3624,0.00062649,-0.00012670,0.00008261,0.00000182,0.00001554,-0.003198
 53,-0.00298324,0.00031136,0.00145178,0.00001956,0.00028495,0.00264298,
 -0.00057754,-0.00008629,0.00019522,-0.00015883,-0.00025985,-0.00005390
 ,-0.00009877,-0.00520135,-0.01647272,0.00615499,0.00051086,-0.00046438
 ,0.00018789,0.00000322,0.00001187,0.00001054,0.00001167,-0.00000263,0.
 00000998,0.00002582,-0.00006289,0.00005383,0.00001064,0.00000197,-0.00
 000743,-0.00001777,-0.00000293,0.00000932,-0.00002026,-0.00000922,-0.0
 0000621,0.06672558,-0.00001392,-0.00001579,-0.00007227,0.00001977,0.00
 003486,-0.00001294,-0.06667113,-0.28927945,0.07247290,-0.00059818,0.00
 052619,0.00033258,-0.00009187,0.00006528,-0.00000651,-0.00082224,-0.00
 143542,-0.00166555,0.00112537,0.00144463,-0.00092015,0.00046486,0.0017
 7047,-0.00019458,-0.00002905,0.00017885,-0.00013948,-0.00019038,-0.000
 04224,-0.00008834,-0.00264747,-0.01161744,0.00436112,0.00029303,-0.000
 42562,0.00016330,0.00000147,0.00001013,0.00000024,-0.00000698,0.000023
 43,0.00000391,-0.00000197,-0.00001899,0.00001160,0.00001131,0.00000048
 ,-0.00000545,-0.00000949,-0.00000143,0.00000420,-0.00001222,-0.0000056
 6,-0.00000290,0.07359650,0.30806062,-0.00010186,-0.00008433,-0.0003208
 7,0.00006078,0.00005896,-0.00001775,0.02056239,0.07204181,-0.06852384,
 -0.00117821,0.00000220,0.00097670,-0.00018713,0.00008064,-0.00000215,-
 0.00155829,-0.00434351,-0.00286133,0.00102462,0.00227177,-0.00032794,0
 .00110351,0.00181827,-0.00063244,-0.00009634,0.00023012,-0.00024103,-0
 .00035383,-0.00012441,-0.00015444,-0.00665130,-0.02250813,0.00734140,0
 .00056512,-0.00051983,0.00029477,-0.00001414,0.00001037,0.00000567,0.0
 0001469,0.00000589,0.00000524,0.00002118,-0.00009025,0.00007080,0.0000
 1140,-0.00000171,-0.00001085,-0.00002405,0.00000119,0.00000657,-0.0000
 2836,-0.00000972,-0.00000544,-0.02044671,-0.07720232,0.07076682,-0.000
 02092,-0.00004161,-0.00008729,0.00000604,-0.00005195,0.00000436,-0.234
 02066,0.13446169,-0.02555093,0.00011489,-0.00053839,-0.00006102,0.0000
 9527,-0.00012697,-0.00002157,0.00160755,-0.00059101,0.00067646,0.00227
 123,-0.00124852,0.00098737,-0.00206049,-0.00119833,-0.00353196,0.00009
 959,-0.00020411,0.00009562,0.00018583,0.00000642,0.00006603,-0.0151626
 3,0.01105608,-0.00023092,-0.00030944,0.00045694,-0.00002501,-0.0000115
 0,0.00000102,-0.00000603,0.00003533,-0.00005308,0.00000318,0.00001445,
 -0.00001833,0.00002776,-0.00002087,-0.00000637,0.00000407,0.00001205,0
 .00000739,-0.00000651,0.00000855,0.00000742,0.00000382,0.01038079,-0.0
 0580207,0.00178579,0.24757562,-0.00006712,-0.00003608,-0.00011294,0.00
 002015,-0.00002083,-0.00000463,0.13571208,-0.14454621,0.02088883,0.000
 17004,-0.00007332,0.00012692,0.00004449,-0.00008861,-0.00001298,0.0001
 7471,-0.00028590,0.00016058,0.00020857,-0.00064470,0.00070190,-0.00392
 552,0.00076745,-0.00309779,0.00004046,-0.00010720,0.00005204,0.0000717
 2,-0.00003932,0.00003017,-0.01080476,0.00667928,-0.00139021,-0.0001389
 3,0.00026837,-0.00002221,0.00000453,0.00000021,0.00000038,0.00002529,-
 0.00005447,0.00001563,0.00001490,-0.00003163,0.00002914,-0.00001254,-0
 .00000411,0.00000159,0.00000166,0.00000364,-0.00000205,-0.00000030,0.0
 0000318,0.00000119,0.02446344,-0.01297969,0.00289211,-0.14463775,0.150
 92275,-0.00000144,-0.00007664,-0.00011626,0.00005893,-0.00005264,-0.00
 000942,-0.02425188,0.01997412,-0.05188673,0.00019884,-0.00020276,0.000
 19447,-0.00000043,-0.00012602,-0.00001727,0.00135955,-0.00025249,-0.00
 039256,0.00246592,-0.00139105,0.00083687,-0.00579578,-0.00160711,-0.00
 335969,0.00007399,-0.00014181,-0.00001156,0.00008124,-0.00005414,0.000
 00931,-0.01889618,0.01531445,-0.00244163,-0.00021970,0.00037350,0.0000
 5013,0.00001514,0.00001475,-0.00000537,-0.00000656,-0.00000837,0.00003
 404,-0.00000462,-0.00003330,0.00001165,-0.00002497,-0.00000820,0.00000
 376,0.00000031,0.00000743,-0.00000177,-0.00000624,0.00000696,-0.000000
 21,-0.00653738,0.00384766,-0.00141482,0.02935088,-0.02011953,0.0519002
 6,0.00000076,0.00003311,0.00006002,0.00001230,0.00000232,-0.00000950,-
 0.13604476,0.00522620,0.13174155,0.00012258,0.00020508,-0.00003149,-0.
 00006126,0.00005276,0.00007893,-0.00076117,0.00071862,0.00115504,-0.00
 032744,-0.00292096,-0.00545702,-0.00062417,-0.00036903,0.00139776,-0.0
 0010073,-0.00007530,0.00008403,-0.00001034,-0.00000451,0.00003542,0.01
 040286,0.00096463,-0.01556560,0.00015114,0.00011717,-0.00016482,0.0000
 1134,-0.00001111,0.00000512,-0.00000835,-0.00000100,0.00000870,-0.0000
 0172,0.00001089,-0.00001977,-0.00000011,0.00000103,-0.00000062,-0.0000
 1812,-0.00000205,0.00000289,-0.00000057,-0.00000043,0.00000182,-0.0042
 2872,0.00160283,0.00598410,-0.01094230,-0.00146674,0.02174489,0.142328
 23,0.00002621,0.00002398,0.00003311,-0.00003475,-0.00001330,0.00000533
 ,0.00537127,-0.04763536,-0.00531905,0.00014919,-0.00009154,0.00001515,
 0.00004813,0.00000056,0.00006320,-0.00063491,0.00029625,0.00193832,-0.
 00152735,-0.00048291,-0.00392769,-0.00018953,-0.00043309,0.00139057,-0
 .00003225,-0.00015112,0.00015636,0.00011640,0.00002182,0.00008163,0.00
 849859,-0.00133118,-0.01062217,-0.00008317,0.00027013,-0.00020502,-0.0
 0002792,-0.00002410,-0.00000586,0.00002407,-0.00002848,-0.00001798,0.0
 0000199,0.00000958,0.00000574,-0.00000329,-0.00000190,-0.00000090,-0.0
 0000055,0.00000417,-0.00000720,0.00001461,0.00000323,0.00000725,-0.015
 72446,0.00394083,0.02591909,0.00806988,-0.00003429,-0.01588666,-0.0035
 5453,0.04609901,-0.00001197,0.00004032,0.00007058,-0.00000963,0.000002
 68,0.00000069,0.13105562,-0.00471562,-0.24173427,0.00015977,-0.0003303
 5,-0.00007342,-0.00002768,0.00004548,0.00009131,-0.00117112,0.00087581
 ,0.00231302,-0.00261773,-0.00268993,-0.00395542,-0.00177868,0.00034068
 ,0.00332273,-0.00012139,-0.00014408,0.00016208,0.00005899,0.00001597,0
 .00007671,0.01606816,0.00060489,-0.01913413,0.00010053,0.00023732,-0.0
 0024737,-0.00000009,-0.00002806,0.00000574,0.00000651,-0.00001689,-0.0
 0000547,0.00000659,0.00001407,-0.00001581,0.00000128,0.00000273,0.0000
 0083,-0.00001268,-0.00000365,0.00000256,0.00000613,-0.00000013,0.00000
 120,0.00304467,-0.00077522,-0.00461961,-0.00336466,0.00014837,0.006660
 99,-0.14086186,0.00691593,0.25727506,0.00524964,0.00001993,-0.00505513
 ,0.00003280,0.00111508,-0.00002209,-0.00003161,-0.00008822,0.00007988,
 -0.18053022,-0.01242594,0.14251557,-0.00378929,0.00067431,-0.00071985,
 0.00554935,0.00175475,-0.00418092,-0.00109128,-0.00118581,-0.00004609,
 0.00013090,-0.00016703,0.00004071,0.00379707,0.00032843,-0.00124690,-0
 .00162183,-0.00208715,-0.00273600,0.00047512,0.00010841,0.00023035,-0.
 01980252,-0.00187816,0.01783536,0.00075639,0.00163545,-0.00099535,0.00
 060126,-0.00037519,0.00002616,0.00013983,-0.00032852,0.00035640,0.0000
 7824,-0.00005161,-0.00006336,-0.00026516,-0.00005594,-0.00002323,-0.00
 030198,-0.00003649,0.00004453,-0.00000939,0.00000412,-0.00004278,0.000
 00642,-0.00000328,-0.00002270,0.00002428,0.00006158,0.00002483,0.19119
 742,-0.01982691,-0.00187172,0.02093877,-0.00006275,-0.00036126,-0.0000
 1298,-0.00043400,0.00007926,0.00044667,-0.02103681,-0.05022016,0.01816
 569,0.00112354,0.00004647,0.00022390,0.02003342,-0.00196083,-0.0229942
 2,-0.00183744,0.00080291,0.00244062,-0.00097204,-0.00042189,0.00080000
 ,-0.00014793,-0.00044345,0.00004873,0.00023232,0.00021983,-0.00028515,
 0.00518625,-0.00055729,-0.00603242,0.00228981,0.00088500,-0.00073387,0
 .00113883,-0.00463129,0.00282506,0.00034776,0.00110147,-0.00055407,-0.
 00021056,0.00100469,-0.00073600,-0.00000111,0.00002857,0.00003304,0.00
 007689,0.00001553,-0.00002015,0.00007312,0.00002953,0.00000138,-0.0000
 0296,-0.00003773,0.00001007,-0.00001371,0.00000775,-0.00000612,0.00018
 598,0.00016526,0.00024720,0.01469007,0.06089216,0.00943573,0.00224139,
 -0.00960636,0.00003863,0.00093638,0.00000884,0.00012754,-0.00010519,-0
 .00019072,0.13532215,0.01170896,-0.19057077,-0.00334320,0.00105555,0.0
 0027578,0.01495665,-0.00482013,-0.01809938,-0.00021106,0.00187003,0.00
 047726,-0.00001604,-0.00041405,0.00034165,0.00046828,-0.00011280,-0.00
 040001,-0.00075318,-0.00175376,-0.00181834,0.00196230,0.00149575,-0.00
 174781,-0.00862964,0.00023853,0.01095045,-0.00066564,0.00240041,-0.000
 05354,-0.00001645,-0.00051856,0.00022809,-0.00009745,-0.00000048,0.000
 88124,0.00005478,-0.00002545,-0.00005373,-0.00024392,-0.00003182,0.000
 00592,-0.00021368,-0.00002727,-0.00000707,-0.00003101,-0.00001585,0.00
 003794,-0.00000204,-0.00001839,-0.00001285,-0.00005594,0.00000078,0.00
 001288,-0.14564104,-0.01106959,0.21107697,-0.00006906,-0.00038783,-0.0
 0016651,-0.00376681,-0.03639186,0.00707135,0.00068044,-0.00078156,0.00
 014373,-0.00053033,0.00203925,0.00402143,-0.05753673,-0.01616588,0.022
 22124,0.00032868,-0.00294277,-0.00075050,0.00109281,-0.00097662,-0.000
 32270,0.00556601,-0.00001288,0.00039113,-0.00108684,-0.00147477,0.0005
 8008,-0.00076428,0.00315924,0.00359897,-0.00851854,0.00451504,-0.00098
 162,0.00582143,0.01680178,-0.01073870,0.00010768,-0.00006283,0.0001327
 5,-0.00009342,0.00005435,-0.00008122,0.00005776,-0.00019882,0.00010114
 ,-0.00682485,-0.00084753,0.00037509,0.00080818,0.00037076,0.00046727,0
 .00078174,-0.00019261,-0.00074498,-0.00007730,-0.00009208,-0.00007015,
 0.00019216,0.00014213,0.00029015,0.00002691,0.00000784,-0.00000900,-0.
 00067868,0.00011298,-0.00063016,0.06514045,-0.00040429,-0.00012286,-0.
 00025519,0.00115176,-0.00261354,0.00331347,0.00056973,-0.00075084,0.00
 013840,0.00127717,0.00029242,0.00000596,-0.03817980,-0.39659992,0.0628
 6509,-0.00086245,-0.00132264,-0.00037852,0.00052888,-0.00113052,-0.000
 21697,0.00310043,-0.00297643,0.00018747,-0.00284839,0.00296174,0.00271
 516,0.00070783,0.00086056,-0.00130518,-0.00277263,0.00562882,-0.000266
 68,0.00389994,-0.02019547,0.00274561,0.00002350,-0.00007643,0.00010137
 ,-0.00006234,0.00012497,-0.00003903,-0.00000824,-0.00005199,0.00002920
 ,-0.00043475,0.00126824,-0.00012223,-0.00007729,0.00016956,0.00001537,
 0.00118582,0.00055168,-0.00038136,-0.00009095,-0.00006706,-0.00008464,
 0.00017088,0.00013913,0.00022181,-0.00000110,0.00002900,-0.00001675,0.
 00011673,0.00008988,-0.00003394,0.03219930,0.41350655,-0.00040380,-0.0
 0013551,-0.00035340,-0.00372227,0.00162983,-0.00139370,-0.00006426,0.0
 0003187,-0.00001674,0.00058504,0.00163345,0.00000617,0.02281410,0.1006
 4575,-0.04067161,0.00142830,-0.00059572,0.00043540,0.00053164,-0.00035
 136,-0.00065976,0.00145310,0.00026839,-0.00176094,-0.00189379,0.004485
 00,0.00070316,0.00268877,-0.00633259,-0.00357061,-0.00229290,0.0001369
 3,0.00147582,0.00103846,-0.03147433,0.00098227,0.00007584,-0.00009836,
 0.00017008,-0.00007284,0.00015947,0.00000803,-0.00008182,-0.00002536,0
 .00000994,0.00179772,-0.00016165,0.00007699,0.00044229,0.00025862,-0.0
 0018545,0.00020075,-0.00135256,0.00028223,0.00000279,-0.00000420,0.000
 00569,-0.00000160,-0.00001325,-0.00001509,-0.00003241,-0.00001530,-0.0
 0005229,0.00011370,-0.00015225,-0.00005855,-0.02348322,-0.06996410,0.0
 4580385,-0.00047886,0.00041395,-0.00033918,-0.00128835,-0.00061399,0.0
 0148200,-0.00027157,-0.00028329,0.00012543,0.00409330,-0.00046882,-0.0
 0502781,-0.00099461,0.00276390,0.00224318,-0.27900503,0.02006080,0.204
 92908,0.00284682,0.00087005,-0.00182780,-0.00119731,0.00187398,-0.0010
 1497,-0.00163903,0.00022565,0.00118677,-0.00110963,0.00098082,0.000383
 35,-0.00483401,0.00004612,0.00115903,0.00573936,-0.00397428,-0.0053118
 0,0.00028269,0.00019861,0.00023149,-0.00027625,0.00035334,0.00005427,0
 .00013722,-0.00016542,-0.00016282,0.00012629,0.00008033,-0.00008174,-0
 .00006188,-0.00004508,-0.00013496,0.00093069,0.00018581,-0.00004732,0.
 00011936,-0.00013019,-0.00038044,-0.00005694,-0.00003724,0.00012804,0.
 00004934,-0.00057702,-0.00054661,0.00008325,-0.00094473,-0.00181560,-0
 .00065740,0.00081027,-0.00112359,0.27746256,0.00081925,0.00121166,-0.0
 0090330,-0.00015858,-0.00000983,0.00021213,0.00108789,-0.00123375,-0.0
 0064878,0.02545582,-0.00016255,-0.01886007,0.00034740,-0.00131729,0.00
 125239,0.02422580,-0.06419480,-0.03008679,-0.00288726,-0.00553252,0.00
 517608,0.00309175,0.00098683,-0.00289323,-0.00045327,0.00018601,-0.000
 20683,-0.00061833,-0.00058189,-0.00006089,-0.02861195,0.00520827,0.020
 07442,0.00165586,-0.00009518,-0.00174114,-0.00068427,-0.00095522,0.000
 76812,-0.00007706,-0.00003900,0.00000006,-0.00056893,0.00003626,0.0004
 9202,-0.00006437,-0.00004033,-0.00010183,-0.00000637,0.00003547,-0.000
 03229,0.00013248,0.00001540,0.00000781,0.00005725,-0.00012923,-0.00037
 364,0.00029445,0.00015460,0.00020614,-0.00071387,-0.00063657,-0.000770
 77,-0.00182553,-0.00486271,-0.00300050,0.00112539,0.00028515,0.0014272
 2,-0.02162356,0.07167122,-0.00105607,0.00000381,0.00068161,-0.00106034
 ,-0.00035611,0.00143938,-0.00076913,0.00049746,0.00015868,0.01758334,-
 0.00702935,-0.01821073,0.00248595,0.00162791,0.00047042,0.16090384,-0.
 02483711,-0.14120204,0.00118609,0.00202244,-0.00012188,-0.00238397,-0.
 00348819,0.00196387,-0.00051737,-0.00031188,0.00102339,0.00109839,0.00
 186138,0.00088990,0.01490705,0.00494828,-0.01055976,0.00212540,-0.0017
 7130,-0.00467499,0.00045523,0.00002165,0.00037732,-0.00017656,0.000260
 28,0.00002034,0.00016273,0.00002538,-0.00019245,0.00014018,0.00011799,
 0.00007613,0.00019649,-0.00009879,-0.00007859,0.00072398,0.00017237,-0
 .00000874,0.00020745,-0.00009178,-0.00037909,-0.00011581,-0.00025489,-
 0.00001627,-0.00010124,-0.00052461,-0.00015858,-0.00047207,-0.00358431
 ,-0.00167790,-0.00141556,0.00072567,-0.00122149,-0.19410800,0.03006368
 ,0.17140149\\0.00000469,-0.00000561,0.00000628,-0.00001791,-0.00000316
 ,-0.00000066,-0.00000284,-0.00000015,-0.00000040,-0.00002355,-0.000000
 44,-0.00001963,0.00001883,-0.00001311,-0.00001505,0.00000358,0.0000067
 2,-0.00000059,-0.00000606,0.00000315,0.00000547,0.00000760,0.00000075,
 -0.00000096,0.00000157,0.00000288,-0.00000401,0.00000672,0.00000174,0.
 ,-0.00000280,-0.00000284,-0.00000027,-0.00000120,0.00000118,0.00002601
 ,0.00000089,-0.00000048,-0.00000118,0.00000077,0.00000257,-0.00000252,
 0.00000017,0.00000077,-0.00000089,0.00000340,0.00000113,0.00000028,0.0
 0000127,0.00000041,0.00000031,0.00000268,-0.00000053,0.00000051,-0.000
 00035,0.00000130,0.00000087,-0.00000071,0.00000108,0.00000001,-0.00000
 102,0.00000135,0.00000013,0.00000399,0.00000019,0.00000273,-0.00000433
 ,0.00000043,0.00000356,0.00000461,0.00000065,0.\\\@


 IT PROBABLY IS NOT POSSIBLE FOR A SCIENTIST TO INTERROGATE NATURE 
 FROM A WHOLLY DISINTERESTED VIEWPOINT.
 EVEN IF HE HAS NO PARTICULAR AXE TO GRIND, HE IS LIKELY TO HAVE 
 A DISTINCTIVE WAY OF VIEWING NATURE.

                                                   -- JOHN LOSEE
 Job cpu time:  0 days  0 hours 59 minutes 35.5 seconds.
 File lengths (MBytes):  RWF=    158 Int=      0 D2E=      0 Chk=      5 Scr=      1
 Normal termination of Gaussian 09 at Mon Feb 26 23:10:14 2018.
