 Entering Gaussian System, Link 0=g09
 Initial command:
 /home/fb_chem/chemsoft/lx24-amd64/Gaussian_09_C.01_NBO_3.1_64_istanbul-64/g09/l1.exe /local/2426267.1.parallel/Gau-6556.inp -scrdir=/local/2426267.1.parallel/
 Entering Link 1 = /home/fb_chem/chemsoft/lx24-amd64/Gaussian_09_C.01_NBO_3.1_64_istanbul-64/g09/l1.exe PID=      6557.
  
 Copyright (c) 1988,1990,1992,1993,1995,1998,2003,2009,2011,
            Gaussian, Inc.  All Rights Reserved.
  
 This is part of the Gaussian(R) 09 program.  It is based on
 the Gaussian(R) 03 system (copyright 2003, Gaussian, Inc.),
 the Gaussian(R) 98 system (copyright 1998, Gaussian, Inc.),
 the Gaussian(R) 94 system (copyright 1995, Gaussian, Inc.),
 the Gaussian 92(TM) system (copyright 1992, Gaussian, Inc.),
 the Gaussian 90(TM) system (copyright 1990, Gaussian, Inc.),
 the Gaussian 88(TM) system (copyright 1988, Gaussian, Inc.),
 the Gaussian 86(TM) system (copyright 1986, Carnegie Mellon
 University), and the Gaussian 82(TM) system (copyright 1983,
 Carnegie Mellon University). Gaussian is a federally registered
 trademark of Gaussian, Inc.
  
 This software contains proprietary and confidential information,
 including trade secrets, belonging to Gaussian, Inc.
  
 This software is provided under written license and may be
 used, copied, transmitted, or stored only in accord with that
 written license.
  
 The following legend is applicable only to US Government
 contracts under FAR:
  
                    RESTRICTED RIGHTS LEGEND
  
 Use, reproduction and disclosure by the US Government is
 subject to restrictions as set forth in subparagraphs (a)
 and (c) of the Commercial Computer Software - Restricted
 Rights clause in FAR 52.227-19.
  
 Gaussian, Inc.
 340 Quinnipiac St., Bldg. 40, Wallingford CT 06492
  
  
 ---------------------------------------------------------------
 Warning -- This program may not be used in any manner that
 competes with the business of Gaussian, Inc. or will provide
 assistance to any competitor of Gaussian, Inc.  The licensee
 of this program is prohibited from giving any competitor of
 Gaussian, Inc. access to this program.  By using this program,
 the user acknowledges that Gaussian, Inc. is engaged in the
 business of creating and licensing software in the field of
 computational chemistry and represents and warrants to the
 licensee that it is not a competitor of Gaussian, Inc. and that
 it will not use this program in any manner prohibited above.
 ---------------------------------------------------------------
  

 Cite this work as:
 Gaussian 09, Revision C.01,
 M. J. Frisch, G. W. Trucks, H. B. Schlegel, G. E. Scuseria, 
 M. A. Robb, J. R. Cheeseman, G. Scalmani, V. Barone, B. Mennucci, 
 G. A. Petersson, H. Nakatsuji, M. Caricato, X. Li, H. P. Hratchian, 
 A. F. Izmaylov, J. Bloino, G. Zheng, J. L. Sonnenberg, M. Hada, 
 M. Ehara, K. Toyota, R. Fukuda, J. Hasegawa, M. Ishida, T. Nakajima, 
 Y. Honda, O. Kitao, H. Nakai, T. Vreven, J. A. Montgomery, Jr., 
 J. E. Peralta, F. Ogliaro, M. Bearpark, J. J. Heyd, E. Brothers, 
 K. N. Kudin, V. N. Staroverov, T. Keith, R. Kobayashi, J. Normand, 
 K. Raghavachari, A. Rendell, J. C. Burant, S. S. Iyengar, J. Tomasi, 
 M. Cossi, N. Rega, J. M. Millam, M. Klene, J. E. Knox, J. B. Cross, 
 V. Bakken, C. Adamo, J. Jaramillo, R. Gomperts, R. E. Stratmann, 
 O. Yazyev, A. J. Austin, R. Cammi, C. Pomelli, J. W. Ochterski, 
 R. L. Martin, K. Morokuma, V. G. Zakrzewski, G. A. Voth, 
 P. Salvador, J. J. Dannenberg, S. Dapprich, A. D. Daniels, 
 O. Farkas, J. B. Foresman, J. V. Ortiz, J. Cioslowski, 
 and D. J. Fox, Gaussian, Inc., Wallingford CT, 2010.
 
 ******************************************
 Gaussian 09:  AM64L-G09RevC.01 23-Sep-2011
                26-Feb-2018 
 ******************************************
 %nprocs=4
 Will use up to    4 processors via shared memory.
 %chk=frag2-conf1.chk
 ----------------------------------------------------------------------
 #HF/6-31G* Geom=AllCheck Guess=Read Pop=(MK,ReadRadii) Integral=(Grid=
 UltraFine) iop(6/33=2)
 ----------------------------------------------------------------------
 1/29=7,38=1/1;
 2/12=2,40=1/2;
 3/5=1,6=6,7=1,11=9,14=-4,16=1,25=1,30=1,75=-5,116=-2/1,2,3;
 4/5=1/1;
 5/5=2,38=6/2;
 6/7=2,8=2,9=2,10=2,15=8,20=101,28=1,33=2/1,2;
 99/5=1,9=1/99;
 Structure from the checkpoint file:  frag2-conf1.chk
 ----------------------------
 Optimization for frag2-conf1
 ----------------------------
 Charge =  0 Multiplicity = 1
 Redundant internal coordinates found in file.
 C,0,-0.4432490716,1.6894374145,-1.6375918698
 C,0,3.6786297273,-0.1349553271,-1.1510642318
 C,0,-1.8680558484,-2.9574248297,-2.4690350543
 C,0,-0.3291249789,0.3762827363,-0.8723269696
 N,0,2.2672981971,-0.5495093923,-1.0635258603
 N,0,-0.48126658,-0.7529182744,-1.772970963
 O,0,-1.7413729803,-2.0587296032,0.0323641368
 O,0,0.3451194613,-3.0981976861,-1.0308017615
 O,0,1.0900849233,-0.5060909998,1.2623593191
 O,0,1.8681646489,1.6625110224,0.1584577141
 S,0,-0.8776436197,-2.2857317372,-1.1241226582
 S,0,1.3072559115,0.3087823232,0.061569365
 H,0,0.3197839303,1.7594787004,-2.4197169875
 H,0,-1.43076934,1.7387936609,-2.1058600359
 H,0,-0.3165169851,2.5385146098,-0.9633066098
 H,0,3.7217965732,0.9331392035,-1.3657552864
 H,0,4.1311558355,-0.6845874593,-1.9811777606
 H,0,4.247767377,-0.3351111138,-0.2351867776
 H,0,-2.1523281317,-3.9696649021,-2.1720154033
 H,0,-2.7498249789,-2.3297618625,-2.6010746458
 H,0,-1.2656283267,-2.9887792146,-3.3789231623
 H,0,-1.0746819814,0.2942391847,-0.0780606013
 H,0,2.1594385224,-1.5456349044,-0.8592175411
 H,0,0.346118338,-0.8471294271,-2.3667821942
 Recover connectivity data from disk.
                          Input orientation:                          
 ---------------------------------------------------------------------
 Center     Atomic      Atomic             Coordinates (Angstroms)
 Number     Number       Type             X           Y           Z
 ---------------------------------------------------------------------
      1          6           0       -0.443249    1.689437   -1.637592
      2          6           0        3.678630   -0.134955   -1.151064
      3          6           0       -1.868056   -2.957425   -2.469035
      4          6           0       -0.329125    0.376283   -0.872327
      5          7           0        2.267298   -0.549509   -1.063526
      6          7           0       -0.481267   -0.752918   -1.772971
      7          8           0       -1.741373   -2.058730    0.032364
      8          8           0        0.345119   -3.098198   -1.030802
      9          8           0        1.090085   -0.506091    1.262359
     10          8           0        1.868165    1.662511    0.158458
     11         16           0       -0.877644   -2.285732   -1.124123
     12         16           0        1.307256    0.308782    0.061569
     13          1           0        0.319784    1.759479   -2.419717
     14          1           0       -1.430769    1.738794   -2.105860
     15          1           0       -0.316517    2.538515   -0.963307
     16          1           0        3.721797    0.933139   -1.365755
     17          1           0        4.131156   -0.684587   -1.981178
     18          1           0        4.247767   -0.335111   -0.235187
     19          1           0       -2.152328   -3.969665   -2.172015
     20          1           0       -2.749825   -2.329762   -2.601075
     21          1           0       -1.265628   -2.988779   -3.378923
     22          1           0       -1.074682    0.294239   -0.078061
     23          1           0        2.159439   -1.545635   -0.859218
     24          1           0        0.346118   -0.847129   -2.366782
 ---------------------------------------------------------------------
                    Distance matrix (angstroms):
                    1          2          3          4          5
     1  C    0.000000
     2  C    4.533763   0.000000
     3  C    4.930994   6.361533   0.000000
     4  C    1.524149   4.049834   4.003922   0.000000
     5  N    3.562233   1.473559   4.987451   2.763161   0.000000
     6  N    2.446400   4.251280   2.695837   1.452378   2.845926
     7  O    4.303793   5.871783   2.660958   2.956720   4.421331
     8  O    4.889905   4.461789   2.643194   3.542843   3.192437
     9  O    3.947300   3.558500   5.355645   2.711019   2.607194
    10  O    2.927311   2.867667   6.496681   2.746813   2.558434
    11  S    4.031665   5.038471   1.800244   2.729578   3.592882
    12  S    2.803146   2.700148   5.211015   1.885328   1.710025
    13  H    1.094918   4.059582   5.199832   2.174564   3.311116
    14  H    1.094033   5.525263   4.730495   2.142816   4.471968
    15  H    1.091629   4.810810   5.905916   2.164182   4.027659
    16  H    4.241873   1.090313   6.899287   4.118680   2.098846
    17  H    5.165194   1.093601   6.433843   4.716895   2.081897
    18  H    5.298223   1.096728   7.019252   4.675465   2.157399
    19  H    5.935655   7.053184   1.092548   4.888816   5.697307
    20  H    4.733134   6.945843   1.090372   4.021322   5.541198
    21  H    5.059076   6.128079   1.091695   4.299268   4.877773
    22  H    2.185732   4.891781   4.113334   1.092449   3.584953
    23  H    4.224398   2.093593   4.561291   3.144342   1.022566
    24  H    2.754812   3.618120   3.060453   2.045993   2.340510
                    6          7          8          9         10
     6  N    0.000000
     7  O    2.559736   0.000000
     8  O    2.595008   2.562082   0.000000
     9  O    3.426850   3.455536   3.540138   0.000000
    10  O    3.883882   5.185778   5.137933   2.554768   0.000000
    11  S    1.711034   1.461171   1.471040   3.568525   4.977258
    12  S    2.773366   3.860065   3.704928   1.467337   1.468532
    13  H    2.715161   4.983953   5.052400   4.391339   3.008965
    14  H    2.687192   4.369172   5.263651   4.768555   4.001989
    15  H    3.393557   4.914899   5.675812   4.025139   2.607407
    16  H    4.546906   6.383748   5.269328   3.988017   2.508218
    17  H    4.617625   6.358397   4.589423   4.449776   3.899749
    18  H    4.990301   6.237968   4.847506   3.498977   3.131766
    19  H    3.646799   2.946158   2.880810   5.857006   7.301840
    20  H    2.884189   2.832920   3.554565   5.744285   6.699186
    21  H    2.862408   3.567661   2.849589   5.766683   6.630854
    22  H    2.078798   2.448088   3.798971   2.668983   3.253991
    23  H    2.904594   4.034168   2.394086   2.593310   3.378269
    24  H    1.022767   3.403160   2.617662   3.720277   3.871919
                   11         12         13         14         15
    11  S    0.000000
    12  S    3.593210   0.000000
    13  H    4.413176   3.039145   0.000000
    14  H    4.179301   3.773522   1.778587   0.000000
    15  H    4.859432   2.942569   1.770002   1.785088   0.000000
    16  H    5.619107   2.873514   3.656140   5.267425   4.364307
    17  H    5.327877   3.624087   4.548882   6.068223   5.586255
    18  H    5.555625   3.024776   4.958683   6.328213   5.442479
    19  H    2.357654   5.938243   6.244660   5.754261   6.869322
    20  H    2.385034   5.523721   5.116374   4.305611   5.683607
    21  H    2.393519   5.415776   5.097015   4.898766   6.106308
    22  H    2.790935   2.386071   3.094320   2.515056   2.528883
    23  H    3.137162   2.238957   4.091853   5.023065   4.777182
    24  H    2.260835   2.856013   2.607279   3.148398   3.724435
                   16         17         18         19         20
    16  H    0.000000
    17  H    1.778584   0.000000
    18  H    1.778564   1.784437   0.000000
    19  H    7.693691   7.092977   7.610684   0.000000
    20  H    7.352171   7.102026   7.651298   1.797325   0.000000
    21  H    6.656478   6.032269   6.879140   1.790251   1.800609
    22  H    5.007250   5.628561   5.361832   4.871021   4.007129
    23  H    2.973527   2.426493   2.493171   5.117684   5.267807
    24  H    3.945455   3.808099   4.475347   4.003798   3.440633
                   21         22         23         24
    21  H    0.000000
    22  H    4.659438   0.000000
    23  H    4.490286   3.801957   0.000000
    24  H    2.865104   2.925687   2.459429   0.000000
 Stoichiometry    C4H12N2O4S2
 Framework group  C1[X(C4H12N2O4S2)]
 Deg. of freedom    66
 Full point group                 C1      NOp   1
 Largest Abelian subgroup         C1      NOp   1
 Largest concise Abelian subgroup C1      NOp   1
                         Standard orientation:                         
 ---------------------------------------------------------------------
 Center     Atomic      Atomic             Coordinates (Angstroms)
 Number     Number       Type             X           Y           Z
 ---------------------------------------------------------------------
      1          6           0       -0.833680    2.391381    0.940096
      2          6           0       -2.653357   -1.758285    1.095164
      3          6           0        3.464219   -0.025325    0.892137
      4          6           0       -0.218545    1.308399    0.061581
      5          7           0       -1.397529   -1.115525    0.669569
      6          7           0        0.851177    0.625989    0.768273
      7          8           0        2.192838    0.422454   -1.402157
      8          8           0        1.654216   -1.696297   -0.066100
      9          8           0       -1.134418   -0.408441   -1.826080
     10          8           0       -2.872532    0.719567   -0.331624
     11         16           0        2.001506   -0.268216   -0.128820
     12         16           0       -1.550996    0.106489   -0.516733
     13          1           0       -1.238727    1.968136    1.865107
     14          1           0       -0.057537    3.118164    1.197577
     15          1           0       -1.646089    2.896331    0.414102
     16          1           0       -3.345135   -0.990102    1.441745
     17          1           0       -2.414527   -2.425710    1.927912
     18          1           0       -3.136936   -2.336701    0.298673
     19          1           0        4.270478   -0.593904    0.422748
     20          1           0        3.701939    1.038576    0.914833
     21          1           0        3.270295   -0.408277    1.895900
     22          1           0        0.179279    1.710392   -0.873076
     23          1           0       -0.705407   -1.786537    0.328465
     24          1           0        0.465997    0.028738    1.503786
 ---------------------------------------------------------------------
 Rotational constants (GHZ):      1.2122171      0.5097133      0.4669804
 Standard basis: 6-31G(d) (6D, 7F)
 There are   212 symmetry adapted basis functions of A   symmetry.
 Integral buffers will be    131072 words long.
 Raffenetti 1 integral format.
 Two-electron integral symmetry is turned on.
   212 basis functions,   432 primitive gaussians,   212 cartesian basis functions
    57 alpha electrons       57 beta electrons
       nuclear repulsion energy      1122.8286486759 Hartrees.
 NAtoms=   24 NActive=   24 NUniq=   24 SFac= 1.00D+00 NAtFMM=   60 NAOKFM=F Big=F
 One-electron integrals computed using PRISM.
 NBasis=   212 RedAO= T  NBF=   212
 NBsUse=   212 1.00D-06 NBFU=   212
 Initial guess read from the checkpoint file:  frag2-conf1.chk
 B after Tr=     0.000000    0.000000    0.000000
         Rot=    1.000000    0.000000    0.000000    0.000000 Ang=   0.00 deg.
 Initial guess orbital symmetries:
       Occupied  (A) (A) (A) (A) (A) (A) (A) (A) (A) (A) (A) (A)
                 (A) (A) (A) (A) (A) (A) (A) (A) (A) (A) (A) (A)
                 (A) (A) (A) (A) (A) (A) (A) (A) (A) (A) (A) (A)
                 (A) (A) (A) (A) (A) (A) (A) (A) (A) (A) (A) (A)
                 (A) (A) (A) (A) (A) (A) (A) (A) (A)
       Virtual   (A) (A) (A) (A) (A) (A) (A) (A) (A) (A) (A) (A)
                 (A) (A) (A) (A) (A) (A) (A) (A) (A) (A) (A) (A)
                 (A) (A) (A) (A) (A) (A) (A) (A) (A) (A) (A) (A)
                 (A) (A) (A) (A) (A) (A) (A) (A) (A) (A) (A) (A)
                 (A) (A) (A) (A) (A) (A) (A) (A) (A) (A) (A) (A)
                 (A) (A) (A) (A) (A) (A) (A) (A) (A) (A) (A) (A)
                 (A) (A) (A) (A) (A) (A) (A) (A) (A) (A) (A) (A)
                 (A) (A) (A) (A) (A) (A) (A) (A) (A) (A) (A) (A)
                 (A) (A) (A) (A) (A) (A) (A) (A) (A) (A) (A) (A)
                 (A) (A) (A) (A) (A) (A) (A) (A) (A) (A) (A) (A)
                 (A) (A) (A) (A) (A) (A) (A) (A) (A) (A) (A) (A)
                 (A) (A) (A) (A) (A) (A) (A) (A) (A) (A) (A) (A)
                 (A) (A) (A) (A) (A) (A) (A) (A) (A) (A) (A)
 Requested convergence on RMS density matrix=1.00D-08 within 128 cycles.
 Requested convergence on MAX density matrix=1.00D-06.
 Requested convergence on             energy=1.00D-06.
 No special actions if energy rises.
 SCF Done:  E(RHF) =  -1361.65415854     A.U. after   13 cycles
             Convg  =    0.3802D-08             -V/T =  2.0021

 **********************************************************************

            Population analysis using the SCF density.

 **********************************************************************

 Orbital symmetries:
 BldTbl:  Degeneracy threshold= 1.00D-02
       Occupied  (A) (A) (A) (A) (A) (A) (A) (A) (A) (A) (A) (A)
                 (A) (A) (A) (A) (A) (A) (A) (A) (A) (A) (A) (A)
                 (A) (A) (A) (A) (A) (A) (A) (A) (A) (A) (A) (A)
                 (A) (A) (A) (A) (A) (A) (A) (A) (A) (A) (A) (A)
                 (A) (A) (A) (A) (A) (A) (A) (A) (A)
       Virtual   (A) (A) (A) (A) (A) (A) (A) (A) (A) (A) (A) (A)
                 (A) (A) (A) (A) (A) (A) (A) (A) (A) (A) (A) (A)
                 (A) (A) (A) (A) (A) (A) (A) (A) (A) (A) (A) (A)
                 (A) (A) (A) (A) (A) (A) (A) (A) (A) (A) (A) (A)
                 (A) (A) (A) (A) (A) (A) (A) (A) (A) (A) (A) (A)
                 (A) (A) (A) (A) (A) (A) (A) (A) (A) (A) (A) (A)
                 (A) (A) (A) (A) (A) (A) (A) (A) (A) (A) (A) (A)
                 (A) (A) (A) (A) (A) (A) (A) (A) (A) (A) (A) (A)
                 (A) (A) (A) (A) (A) (A) (A) (A) (A) (A) (A) (A)
                 (A) (A) (A) (A) (A) (A) (A) (A) (A) (A) (A) (A)
                 (A) (A) (A) (A) (A) (A) (A) (A) (A) (A) (A) (A)
                 (A) (A) (A) (A) (A) (A) (A) (A) (A) (A) (A) (A)
                 (A) (A) (A) (A) (A) (A) (A) (A) (A) (A) (A)
 The electronic state is 1-A.
 Alpha  occ. eigenvalues --  -92.23219 -92.20611 -20.57841 -20.57724 -20.56374
 Alpha  occ. eigenvalues --  -20.55914 -15.63727 -15.61393 -11.33840 -11.29594
 Alpha  occ. eigenvalues --  -11.27703 -11.25249  -9.20364  -9.17906  -6.88953
 Alpha  occ. eigenvalues --   -6.88921  -6.88829  -6.86469  -6.86443  -6.86345
 Alpha  occ. eigenvalues --   -1.47310  -1.45264  -1.35560  -1.33667  -1.26945
 Alpha  occ. eigenvalues --   -1.22791  -1.07904  -1.03658  -0.96698  -0.90549
 Alpha  occ. eigenvalues --   -0.86412  -0.82221  -0.74153  -0.74012  -0.69979
 Alpha  occ. eigenvalues --   -0.69138  -0.67472  -0.66737  -0.63925  -0.63183
 Alpha  occ. eigenvalues --   -0.62192  -0.61559  -0.60259  -0.58608  -0.57394
 Alpha  occ. eigenvalues --   -0.56570  -0.55396  -0.54751  -0.51704  -0.51194
 Alpha  occ. eigenvalues --   -0.49662  -0.49056  -0.48265  -0.47212  -0.46715
 Alpha  occ. eigenvalues --   -0.43196  -0.41434
 Alpha virt. eigenvalues --    0.19051   0.20232   0.21254   0.22081   0.23230
 Alpha virt. eigenvalues --    0.23646   0.24023   0.24876   0.25544   0.26841
 Alpha virt. eigenvalues --    0.27932   0.28732   0.29188   0.29374   0.30731
 Alpha virt. eigenvalues --    0.31780   0.32075   0.32666   0.33467   0.33870
 Alpha virt. eigenvalues --    0.37445   0.40218   0.42728   0.53131   0.54512
 Alpha virt. eigenvalues --    0.56236   0.56787   0.62551   0.63217   0.63941
 Alpha virt. eigenvalues --    0.67574   0.69714   0.70972   0.72694   0.74080
 Alpha virt. eigenvalues --    0.75443   0.76882   0.79784   0.81385   0.83140
 Alpha virt. eigenvalues --    0.87816   0.91277   0.91742   0.93124   0.95129
 Alpha virt. eigenvalues --    0.97522   0.99782   1.01279   1.03215   1.03964
 Alpha virt. eigenvalues --    1.05273   1.05728   1.09064   1.09231   1.10899
 Alpha virt. eigenvalues --    1.11100   1.11876   1.12469   1.12911   1.13797
 Alpha virt. eigenvalues --    1.15823   1.17141   1.18657   1.19653   1.20053
 Alpha virt. eigenvalues --    1.21812   1.22549   1.25583   1.26238   1.29509
 Alpha virt. eigenvalues --    1.29747   1.31140   1.32321   1.34741   1.35977
 Alpha virt. eigenvalues --    1.39308   1.40670   1.44294   1.45617   1.47851
 Alpha virt. eigenvalues --    1.48309   1.50400   1.51312   1.52105   1.56883
 Alpha virt. eigenvalues --    1.58530   1.61413   1.67761   1.70791   1.75653
 Alpha virt. eigenvalues --    1.76625   1.80271   1.83041   1.88541   1.90160
 Alpha virt. eigenvalues --    1.94069   1.96286   1.99544   2.01379   2.02290
 Alpha virt. eigenvalues --    2.08359   2.09551   2.09789   2.11551   2.12640
 Alpha virt. eigenvalues --    2.13588   2.14700   2.16472   2.19806   2.20878
 Alpha virt. eigenvalues --    2.25031   2.28626   2.29618   2.30439   2.33106
 Alpha virt. eigenvalues --    2.34789   2.37237   2.37932   2.39998   2.43158
 Alpha virt. eigenvalues --    2.44547   2.45339   2.48140   2.50871   2.52017
 Alpha virt. eigenvalues --    2.54382   2.55184   2.58134   2.61501   2.63552
 Alpha virt. eigenvalues --    2.63684   2.64582   2.70110   2.71239   2.74730
 Alpha virt. eigenvalues --    2.82625   2.94323   3.00508   3.06219   3.10625
 Alpha virt. eigenvalues --    3.11377   3.17436   3.20787   4.14518   4.20447
 Alpha virt. eigenvalues --    4.29415   4.35413   4.38349   4.40911   4.46193
 Alpha virt. eigenvalues --    4.49038   4.60938   4.63614   4.69733   4.86439
          Condensed to atoms (all electrons):
              1          2          3          4          5          6
     1  C    5.158978  -0.000060  -0.000108   0.284146   0.001138  -0.065314
     2  C   -0.000060   4.951941   0.000000   0.001371   0.203728   0.000115
     3  C   -0.000108   0.000000   5.493047   0.001786  -0.000017  -0.062586
     4  C    0.284146   0.001371   0.001786   5.400004  -0.055585   0.188601
     5  N    0.001138   0.203728  -0.000017  -0.055585   7.540652  -0.014199
     6  N   -0.065314   0.000115  -0.062586   0.188601  -0.014199   7.525377
     7  O    0.000033   0.000000  -0.057267   0.001619  -0.000018  -0.051012
     8  O   -0.000070   0.000063  -0.061360  -0.001503  -0.004322  -0.052682
     9  O    0.001705  -0.000413   0.000004  -0.053879  -0.050983   0.001255
    10  O    0.006253   0.001466   0.000000  -0.053006  -0.049317   0.001192
    11  S    0.000607   0.000040   0.309384  -0.022954  -0.000154   0.168184
    12  S   -0.042089  -0.023703  -0.000207   0.290285   0.163420  -0.034000
    13  H    0.389954  -0.000086   0.000004  -0.036024   0.002308  -0.002478
    14  H    0.382537   0.000001  -0.000010  -0.032297  -0.000129  -0.000379
    15  H    0.389949   0.000003   0.000001  -0.032292   0.000085   0.003528
    16  H    0.000042   0.398237   0.000000   0.000113  -0.035197  -0.000008
    17  H    0.000007   0.395739   0.000000  -0.000068  -0.039224   0.000033
    18  H   -0.000001   0.400316   0.000000  -0.000072  -0.046132  -0.000017
    19  H    0.000001   0.000000   0.370197  -0.000022   0.000000   0.002197
    20  H    0.000018   0.000000   0.356389  -0.000099   0.000001   0.001425
    21  H    0.000001   0.000000   0.354077  -0.000062  -0.000003   0.000436
    22  H   -0.023045  -0.000027   0.000180   0.383978   0.001957  -0.030252
    23  H   -0.000001  -0.021194   0.000057   0.000365   0.295725  -0.000941
    24  H   -0.001723  -0.000203  -0.000908  -0.027511   0.014950   0.297311
              7          8          9         10         11         12
     1  C    0.000033  -0.000070   0.001705   0.006253   0.000607  -0.042089
     2  C    0.000000   0.000063  -0.000413   0.001466   0.000040  -0.023703
     3  C   -0.057267  -0.061360   0.000004   0.000000   0.309384  -0.000207
     4  C    0.001619  -0.001503  -0.053879  -0.053006  -0.022954   0.290285
     5  N   -0.000018  -0.004322  -0.050983  -0.049317  -0.000154   0.163420
     6  N   -0.051012  -0.052682   0.001255   0.001192   0.168184  -0.034000
     7  O    8.317832  -0.035149  -0.000310   0.000000   0.486724  -0.002868
     8  O   -0.035149   8.378917  -0.001001   0.000000   0.457821   0.005243
     9  O   -0.000310  -0.001001   8.338780  -0.036811   0.008440   0.461690
    10  O    0.000000   0.000000  -0.036811   8.372627   0.000027   0.454976
    11  S    0.486724   0.457821   0.008440   0.000027  13.028198   0.002166
    12  S   -0.002868   0.005243   0.461690   0.454976   0.002166  13.144551
    13  H   -0.000002   0.000000   0.000004  -0.000124  -0.000222  -0.004887
    14  H    0.000019   0.000001  -0.000033   0.000169  -0.000092   0.003700
    15  H    0.000000   0.000001  -0.000052   0.001696   0.000026  -0.002165
    16  H    0.000000  -0.000001   0.000007   0.003749  -0.000004  -0.003772
    17  H    0.000000   0.000005  -0.000083   0.000228   0.000007   0.002049
    18  H    0.000000  -0.000001   0.000971  -0.000398  -0.000002  -0.002133
    19  H    0.000118   0.000657   0.000000   0.000000  -0.020770   0.000003
    20  H    0.000675   0.001557   0.000000   0.000000  -0.012469  -0.000001
    21  H    0.001441   0.000391   0.000000   0.000000  -0.009277   0.000023
    22  H    0.007088  -0.000077   0.002798   0.000514  -0.002206  -0.029828
    23  H   -0.000017   0.010128   0.000830   0.000969  -0.000292  -0.005612
    24  H    0.001038   0.001179   0.000094   0.000023  -0.003195  -0.003247
             13         14         15         16         17         18
     1  C    0.389954   0.382537   0.389949   0.000042   0.000007  -0.000001
     2  C   -0.000086   0.000001   0.000003   0.398237   0.395739   0.400316
     3  C    0.000004  -0.000010   0.000001   0.000000   0.000000   0.000000
     4  C   -0.036024  -0.032297  -0.032292   0.000113  -0.000068  -0.000072
     5  N    0.002308  -0.000129   0.000085  -0.035197  -0.039224  -0.046132
     6  N   -0.002478  -0.000379   0.003528  -0.000008   0.000033  -0.000017
     7  O   -0.000002   0.000019   0.000000   0.000000   0.000000   0.000000
     8  O    0.000000   0.000001   0.000001  -0.000001   0.000005  -0.000001
     9  O    0.000004  -0.000033  -0.000052   0.000007  -0.000083   0.000971
    10  O   -0.000124   0.000169   0.001696   0.003749   0.000228  -0.000398
    11  S   -0.000222  -0.000092   0.000026  -0.000004   0.000007  -0.000002
    12  S   -0.004887   0.003700  -0.002165  -0.003772   0.002049  -0.002133
    13  H    0.509479  -0.025243  -0.020567   0.000013  -0.000001   0.000004
    14  H   -0.025243   0.499636  -0.020527   0.000001   0.000000   0.000000
    15  H   -0.020567  -0.020527   0.459644  -0.000001   0.000000   0.000000
    16  H    0.000013   0.000001  -0.000001   0.464352  -0.022909  -0.026864
    17  H   -0.000001   0.000000   0.000000  -0.022909   0.513206  -0.033292
    18  H    0.000004   0.000000   0.000000  -0.026864  -0.033292   0.521478
    19  H    0.000000   0.000000   0.000000   0.000000   0.000000   0.000000
    20  H    0.000000   0.000008   0.000000   0.000000   0.000000   0.000000
    21  H    0.000000   0.000000   0.000000   0.000000   0.000000   0.000000
    22  H    0.002879  -0.003254  -0.001409  -0.000003   0.000001   0.000002
    23  H   -0.000004   0.000000  -0.000001   0.002680  -0.002684  -0.001216
    24  H    0.002498  -0.000061  -0.000055  -0.000057  -0.000090   0.000036
             19         20         21         22         23         24
     1  C    0.000001   0.000018   0.000001  -0.023045  -0.000001  -0.001723
     2  C    0.000000   0.000000   0.000000  -0.000027  -0.021194  -0.000203
     3  C    0.370197   0.356389   0.354077   0.000180   0.000057  -0.000908
     4  C   -0.000022  -0.000099  -0.000062   0.383978   0.000365  -0.027511
     5  N    0.000000   0.000001  -0.000003   0.001957   0.295725   0.014950
     6  N    0.002197   0.001425   0.000436  -0.030252  -0.000941   0.297311
     7  O    0.000118   0.000675   0.001441   0.007088  -0.000017   0.001038
     8  O    0.000657   0.001557   0.000391  -0.000077   0.010128   0.001179
     9  O    0.000000   0.000000   0.000000   0.002798   0.000830   0.000094
    10  O    0.000000   0.000000   0.000000   0.000514   0.000969   0.000023
    11  S   -0.020770  -0.012469  -0.009277  -0.002206  -0.000292  -0.003195
    12  S    0.000003  -0.000001   0.000023  -0.029828  -0.005612  -0.003247
    13  H    0.000000   0.000000   0.000000   0.002879  -0.000004   0.002498
    14  H    0.000000   0.000008   0.000000  -0.003254   0.000000  -0.000061
    15  H    0.000000   0.000000   0.000000  -0.001409  -0.000001  -0.000055
    16  H    0.000000   0.000000   0.000000  -0.000003   0.002680  -0.000057
    17  H    0.000000   0.000000   0.000000   0.000001  -0.002684  -0.000090
    18  H    0.000000   0.000000   0.000000   0.000002  -0.001216   0.000036
    19  H    0.436122  -0.014626  -0.016205  -0.000004   0.000000  -0.000020
    20  H   -0.014626   0.448542  -0.018465   0.000004  -0.000002   0.000081
    21  H   -0.016205  -0.018465   0.465059  -0.000009   0.000000   0.000017
    22  H   -0.000004   0.000004  -0.000009   0.399590  -0.000052   0.003062
    23  H    0.000000  -0.000002   0.000000  -0.000052   0.285183  -0.000985
    24  H   -0.000020   0.000081   0.000017   0.003062  -0.000985   0.294554
 Mulliken atomic charges:
              1
     1  C   -0.482958
     2  C   -0.307334
     3  C   -0.702662
     4  C   -0.236892
     5  N   -0.928685
     6  N   -0.875789
     7  O   -0.669944
     8  O   -0.699796
     9  O   -0.673013
    10  O   -0.704232
    11  S    1.610013
    12  S    1.626405
    13  H    0.182495
    14  H    0.195954
    15  H    0.222136
    16  H    0.219624
    17  H    0.187077
    18  H    0.187323
    19  H    0.242352
    20  H    0.236961
    21  H    0.222578
    22  H    0.288113
    23  H    0.437064
    24  H    0.423210
 Sum of Mulliken atomic charges =   0.00000
 Mulliken charges with hydrogens summed into heavy atoms:
              1
     1  C    0.117627
     2  C    0.286690
     3  C   -0.000771
     4  C    0.051221
     5  N   -0.491621
     6  N   -0.452579
     7  O   -0.669944
     8  O   -0.699796
     9  O   -0.673013
    10  O   -0.704232
    11  S    1.610013
    12  S    1.626405
 Sum of Mulliken charges with hydrogens summed into heavy atoms =   0.00000
 DipInt: DoE/N= T F RetVal/Mat= T F Init=T NMatP=  1 IDeriv=0 Min/MaxMlt=  0  4
 Entering OneElI...
 OneElI was handed    33436596 working-precision words.
 Multipole integrals L=0 to 4 MinM= 0 MaxM= 0.
 Requested accuracy = 0.1000D-12
 PrsmSu:  NPrtUS=   1 ThrOK=F IAlg=1 NPAlg=1 LenDen=           0.
 Prism:   IPart=     0 DynPar=F LinDyn=F Incr=          25.
 PRISM was handed    33209628 working-precision words and  2500 shell-pairs
 IPart=  0 NShTot=        2500 NBatch=          65 AvBLen=        38.5
 PrSmSu:  NxtVal=             26.
 Electronic moments (au):
       -114.00000000          1.06477103          0.33043893          2.68444279
      -1673.43751098       -590.13926682       -394.61021485          4.97983184
          1.74716187         -1.93366470      -1120.74474241       -348.99564362
        169.93431741        714.15162501        692.84389319       -485.00184176
        109.84839684         18.75866022       -607.72027779       -215.04714407
     -46719.48659053      -9831.27589972      -3813.18771277      -1517.93514102
      -1404.09771775        159.17501487       -806.26567648        111.48623292
        -69.09561689      -6831.20980644      -5700.52207199      -2113.60644853
       1926.89738075       1718.17745410       -945.75623727
 Electronic spatial extent (au):  <R**2>=           2658.1870
 DipInt: DoE/N= F T RetVal/Mat= T F Init=T NMatP=  1 IDeriv=0 Min/MaxMlt=  0  4
 Nuclear    moments (au):
        114.00000000          0.00000000          0.00000000          0.00000000
       1611.22715419        528.06396438        325.44930792          0.00000000
          0.00000000          0.00000000       1224.80031212        357.38418279
       -148.51208869       -739.19429445       -726.36485402        530.08711935
       -110.22323367        -22.05096514        609.02953202        221.93333713
      41417.40518338       7873.12532354       2471.09136407       1627.44166768
       1464.70011540        -90.86110782        781.19930404       -104.97720765
         32.29009653       5574.98756172       4524.49727510       1573.82902948
      -1925.99141302      -1735.23355111        917.58523257
 Total      moments (au):
          0.00000000          1.06477103          0.33043893          2.68444279
        -62.21035680        -62.07530244        -69.16090694          4.97983184
          1.74716187         -1.93366470        104.05556971          8.38853917
         21.42222872        -25.04266943        -33.52096084         45.08527759
         -0.37483683         -3.29230492          1.30925423          6.88619306
      -5302.08140714      -1958.15057619      -1342.09634870        109.50652666
         60.60239765         68.31390706        -25.06637244          6.50902527
        -36.80552036      -1256.22224472      -1176.02479689       -539.77741905
          0.90596773        -17.05609702        -28.17100470
 Traceless Quadrup. (au):
          2.27183193          2.40688629         -4.67871821          4.97983184
          1.74716187         -1.93366470
 Charge=              0.0000 electrons
 Dipole moment (field-independent basis, Debye):
    X=              2.7064    Y=              0.8399    Z=              6.8232  Tot=              7.3882
 Quadrupole moment (field-independent basis, Debye-Ang):
   XX=            -83.6751   YY=            -83.4934   ZZ=            -93.0238
   XY=              6.6980   XZ=              2.3500   YZ=             -2.6008
 Traceless Quadrupole moment (field-independent basis, Debye-Ang):
   XX=              3.0557   YY=              3.2373   ZZ=             -6.2930
   XY=              6.6980   XZ=              2.3500   YZ=             -2.6008
 Octapole moment (field-independent basis, Debye-Ang**2):
  XXX=             74.0627  YYY=              5.9706  ZZZ=             15.2475  XYY=            -17.8244
  XXY=            -23.8589  XXZ=             32.0900  XZZ=             -0.2668  YZZ=             -2.3433
  YYZ=              0.9319  XYZ=              4.9013
 Hexadecapole moment (field-independent basis, Debye-Ang**3):
 XXXX=          -1997.0180 YYYY=           -737.5334 ZZZZ=           -505.4978 XXXY=             41.2454
 XXXZ=             22.8258 YYYX=             25.7303 YYYZ=             -9.4412 ZZZX=              2.4516
 ZZZY=            -13.8627 XXYY=           -473.1535 XXZZ=           -442.9473 YYZZ=           -203.3060
 XXYZ=              0.3412 YYXZ=             -6.4241 ZZXY=            -10.6106
 N-N= 1.122828648676D+03 E-N=-5.465751149267D+03  KE= 1.358788818840D+03
 Entering OneElI...
 OneElI was handed    33345896 working-precision words.
 Calculate electrostatic properties
    NBasis =   212  MinDer = 0  MaxDer = 0
    NGrid  =    24  NMatD  =   1
 Requested accuracy = 0.1000D-12
 PrsmSu:  NPrtUS=   4 ThrOK=T IAlg=1 NPAlg=1 LenDen=           0.
 Prism:   IPart=     0 DynPar=F LinDyn=F Incr=         138.
 PRISM was handed     8226662 working-precision words and  2310 shell-pairs
 PRISM was handed     8226662 working-precision words and  2310 shell-pairs
 PRISM was handed     8226662 working-precision words and  2310 shell-pairs
 PRISM was handed     8226662 working-precision words and  2310 shell-pairs
 IPart=  2 NShTot=       13680 NBatch=         570 AvBLen=        24.0
 IPart=  1 NShTot=       14088 NBatch=         587 AvBLen=        24.0
 IPart=  3 NShTot=       13416 NBatch=         559 AvBLen=        24.0
 IPart=  0 NShTot=       14256 NBatch=         594 AvBLen=        24.0
 PrSmSu:  NxtVal=            553.
 --------------------------------------------------------
       Center         ----      EFG at Nuclei      ----
                      3XX-RR        3YY-RR        3ZZ-RR
 --------------------------------------------------------
     1   Atom        0.062498     -0.052919     -0.009579
     2   Atom       -0.165687      0.076051      0.089635
     3   Atom       -0.136164      0.135937      0.000227
     4   Atom       -0.165966     -0.038215      0.204181
     5   Atom       -0.155504     -0.261240      0.416743
     6   Atom       -0.161052      0.378444     -0.217392
     7   Atom        0.777020      0.208673     -0.985693
     8   Atom        0.706298     -1.486482      0.780184
     9   Atom        0.564400      0.542932     -1.107332
    10   Atom       -1.146219      0.372136      0.774083
    11   Atom       -0.165220      0.069956      0.095264
    12   Atom        0.308692     -0.172156     -0.136536
    13   Atom        0.095141      0.072321     -0.167462
    14   Atom       -0.076934     -0.047469      0.124403
    15   Atom       -0.089351      0.050109      0.039242
    16   Atom       -0.037925     -0.070185      0.108110
    17   Atom        0.115598     -0.012064     -0.103535
    18   Atom        0.057609      0.028431     -0.086040
    19   Atom       -0.097118      0.034153      0.062965
    20   Atom        0.124099     -0.274556      0.150457
    21   Atom        0.123238      0.102528     -0.225766
    22   Atom        0.081190      0.080579     -0.161769
    23   Atom       -0.053287     -0.071704      0.124991
    24   Atom        0.094306     -0.003049     -0.091257
 --------------------------------------------------------
                        XY            XZ            YZ
 --------------------------------------------------------
     1   Atom        0.033027      0.050423     -0.083627
     2   Atom       -0.199341      0.132787      0.088619
     3   Atom       -0.043907     -0.175249     -0.028015
     4   Atom       -0.047901     -0.252454      0.014124
     5   Atom        0.223092      0.415456      0.782372
     6   Atom        0.774771      0.399846      0.351223
     7   Atom       -0.130372      0.379863      1.027845
     8   Atom       -0.531157      0.114873      0.174928
     9   Atom        0.330275      0.623747     -0.716267
    10   Atom        0.924208      0.311731     -0.107703
    11   Atom        0.364374      0.365565     -0.390159
    12   Atom        0.072963     -0.098845      0.482281
    13   Atom       -0.058818      0.140832      0.142038
    14   Atom       -0.208315     -0.069323     -0.074136
    15   Atom        0.159786     -0.156569      0.093735
    16   Atom        0.187610      0.098863     -0.100642
    17   Atom        0.054390     -0.071505      0.210156
    18   Atom       -0.107282     -0.129072     -0.163501
    19   Atom        0.168386      0.131694     -0.104373
    20   Atom       -0.093095     -0.011068     -0.007702
    21   Atom       -0.033065      0.070798      0.144283
    22   Atom       -0.055234      0.117407      0.138843
    23   Atom        0.229174      0.139002     -0.091413
    24   Atom       -0.078634      0.150251      0.237890
 --------------------------------------------------------


 ---------------------------------------------------------------------------------
              Nuclear Quadrupole in Principal Axis System
 ---------------------------------------------------------------------------------

       Atom             a.u.   MegaHertz   Gauss  10(-4) cm-1        Axes

              Baa    -0.1343   -18.023    -6.431    -6.012 -0.2807  0.7409  0.6102
     1 C(13)  Bbb     0.0449     6.020     2.148     2.008  0.4573  0.6622 -0.5937
              Bcc     0.0894    12.003     4.283     4.004  0.8439 -0.1124  0.5246
 
              Baa    -0.3373   -45.266   -16.152   -15.099  0.8124  0.4667 -0.3495
     2 C(13)  Bbb     0.1460    19.588     6.990     6.534  0.4224 -0.0579  0.9045
              Bcc     0.1914    25.678     9.162     8.565 -0.4019  0.8825  0.2442
 
              Baa    -0.2628   -35.267   -12.584   -11.764  0.8188  0.1295  0.5593
     3 C(13)  Bbb     0.1200    16.098     5.744     5.370 -0.5549 -0.0715  0.8289
              Bcc     0.1429    19.169     6.840     6.394 -0.1473  0.9890 -0.0133
 
              Baa    -0.2990   -40.125   -14.318   -13.384  0.8867  0.1390  0.4410
     4 C(13)  Bbb    -0.0363    -4.868    -1.737    -1.624 -0.0826  0.9860 -0.1447
              Bcc     0.3353    44.993    16.055    15.008 -0.4549  0.0918  0.8858
 
              Baa    -0.7784   -30.021   -10.712   -10.014  0.0838  0.8201 -0.5660
     5 N(14)  Bbb    -0.3271   -12.616    -4.502    -4.208  0.9333 -0.2637 -0.2439
              Bcc     1.1055    42.637    15.214    14.222  0.3493  0.5078  0.7875
 
              Baa    -0.7517   -28.992   -10.345    -9.671  0.8265 -0.4705 -0.3092
     6 N(14)  Bbb    -0.3778   -14.569    -5.199    -4.860  0.0610 -0.4712  0.8799
              Bcc     1.1295    43.561    15.543    14.530  0.5597  0.7461  0.3607
 
              Baa    -1.6416   118.784    42.385    39.622 -0.1610 -0.4879  0.8579
     7 O(17)  Bbb     0.7426   -53.732   -19.173   -17.923 -0.5988  0.7393  0.3080
              Bcc     0.8990   -65.052   -23.212   -21.699  0.7845  0.4641  0.4112
 
              Baa    -1.6244   117.540    41.941    39.207  0.2253  0.9709 -0.0814
     8 O(17)  Bbb     0.7379   -53.391   -19.051   -17.809 -0.5960  0.2034  0.7768
              Bcc     0.8865   -64.149   -22.890   -21.398  0.7707 -0.1265  0.6245
 
              Baa    -1.6014   115.875    41.347    38.652 -0.3079  0.3438  0.8871
     9 O(17)  Bbb     0.7134   -51.619   -18.419   -17.218  0.7082 -0.5399  0.4550
              Bcc     0.8880   -64.256   -22.928   -21.433  0.6354  0.7683 -0.0772
 
              Baa    -1.6278   117.790    42.030    39.290  0.8966 -0.4216 -0.1353
    10 O(17)  Bbb     0.7781   -56.300   -20.089   -18.780  0.2405  0.7203 -0.6506
              Bcc     0.8498   -61.489   -21.941   -20.511  0.3718  0.5508  0.7472
 
              Baa    -0.7575   -31.056   -11.082   -10.359  0.6570 -0.5382 -0.5279
    11 S(33)  Bbb     0.2842    11.653     4.158     3.887  0.7533  0.4974  0.4304
              Bcc     0.4733    19.403     6.924     6.472  0.0309 -0.6804  0.7322
 
              Baa    -0.6522   -26.741    -9.542    -8.920 -0.1251  0.7126 -0.6904
    12 S(33)  Bbb     0.3056    12.530     4.471     4.180  0.7373  0.5324  0.4159
              Bcc     0.3466    14.211     5.071     4.740  0.6639 -0.4570 -0.5920
 
              Baa    -0.2933  -156.505   -55.845   -52.204 -0.3655 -0.3875  0.8463
    13 H(1)   Bbb     0.1366    72.896    26.011    24.316 -0.2683  0.9145  0.3029
              Bcc     0.1567    83.609    29.834    27.889  0.8913  0.1163  0.4382
 
              Baa    -0.2955  -157.645   -56.252   -52.585  0.7087  0.6654  0.2345
    14 H(1)   Bbb     0.1409    75.155    26.817    25.069  0.6322 -0.4513 -0.6298
              Bcc     0.1546    82.490    29.435    27.516  0.3132 -0.5946  0.7405
 
              Baa    -0.2938  -156.767   -55.938   -52.292  0.7381 -0.4738  0.4803
    15 H(1)   Bbb     0.1368    72.974    26.039    24.341 -0.1958  0.5309  0.8245
              Bcc     0.1570    83.793    29.899    27.950  0.6457  0.7026 -0.2991
 
              Baa    -0.2920  -155.821   -55.601   -51.976 -0.6405  0.6924  0.3324
    16 H(1)   Bbb     0.1334    71.184    25.400    23.744  0.6811  0.7120 -0.1707
              Bcc     0.1586    84.637    30.200    28.232  0.3548 -0.1171  0.9276
 
              Baa    -0.2926  -156.134   -55.712   -52.081  0.2149 -0.6118  0.7612
    17 H(1)   Bbb     0.1351    72.074    25.718    24.041  0.9707  0.2197 -0.0974
              Bcc     0.1575    84.060    29.995    28.039 -0.1076  0.7599  0.6411
 
              Baa    -0.2841  -151.574   -54.085   -50.560  0.4402  0.5302  0.7246
    18 H(1)   Bbb     0.1303    69.509    24.802    23.186  0.6944  0.3106 -0.6491
              Bcc     0.1538    82.066    29.283    27.374 -0.5692  0.7889 -0.2315
 
              Baa    -0.2915  -155.550   -55.504   -51.886  0.7397 -0.5195 -0.4277
    19 H(1)   Bbb     0.1345    71.754    25.603    23.934  0.6219  0.2847  0.7295
              Bcc     0.1571    83.796    29.901    27.951  0.2572  0.8056 -0.5337
 
              Baa    -0.2954  -157.636   -56.248   -52.582  0.2171  0.9759  0.0222
    20 H(1)   Bbb     0.1381    73.696    26.297    24.582  0.7865 -0.1884  0.5881
              Bcc     0.1573    83.939    29.952    27.999 -0.5781  0.1102  0.8085
 
              Baa    -0.2947  -157.233   -56.105   -52.447 -0.1833 -0.3491  0.9190
    21 H(1)   Bbb     0.1361    72.623    25.914    24.224  0.9461  0.1912  0.2613
              Bcc     0.1586    84.610    30.191    28.223 -0.2669  0.9174  0.2952
 
              Baa    -0.2725  -145.379   -51.875   -48.493 -0.3444 -0.3898  0.8541
    22 H(1)   Bbb     0.1286    68.623    24.486    22.890  0.9335 -0.0459  0.3555
              Bcc     0.1439    76.756    27.388    25.603 -0.0993  0.9198  0.3797
 
              Baa    -0.3478  -185.583   -66.221   -61.904  0.6716 -0.6653 -0.3261
    23 H(1)   Bbb     0.1384    73.821    26.341    24.624  0.4006  0.6963 -0.5956
              Bcc     0.2095   111.762    39.880    37.280  0.6233  0.2693  0.7341
 
              Baa    -0.3511  -187.349   -66.851   -62.493 -0.3504 -0.5811  0.7345
    24 H(1)   Bbb     0.1369    73.053    26.067    24.368  0.8084 -0.5837 -0.0762
              Bcc     0.2142   114.296    40.784    38.125  0.4730  0.5671  0.6743
 

 ---------------------------------------------------------------------------------

 No NMR shielding tensors so no spin-rotation constants.
 Leave Link  601 at Mon Feb 26 23:18:22 2018, MaxMem=   33554432 cpu:       0.9
 Merz-Kollman atomic radii used.
 Read replacement radii for each type of atom:
 Atom Element Radius
    1     6    1.50
    2     6    1.50
    3     6    1.50
    4     6    1.50
    5     7    1.50
    6     7    1.50
    7     8    1.40
    8     8    1.40
    9     8    1.40
   10     8    1.40
   11    16    1.75
   12    16    1.75
   13     1    1.20
   14     1    1.20
   15     1    1.20
   16     1    1.20
   17     1    1.20
   18     1    1.20
   19     1    1.20
   20     1    1.20
   21     1    1.20
   22     1    1.20
   23     1    1.20
   24     1    1.20
 Generate VDW surfaces: Layer= 4 Dens= 1 Start= 1.400 Inc= 0.200

 **********************************************************************

            Electrostatic Properties Using The SCF Density

 **********************************************************************

       Atomic Center    1 is at  -0.833680  2.391381  0.940096
       Atomic Center    2 is at  -2.653357 -1.758285  1.095164
       Atomic Center    3 is at   3.464219 -0.025325  0.892137
       Atomic Center    4 is at  -0.218545  1.308399  0.061581
       Atomic Center    5 is at  -1.397529 -1.115525  0.669569
       Atomic Center    6 is at   0.851177  0.625989  0.768273
       Atomic Center    7 is at   2.192838  0.422454 -1.402157
       Atomic Center    8 is at   1.654216 -1.696297 -0.066100
       Atomic Center    9 is at  -1.134418 -0.408441 -1.826080
       Atomic Center   10 is at  -2.872532  0.719567 -0.331624
       Atomic Center   11 is at   2.001506 -0.268216 -0.128820
       Atomic Center   12 is at  -1.550996  0.106489 -0.516733
       Atomic Center   13 is at  -1.238727  1.968136  1.865107
       Atomic Center   14 is at  -0.057537  3.118164  1.197577
       Atomic Center   15 is at  -1.646089  2.896331  0.414102
       Atomic Center   16 is at  -3.345135 -0.990102  1.441745
       Atomic Center   17 is at  -2.414527 -2.425710  1.927912
       Atomic Center   18 is at  -3.136936 -2.336701  0.298673
       Atomic Center   19 is at   4.270478 -0.593904  0.422748
       Atomic Center   20 is at   3.701939  1.038576  0.914833
       Atomic Center   21 is at   3.270295 -0.408277  1.895900
       Atomic Center   22 is at   0.179279  1.710392 -0.873076
       Atomic Center   23 is at  -0.705407 -1.786537  0.328465
       Atomic Center   24 is at   0.465997  0.028738  1.503786
      ESP Fit Center   25 is at   0.216320  2.391381  2.758749
      ESP Fit Center   26 is at  -1.092501  4.191523  1.990096
      ESP Fit Center   27 is at  -2.024644  3.765828  1.990096
      ESP Fit Center   28 is at  -2.128357 -0.848959  2.913817
      ESP Fit Center   29 is at  -3.703357 -1.758285  2.913817
      ESP Fit Center   30 is at  -4.398342 -2.270659  2.145164
      ESP Fit Center   31 is at  -4.692334 -2.260848  1.095164
      ESP Fit Center   32 is at  -4.398342 -1.245912  0.045164
      ESP Fit Center   33 is at   3.989219  0.884001  2.710791
      ESP Fit Center   34 is at   5.282872 -0.025325  1.942137
      ESP Fit Center   35 is at   4.994167 -1.008563  1.942137
      ESP Fit Center   36 is at   3.717346 -2.110014  0.892137
      ESP Fit Center   37 is at   4.994167  0.957913 -0.157863
      ESP Fit Center   38 is at  -1.397529 -1.115525  2.769569
      ESP Fit Center   39 is at  -0.347529 -1.115525  2.488223
      ESP Fit Center   40 is at  -1.922529 -0.206198  2.488223
      ESP Fit Center   41 is at  -0.872529 -2.024852  2.488223
      ESP Fit Center   42 is at  -0.642033 -2.769830  1.719569
      ESP Fit Center   43 is at   1.901177  0.625989  2.586926
      ESP Fit Center   44 is at   1.376177  1.535316  2.586926
      ESP Fit Center   45 is at   0.326177  1.535316  2.586926
      ESP Fit Center   46 is at   2.381126  1.609228  1.818273
      ESP Fit Center   47 is at   1.606673  2.280295  1.818273
      ESP Fit Center   48 is at   2.044113  2.354255  0.768273
      ESP Fit Center   49 is at   4.152838  0.422454 -1.402157
      ESP Fit Center   50 is at   3.890248  1.402454 -1.402157
      ESP Fit Center   51 is at   3.172838  2.119863 -1.402157
      ESP Fit Center   52 is at   2.192838  2.382454 -1.402157
      ESP Fit Center   53 is at   3.890248  0.422454 -2.382157
      ESP Fit Center   54 is at   3.566072  1.420166 -2.382157
      ESP Fit Center   55 is at   2.717367  2.036786 -2.382157
      ESP Fit Center   56 is at   1.668310  2.036786 -2.382157
      ESP Fit Center   57 is at   0.819605 -0.575259 -2.382157
      ESP Fit Center   58 is at   1.668310 -1.191879 -2.382157
      ESP Fit Center   59 is at   2.717367 -1.191879 -2.382157
      ESP Fit Center   60 is at   3.566072 -0.575259 -2.382157
      ESP Fit Center   61 is at   3.172838  0.422454 -3.099567
      ESP Fit Center   62 is at   2.682838  1.271158 -3.099567
      ESP Fit Center   63 is at   1.702838  1.271158 -3.099567
      ESP Fit Center   64 is at   1.212838  0.422454 -3.099567
      ESP Fit Center   65 is at   1.702838 -0.426251 -3.099567
      ESP Fit Center   66 is at   2.682838 -0.426251 -3.099567
      ESP Fit Center   67 is at   2.192838  0.422454 -3.362157
      ESP Fit Center   68 is at   1.654216 -1.696297  1.893900
      ESP Fit Center   69 is at   0.674216 -1.696297  1.631310
      ESP Fit Center   70 is at   1.164216 -2.545002  1.631310
      ESP Fit Center   71 is at   2.144216 -2.545002  1.631310
      ESP Fit Center   72 is at   1.129688 -3.310630  0.913900
      ESP Fit Center   73 is at   2.178744 -3.310630  0.913900
      ESP Fit Center   74 is at   3.027449 -2.694010  0.913900
      ESP Fit Center   75 is at   0.674216 -3.393707 -0.066100
      ESP Fit Center   76 is at   1.654216 -3.656297 -0.066100
      ESP Fit Center   77 is at   2.634216 -3.393707 -0.066100
      ESP Fit Center   78 is at   3.351626 -2.676297 -0.066100
      ESP Fit Center   79 is at   0.280983 -2.694010 -1.046100
      ESP Fit Center   80 is at   1.129688 -3.310630 -1.046100
      ESP Fit Center   81 is at   2.178744 -3.310630 -1.046100
      ESP Fit Center   82 is at   3.027449 -2.694010 -1.046100
      ESP Fit Center   83 is at   0.674216 -1.696297 -1.763510
      ESP Fit Center   84 is at   1.164216 -2.545002 -1.763510
      ESP Fit Center   85 is at   2.144216 -2.545002 -1.763510
      ESP Fit Center   86 is at  -2.114418 -2.105851 -1.826080
      ESP Fit Center   87 is at  -1.134418 -2.368441 -1.826080
      ESP Fit Center   88 is at  -0.154418 -2.105851 -1.826080
      ESP Fit Center   89 is at   0.562992 -1.388441 -1.826080
      ESP Fit Center   90 is at   0.562992 -0.408441 -2.806080
      ESP Fit Center   91 is at   0.238816  0.589271 -2.806080
      ESP Fit Center   92 is at  -0.609889  1.205891 -2.806080
      ESP Fit Center   93 is at  -1.658946  1.205891 -2.806080
      ESP Fit Center   94 is at  -2.507651  0.589271 -2.806080
      ESP Fit Center   95 is at  -2.831827 -0.408441 -2.806080
      ESP Fit Center   96 is at  -2.507651 -1.406154 -2.806080
      ESP Fit Center   97 is at  -1.658946 -2.022774 -2.806080
      ESP Fit Center   98 is at  -0.609889 -2.022774 -2.806080
      ESP Fit Center   99 is at   0.238816 -1.406154 -2.806080
      ESP Fit Center  100 is at  -0.154418 -0.408441 -3.523489
      ESP Fit Center  101 is at  -0.644418  0.440264 -3.523489
      ESP Fit Center  102 is at  -1.624418  0.440264 -3.523489
      ESP Fit Center  103 is at  -2.114418 -0.408441 -3.523489
      ESP Fit Center  104 is at  -1.624418 -1.257146 -3.523489
      ESP Fit Center  105 is at  -0.644418 -1.257146 -3.523489
      ESP Fit Center  106 is at  -1.134418 -0.408441 -3.786080
      ESP Fit Center  107 is at  -2.872532  0.719567  1.628376
      ESP Fit Center  108 is at  -3.362532  1.568272  1.365786
      ESP Fit Center  109 is at  -3.852532  0.719567  1.365786
      ESP Fit Center  110 is at  -3.397060  2.333900  0.648376
      ESP Fit Center  111 is at  -4.245765  1.717280  0.648376
      ESP Fit Center  112 is at  -4.569942  0.719567  0.648376
      ESP Fit Center  113 is at  -3.852532  2.416977 -0.331624
      ESP Fit Center  114 is at  -4.569942  1.699567 -0.331624
      ESP Fit Center  115 is at  -4.832532  0.719567 -0.331624
      ESP Fit Center  116 is at  -4.569942 -0.260433 -0.331624
      ESP Fit Center  117 is at  -2.348004  2.333900 -1.311624
      ESP Fit Center  118 is at  -3.397060  2.333900 -1.311624
      ESP Fit Center  119 is at  -4.245765  1.717280 -1.311624
      ESP Fit Center  120 is at  -4.569942  0.719567 -1.311624
      ESP Fit Center  121 is at  -4.245765 -0.278145 -1.311624
      ESP Fit Center  122 is at  -3.362532  1.568272 -2.029034
      ESP Fit Center  123 is at  -3.852532  0.719567 -2.029034
      ESP Fit Center  124 is at   3.490758 -2.135678 -0.673996
      ESP Fit Center  125 is at   2.797228 -2.010605 -1.656370
      ESP Fit Center  126 is at   3.612917 -1.303807 -1.656370
      ESP Fit Center  127 is at   1.469999 -1.188815 -2.336194
      ESP Fit Center  128 is at  -3.703026 -0.929874 -1.061910
      ESP Fit Center  129 is at  -2.082504 -2.222198 -1.061910
      ESP Fit Center  130 is at  -1.823598  2.002480 -2.044283
      ESP Fit Center  131 is at  -3.388892 -0.433166 -2.044283
      ESP Fit Center  132 is at  -1.238727  1.968136  3.545107
      ESP Fit Center  133 is at  -0.251247  1.968136  3.224255
      ESP Fit Center  134 is at  -0.933579  2.907284  3.224255
      ESP Fit Center  135 is at  -2.037614  2.548561  3.224255
      ESP Fit Center  136 is at  -2.037614  1.387710  3.224255
      ESP Fit Center  137 is at  -0.933579  1.028987  3.224255
      ESP Fit Center  138 is at  -2.037614  3.351849  2.384255
      ESP Fit Center  139 is at  -2.740144  2.514607  2.384255
      ESP Fit Center  140 is at  -2.740144  1.421665  2.384255
      ESP Fit Center  141 is at  -2.037614  0.584422  2.384255
      ESP Fit Center  142 is at  -0.961276  0.394635  2.384255
      ESP Fit Center  143 is at  -0.057537  3.118164  2.877577
      ESP Fit Center  144 is at   0.929942  3.118164  2.556725
      ESP Fit Center  145 is at   0.247611  4.057313  2.556725
      ESP Fit Center  146 is at   1.540238  3.118164  1.716725
      ESP Fit Center  147 is at   1.166430  4.145194  1.716725
      ESP Fit Center  148 is at   0.219914  4.691665  1.716725
      ESP Fit Center  149 is at  -0.856424  4.501878  1.716725
      ESP Fit Center  150 is at   1.540238  3.118164  0.678428
      ESP Fit Center  151 is at   1.166430  4.145194  0.678428
      ESP Fit Center  152 is at   0.219914  4.691665  0.678428
      ESP Fit Center  153 is at  -0.856424  4.501878  0.678428
      ESP Fit Center  154 is at   0.929942  3.118164 -0.161572
      ESP Fit Center  155 is at   0.247611  4.057313 -0.161572
      ESP Fit Center  156 is at  -2.444976  3.476757  1.773250
      ESP Fit Center  157 is at  -1.368638  4.469833  0.933250
      ESP Fit Center  158 is at  -2.444976  4.280045  0.933250
      ESP Fit Center  159 is at  -3.147506  3.442803  0.933250
      ESP Fit Center  160 is at  -3.147506  2.349860  0.933250
      ESP Fit Center  161 is at  -1.368638  4.469833 -0.105047
      ESP Fit Center  162 is at  -2.444976  4.280045 -0.105047
      ESP Fit Center  163 is at  -3.147506  3.442803 -0.105047
      ESP Fit Center  164 is at  -1.340941  3.835480 -0.945047
      ESP Fit Center  165 is at  -2.444976  3.476757 -0.945047
      ESP Fit Center  166 is at  -1.646089  2.896331 -1.265898
      ESP Fit Center  167 is at  -3.345135 -0.990102  3.121745
      ESP Fit Center  168 is at  -3.039987 -0.050953  2.800893
      ESP Fit Center  169 is at  -4.144023 -0.409676  2.800893
      ESP Fit Center  170 is at  -4.144023 -1.570528  2.800893
      ESP Fit Center  171 is at  -3.067684  0.583399  1.960893
      ESP Fit Center  172 is at  -4.144023  0.393612  1.960893
      ESP Fit Center  173 is at  -4.846552 -0.443631  1.960893
      ESP Fit Center  174 is at  -4.846552 -1.536573  1.960893
      ESP Fit Center  175 is at  -4.846552 -0.443631  0.922596
      ESP Fit Center  176 is at  -4.846552 -1.536573  0.922596
      ESP Fit Center  177 is at  -2.414527 -2.425710  3.607912
      ESP Fit Center  178 is at  -1.427048 -2.425710  3.287060
      ESP Fit Center  179 is at  -2.109380 -1.486561  3.287060
      ESP Fit Center  180 is at  -3.213415 -1.845284  3.287060
      ESP Fit Center  181 is at  -3.213415 -3.006136  3.287060
      ESP Fit Center  182 is at  -2.109380 -3.364858  3.287060
      ESP Fit Center  183 is at  -0.816753 -2.425710  2.447060
      ESP Fit Center  184 is at  -3.915945 -2.972181  2.447060
      ESP Fit Center  185 is at  -3.213415 -3.809424  2.447060
      ESP Fit Center  186 is at  -2.137077 -3.999211  2.447060
      ESP Fit Center  187 is at  -1.190561 -3.452740  2.447060
      ESP Fit Center  188 is at  -3.213415 -3.809424  1.408763
      ESP Fit Center  189 is at  -2.137077 -3.999211  1.408763
      ESP Fit Center  190 is at  -1.190561 -3.452740  1.408763
      ESP Fit Center  191 is at  -4.638353 -2.883172  0.817821
      ESP Fit Center  192 is at  -3.935823 -3.720415  0.817821
      ESP Fit Center  193 is at  -2.859485 -3.910202  0.817821
      ESP Fit Center  194 is at  -4.638353 -1.790230 -0.220476
      ESP Fit Center  195 is at  -4.638353 -2.883172 -0.220476
      ESP Fit Center  196 is at  -3.935823 -3.720415 -0.220476
      ESP Fit Center  197 is at  -2.859485 -3.910202 -0.220476
      ESP Fit Center  198 is at  -1.912969 -3.363731 -0.220476
      ESP Fit Center  199 is at  -2.149457 -2.336701 -1.060476
      ESP Fit Center  200 is at  -3.935823 -1.756275 -1.060476
      ESP Fit Center  201 is at  -3.935823 -2.917127 -1.060476
      ESP Fit Center  202 is at  -2.831788 -3.275849 -1.060476
      ESP Fit Center  203 is at  -3.136936 -2.336701 -1.381327
      ESP Fit Center  204 is at   5.868253 -0.593904  0.941897
      ESP Fit Center  205 is at   4.547928 -2.167405  0.941897
      ESP Fit Center  206 is at   5.494444 -1.620934  0.941897
      ESP Fit Center  207 is at   5.868253 -0.593904 -0.096400
      ESP Fit Center  208 is at   5.494444  0.433126 -0.096400
      ESP Fit Center  209 is at   4.547928 -2.167405 -0.096400
      ESP Fit Center  210 is at   5.494444 -1.620934 -0.096400
      ESP Fit Center  211 is at   5.257957 -0.593904 -0.936400
      ESP Fit Center  212 is at   4.575626  0.345244 -0.936400
      ESP Fit Center  213 is at   4.575626 -1.533053 -0.936400
      ESP Fit Center  214 is at   4.270478 -0.593904 -1.257252
      ESP Fit Center  215 is at   4.689418  1.038576  2.273982
      ESP Fit Center  216 is at   4.007087  1.977725  2.273982
      ESP Fit Center  217 is at   2.903051  1.619002  2.273982
      ESP Fit Center  218 is at   5.299714  1.038576  1.433982
      ESP Fit Center  219 is at   4.925906  2.065606  1.433982
      ESP Fit Center  220 is at   3.979390  2.612077  1.433982
      ESP Fit Center  221 is at   2.903051  2.422290  1.433982
      ESP Fit Center  222 is at   5.299714  1.038576  0.395684
      ESP Fit Center  223 is at   4.925906  2.065606  0.395684
      ESP Fit Center  224 is at   3.979390  2.612077  0.395684
      ESP Fit Center  225 is at   2.903051  2.422290  0.395684
      ESP Fit Center  226 is at   4.689418  1.038576 -0.444316
      ESP Fit Center  227 is at   4.007087  1.977725 -0.444316
      ESP Fit Center  228 is at   3.270295 -0.408277  3.575900
      ESP Fit Center  229 is at   4.257774 -0.408277  3.255049
      ESP Fit Center  230 is at   3.575443  0.530872  3.255049
      ESP Fit Center  231 is at   2.471408  0.172149  3.255049
      ESP Fit Center  232 is at   2.471408 -0.988702  3.255049
      ESP Fit Center  233 is at   3.575443 -1.347425  3.255049
      ESP Fit Center  234 is at   4.868070 -0.408277  2.415049
      ESP Fit Center  235 is at   1.768878 -0.954748  2.415049
      ESP Fit Center  236 is at   2.471408 -1.791990  2.415049
      ESP Fit Center  237 is at   3.547746 -1.981778  2.415049
      ESP Fit Center  238 is at   4.494262 -1.435306  2.415049
      ESP Fit Center  239 is at   1.403246  2.737422 -0.353927
      ESP Fit Center  240 is at   1.403246  2.737422 -1.392224
      ESP Fit Center  241 is at   0.456730  3.283893 -1.392224
      ESP Fit Center  242 is at  -0.619608  3.094106 -1.392224
      ESP Fit Center  243 is at   0.484427  2.649541 -2.232224
      ESP Fit Center  244 is at  -0.619608  2.290818 -2.232224
      ESP Fit Center  245 is at   0.179279  1.710392 -2.553076
      ESP Fit Center  246 is at  -0.400259 -2.725685  1.687613
      ESP Fit Center  247 is at  -0.427956 -3.360038  0.847613
      ESP Fit Center  248 is at  -1.504295 -3.170250 -0.190684
      ESP Fit Center  249 is at  -0.427956 -3.360038 -0.190684
      ESP Fit Center  250 is at  -1.504295 -2.366962 -1.030684
      ESP Fit Center  251 is at  -0.400259 -2.725685 -1.030684
      ESP Fit Center  252 is at   0.465997  0.028738  3.183786
      ESP Fit Center  253 is at   1.453477  0.028738  2.862935
      ESP Fit Center  254 is at   0.771145  0.967886  2.862935
      ESP Fit Center  255 is at  -0.332890  0.609163  2.862935
      ESP Fit Center  256 is at  -0.332890 -0.551688  2.862935
      ESP Fit Center  257 is at   0.771145 -0.910411  2.862935
      ESP Fit Center  258 is at   0.743448 -1.544763  2.022935
      ESP Fit Center  259 is at   0.207641  2.391381  3.102421
      ESP Fit Center  260 is at  -0.313019  3.293191  3.102421
      ESP Fit Center  261 is at  -1.100719  4.248678  2.436472
      ESP Fit Center  262 is at  -2.062457  3.809466  2.436472
      ESP Fit Center  263 is at  -1.354340  4.672544  1.474146
      ESP Fit Center  264 is at  -3.173507  2.391381  1.474146
      ESP Fit Center  265 is at  -0.054197  4.098210 -0.556279
      ESP Fit Center  266 is at  -2.132696 -0.856475  3.257489
      ESP Fit Center  267 is at  -3.694678 -1.758285  3.257489
      ESP Fit Center  268 is at  -4.453745 -2.286927  2.591540
      ESP Fit Center  269 is at  -4.761468 -2.773498  1.629214
      ESP Fit Center  270 is at  -4.112215 -3.587636  1.629214
      ESP Fit Center  271 is at  -4.993184 -1.758285  0.561114
      ESP Fit Center  272 is at  -2.132696 -4.039448  0.561114
      ESP Fit Center  273 is at   5.340614 -0.025325  2.388513
      ESP Fit Center  274 is at   5.042743  0.989131  2.388513
      ESP Fit Center  275 is at   5.042743 -1.039781  2.388513
      ESP Fit Center  276 is at   5.572330  0.989888  1.426187
      ESP Fit Center  277 is at   3.984879 -2.306488  1.426187
      ESP Fit Center  278 is at   5.572330  0.989888  0.358087
      ESP Fit Center  279 is at   5.042743  0.989131 -0.604238
      ESP Fit Center  280 is at  -1.397529 -1.115525  3.069569
      ESP Fit Center  281 is at  -0.356208 -1.115525  2.831895
      ESP Fit Center  282 is at  -1.918190 -0.213715  2.831895
      ESP Fit Center  283 is at   0.180995 -2.129981  2.165945
      ESP Fit Center  284 is at   1.892498  0.625989  2.930598
      ESP Fit Center  285 is at   1.371838  1.527800  2.930598
      ESP Fit Center  286 is at   0.330517  1.527800  2.930598
      ESP Fit Center  287 is at   1.630660  2.332819  2.264648
      ESP Fit Center  288 is at   2.310036  2.455340  1.302323
      ESP Fit Center  289 is at   3.433400  2.219717 -0.903710
      ESP Fit Center  290 is at   2.456071  2.590369 -0.903710
      ESP Fit Center  291 is at   4.376677  0.422454 -1.900604
      ESP Fit Center  292 is at   4.126531  1.437334 -1.900604
      ESP Fit Center  293 is at   3.433400  2.219717 -1.900604
      ESP Fit Center  294 is at   2.456071  2.590369 -1.900604
      ESP Fit Center  295 is at   3.944141  0.422454 -2.798774
      ESP Fit Center  296 is at   3.609672  1.451843 -2.798774
      ESP Fit Center  297 is at   2.734021  2.088041 -2.798774
      ESP Fit Center  298 is at   1.651656  2.088041 -2.798774
      ESP Fit Center  299 is at   0.776005  1.451843 -2.798774
      ESP Fit Center  300 is at   1.651656 -1.243134 -2.798774
      ESP Fit Center  301 is at   2.734021 -1.243134 -2.798774
      ESP Fit Center  302 is at   3.609672 -0.606936 -2.798774
      ESP Fit Center  303 is at   3.164738  0.422454 -3.420327
      ESP Fit Center  304 is at   2.678788  1.264143 -3.420327
      ESP Fit Center  305 is at   1.706889  1.264143 -3.420327
      ESP Fit Center  306 is at   1.220939  0.422454 -3.420327
      ESP Fit Center  307 is at   1.706889 -0.419236 -3.420327
      ESP Fit Center  308 is at   2.678788 -0.419236 -3.420327
      ESP Fit Center  309 is at   2.192838  0.422454 -3.642157
      ESP Fit Center  310 is at   1.168266 -2.537987  1.952070
      ESP Fit Center  311 is at   2.140166 -2.537987  1.952070
      ESP Fit Center  312 is at   1.113034 -3.361885  1.330517
      ESP Fit Center  313 is at   2.195398 -3.361885  1.330517
      ESP Fit Center  314 is at   3.071050 -2.725687  1.330517
      ESP Fit Center  315 is at   0.879816 -3.738222  0.432347
      ESP Fit Center  316 is at   1.917449 -3.864213  0.432347
      ESP Fit Center  317 is at   2.894778 -3.493561  0.432347
      ESP Fit Center  318 is at   3.587909 -2.711178  0.432347
      ESP Fit Center  319 is at   0.879816 -3.738222 -0.564547
      ESP Fit Center  320 is at   1.917449 -3.864213 -0.564547
      ESP Fit Center  321 is at   2.894778 -3.493561 -0.564547
      ESP Fit Center  322 is at   3.587909 -2.711178 -0.564547
      ESP Fit Center  323 is at   0.237382 -2.725687 -1.462717
      ESP Fit Center  324 is at   1.113034 -3.361885 -1.462717
      ESP Fit Center  325 is at   2.195398 -3.361885 -1.462717
      ESP Fit Center  326 is at   3.071050 -2.725687 -1.462717
      ESP Fit Center  327 is at   1.168266 -2.537987 -2.084270
      ESP Fit Center  328 is at   2.140166 -2.537987 -2.084270
      ESP Fit Center  329 is at  -2.769044 -1.856594 -2.324526
      ESP Fit Center  330 is at  -1.908817 -2.450366 -2.324526
      ESP Fit Center  331 is at  -0.871185 -2.576357 -2.324526
      ESP Fit Center  332 is at   0.106144 -2.205705 -2.324526
      ESP Fit Center  333 is at   0.616885 -0.408441 -3.222697
      ESP Fit Center  334 is at   0.282416  0.620949 -3.222697
      ESP Fit Center  335 is at  -0.593235  1.257147 -3.222697
      ESP Fit Center  336 is at  -1.675600  1.257147 -3.222697
      ESP Fit Center  337 is at  -2.551251  0.620949 -3.222697
      ESP Fit Center  338 is at  -2.885720 -0.408441 -3.222697
      ESP Fit Center  339 is at  -2.551251 -1.437831 -3.222697
      ESP Fit Center  340 is at  -1.675600 -2.074029 -3.222697
      ESP Fit Center  341 is at  -0.593235 -2.074029 -3.222697
      ESP Fit Center  342 is at   0.282416 -1.437831 -3.222697
      ESP Fit Center  343 is at  -0.162518 -0.408441 -3.844250
      ESP Fit Center  344 is at  -0.648468  0.433249 -3.844250
      ESP Fit Center  345 is at  -1.620367  0.433249 -3.844250
      ESP Fit Center  346 is at  -2.106317 -0.408441 -3.844250
      ESP Fit Center  347 is at  -1.620367 -1.250131 -3.844250
      ESP Fit Center  348 is at  -0.648468 -1.250131 -3.844250
      ESP Fit Center  349 is at  -1.134418 -0.408441 -4.066080
      ESP Fit Center  350 is at  -3.358482  1.561257  1.686546
      ESP Fit Center  351 is at  -3.413714  2.385155  1.064993
      ESP Fit Center  352 is at  -4.289365  1.748957  1.064993
      ESP Fit Center  353 is at  -4.623835  0.719567  1.064993
      ESP Fit Center  354 is at  -3.646932  2.761492  0.166823
      ESP Fit Center  355 is at  -4.507159  2.167720  0.166823
      ESP Fit Center  356 is at  -4.992912  1.242194  0.166823
      ESP Fit Center  357 is at  -4.992912  0.196941  0.166823
      ESP Fit Center  358 is at  -3.646932  2.761492 -0.830071
      ESP Fit Center  359 is at  -4.507159  2.167720 -0.830071
      ESP Fit Center  360 is at  -4.992912  1.242194 -0.830071
      ESP Fit Center  361 is at  -4.992912  0.196941 -0.830071
      ESP Fit Center  362 is at  -4.507159 -0.728585 -0.830071
      ESP Fit Center  363 is at  -3.413714  2.385155 -1.728241
      ESP Fit Center  364 is at  -4.289365  1.748957 -1.728241
      ESP Fit Center  365 is at  -4.623835  0.719567 -1.728241
      ESP Fit Center  366 is at  -4.289365 -0.309822 -1.728241
      ESP Fit Center  367 is at  -3.358482  1.561257 -2.349794
      ESP Fit Center  368 is at  -3.844432  0.719567 -2.349794
      ESP Fit Center  369 is at   2.259858  2.519839 -0.128820
      ESP Fit Center  370 is at   3.732455 -2.190630 -1.200333
      ESP Fit Center  371 is at   2.991456 -1.982859 -2.108719
      ESP Fit Center  372 is at   3.716149 -1.258166 -2.108719
      ESP Fit Center  373 is at  -1.821397  2.679181 -1.588247
      ESP Fit Center  374 is at  -3.643812 -1.414030 -1.588247
      ESP Fit Center  375 is at  -2.844427 -2.133799 -1.588247
      ESP Fit Center  376 is at  -1.550996  2.086388 -2.496632
      ESP Fit Center  377 is at  -2.540946  1.821132 -2.496632
      ESP Fit Center  378 is at  -3.530895  0.106489 -2.496632
      ESP Fit Center  379 is at  -3.265639 -0.883460 -2.496632
      ESP Fit Center  380 is at  -1.238727  1.968136  3.785107
      ESP Fit Center  381 is at  -0.278727  1.968136  3.527876
      ESP Fit Center  382 is at  -0.758727  2.799520  3.527876
      ESP Fit Center  383 is at  -1.718727  2.799520  3.527876
      ESP Fit Center  384 is at  -2.198727  1.968136  3.527876
      ESP Fit Center  385 is at  -1.718727  1.136751  3.527876
      ESP Fit Center  386 is at  -0.758727  1.136751  3.527876
      ESP Fit Center  387 is at  -2.583935  2.945487  2.825107
      ESP Fit Center  388 is at  -2.901495  1.968136  2.825107
      ESP Fit Center  389 is at  -2.583935  0.990785  2.825107
      ESP Fit Center  390 is at  -1.752550  0.386749  2.825107
      ESP Fit Center  391 is at  -3.158727  1.968136  1.865107
      ESP Fit Center  392 is at  -0.057537  3.118164  3.117577
      ESP Fit Center  393 is at   0.902463  3.118164  2.860346
      ESP Fit Center  394 is at   0.422463  3.949549  2.860346
      ESP Fit Center  395 is at  -0.537537  3.949549  2.860346
      ESP Fit Center  396 is at   1.605232  3.118164  2.157577
      ESP Fit Center  397 is at   1.287671  4.095515  2.157577
      ESP Fit Center  398 is at   0.456287  4.699551  2.157577
      ESP Fit Center  399 is at  -0.571361  4.699551  2.157577
      ESP Fit Center  400 is at   1.862463  3.118164  1.197577
      ESP Fit Center  401 is at   1.605232  4.078164  1.197577
      ESP Fit Center  402 is at   0.902463  4.780933  1.197577
      ESP Fit Center  403 is at  -0.057537  5.038164  1.197577
      ESP Fit Center  404 is at  -1.017537  4.780933  1.197577
      ESP Fit Center  405 is at   1.605232  3.118164  0.237577
      ESP Fit Center  406 is at   1.287671  4.095515  0.237577
      ESP Fit Center  407 is at   0.456287  4.699551  0.237577
      ESP Fit Center  408 is at  -0.571361  4.699551  0.237577
      ESP Fit Center  409 is at   0.422463  3.949549 -0.465192
      ESP Fit Center  410 is at  -2.159913  4.477718  1.374102
      ESP Fit Center  411 is at  -2.991297  3.873682  1.374102
      ESP Fit Center  412 is at  -3.308858  2.896331  1.374102
      ESP Fit Center  413 is at  -1.646089  4.816331  0.414102
      ESP Fit Center  414 is at  -2.606089  4.559100  0.414102
      ESP Fit Center  415 is at  -3.308858  3.856331  0.414102
      ESP Fit Center  416 is at  -3.566089  2.896331  0.414102
      ESP Fit Center  417 is at  -1.132265  4.477718 -0.545898
      ESP Fit Center  418 is at  -2.159913  4.477718 -0.545898
      ESP Fit Center  419 is at  -2.991297  3.873682 -0.545898
      ESP Fit Center  420 is at  -1.166089  3.727716 -1.248667
      ESP Fit Center  421 is at  -2.126089  3.727716 -1.248667
      ESP Fit Center  422 is at  -2.606089  2.896331 -1.248667
      ESP Fit Center  423 is at  -1.646089  2.896331 -1.505898
      ESP Fit Center  424 is at  -3.345135 -0.990102  3.361745
      ESP Fit Center  425 is at  -2.865135 -0.158718  3.104513
      ESP Fit Center  426 is at  -3.825135 -0.158718  3.104513
      ESP Fit Center  427 is at  -4.305135 -0.990102  3.104513
      ESP Fit Center  428 is at  -2.831311  0.591285  2.401745
      ESP Fit Center  429 is at  -3.858959  0.591285  2.401745
      ESP Fit Center  430 is at  -4.690343 -0.012751  2.401745
      ESP Fit Center  431 is at  -5.007904 -0.990102  2.401745
      ESP Fit Center  432 is at  -4.690343 -1.967453  2.401745
      ESP Fit Center  433 is at  -4.305135  0.672667  1.441745
      ESP Fit Center  434 is at  -5.007904 -0.030102  1.441745
      ESP Fit Center  435 is at  -5.265135 -0.990102  1.441745
      ESP Fit Center  436 is at  -5.007904 -0.990102  0.481745
      ESP Fit Center  437 is at  -2.414527 -2.425710  3.847912
      ESP Fit Center  438 is at  -1.454527 -2.425710  3.590681
      ESP Fit Center  439 is at  -1.934527 -1.594326  3.590681
      ESP Fit Center  440 is at  -2.894527 -1.594326  3.590681
      ESP Fit Center  441 is at  -3.374527 -2.425710  3.590681
      ESP Fit Center  442 is at  -2.894527 -3.257094  3.590681
      ESP Fit Center  443 is at  -1.934527 -3.257094  3.590681
      ESP Fit Center  444 is at  -0.751759 -2.425710  2.887912
      ESP Fit Center  445 is at  -3.759736 -3.403061  2.887912
      ESP Fit Center  446 is at  -2.928351 -4.007097  2.887912
      ESP Fit Center  447 is at  -1.900704 -4.007097  2.887912
      ESP Fit Center  448 is at  -1.069319 -3.403061  2.887912
      ESP Fit Center  449 is at  -3.374527 -4.088479  1.927912
      ESP Fit Center  450 is at  -2.414527 -4.345710  1.927912
      ESP Fit Center  451 is at  -1.454527 -4.088479  1.927912
      ESP Fit Center  452 is at  -0.751759 -3.385710  1.927912
      ESP Fit Center  453 is at  -4.482144 -3.314052  1.258673
      ESP Fit Center  454 is at  -5.056936 -2.336701  0.298673
      ESP Fit Center  455 is at  -4.799705 -3.296701  0.298673
      ESP Fit Center  456 is at  -4.096936 -3.999470  0.298673
      ESP Fit Center  457 is at  -3.136936 -4.256701  0.298673
      ESP Fit Center  458 is at  -2.176936 -3.999470  0.298673
      ESP Fit Center  459 is at  -4.482144 -1.359350 -0.661327
      ESP Fit Center  460 is at  -4.799705 -2.336701 -0.661327
      ESP Fit Center  461 is at  -4.482144 -3.314052 -0.661327
      ESP Fit Center  462 is at  -3.650760 -3.918088 -0.661327
      ESP Fit Center  463 is at  -2.623112 -3.918088 -0.661327
      ESP Fit Center  464 is at  -1.791728 -3.314052 -0.661327
      ESP Fit Center  465 is at  -4.096936 -2.336701 -1.364096
      ESP Fit Center  466 is at  -3.616936 -3.168085 -1.364096
      ESP Fit Center  467 is at  -2.656936 -3.168085 -1.364096
      ESP Fit Center  468 is at  -3.136936 -2.336701 -1.621327
      ESP Fit Center  469 is at   5.933246 -0.593904  1.382748
      ESP Fit Center  470 is at   4.784301 -2.175291  1.382748
      ESP Fit Center  471 is at   5.615686 -1.571255  1.382748
      ESP Fit Center  472 is at   6.190478 -0.593904  0.422748
      ESP Fit Center  473 is at   5.933246  0.366096  0.422748
      ESP Fit Center  474 is at   4.270478 -2.513904  0.422748
      ESP Fit Center  475 is at   5.230478 -2.256673  0.422748
      ESP Fit Center  476 is at   5.933246 -1.553904  0.422748
      ESP Fit Center  477 is at   5.933246 -0.593904 -0.537252
      ESP Fit Center  478 is at   5.615686  0.383447 -0.537252
      ESP Fit Center  479 is at   4.784301 -2.175291 -0.537252
      ESP Fit Center  480 is at   5.615686 -1.571255 -0.537252
      ESP Fit Center  481 is at   5.230478 -0.593904 -1.240021
      ESP Fit Center  482 is at   4.750478  0.237480 -1.240021
      ESP Fit Center  483 is at   4.750478 -1.425289 -1.240021
      ESP Fit Center  484 is at   4.181939  1.869961  2.577602
      ESP Fit Center  485 is at   3.221939  1.869961  2.577602
      ESP Fit Center  486 is at   5.047147  2.015927  1.874833
      ESP Fit Center  487 is at   4.215763  2.619963  1.874833
      ESP Fit Center  488 is at   3.188115  2.619963  1.874833
      ESP Fit Center  489 is at   5.621939  1.038576  0.914833
      ESP Fit Center  490 is at   5.364708  1.998576  0.914833
      ESP Fit Center  491 is at   4.661939  2.701345  0.914833
      ESP Fit Center  492 is at   3.701939  2.958576  0.914833
      ESP Fit Center  493 is at   2.741939  2.701345  0.914833
      ESP Fit Center  494 is at   5.047147  2.015927 -0.045167
      ESP Fit Center  495 is at   4.215763  2.619963 -0.045167
      ESP Fit Center  496 is at   3.188115  2.619963 -0.045167
      ESP Fit Center  497 is at   4.181939  1.869961 -0.747936
      ESP Fit Center  498 is at   3.270295 -0.408277  3.815900
      ESP Fit Center  499 is at   4.230295 -0.408277  3.558669
      ESP Fit Center  500 is at   3.750295  0.423108  3.558669
      ESP Fit Center  501 is at   2.790295  0.423108  3.558669
      ESP Fit Center  502 is at   2.310295 -0.408277  3.558669
      ESP Fit Center  503 is at   2.790295 -1.239661  3.558669
      ESP Fit Center  504 is at   3.750295 -1.239661  3.558669
      ESP Fit Center  505 is at   4.933064 -0.408277  2.855900
      ESP Fit Center  506 is at   2.756471  1.173111  2.855900
      ESP Fit Center  507 is at   1.925087 -1.385627  2.855900
      ESP Fit Center  508 is at   2.756471 -1.989664  2.855900
      ESP Fit Center  509 is at   3.784119 -1.989664  2.855900
      ESP Fit Center  510 is at   4.615503 -1.385627  2.855900
      ESP Fit Center  511 is at   3.270295 -2.328277  1.895900
      ESP Fit Center  512 is at   4.230295 -2.071045  1.895900
      ESP Fit Center  513 is at   1.842048  2.670392 -0.873076
      ESP Fit Center  514 is at   1.139279  3.373161 -0.873076
      ESP Fit Center  515 is at   0.179279  3.630392 -0.873076
      ESP Fit Center  516 is at   1.524487  2.687743 -1.833076
      ESP Fit Center  517 is at   0.693103  3.291779 -1.833076
      ESP Fit Center  518 is at  -0.334545  3.291779 -1.833076
      ESP Fit Center  519 is at  -1.165929  2.687743 -1.833076
      ESP Fit Center  520 is at   0.659279  2.541776 -2.535844
      ESP Fit Center  521 is at  -0.300721  2.541776 -2.535844
      ESP Fit Center  522 is at   0.179279  1.710392 -2.793076
      ESP Fit Center  523 is at  -0.191583 -3.367924  1.288465
      ESP Fit Center  524 is at  -0.705407 -3.706537  0.328465
      ESP Fit Center  525 is at   0.254593 -3.449305  0.328465
      ESP Fit Center  526 is at  -1.219231 -3.367924 -0.631535
      ESP Fit Center  527 is at  -0.191583 -3.367924 -0.631535
      ESP Fit Center  528 is at  -1.185407 -2.617921 -1.334304
[...]
  418 Fit       0.008431
  419 Fit       0.000337
  420 Fit       0.013174
  421 Fit       0.004924
  422 Fit      -0.010556
  423 Fit       0.010299
  424 Fit       0.014942
  425 Fit       0.014563
  426 Fit       0.012258
  427 Fit       0.013178
  428 Fit       0.010757
  429 Fit       0.004036
  430 Fit       0.006118
  431 Fit       0.009802
  432 Fit       0.014038
  433 Fit      -0.016591
  434 Fit      -0.004435
  435 Fit       0.003543
  436 Fit      -0.006506
  437 Fit       0.019037
  438 Fit       0.020622
  439 Fit       0.018294
  440 Fit       0.016634
  441 Fit       0.017254
  442 Fit       0.018841
  443 Fit       0.020286
  444 Fit       0.021229
  445 Fit       0.017112
  446 Fit       0.018054
  447 Fit       0.019277
  448 Fit       0.020649
  449 Fit       0.016041
  450 Fit       0.016587
  451 Fit       0.018389
  452 Fit       0.021980
  453 Fit       0.013953
  454 Fit       0.005028
  455 Fit       0.009055
  456 Fit       0.010696
  457 Fit       0.011217
  458 Fit       0.013653
  459 Fit      -0.012326
  460 Fit       0.000174
  461 Fit       0.005664
  462 Fit       0.007242
  463 Fit       0.007135
  464 Fit       0.010196
  465 Fit      -0.003771
  466 Fit       0.001032
  467 Fit      -0.000840
  468 Fit      -0.008129
  469 Fit       0.028812
  470 Fit       0.023624
  471 Fit       0.027002
  472 Fit       0.026194
  473 Fit       0.026678
  474 Fit       0.012959
  475 Fit       0.021470
  476 Fit       0.025112
  477 Fit       0.022389
  478 Fit       0.021028
  479 Fit       0.015904
  480 Fit       0.021335
  481 Fit       0.015644
  482 Fit       0.009142
  483 Fit       0.014219
  484 Fit       0.031092
  485 Fit       0.029763
  486 Fit       0.029698
  487 Fit       0.029476
  488 Fit       0.027619
  489 Fit       0.028945
  490 Fit       0.027054
  491 Fit       0.026975
  492 Fit       0.026450
  493 Fit       0.023894
  494 Fit       0.021711
  495 Fit       0.020416
  496 Fit       0.018082
  497 Fit       0.008408
  498 Fit       0.034984
  499 Fit       0.032728
  500 Fit       0.033569
  501 Fit       0.035489
  502 Fit       0.039219
  503 Fit       0.034996
  504 Fit       0.032402
  505 Fit       0.032038
  506 Fit       0.031928
  507 Fit       0.038635
  508 Fit       0.028178
  509 Fit       0.027789
  510 Fit       0.030014
  511 Fit       0.016516
  512 Fit       0.025308
  513 Fit       0.003993
  514 Fit       0.016248
  515 Fit       0.020746
  516 Fit      -0.006101
  517 Fit       0.009754
  518 Fit       0.013902
  519 Fit       0.013645
  520 Fit      -0.004327
  521 Fit       0.001543
  522 Fit      -0.019168
  523 Fit       0.017310
  524 Fit       0.016555
  525 Fit      -0.001494
  526 Fit       0.009886
  527 Fit      -0.003481
  528 Fit      -0.012994
  529 Fit      -0.024251
  530 Fit       0.039623
  531 Fit       0.043488
  532 Fit       0.032699
  533 Fit       0.036603
  534 Fit       0.034837
  535 Fit       0.035471
  536 Fit       0.042963
  537 Fit       0.034910
  538 Fit       0.020339
  539 Fit       0.017250
  540 Fit       0.013706
  541 Fit       0.011421
  542 Fit       0.011854
  543 Fit       0.009077
  544 Fit       0.004479
  545 Fit       0.013992
  546 Fit       0.015848
  547 Fit       0.014486
  548 Fit       0.013295
  549 Fit       0.011658
  550 Fit       0.013739
  551 Fit       0.004349
  552 Fit       0.008598
  553 Fit       0.012612
  554 Fit       0.027587
  555 Fit       0.028104
  556 Fit       0.026080
  557 Fit       0.026629
  558 Fit       0.018379
  559 Fit       0.024002
  560 Fit       0.024583
  561 Fit       0.020327
  562 Fit       0.009801
  563 Fit       0.025967
  564 Fit       0.020864
  565 Fit      -0.003753
  566 Fit       0.033720
  567 Fit       0.022500
  568 Fit       0.016356
  569 Fit       0.019271
  570 Fit       0.001997
  571 Fit      -0.000482
  572 Fit      -0.009857
  573 Fit      -0.014019
  574 Fit      -0.016202
  575 Fit      -0.015425
  576 Fit      -0.025447
  577 Fit      -0.025829
  578 Fit      -0.025721
  579 Fit      -0.024342
  580 Fit      -0.024751
  581 Fit      -0.033735
  582 Fit      -0.026906
  583 Fit      -0.034004
  584 Fit      -0.032994
  585 Fit      -0.036251
  586 Fit      -0.047829
  587 Fit      -0.047689
  588 Fit      -0.039052
  589 Fit      -0.040278
  590 Fit       0.007587
  591 Fit       0.006523
  592 Fit      -0.007514
  593 Fit      -0.008650
  594 Fit       0.003583
  595 Fit      -0.013867
  596 Fit      -0.018108
  597 Fit      -0.014171
  598 Fit       0.001736
  599 Fit      -0.011646
  600 Fit      -0.022353
  601 Fit      -0.024879
  602 Fit      -0.020995
  603 Fit      -0.006842
  604 Fit      -0.031349
  605 Fit      -0.031968
  606 Fit      -0.030117
  607 Fit      -0.021901
  608 Fit      -0.042579
  609 Fit      -0.036404
  610 Fit      -0.027322
  611 Fit      -0.029663
  612 Fit      -0.036052
  613 Fit      -0.047474
  614 Fit      -0.057412
  615 Fit      -0.049573
  616 Fit      -0.033738
  617 Fit      -0.031310
  618 Fit      -0.038343
  619 Fit      -0.042794
  620 Fit      -0.041098
  621 Fit      -0.039411
  622 Fit      -0.040582
  623 Fit      -0.044808
  624 Fit      -0.051018
  625 Fit      -0.048367
  626 Fit      -0.043863
  627 Fit      -0.042497
  628 Fit      -0.044083
  629 Fit      -0.044051
  630 Fit      -0.046143
  631 Fit      -0.045347
  632 Fit      -0.007611
  633 Fit      -0.018964
  634 Fit      -0.020290
  635 Fit      -0.024170
  636 Fit      -0.027675
  637 Fit      -0.026591
  638 Fit      -0.020066
  639 Fit      -0.018441
  640 Fit      -0.028997
  641 Fit      -0.032644
  642 Fit      -0.032768
  643 Fit      -0.028907
  644 Fit      -0.024073
  645 Fit      -0.033535
  646 Fit      -0.036927
  647 Fit      -0.036310
  648 Fit      -0.035459
  649 Fit      -0.040151
  650 Fit       0.001089
  651 Fit      -0.008371
  652 Fit       0.002768
  653 Fit      -0.049185
  654 Fit      -0.039422
  655 Fit      -0.027820
  656 Fit      -0.021132
  657 Fit       0.001792
  658 Fit      -0.016797
  659 Fit      -0.029053
  660 Fit      -0.020730
  661 Fit      -0.017524
  662 Fit      -0.016561
  663 Fit      -0.026969
  664 Fit      -0.037636
  665 Fit      -0.040090
  666 Fit       0.019424
  667 Fit       0.022129
  668 Fit       0.017637
  669 Fit       0.015120
  670 Fit       0.015347
  671 Fit       0.020041
  672 Fit       0.025892
  673 Fit       0.010696
  674 Fit       0.008244
  675 Fit       0.009638
  676 Fit       0.015758
  677 Fit       0.018486
  678 Fit       0.017212
  679 Fit       0.015473
  680 Fit       0.018429
  681 Fit       0.018592
  682 Fit       0.016773
  683 Fit       0.014574
  684 Fit       0.018508
  685 Fit       0.018307
  686 Fit       0.016565
  687 Fit       0.014459
  688 Fit       0.012502
  689 Fit       0.017118
  690 Fit       0.016142
  691 Fit       0.014457
  692 Fit       0.012552
  693 Fit       0.006496
  694 Fit      -0.000239
  695 Fit       0.010518
  696 Fit       0.007500
  697 Fit       0.002354
  698 Fit      -0.008470
  699 Fit       0.011021
  700 Fit       0.007285
  701 Fit       0.001621
  702 Fit      -0.011499
  703 Fit       0.010307
  704 Fit       0.001922
  705 Fit       0.013992
  706 Fit       0.014112
  707 Fit       0.010709
  708 Fit       0.011449
  709 Fit       0.003691
  710 Fit       0.003024
  711 Fit       0.006054
  712 Fit       0.009546
  713 Fit      -0.010299
  714 Fit      -0.001653
  715 Fit       0.004602
  716 Fit      -0.015751
  717 Fit       0.017032
  718 Fit       0.018904
  719 Fit       0.017354
  720 Fit       0.015320
  721 Fit       0.015263
  722 Fit       0.016376
  723 Fit       0.017792
  724 Fit       0.020071
  725 Fit       0.014551
  726 Fit       0.014966
  727 Fit       0.015738
  728 Fit       0.016788
  729 Fit       0.018258
  730 Fit       0.013769
  731 Fit       0.014357
  732 Fit       0.015879
  733 Fit       0.018842
  734 Fit      -0.000003
  735 Fit       0.005179
  736 Fit       0.007760
  737 Fit       0.008849
  738 Fit       0.009548
  739 Fit      -0.006950
  740 Fit       0.000837
  741 Fit       0.004056
  742 Fit       0.004726
  743 Fit       0.004454
  744 Fit      -0.007020
  745 Fit      -0.002080
  746 Fit      -0.004800
  747 Fit      -0.013429
  748 Fit       0.025357
  749 Fit       0.020854
  750 Fit       0.023608
  751 Fit       0.022275
  752 Fit       0.023132
  753 Fit       0.011039
  754 Fit       0.018002
  755 Fit       0.021077
  756 Fit       0.018077
  757 Fit       0.017298
  758 Fit       0.012324
  759 Fit       0.016942
  760 Fit       0.010629
  761 Fit       0.003218
  762 Fit       0.008440
  763 Fit       0.027855
  764 Fit       0.027004
  765 Fit       0.026120
  766 Fit       0.025737
  767 Fit       0.024990
  768 Fit       0.020236
  769 Fit       0.023388
  770 Fit       0.022930
  771 Fit       0.022609
  772 Fit       0.021760
  773 Fit       0.017974
  774 Fit       0.016487
  775 Fit       0.014458
  776 Fit       0.003277
  777 Fit       0.030809
  778 Fit       0.028867
  779 Fit       0.029909
  780 Fit       0.031697
  781 Fit       0.035065
  782 Fit       0.030602
  783 Fit       0.028227
  784 Fit       0.028553
  785 Fit       0.028651
  786 Fit       0.023112
  787 Fit       0.024198
  788 Fit       0.026592
  789 Fit       0.014155
  790 Fit       0.012290
  791 Fit       0.004736
  792 Fit       0.009447
  793 Fit       0.009000
  794 Fit      -0.007898
  795 Fit      -0.002917
  796 Fit      -0.023372
  797 Fit       0.010652
  798 Fit       0.009022
  799 Fit       0.002771
  800 Fit      -0.029464
  801 Fit       0.034430
  802 Fit       0.039313
  803 Fit       0.030029
  804 Fit       0.030481
  805 Fit       0.037321
  806 Fit       0.019545
  807 Fit       0.016302
  808 Fit       0.018814
  809 Fit       0.012806
  810 Fit       0.010969
  811 Fit       0.011783
  812 Fit       0.009235
  813 Fit       0.006531
  814 Fit       0.003086
  815 Fit       0.009539
  816 Fit       0.010922
  817 Fit       0.010959
  818 Fit       0.011058
  819 Fit       0.015673
  820 Fit       0.013329
  821 Fit       0.013267
  822 Fit       0.011931
  823 Fit       0.009558
  824 Fit       0.011252
  825 Fit       0.006398
  826 Fit       0.008815
  827 Fit       0.010406
  828 Fit       0.011430
  829 Fit       0.002623
  830 Fit       0.009276
  831 Fit       0.010635
  832 Fit      -0.012022
  833 Fit       0.024995
  834 Fit       0.025298
  835 Fit       0.026072
  836 Fit       0.025477
  837 Fit       0.023240
  838 Fit       0.023742
  839 Fit       0.021828
  840 Fit       0.023085
  841 Fit       0.022497
  842 Fit       0.022247
  843 Fit       0.005863
  844 Fit       0.019825
  845 Fit       0.014733
  846 Fit       0.003100
  847 Fit       0.011133
  848 Fit       0.024690
  849 Fit       0.024445
  850 Fit       0.021153
  851 Fit       0.011962
  852 Fit       0.031242
  853 Fit       0.023088
  854 Fit       0.018304
  855 Fit       0.015862
  856 Fit      -0.000206
  857 Fit      -0.003544
  858 Fit      -0.005277
  859 Fit      -0.003462
  860 Fit      -0.012551
  861 Fit      -0.014456
  862 Fit      -0.015676
  863 Fit      -0.015417
  864 Fit      -0.012413
  865 Fit      -0.023103
  866 Fit      -0.022962
  867 Fit      -0.022993
  868 Fit      -0.022781
  869 Fit      -0.023822
  870 Fit      -0.033403
  871 Fit      -0.048032
  872 Fit      -0.037995
  873 Fit      -0.029880
  874 Fit      -0.024824
  875 Fit      -0.029800
  876 Fit      -0.029086
  877 Fit      -0.032443
  878 Fit      -0.041974
  879 Fit      -0.041757
  880 Fit      -0.034315
  881 Fit      -0.035258
  882 Fit       0.012304
  883 Fit       0.011976
  884 Fit       0.004868
  885 Fit      -0.002273
  886 Fit      -0.000655
  887 Fit       0.000904
  888 Fit      -0.008894
  889 Fit      -0.010648
  890 Fit      -0.005646
  891 Fit      -0.012962
  892 Fit      -0.016791
  893 Fit      -0.015904
  894 Fit      -0.009612
  895 Fit      -0.018421
  896 Fit      -0.022226
  897 Fit      -0.022216
  898 Fit      -0.017832
  899 Fit      -0.030730
  900 Fit      -0.029034
  901 Fit      -0.026256
  902 Fit      -0.039672
  903 Fit      -0.020526
  904 Fit      -0.028662
  905 Fit      -0.027794
  906 Fit      -0.030144
  907 Fit      -0.035552
  908 Fit      -0.043459
  909 Fit      -0.048950
  910 Fit      -0.044245
  911 Fit      -0.033689
  912 Fit      -0.029686
  913 Fit      -0.032724
  914 Fit      -0.036739
  915 Fit      -0.037184
  916 Fit      -0.035674
  917 Fit      -0.035205
  918 Fit      -0.036809
  919 Fit      -0.040386
  920 Fit      -0.045057
  921 Fit      -0.042129
  922 Fit      -0.038553
  923 Fit      -0.037221
  924 Fit      -0.038306
  925 Fit      -0.038500
  926 Fit      -0.040440
  927 Fit      -0.039541
  928 Fit      -0.009866
  929 Fit      -0.013537
  930 Fit      -0.014635
  931 Fit      -0.019722
  932 Fit      -0.019994
  933 Fit      -0.015791
  934 Fit      -0.021095
  935 Fit      -0.024672
  936 Fit      -0.025280
  937 Fit      -0.023281
  938 Fit      -0.017747
  939 Fit      -0.023241
  940 Fit      -0.027837
  941 Fit      -0.029279
  942 Fit      -0.028190
  943 Fit      -0.023817
  944 Fit      -0.027195
  945 Fit      -0.031270
  946 Fit      -0.032477
  947 Fit      -0.031455
  948 Fit       0.022504
  949 Fit       0.017963
  950 Fit       0.012696
  951 Fit      -0.000180
  952 Fit      -0.012088
  953 Fit      -0.006426
  954 Fit      -0.023863
  955 Fit      -0.011914
  956 Fit      -0.005057
  957 Fit      -0.045022
  958 Fit      -0.035336
  959 Fit      -0.026947
  960 Fit      -0.022340
  961 Fit      -0.017036
  962 Fit      -0.010022
  963 Fit      -0.004937
  964 Fit      -0.016642
  965 Fit      -0.027808
  966 Fit      -0.023835
  967 Fit      -0.022224
  968 Fit      -0.019691
  969 Fit      -0.025907
  970 Fit      -0.032973
  971 Fit      -0.035598
  972 Fit       0.017799
  973 Fit       0.020577
  974 Fit       0.016618
  975 Fit       0.014200
  976 Fit       0.014370
  977 Fit       0.018347
  978 Fit       0.023037
  979 Fit       0.010520
  980 Fit       0.009003
  981 Fit       0.010628
  982 Fit       0.015518
  983 Fit      -0.000435
  984 Fit       0.017814
  985 Fit       0.016007
  986 Fit       0.018130
  987 Fit       0.017121
  988 Fit       0.015275
  989 Fit       0.013485
  990 Fit       0.018902
  991 Fit       0.017471
  992 Fit       0.015534
  993 Fit       0.013708
  994 Fit       0.012011
  995 Fit       0.015938
  996 Fit       0.014231
  997 Fit       0.012576
  998 Fit       0.011062
  999 Fit       0.013447
 1000 Fit       0.012285
 1001 Fit       0.007852
 1002 Fit       0.004227
 1003 Fit      -0.001881
 1004 Fit       0.006241
 1005 Fit       0.002015
 1006 Fit      -0.005976
 1007 Fit       0.004875
 1008 Fit      -0.000946
 1009 Fit      -0.013290
 1010 Fit       0.007310
 1011 Fit      -0.000502
 1012 Fit       0.013729
 1013 Fit       0.010331
 1014 Fit       0.010648
 1015 Fit       0.006636
 1016 Fit       0.004673
 1017 Fit       0.006317
 1018 Fit       0.009020
 1019 Fit      -0.006122
 1020 Fit      -0.001175
 1021 Fit       0.003247
 1022 Fit      -0.011923
 1023 Fit      -0.003145
 1024 Fit       0.015529
 1025 Fit       0.017374
 1026 Fit       0.016561
 1027 Fit       0.014452
 1028 Fit       0.013932
 1029 Fit       0.014664
 1030 Fit       0.015954
 1031 Fit       0.019112
 1032 Fit       0.012983
 1033 Fit       0.013440
 1034 Fit       0.014153
 1035 Fit       0.015127
 1036 Fit       0.016649
 1037 Fit       0.012414
 1038 Fit       0.012686
 1039 Fit       0.013288
 1040 Fit       0.014273
 1041 Fit       0.015935
 1042 Fit       0.011875
 1043 Fit       0.013588
 1044 Fit       0.006916
 1045 Fit       0.008388
 1046 Fit       0.009335
 1047 Fit      -0.000941
 1048 Fit       0.003075
 1049 Fit       0.004981
 1050 Fit       0.005673
 1051 Fit       0.005984
 1052 Fit      -0.009932
 1053 Fit      -0.002430
 1054 Fit       0.000657
 1055 Fit       0.001119
 1056 Fit      -0.000173
 1057 Fit      -0.010227
 1058 Fit      -0.005721
 1059 Fit      -0.009430
 1060 Fit       0.021963
 1061 Fit       0.020703
 1062 Fit       0.012443
 1063 Fit       0.017029
 1064 Fit       0.019376
 1065 Fit       0.017618
 1066 Fit       0.018083
 1067 Fit       0.007668
 1068 Fit       0.013776
 1069 Fit       0.016533
 1070 Fit       0.013047
 1071 Fit       0.011924
 1072 Fit       0.007366
 1073 Fit       0.011898
 1074 Fit       0.005267
 1075 Fit       0.025754
 1076 Fit       0.023988
 1077 Fit       0.023439
 1078 Fit       0.022983
 1079 Fit       0.021990
 1080 Fit       0.021413
 1081 Fit       0.021237
 1082 Fit       0.021021
 1083 Fit       0.018814
 1084 Fit       0.017901
 1085 Fit       0.017352
 1086 Fit       0.017050
 1087 Fit       0.012643
 1088 Fit       0.010408
 1089 Fit       0.007080
 1090 Fit       0.027542
 1091 Fit       0.025981
 1092 Fit       0.027024
 1093 Fit       0.028669
 1094 Fit       0.030828
 1095 Fit       0.027395
 1096 Fit       0.025416
 1097 Fit       0.025511
 1098 Fit       0.026821
 1099 Fit       0.022154
 1100 Fit       0.022351
 1101 Fit       0.023977
 1102 Fit       0.012507
 1103 Fit       0.016432
 1104 Fit       0.004437
 1105 Fit       0.010016
 1106 Fit      -0.000512
 1107 Fit       0.003699
 1108 Fit       0.001989
 1109 Fit      -0.011851
 1110 Fit      -0.008217
 1111 Fit      -0.025671
 1112 Fit       0.011543
 1113 Fit       0.007337
 1114 Fit       0.007947
 1115 Fit      -0.001331
 1116 Fit      -0.005213
 1117 Fit       0.030513
 1118 Fit       0.034729
 1119 Fit       0.027314
 1120 Fit       0.027824
 1121 Fit       0.032820
 1122 Fit       0.029700
 -----------------------------------------------------------------
 Leave Link  602 at Mon Feb 26 23:18:22 2018, MaxMem=   33554432 cpu:       0.6

 Test job not archived.
 1\1\GINC-NODE012\SP\RHF\6-31G(d)\C4H12N2O4S2\WULSDORT\26-Feb-2018\0\\#
 HF/6-31G* Geom=AllCheck Guess=Read Pop=(MK,ReadRadii) Integral=(Grid=U
 ltraFine) iop(6/33=2)\\Optimization for frag2-conf1\\0,1\C,0,-0.443249
 0716,1.6894374145,-1.6375918698\C,0,3.6786297273,-0.1349553271,-1.1510
 642318\C,0,-1.8680558484,-2.9574248297,-2.4690350543\C,0,-0.3291249789
 ,0.3762827363,-0.8723269696\N,0,2.2672981971,-0.5495093923,-1.06352586
 03\N,0,-0.48126658,-0.7529182744,-1.772970963\O,0,-1.7413729803,-2.058
 7296032,0.0323641368\O,0,0.3451194613,-3.0981976861,-1.0308017615\O,0,
 1.0900849233,-0.5060909998,1.2623593191\O,0,1.8681646489,1.6625110224,
 0.1584577141\S,0,-0.8776436197,-2.2857317372,-1.1241226582\S,0,1.30725
 59115,0.3087823232,0.061569365\H,0,0.3197839303,1.7594787004,-2.419716
 9875\H,0,-1.43076934,1.7387936609,-2.1058600359\H,0,-0.3165169851,2.53
 85146098,-0.9633066098\H,0,3.7217965732,0.9331392035,-1.3657552864\H,0
 ,4.1311558355,-0.6845874593,-1.9811777606\H,0,4.247767377,-0.335111113
 8,-0.2351867776\H,0,-2.1523281317,-3.9696649021,-2.1720154033\H,0,-2.7
 498249789,-2.3297618625,-2.6010746458\H,0,-1.2656283267,-2.9887792146,
 -3.3789231623\H,0,-1.0746819814,0.2942391847,-0.0780606013\H,0,2.15943
 85224,-1.5456349044,-0.8592175411\H,0,0.346118338,-0.8471294271,-2.366
 7821942\\Version=AM64L-G09RevC.01\State=1-A\HF=-1361.6541585\RMSD=3.80
 2e-09\Dipole=-0.4251525,-0.1410148,-2.8720238\Quadrupole=6.8297002,-3.
 2649655,-3.5647347,-1.1246315,2.2299737,2.6017445\PG=C01 [X(C4H12N2O4S
 2)]\\@


      HUMANKIND PERIODICALLY GOES THROUGH A SPEEDUP OF ITS AFFAIRS, 
      THEREBY EXPERIENCING THE RACE BETWEEN THE RENEWABLE VITALITY
      OF THE LIVING, AND THE BECKONING VITIATION OF DECADENCE.
      IN THIS PERIODIC RACE, ANY PAUSE BECOMES A LUXURY.
      ONLY THEN CAN ONE REFLECT THAT ALL IS PERMITTED;
      ALL IS POSSIBLE.

                              -- THE APOCRYPHA OF MUAD'DIB
                                 CHILDREN OF DUNE, BY FRANK HERBERT
 Job cpu time:  0 days  0 hours  2 minutes 12.5 seconds.
 File lengths (MBytes):  RWF=     29 Int=      0 D2E=      0 Chk=      5 Scr=      1
 Normal termination of Gaussian 09 at Mon Feb 26 23:18:22 2018.
