 Entering Gaussian System, Link 0=g09
 Initial command:
 /home/fb_chem/chemsoft/lx24-amd64/Gaussian_09_C.01_NBO_3.1_64_istanbul-64/g09/l1.exe /local/2400041.1.parallel/Gau-22010.inp -scrdir=/local/2400041.1.parallel/
 Entering Link 1 = /home/fb_chem/chemsoft/lx24-amd64/Gaussian_09_C.01_NBO_3.1_64_istanbul-64/g09/l1.exe PID=     22011.
  
 Copyright (c) 1988,1990,1992,1993,1995,1998,2003,2009,2011,
            Gaussian, Inc.  All Rights Reserved.
  
 This is part of the Gaussian(R) 09 program.  It is based on
 the Gaussian(R) 03 system (copyright 2003, Gaussian, Inc.),
 the Gaussian(R) 98 system (copyright 1998, Gaussian, Inc.),
 the Gaussian(R) 94 system (copyright 1995, Gaussian, Inc.),
 the Gaussian 92(TM) system (copyright 1992, Gaussian, Inc.),
 the Gaussian 90(TM) system (copyright 1990, Gaussian, Inc.),
 the Gaussian 88(TM) system (copyright 1988, Gaussian, Inc.),
 the Gaussian 86(TM) system (copyright 1986, Carnegie Mellon
 University), and the Gaussian 82(TM) system (copyright 1983,
 Carnegie Mellon University). Gaussian is a federally registered
 trademark of Gaussian, Inc.
  
 This software contains proprietary and confidential information,
 including trade secrets, belonging to Gaussian, Inc.
  
 This software is provided under written license and may be
 used, copied, transmitted, or stored only in accord with that
 written license.
  
 The following legend is applicable only to US Government
 contracts under FAR:
  
                    RESTRICTED RIGHTS LEGEND
  
 Use, reproduction and disclosure by the US Government is
 subject to restrictions as set forth in subparagraphs (a)
 and (c) of the Commercial Computer Software - Restricted
 Rights clause in FAR 52.227-19.
  
 Gaussian, Inc.
 340 Quinnipiac St., Bldg. 40, Wallingford CT 06492
  
  
 ---------------------------------------------------------------
 Warning -- This program may not be used in any manner that
 competes with the business of Gaussian, Inc. or will provide
 assistance to any competitor of Gaussian, Inc.  The licensee
 of this program is prohibited from giving any competitor of
 Gaussian, Inc. access to this program.  By using this program,
 the user acknowledges that Gaussian, Inc. is engaged in the
 business of creating and licensing software in the field of
 computational chemistry and represents and warrants to the
 licensee that it is not a competitor of Gaussian, Inc. and that
 it will not use this program in any manner prohibited above.
 ---------------------------------------------------------------
  

 Cite this work as:
 Gaussian 09, Revision C.01,
 M. J. Frisch, G. W. Trucks, H. B. Schlegel, G. E. Scuseria, 
 M. A. Robb, J. R. Cheeseman, G. Scalmani, V. Barone, B. Mennucci, 
 G. A. Petersson, H. Nakatsuji, M. Caricato, X. Li, H. P. Hratchian, 
 A. F. Izmaylov, J. Bloino, G. Zheng, J. L. Sonnenberg, M. Hada, 
 M. Ehara, K. Toyota, R. Fukuda, J. Hasegawa, M. Ishida, T. Nakajima, 
 Y. Honda, O. Kitao, H. Nakai, T. Vreven, J. A. Montgomery, Jr., 
 J. E. Peralta, F. Ogliaro, M. Bearpark, J. J. Heyd, E. Brothers, 
 K. N. Kudin, V. N. Staroverov, T. Keith, R. Kobayashi, J. Normand, 
 K. Raghavachari, A. Rendell, J. C. Burant, S. S. Iyengar, J. Tomasi, 
 M. Cossi, N. Rega, J. M. Millam, M. Klene, J. E. Knox, J. B. Cross, 
 V. Bakken, C. Adamo, J. Jaramillo, R. Gomperts, R. E. Stratmann, 
 O. Yazyev, A. J. Austin, R. Cammi, C. Pomelli, J. W. Ochterski, 
 R. L. Martin, K. Morokuma, V. G. Zakrzewski, G. A. Voth, 
 P. Salvador, J. J. Dannenberg, S. Dapprich, A. D. Daniels, 
 O. Farkas, J. B. Foresman, J. V. Ortiz, J. Cioslowski, 
 and D. J. Fox, Gaussian, Inc., Wallingford CT, 2010.
 
 ******************************************
 Gaussian 09:  AM64L-G09RevC.01 23-Sep-2011
                17-Feb-2018 
 ******************************************
 %nprocs=2
 Will use up to    2 processors via shared memory.
 %chk=frag28-conf2.chk
 ----------------------------------------------------------------------
 #HF/6-31G* Geom=AllCheck Guess=Read Pop=(MK,ReadRadii) Integral=(Grid=
 UltraFine) iop(6/33=2)
 ----------------------------------------------------------------------
 1/29=7,38=1/1;
 2/12=2,40=1/2;
 3/5=1,6=6,7=1,11=9,14=-4,16=1,25=1,30=1,75=-5,116=-2/1,2,3;
 4/5=1/1;
 5/5=2,38=6/2;
 6/7=2,8=2,9=2,10=2,15=8,20=101,28=1,33=2/1,2;
 99/5=1,9=1/99;
 Structure from the checkpoint file:  frag28-conf2.chk
 -----------------------------
 Optimization for frag28-conf2
 -----------------------------
 Charge =  0 Multiplicity = 1
 Redundant internal coordinates found in file.
 C,0,-1.6058457635,-2.9565501314,5.9283771546
 C,0,-2.6020488742,-2.8807119774,4.9558158759
 C,0,-1.2018530258,-1.8444365405,3.4834506478
 C,0,-0.1147176605,-1.8490039414,4.3688865256
 C,0,-0.3543990827,-2.4334028531,5.6178269721
 C,0,1.9000148323,-0.7170946744,1.6734695129
 C,0,1.8083202321,0.3243520084,0.568827634
 C,0,1.239301642,-1.2750349276,3.9909329998
 N,0,-2.4157379538,-2.3375304506,3.748580082
 N,0,1.215545983,-0.4122046884,2.825861022
 O,0,2.5363956661,-1.7525834776,1.5390445632
 Cl,0,0.9247765401,-2.5278934586,6.8215205723
 H,0,-1.7955834033,-3.4087672167,6.8954391948
 H,0,-3.593968476,-3.2786374478,5.1613983562
 H,0,-1.0674018232,-1.4091218366,2.4962159434
 H,0,2.8199204627,0.6488464371,0.3068395573
 H,0,1.3766305324,-0.144798007,-0.3205412625
 H,0,1.209738225,1.2019460929,0.8329186654
 H,0,1.6577698582,-0.7339760213,4.8479197536
 H,0,1.9387693082,-2.0829280007,3.7503645138
 H,0,0.7442131421,0.4784551589,2.8947506079
 Recover connectivity data from disk.
                          Input orientation:                          
 ---------------------------------------------------------------------
 Center     Atomic      Atomic             Coordinates (Angstroms)
 Number     Number       Type             X           Y           Z
 ---------------------------------------------------------------------
      1          6           0       -1.605846   -2.956550    5.928377
      2          6           0       -2.602049   -2.880712    4.955816
      3          6           0       -1.201853   -1.844437    3.483451
      4          6           0       -0.114718   -1.849004    4.368887
      5          6           0       -0.354399   -2.433403    5.617827
      6          6           0        1.900015   -0.717095    1.673470
      7          6           0        1.808320    0.324352    0.568828
      8          6           0        1.239302   -1.275035    3.990933
      9          7           0       -2.415738   -2.337530    3.748580
     10          7           0        1.215546   -0.412205    2.825861
     11          8           0        2.536396   -1.752583    1.539045
     12         17           0        0.924777   -2.527893    6.821521
     13          1           0       -1.795583   -3.408767    6.895439
     14          1           0       -3.593968   -3.278637    5.161398
     15          1           0       -1.067402   -1.409122    2.496216
     16          1           0        2.819920    0.648846    0.306840
     17          1           0        1.376631   -0.144798   -0.320541
     18          1           0        1.209738    1.201946    0.832919
     19          1           0        1.657770   -0.733976    4.847920
     20          1           0        1.938769   -2.082928    3.750365
     21          1           0        0.744213    0.478455    2.894751
 ---------------------------------------------------------------------
                    Distance matrix (angstroms):
                    1          2          3          4          5
     1  C    0.000000
     2  C    1.394291   0.000000
     3  C    2.716187   2.280850   0.000000
     4  C    2.425311   2.756034   1.402099   0.000000
     5  C    1.391490   2.385429   2.370785   1.399579   0.000000
     6  C    5.950669   5.976924   3.764109   3.550442   4.856547
     7  C    7.151617   6.997818   4.718031   4.781422   6.146134
     8  C    3.830933   4.273777   2.557536   1.518439   2.555089
     9  N    2.406372   1.336853   1.336769   2.432721   2.784312
    10  N    4.905054   5.020385   2.885746   2.492974   3.787485
    11  O    6.154181   6.273007   4.214695   3.878879   5.045461
    12  Cl   2.717628   4.005475   4.016513   2.748973   1.759005
    13  H    1.084301   2.165956   3.800173   3.411985   2.158852
    14  H    2.155140   1.088353   3.254943   3.844101   3.378988
    15  H    3.803181   3.251208   1.087294   2.146625   3.361842
    16  H    8.011740   7.966713   5.699296   5.599248   6.912536
    17  H    7.473292   7.152277   4.899766   5.207607   6.595331
    18  H    7.154320   6.942341   4.703354   4.854436   6.209479
    19  H    4.093704   4.771391   3.357431   2.148132   2.744018
    20  H    4.251029   4.765354   3.160954   2.157336   2.978065
    21  H    5.150236   5.170054   3.087000   2.885811   4.135337
                    6          7          8          9         10
     6  C    0.000000
     7  C    1.520938   0.000000
     8  C    2.473555   3.820030   0.000000
     9  N    5.055454   5.919384   3.814046   0.000000
    10  N    1.374577   2.447059   1.449977   4.212424   0.000000
    11  O    1.222820   2.405218   2.814651   5.454158   2.279727
    12  Cl   5.543691   6.929078   3.111399   4.542933   4.530561
    13  H    6.940570   8.182317   4.711634   3.381547   5.882836
    14  H    6.993640   7.953487   5.361428   2.066389   6.066515
    15  H    3.156165   3.871632   2.751916   2.061157   2.512839
    16  H    2.140023   1.094198   4.446596   6.940904   3.169435
    17  H    2.139517   1.094274   4.459272   5.978953   3.161851
    18  H    2.205839   1.094630   4.013647   5.845772   2.564632
    19  H    3.183725   4.410596   1.096488   4.513690   2.094712
    20  H    2.486060   3.991765   1.095363   4.361944   2.041831
    21  H    2.063188   2.562419   2.126372   4.317880   1.010037
                   11         12         13         14         15
    11  O    0.000000
    12  Cl   5.577004   0.000000
    13  H    7.085192   2.860378   0.000000
    14  H    7.282283   4.872236   2.501604   0.000000
    15  H    3.744529   4.891695   4.886921   4.120901   0.000000
    16  H    2.713960   7.491616   9.009814   8.951527   4.913235
    17  H    2.718104   7.542703   8.531519   8.036135   3.937757
    18  H    3.314797   7.060896   8.188088   7.866827   3.843124
    19  H    3.571862   2.765957   4.824157   5.844170   3.662362
    20  H    2.314351   3.264686   5.059124   5.833689   3.326254
    21  H    3.166606   4.948763   6.129158   6.170353   2.646455
                   16         17         18         19         20
    16  H    0.000000
    17  H    1.762545   0.000000
    18  H    1.781955   1.781023   0.000000
    19  H    4.887147   5.209526   4.479817   0.000000
    20  H    4.482955   4.543635   4.453468   1.761607   0.000000
    21  H    3.321879   3.335641   2.234123   2.473751   2.952918
                   21
    21  H    0.000000
 Stoichiometry    C8H9ClN2O
 Framework group  C1[X(C8H9ClN2O)]
 Deg. of freedom    57
 Full point group                 C1      NOp   1
 Largest Abelian subgroup         C1      NOp   1
 Largest concise Abelian subgroup C1      NOp   1
                         Standard orientation:                         
 ---------------------------------------------------------------------
 Center     Atomic      Atomic             Coordinates (Angstroms)
 Number     Number       Type             X           Y           Z
 ---------------------------------------------------------------------
      1          6           0        2.884804    0.582665    0.107376
      2          6           0        2.574354    1.940936    0.159992
      3          6           0        0.339679    1.522409   -0.022585
      4          6           0        0.510119    0.132518   -0.093542
      5          6           0        1.832690   -0.319201   -0.018858
      6          6           0       -3.017977   -0.168425    0.166482
      7          6           0       -4.244931    0.491148   -0.444093
      8          6           0       -0.664216   -0.821269   -0.223489
      9          7           0        1.326325    2.416157    0.098645
     10          7           0       -1.901935   -0.188373   -0.635711
     11          8           0       -3.028348   -0.642760    1.293507
     12         17           0        2.194814   -2.039641   -0.074075
     13          1           0        3.910775    0.236433    0.164103
     14          1           0        3.369963    2.677069    0.258125
     15          1           0       -0.668803    1.926257   -0.068184
     16          1           0       -5.065726   -0.232389   -0.451849
     17          1           0       -4.551133    1.323570    0.196803
     18          1           0       -4.089745    0.864940   -1.461154
     19          1           0       -0.404983   -1.625276   -0.922530
     20          1           0       -0.876848   -1.293133    0.741887
     21          1           0       -1.966430    0.179335   -1.574224
 ---------------------------------------------------------------------
 Rotational constants (GHZ):      1.3135732      0.4664862      0.3655627
 Standard basis: 6-31G(d) (6D, 7F)
 There are   202 symmetry adapted basis functions of A   symmetry.
 Integral buffers will be    131072 words long.
 Raffenetti 1 integral format.
 Two-electron integral symmetry is turned on.
   202 basis functions,   396 primitive gaussians,   202 cartesian basis functions
    48 alpha electrons       48 beta electrons
       nuclear repulsion energy       745.1275169272 Hartrees.
 NAtoms=   21 NActive=   21 NUniq=   21 SFac= 1.00D+00 NAtFMM=   60 NAOKFM=F Big=F
 One-electron integrals computed using PRISM.
 NBasis=   202 RedAO= T  NBF=   202
 NBsUse=   202 1.00D-06 NBFU=   202
 Initial guess read from the checkpoint file:  frag28-conf2.chk
 B after Tr=     0.000000    0.000000    0.000000
         Rot=    1.000000    0.000000    0.000000    0.000000 Ang=   0.00 deg.
 Initial guess orbital symmetries:
       Occupied  (A) (A) (A) (A) (A) (A) (A) (A) (A) (A) (A) (A)
                 (A) (A) (A) (A) (A) (A) (A) (A) (A) (A) (A) (A)
                 (A) (A) (A) (A) (A) (A) (A) (A) (A) (A) (A) (A)
                 (A) (A) (A) (A) (A) (A) (A) (A) (A) (A) (A) (A)
       Virtual   (A) (A) (A) (A) (A) (A) (A) (A) (A) (A) (A) (A)
                 (A) (A) (A) (A) (A) (A) (A) (A) (A) (A) (A) (A)
                 (A) (A) (A) (A) (A) (A) (A) (A) (A) (A) (A) (A)
                 (A) (A) (A) (A) (A) (A) (A) (A) (A) (A) (A) (A)
                 (A) (A) (A) (A) (A) (A) (A) (A) (A) (A) (A) (A)
                 (A) (A) (A) (A) (A) (A) (A) (A) (A) (A) (A) (A)
                 (A) (A) (A) (A) (A) (A) (A) (A) (A) (A) (A) (A)
                 (A) (A) (A) (A) (A) (A) (A) (A) (A) (A) (A) (A)
                 (A) (A) (A) (A) (A) (A) (A) (A) (A) (A) (A) (A)
                 (A) (A) (A) (A) (A) (A) (A) (A) (A) (A) (A) (A)
                 (A) (A) (A) (A) (A) (A) (A) (A) (A) (A) (A) (A)
                 (A) (A) (A) (A) (A) (A) (A) (A) (A) (A) (A) (A)
                 (A) (A) (A) (A) (A) (A) (A) (A) (A) (A)
 Requested convergence on RMS density matrix=1.00D-08 within 128 cycles.
 Requested convergence on MAX density matrix=1.00D-06.
 Requested convergence on             energy=1.00D-06.
 No special actions if energy rises.
 SCF Done:  E(RHF) =  -951.438781813     A.U. after   14 cycles
             Convg  =    0.3699D-08             -V/T =  2.0015

 **********************************************************************

            Population analysis using the SCF density.

 **********************************************************************

 Orbital symmetries:
 BldTbl:  Degeneracy threshold= 1.00D-02
       Occupied  (A) (A) (A) (A) (A) (A) (A) (A) (A) (A) (A) (A)
                 (A) (A) (A) (A) (A) (A) (A) (A) (A) (A) (A) (A)
                 (A) (A) (A) (A) (A) (A) (A) (A) (A) (A) (A) (A)
                 (A) (A) (A) (A) (A) (A) (A) (A) (A) (A) (A) (A)
       Virtual   (A) (A) (A) (A) (A) (A) (A) (A) (A) (A) (A) (A)
                 (A) (A) (A) (A) (A) (A) (A) (A) (A) (A) (A) (A)
                 (A) (A) (A) (A) (A) (A) (A) (A) (A) (A) (A) (A)
                 (A) (A) (A) (A) (A) (A) (A) (A) (A) (A) (A) (A)
                 (A) (A) (A) (A) (A) (A) (A) (A) (A) (A) (A) (A)
                 (A) (A) (A) (A) (A) (A) (A) (A) (A) (A) (A) (A)
                 (A) (A) (A) (A) (A) (A) (A) (A) (A) (A) (A) (A)
                 (A) (A) (A) (A) (A) (A) (A) (A) (A) (A) (A) (A)
                 (A) (A) (A) (A) (A) (A) (A) (A) (A) (A) (A) (A)
                 (A) (A) (A) (A) (A) (A) (A) (A) (A) (A) (A) (A)
                 (A) (A) (A) (A) (A) (A) (A) (A) (A) (A) (A) (A)
                 (A) (A) (A) (A) (A) (A) (A) (A) (A) (A) (A) (A)
                 (A) (A) (A) (A) (A) (A) (A) (A) (A) (A)
 The electronic state is 1-A.
 Alpha  occ. eigenvalues -- -104.84360 -20.52959 -15.60251 -15.58140 -11.36428
 Alpha  occ. eigenvalues --  -11.33221 -11.28913 -11.28774 -11.28521 -11.27081
 Alpha  occ. eigenvalues --  -11.26203 -11.24679 -10.57674  -8.04607  -8.04275
 Alpha  occ. eigenvalues --   -8.04273  -1.38280  -1.27284  -1.24036  -1.17668
 Alpha  occ. eigenvalues --   -1.07455  -1.05278  -1.01508  -0.94578  -0.86178
 Alpha  occ. eigenvalues --   -0.84020  -0.79819  -0.71555  -0.70335  -0.68538
 Alpha  occ. eigenvalues --   -0.66020  -0.63944  -0.62978  -0.59890  -0.59567
 Alpha  occ. eigenvalues --   -0.58180  -0.57178  -0.56448  -0.54898  -0.53733
 Alpha  occ. eigenvalues --   -0.51508  -0.49812  -0.46860  -0.43123  -0.42616
 Alpha  occ. eigenvalues --   -0.39885  -0.37518  -0.35106
 Alpha virt. eigenvalues --    0.10295   0.12278   0.18298   0.19060   0.20478
 Alpha virt. eigenvalues --    0.26045   0.27277   0.28151   0.29562   0.30290
 Alpha virt. eigenvalues --    0.31013   0.31966   0.32681   0.35026   0.35858
 Alpha virt. eigenvalues --    0.40090   0.40923   0.41593   0.45225   0.47669
 Alpha virt. eigenvalues --    0.49726   0.55095   0.56776   0.58244   0.59009
 Alpha virt. eigenvalues --    0.61263   0.63435   0.65881   0.68494   0.71743
 Alpha virt. eigenvalues --    0.72925   0.74091   0.75461   0.77062   0.78455
 Alpha virt. eigenvalues --    0.78825   0.80603   0.81809   0.83330   0.83831
 Alpha virt. eigenvalues --    0.86115   0.87402   0.88709   0.89946   0.93359
 Alpha virt. eigenvalues --    0.94614   0.95924   0.96595   0.98790   1.01861
 Alpha virt. eigenvalues --    1.05623   1.06715   1.07295   1.08231   1.09819
 Alpha virt. eigenvalues --    1.10362   1.10951   1.11754   1.14002   1.14595
 Alpha virt. eigenvalues --    1.15360   1.16279   1.17893   1.18412   1.20232
 Alpha virt. eigenvalues --    1.21046   1.21636   1.22366   1.23965   1.26796
 Alpha virt. eigenvalues --    1.32254   1.33803   1.34757   1.37563   1.39750
 Alpha virt. eigenvalues --    1.41769   1.43420   1.45727   1.48577   1.51122
 Alpha virt. eigenvalues --    1.53127   1.57882   1.59659   1.63362   1.68158
 Alpha virt. eigenvalues --    1.68941   1.71495   1.74680   1.75727   1.78392
 Alpha virt. eigenvalues --    1.82238   1.86724   1.88205   1.94232   1.95312
 Alpha virt. eigenvalues --    1.97582   2.04775   2.07792   2.10160   2.10961
 Alpha virt. eigenvalues --    2.11123   2.13606   2.15934   2.17178   2.19449
 Alpha virt. eigenvalues --    2.24721   2.25784   2.29635   2.35754   2.39169
 Alpha virt. eigenvalues --    2.41608   2.44520   2.45176   2.48738   2.50749
 Alpha virt. eigenvalues --    2.53842   2.54279   2.57450   2.59557   2.60881
 Alpha virt. eigenvalues --    2.65175   2.67778   2.68761   2.70743   2.73468
 Alpha virt. eigenvalues --    2.76890   2.85639   2.87677   2.92560   2.99977
 Alpha virt. eigenvalues --    3.00699   3.02928   3.03286   3.05101   3.11188
 Alpha virt. eigenvalues --    3.19742   3.22024   3.25239   3.34974   3.44847
 Alpha virt. eigenvalues --    3.50097   3.71503   4.39617   4.44396   4.47303
 Alpha virt. eigenvalues --    4.50748   4.56388   4.58408   4.62300   4.70146
 Alpha virt. eigenvalues --    4.74968   4.80802   4.91465   5.05011
          Condensed to atoms (all electrons):
              1          2          3          4          5          6
     1  C    5.068447   0.514927  -0.026840  -0.051328   0.518038   0.000001
     2  C    0.514927   4.708027  -0.084549  -0.019671  -0.050791  -0.000001
     3  C   -0.026840  -0.084549   4.734985   0.505199  -0.041899   0.000793
     4  C   -0.051328  -0.019671   0.505199   5.088035   0.510730  -0.000630
     5  C    0.518038  -0.050791  -0.041899   0.510730   5.048275  -0.000061
     6  C    0.000001  -0.000001   0.000793  -0.000630  -0.000061   4.158007
     7  C    0.000000   0.000000  -0.000002  -0.000245   0.000001   0.356794
     8  C    0.002676   0.000042  -0.029777   0.312751  -0.046680  -0.024246
     9  N   -0.047695   0.472359   0.468030  -0.042702  -0.033099   0.000005
    10  N   -0.000061  -0.000018  -0.013618  -0.043316   0.002583   0.267519
    11  O    0.000000   0.000000   0.000208  -0.000375  -0.000015   0.592450
    12  Cl  -0.069332   0.002148   0.001819  -0.073069   0.236864  -0.000004
    13  H    0.375750  -0.020545   0.000109   0.001919  -0.028106   0.000000
    14  H   -0.051786   0.405435   0.003868  -0.000312   0.002686   0.000000
    15  H   -0.000438   0.003945   0.408407  -0.058234   0.003095  -0.000291
    16  H    0.000000   0.000000   0.000000  -0.000002   0.000000  -0.027467
    17  H    0.000000   0.000000   0.000003   0.000015   0.000000  -0.026910
    18  H    0.000000   0.000000  -0.000010   0.000007   0.000000  -0.038259
    19  H    0.000051   0.000003   0.002198  -0.058166  -0.004220   0.001319
    20  H   -0.000054   0.000020  -0.000770  -0.035528  -0.002894  -0.001508
    21  H   -0.000003  -0.000004   0.001112   0.000885  -0.000051  -0.014888
              7          8          9         10         11         12
     1  C    0.000000   0.002676  -0.047695  -0.000061   0.000000  -0.069332
     2  C    0.000000   0.000042   0.472359  -0.000018   0.000000   0.002148
     3  C   -0.000002  -0.029777   0.468030  -0.013618   0.000208   0.001819
     4  C   -0.000245   0.312751  -0.042702  -0.043316  -0.000375  -0.073069
     5  C    0.000001  -0.046680  -0.033099   0.002583  -0.000015   0.236864
     6  C    0.356794  -0.024246   0.000005   0.267519   0.592450  -0.000004
     7  C    5.255826   0.004868   0.000000  -0.103164  -0.070039   0.000000
     8  C    0.004868   4.915420   0.003061   0.179850  -0.000394  -0.002735
     9  N    0.000000   0.003061   6.779141   0.000010   0.000000  -0.000159
    10  N   -0.103164   0.179850   0.000010   7.380781  -0.096565   0.000309
    11  O   -0.070039  -0.000394   0.000000  -0.096565   8.168734   0.000001
    12  Cl   0.000000  -0.002735  -0.000159   0.000309   0.000001  16.885787
    13  H    0.000000  -0.000054   0.002642   0.000001   0.000000   0.000330
    14  H    0.000000   0.000008  -0.041185   0.000000   0.000000  -0.000087
    15  H    0.000147  -0.002454  -0.041518   0.007739  -0.000193  -0.000077
    16  H    0.380896  -0.000117   0.000000   0.001637   0.000572   0.000000
    17  H    0.380404  -0.000107   0.000000   0.001520   0.000535   0.000000
    18  H    0.372861  -0.000010   0.000000   0.005235   0.002591   0.000000
    19  H   -0.000034   0.422505  -0.000030  -0.044605   0.000438  -0.001429
    20  H    0.000602   0.399544  -0.000040  -0.037015   0.012295   0.000775
    21  H    0.000585  -0.021965  -0.000025   0.318181   0.002138   0.000000
             13         14         15         16         17         18
     1  C    0.375750  -0.051786  -0.000438   0.000000   0.000000   0.000000
     2  C   -0.020545   0.405435   0.003945   0.000000   0.000000   0.000000
     3  C    0.000109   0.003868   0.408407   0.000000   0.000003  -0.000010
     4  C    0.001919  -0.000312  -0.058234  -0.000002   0.000015   0.000007
     5  C   -0.028106   0.002686   0.003095   0.000000   0.000000   0.000000
     6  C    0.000000   0.000000  -0.000291  -0.027467  -0.026910  -0.038259
     7  C    0.000000   0.000000   0.000147   0.380896   0.380404   0.372861
     8  C   -0.000054   0.000008  -0.002454  -0.000117  -0.000107  -0.000010
     9  N    0.002642  -0.041185  -0.041518   0.000000   0.000000   0.000000
    10  N    0.000001   0.000000   0.007739   0.001637   0.001520   0.005235
    11  O    0.000000   0.000000  -0.000193   0.000572   0.000535   0.002591
    12  Cl   0.000330  -0.000087  -0.000077   0.000000   0.000000   0.000000
    13  H    0.428160  -0.000030   0.000012   0.000000   0.000000   0.000000
    14  H   -0.000030   0.466763  -0.000049   0.000000   0.000000   0.000000
    15  H    0.000012  -0.000049   0.463973   0.000001  -0.000004   0.000023
    16  H    0.000000   0.000000   0.000001   0.473360  -0.018997  -0.022702
    17  H    0.000000   0.000000  -0.000004  -0.018997   0.473306  -0.022875
    18  H    0.000000   0.000000   0.000023  -0.022702  -0.022875   0.533961
    19  H    0.000000   0.000000   0.000095   0.000012  -0.000002  -0.000017
    20  H    0.000001   0.000000   0.000044  -0.000006  -0.000008  -0.000029
    21  H    0.000000   0.000000  -0.000246  -0.000046   0.000019   0.001470
             19         20         21
     1  C    0.000051  -0.000054  -0.000003
     2  C    0.000003   0.000020  -0.000004
     3  C    0.002198  -0.000770   0.001112
     4  C   -0.058166  -0.035528   0.000885
     5  C   -0.004220  -0.002894  -0.000051
     6  C    0.001319  -0.001508  -0.014888
     7  C   -0.000034   0.000602   0.000585
     8  C    0.422505   0.399544  -0.021965
     9  N   -0.000030  -0.000040  -0.000025
    10  N   -0.044605  -0.037015   0.318181
    11  O    0.000438   0.012295   0.002138
    12  Cl  -0.001429   0.000775   0.000000
    13  H    0.000000   0.000001   0.000000
    14  H    0.000000   0.000000   0.000000
    15  H    0.000095   0.000044  -0.000246
    16  H    0.000012  -0.000006  -0.000046
    17  H   -0.000002  -0.000008   0.000019
    18  H   -0.000017  -0.000029   0.001470
    19  H    0.502971  -0.022914  -0.002068
    20  H   -0.022914   0.424484   0.002791
    21  H   -0.002068   0.002791   0.323466
 Mulliken atomic charges:
              1
     1  C   -0.232352
     2  C    0.068674
     3  C    0.070735
     4  C   -0.035962
     5  C   -0.114458
     6  C    0.757375
     7  C   -0.579501
     8  C   -0.112187
     9  N   -0.518795
    10  N   -0.827001
    11  O   -0.612379
    12  Cl   0.018859
    13  H    0.239811
    14  H    0.214691
    15  H    0.216025
    16  H    0.212860
    17  H    0.213101
    18  H    0.167754
    19  H    0.203892
    20  H    0.260211
    21  H    0.388648
 Sum of Mulliken atomic charges =   0.00000
 Mulliken charges with hydrogens summed into heavy atoms:
              1
     1  C    0.007458
     2  C    0.283365
     3  C    0.286760
     4  C   -0.035962
     5  C   -0.114458
     6  C    0.757375
     7  C    0.014214
     8  C    0.351917
     9  N   -0.518795
    10  N   -0.438353
    11  O   -0.612379
    12  Cl   0.018859
 Sum of Mulliken charges with hydrogens summed into heavy atoms =   0.00000
 DipInt: DoE/N= T F RetVal/Mat= T F Init=T NMatP=  1 IDeriv=0 Min/MaxMlt=  0  4
 Entering OneElI...
 OneElI was handed    33447241 working-precision words.
 Multipole integrals L=0 to 4 MinM= 0 MaxM= 0.
 Requested accuracy = 0.1000D-12
 PrsmSu:  NPrtUS=   1 ThrOK=F IAlg=1 NPAlg=1 LenDen=           0.
 Prism:   IPart=     0 DynPar=F LinDyn=F Incr=          19.
 PRISM was handed    33258936 working-precision words and  1982 shell-pairs
 IPart=  0 NShTot=        1982 NBatch=          60 AvBLen=        33.0
 PrSmSu:  NxtVal=             20.
 Electronic moments (au):
        -96.00000000          0.08323290          0.23054847         -1.42887351
      -2069.39937763       -697.63665609       -147.99107911         -2.30823992
          8.54000734          1.16085910       4179.12011670       -307.31582795
        -64.09385853      -1815.97588694       -118.83336054       -128.93699187
        447.04961173         53.47671840        -30.79574112       -305.95289139
     -84609.46517871     -11936.02433031       -936.26093560       1765.95336101
      -1150.03754779          1.47021577       -396.46596832        382.47343081
        167.50518333     -11492.84609671      -4112.89434768       -665.36187389
        806.32683434        -44.08275191       -289.64893356
 Electronic spatial extent (au):  <R**2>=           2915.0271
 DipInt: DoE/N= F T RetVal/Mat= T F Init=T NMatP=  1 IDeriv=0 Min/MaxMlt=  0  4
 Nuclear    moments (au):
         96.00000000          0.00000000          0.00000000          0.00000000
       2019.11110272        635.29718285         88.06618331          0.00000000
          0.00000000          0.00000000      -4175.56560502        260.30434849
         50.72541889       1805.46036863        160.94119301         90.50282307
       -445.61714357        -54.74313465         30.21108832        299.46523319
      78056.96412407       9359.19536366        453.64951197      -1762.99726643
       1411.97190178        -79.35281275        396.99501104       -329.61805115
       -172.00454037       9941.40886158       2693.43895692        165.00735516
       -739.47145490         47.39594854        241.30761402
 Total      moments (au):
          0.00000000          0.08323290          0.23054847         -1.42887351
        -50.28827491        -62.33947324        -59.92489580         -2.30823992
          8.54000734          1.16085910          3.55451168        -47.01147947
        -13.36843964        -10.51551830         42.10783247        -38.43416880
          1.43246816         -1.26641625         -0.58465280         -6.48765820
      -6552.50105464      -2576.82896665       -482.61142363          2.95609459
        261.93435399        -77.88259698          0.52904272         52.85537967
         -4.49935704      -1551.43723514      -1419.45539076       -500.35451872
         66.85537945          3.31319662        -48.34131954
 Traceless Quadrup. (au):
          7.22927307         -4.82192526         -2.40734781         -2.30823992
          8.54000734          1.16085910
 Charge=              0.0000 electrons
 Dipole moment (field-independent basis, Debye):
    X=              0.2116    Y=              0.5860    Z=             -3.6318  Tot=              3.6849
 Quadrupole moment (field-independent basis, Debye-Ang):
   XX=            -67.6394   YY=            -83.8487   ZZ=            -80.6010
   XY=             -3.1047   XZ=             11.4866   YZ=              1.5614
 Traceless Quadrupole moment (field-independent basis, Debye-Ang):
   XX=              9.7236   YY=             -6.4857   ZZ=             -3.2380
   XY=             -3.1047   XZ=             11.4866   YZ=              1.5614
 Octapole moment (field-independent basis, Debye-Ang**2):
  XXX=              2.5300  YYY=            -33.4610  ZZZ=             -9.5151  XYY=             -7.4845
  XXY=             29.9707  XXZ=            -27.3560  XZZ=              1.0196  YZZ=             -0.9014
  YYZ=             -0.4161  XYZ=             -4.6177
 Hexadecapole moment (field-independent basis, Debye-Ang**3):
 XXXX=          -2467.9859 YYYY=           -970.5573 ZZZZ=           -181.7746 XXXY=              1.1134
 XXXZ=             98.6570 YYYX=            -29.3343 YYYZ=              0.1993 ZZZX=             19.9079
 ZZZY=             -1.6947 XXYY=           -584.3456 XXZZ=           -534.6349 YYZZ=           -188.4575
 XXYZ=             25.1809 YYXZ=              1.2479 ZZXY=            -18.2077
 N-N= 7.451275169272D+02 E-N=-3.733575965259D+03  KE= 9.499664208669D+02
 Entering OneElI...
 OneElI was handed    33364906 working-precision words.
 Calculate electrostatic properties
    NBasis =   202  MinDer = 0  MaxDer = 0
    NGrid  =    21  NMatD  =   1
 Requested accuracy = 0.1000D-12
 PrsmSu:  NPrtUS=   2 ThrOK=T IAlg=1 NPAlg=1 LenDen=           0.
 Prism:   IPart=     0 DynPar=F LinDyn=F Incr=         191.
 PRISM was handed    16564861 working-precision words and  1824 shell-pairs
 PRISM was handed    16564861 working-precision words and  1824 shell-pairs
 IPart=  1 NShTot=       18816 NBatch=         896 AvBLen=        21.0
 IPart=  0 NShTot=       19488 NBatch=         928 AvBLen=        21.0
 PrSmSu:  NxtVal=            383.
 --------------------------------------------------------
       Center         ----      EFG at Nuclei      ----
                      3XX-RR        3YY-RR        3ZZ-RR
 --------------------------------------------------------
     1   Atom        0.103100      0.156329     -0.259429
     2   Atom        0.145095      0.227394     -0.372489
     3   Atom        0.192221      0.178620     -0.370841
     4   Atom        0.097479      0.167953     -0.265432
     5   Atom        0.400332     -0.235076     -0.165255
     6   Atom        0.146628     -0.346570      0.199941
     7   Atom       -0.022005      0.020620      0.001385
     8   Atom       -0.202015      0.014864      0.187151
     9   Atom       -0.285548      1.057751     -0.772203
    10   Atom       -0.387619      0.706640     -0.319020
    11   Atom        1.451059     -0.559488     -0.891571
    12   Atom        1.686590     -3.378840      1.692250
    13   Atom       -0.262645      0.096190      0.166456
    14   Atom       -0.097842     -0.057360      0.155203
    15   Atom       -0.237117      0.080561      0.156556
    16   Atom       -0.104262     -0.047633      0.151895
    17   Atom        0.111406     -0.108884     -0.002521
    18   Atom        0.129137      0.104170     -0.233307
    19   Atom        0.108181     -0.079715     -0.028466
    20   Atom        0.118522      0.062374     -0.180895
    21   Atom        0.161995      0.150165     -0.312160
 --------------------------------------------------------
                        XY            XZ            YZ
 --------------------------------------------------------
     1   Atom       -0.034515      0.023743      0.019867
     2   Atom        0.033708      0.037448      0.036384
     3   Atom       -0.057848      0.038952      0.021207
     4   Atom        0.003860      0.028653      0.024895
     5   Atom        0.138569      0.051629      0.009654
     6   Atom       -0.235974      0.007183     -0.321194
     7   Atom        0.036500     -0.035091      0.029440
     8   Atom        0.099005     -0.135292      0.024558
     9   Atom       -0.280500      0.017232      0.084215
    10   Atom        0.412096      0.146192      0.477807
    11   Atom       -0.615994     -0.204575      0.159896
    12   Atom        1.200945      0.039389     -0.149550
    13   Atom        0.134307     -0.024263      0.005954
    14   Atom       -0.216402     -0.030379     -0.027444
    15   Atom        0.151963     -0.020004      0.005667
    16   Atom       -0.218098     -0.007017     -0.000370
    17   Atom        0.097875      0.067662     -0.198333
    18   Atom       -0.016973      0.063587      0.142451
    19   Atom        0.074402      0.058137     -0.203187
    20   Atom       -0.029212      0.055643      0.165587
    21   Atom        0.035711     -0.026476      0.213287
 --------------------------------------------------------


 ---------------------------------------------------------------------------------
              Nuclear Quadrupole in Principal Axis System
 ---------------------------------------------------------------------------------

       Atom             a.u.   MegaHertz   Gauss  10(-4) cm-1        Axes

              Baa    -0.2621   -35.178   -12.552   -11.734 -0.0698 -0.0530  0.9962
     1 C(13)  Bbb     0.0887    11.906     4.248     3.971  0.8973  0.4329  0.0859
              Bcc     0.1734    23.272     8.304     7.763 -0.4358  0.8999  0.0174
 
              Baa    -0.3771   -50.602   -18.056   -16.879 -0.0678 -0.0562  0.9961
     2 C(13)  Bbb     0.1341    17.989     6.419     6.000  0.9341 -0.3543  0.0436
              Bcc     0.2430    32.613    11.637    10.878  0.3505  0.9334  0.0765
 
              Baa    -0.3747   -50.278   -17.940   -16.771 -0.0731 -0.0458  0.9963
     3 C(13)  Bbb     0.1306    17.530     6.255     5.847  0.6540  0.7519  0.0826
              Bcc     0.2440    32.748    11.685    10.924  0.7529 -0.6576  0.0250
 
              Baa    -0.2691   -36.105   -12.883   -12.043 -0.0772 -0.0560  0.9954
     4 C(13)  Bbb     0.0992    13.318     4.752     4.443  0.9940 -0.0821  0.0725
              Bcc     0.1698    22.786     8.131     7.601  0.0777  0.9950  0.0620
 
              Baa    -0.2640   -35.425   -12.641   -11.817 -0.2050  0.9787  0.0115
     5 C(13)  Bbb    -0.1698   -22.792    -8.133    -7.602 -0.0831 -0.0291  0.9961
              Bcc     0.4338    58.217    20.773    19.419  0.9752  0.2033  0.0873
 
              Baa    -0.5593   -75.055   -26.781   -25.036  0.2911  0.8821  0.3704
     6 C(13)  Bbb     0.1569    21.054     7.513     7.023  0.8426 -0.0530 -0.5360
              Bcc     0.4024    54.001    19.269    18.013  0.4531 -0.4681  0.7586
 
              Baa    -0.0712    -9.554    -3.409    -3.187  0.7156 -0.4545  0.5304
     7 C(13)  Bbb     0.0264     3.544     1.265     1.182 -0.6344 -0.1052  0.7658
              Bcc     0.0448     6.010     2.144     2.005  0.2923  0.8845  0.3636
 
              Baa    -0.2796   -37.525   -13.390   -12.517  0.9030 -0.3268  0.2789
     8 C(13)  Bbb     0.0499     6.693     2.388     2.233  0.3021  0.9445  0.1288
              Bcc     0.2298    30.832    11.002    10.284 -0.3055 -0.0320  0.9516
 
              Baa    -0.7781   -30.009   -10.708   -10.010 -0.0667 -0.0559  0.9962
     9 N(14)  Bbb    -0.3392   -13.083    -4.668    -4.364  0.9785  0.1919  0.0763
              Bcc     1.1173    43.091    15.376    14.374 -0.1954  0.9798  0.0419
 
              Baa    -0.5309   -20.477    -7.307    -6.830  0.8202 -0.4222  0.3861
    10 N(14)  Bbb    -0.4986   -19.229    -6.861    -6.414 -0.4904 -0.1711  0.8545
              Bcc     1.0295    39.706    14.168    13.244  0.2947  0.8902  0.3474
 
              Baa    -0.9571    69.258    24.713    23.102 -0.0271 -0.4087  0.9123
    11 O(17)  Bbb    -0.6904    49.958    17.826    16.664  0.2885  0.8706  0.3986
              Bcc     1.6476  -119.216   -42.539   -39.766  0.9571 -0.2740 -0.0944
 
              Baa    -3.6536  -191.221   -68.233   -63.785 -0.2195  0.9752  0.0289
    12 Cl(35) Bbb     1.6966    88.796    31.685    29.619 -0.0146 -0.0329  0.9994
              Bcc     1.9570   102.425    36.548    34.165  0.9755  0.2190  0.0214
 
              Baa    -0.3087  -164.682   -58.763   -54.932  0.9476 -0.3151  0.0523
    13 H(1)   Bbb     0.1407    75.093    26.795    25.048  0.3110  0.9475  0.0741
              Bcc     0.1679    89.589    31.968    29.884 -0.0729 -0.0539  0.9959
 
              Baa    -0.2986  -159.341   -56.857   -53.150  0.7363  0.6706  0.0898
    14 H(1)   Bbb     0.1397    74.561    26.605    24.871 -0.6727  0.7398 -0.0087
              Bcc     0.1589    84.780    30.252    28.280 -0.0723 -0.0541  0.9959
 
              Baa    -0.2990  -159.554   -56.933   -53.221  0.9272 -0.3718  0.0453
    15 H(1)   Bbb     0.1413    75.365    26.892    25.139  0.3633  0.9221  0.1334
              Bcc     0.1578    84.189    30.041    28.082 -0.0914 -0.1072  0.9900
 
              Baa    -0.2959  -157.902   -56.343   -52.670  0.7513  0.6599  0.0123
    16 H(1)   Bbb     0.1421    75.800    27.047    25.284 -0.6003  0.6910 -0.4026
              Bcc     0.1539    82.102    29.296    27.386 -0.2742  0.2951  0.9153
 
              Baa    -0.2957  -157.791   -56.304   -52.633 -0.2802  0.7639  0.5814
    17 H(1)   Bbb     0.1419    75.733    27.023    25.262  0.7731 -0.1794  0.6084
              Bcc     0.1538    82.058    29.280    27.372  0.5690  0.6199 -0.5403
 
              Baa    -0.2955  -157.673   -56.262   -52.594 -0.1526 -0.3375  0.9289
    18 H(1)   Bbb     0.1374    73.337    26.168    24.463  0.9439 -0.3282  0.0358
              Bcc     0.1581    84.337    30.093    28.132  0.2927  0.8823  0.3687
 
              Baa    -0.2817  -150.291   -53.628   -50.132 -0.2350  0.7310  0.6406
    19 H(1)   Bbb     0.1296    69.130    24.667    23.059  0.9411  0.0063  0.3381
              Bcc     0.1521    81.161    28.960    27.072 -0.2432 -0.6823  0.6894
 
              Baa    -0.2748  -146.600   -52.310   -48.900 -0.1578 -0.4463  0.8809
    20 H(1)   Bbb     0.1285    68.569    24.467    22.872  0.9861 -0.0249  0.1640
              Bcc     0.1462    78.031    27.843    26.028 -0.0513  0.8945  0.4441
 
              Baa    -0.3981  -212.386   -75.785   -70.844  0.0672 -0.3656  0.9284
    21 H(1)   Bbb     0.1572    83.899    29.937    27.986  0.9532 -0.2513 -0.1679
              Bcc     0.2408   128.488    45.848    42.859  0.2947  0.8962  0.3316
 

 ---------------------------------------------------------------------------------

 No NMR shielding tensors so no spin-rotation constants.
 Leave Link  601 at Sat Feb 17 21:01:10 2018, MaxMem=   33554432 cpu:       0.5
 Merz-Kollman atomic radii used.
 Read replacement radii for each type of atom:
 Atom Element Radius
    1     6    1.50
    2     6    1.50
    3     6    1.50
    4     6    1.50
    5     6    1.50
    6     6    1.50
    7     6    1.50
    8     6    1.50
    9     7    1.50
   10     7    1.50
   11     8    1.40
   12    17    1.70
   13     1    1.20
   14     1    1.20
   15     1    1.20
   16     1    1.20
   17     1    1.20
   18     1    1.20
   19     1    1.20
   20     1    1.20
   21     1    1.20
 Generate VDW surfaces: Layer= 4 Dens= 1 Start= 1.400 Inc= 0.200

 **********************************************************************

            Electrostatic Properties Using The SCF Density

 **********************************************************************

       Atomic Center    1 is at   2.884804  0.582665  0.107376
       Atomic Center    2 is at   2.574354  1.940936  0.159992
       Atomic Center    3 is at   0.339679  1.522409 -0.022585
       Atomic Center    4 is at   0.510119  0.132518 -0.093542
       Atomic Center    5 is at   1.832690 -0.319201 -0.018858
       Atomic Center    6 is at  -3.017977 -0.168425  0.166482
       Atomic Center    7 is at  -4.244931  0.491148 -0.444093
       Atomic Center    8 is at  -0.664216 -0.821269 -0.223489
       Atomic Center    9 is at   1.326325  2.416157  0.098645
       Atomic Center   10 is at  -1.901935 -0.188373 -0.635711
       Atomic Center   11 is at  -3.028348 -0.642760  1.293507
       Atomic Center   12 is at   2.194814 -2.039641 -0.074075
       Atomic Center   13 is at   3.910775  0.236433  0.164103
       Atomic Center   14 is at   3.369963  2.677069  0.258125
       Atomic Center   15 is at  -0.668803  1.926257 -0.068184
       Atomic Center   16 is at  -5.065726 -0.232389 -0.451849
       Atomic Center   17 is at  -4.551133  1.323570  0.196803
       Atomic Center   18 is at  -4.089745  0.864940 -1.461154
       Atomic Center   19 is at  -0.404983 -1.625276 -0.922530
       Atomic Center   20 is at  -0.876848 -1.293133  0.741887
       Atomic Center   21 is at  -1.966430  0.179335 -1.574224
      ESP Fit Center   22 is at   2.884804  0.582665  2.207376
      ESP Fit Center   23 is at   3.934804  0.582665  1.926030
      ESP Fit Center   24 is at   1.834804  0.582665  1.926030
      ESP Fit Center   25 is at   3.409804 -0.326661  1.926030
      ESP Fit Center   26 is at   4.414753  1.565904  1.157376
      ESP Fit Center   27 is at   4.414753  1.565904 -0.942624
      ESP Fit Center   28 is at   3.934804  0.582665 -1.711277
      ESP Fit Center   29 is at   3.409804 -0.326661 -1.711277
      ESP Fit Center   30 is at   2.884804  0.582665 -1.992624
      ESP Fit Center   31 is at   2.574354  1.940936  2.259992
      ESP Fit Center   32 is at   3.624354  1.940936  1.978645
      ESP Fit Center   33 is at   3.099354  2.850263  1.978645
      ESP Fit Center   34 is at   4.393008  1.940936 -0.890008
      ESP Fit Center   35 is at   3.624354  1.940936 -1.658661
      ESP Fit Center   36 is at   3.099354  2.850263 -1.658661
      ESP Fit Center   37 is at   2.574354  1.940936 -1.940008
      ESP Fit Center   38 is at   0.339679  1.522409  2.077415
      ESP Fit Center   39 is at  -0.185321  2.431735  1.796069
      ESP Fit Center   40 is at  -0.710321  1.522409  1.796069
      ESP Fit Center   41 is at   1.389679  1.522409 -1.841238
      ESP Fit Center   42 is at  -0.185321  2.431735 -1.841238
      ESP Fit Center   43 is at  -0.710321  1.522409 -1.841238
      ESP Fit Center   44 is at   0.339679  1.522409 -2.122585
      ESP Fit Center   45 is at   0.510119  0.132518  2.006458
      ESP Fit Center   46 is at  -0.539881  0.132518  1.725112
      ESP Fit Center   47 is at   1.035119 -0.776809 -1.912195
      ESP Fit Center   48 is at   0.510119  0.132518 -2.193542
      ESP Fit Center   49 is at   1.832690 -0.319201  2.081142
      ESP Fit Center   50 is at   1.307690  0.590126  1.799795
      ESP Fit Center   51 is at   2.882690 -0.319201 -1.837511
      ESP Fit Center   52 is at   1.832690 -0.319201 -2.118858
      ESP Fit Center   53 is at  -1.488028  0.814814  1.216482
      ESP Fit Center   54 is at  -2.262481  1.485881  1.216482
      ESP Fit Center   55 is at  -2.764850  1.916264  0.166482
      ESP Fit Center   56 is at  -3.762647 -2.131959  0.166482
      ESP Fit Center   57 is at  -2.764850 -2.253113  0.166482
      ESP Fit Center   58 is at  -3.276798 -1.968567 -0.883518
      ESP Fit Center   59 is at  -3.542977 -1.077751 -1.652172
      ESP Fit Center   60 is at  -3.051995  2.219414 -0.444093
      ESP Fit Center   61 is at  -6.283909  0.993711 -0.444093
      ESP Fit Center   62 is at  -5.989916  1.003522 -1.494093
      ESP Fit Center   63 is at  -1.408886 -2.784803 -0.223489
      ESP Fit Center   64 is at   1.326325  2.416157  2.198645
      ESP Fit Center   65 is at   1.851325  3.325483  1.917298
      ESP Fit Center   66 is at   0.801325  3.325483  1.917298
      ESP Fit Center   67 is at   0.276325  2.416157  1.917298
      ESP Fit Center   68 is at   2.081821  4.070462  1.148645
      ESP Fit Center   69 is at   1.067503  4.216299  1.148645
      ESP Fit Center   70 is at   0.135360  3.790603  1.148645
      ESP Fit Center   71 is at   2.519261  4.144423  0.098645
      ESP Fit Center   72 is at   1.579452  4.500845  0.098645
      ESP Fit Center   73 is at   0.581654  4.379691  0.098645
      ESP Fit Center   74 is at  -0.245548  3.808714  0.098645
      ESP Fit Center   75 is at   2.081821  4.070462 -0.951355
      ESP Fit Center   76 is at   1.067503  4.216299 -0.951355
      ESP Fit Center   77 is at   0.135360  3.790603 -0.951355
      ESP Fit Center   78 is at   1.851325  3.325483 -1.720009
      ESP Fit Center   79 is at   0.801325  3.325483 -1.720009
      ESP Fit Center   80 is at   1.326325  2.416157 -2.001355
      ESP Fit Center   81 is at  -1.376935  0.720953  1.182942
      ESP Fit Center   82 is at  -2.646605 -2.151907 -0.635711
      ESP Fit Center   83 is at  -3.092899 -1.562820 -1.685711
      ESP Fit Center   84 is at  -2.160756 -1.988515 -1.685711
      ESP Fit Center   85 is at  -3.028348 -0.642760  3.253507
      ESP Fit Center   86 is at  -2.048348 -0.642760  2.990917
      ESP Fit Center   87 is at  -2.538348  0.205945  2.990917
      ESP Fit Center   88 is at  -3.518348  0.205945  2.990917
      ESP Fit Center   89 is at  -4.008348 -0.642760  2.990917
      ESP Fit Center   90 is at  -3.518348 -1.491465  2.990917
      ESP Fit Center   91 is at  -2.538348 -1.491465  2.990917
      ESP Fit Center   92 is at  -1.330938 -0.642760  2.273507
      ESP Fit Center   93 is at  -1.655114  0.354952  2.273507
      ESP Fit Center   94 is at  -2.503819  0.971572  2.273507
      ESP Fit Center   95 is at  -3.552876  0.971572  2.273507
      ESP Fit Center   96 is at  -4.401581  0.354952  2.273507
      ESP Fit Center   97 is at  -4.725757 -0.642760  2.273507
      ESP Fit Center   98 is at  -4.401581 -1.640473  2.273507
      ESP Fit Center   99 is at  -3.552876 -2.257093  2.273507
      ESP Fit Center  100 is at  -2.503819 -2.257093  2.273507
      ESP Fit Center  101 is at  -1.655114 -1.640473  2.273507
      ESP Fit Center  102 is at  -4.988348 -0.642760  1.293507
      ESP Fit Center  103 is at  -4.725757 -1.622760  1.293507
      ESP Fit Center  104 is at  -4.008348 -2.340170  1.293507
      ESP Fit Center  105 is at  -3.028348 -2.602760  1.293507
      ESP Fit Center  106 is at  -3.552876 -2.257093  0.313507
      ESP Fit Center  107 is at  -2.503819 -2.257093  0.313507
      ESP Fit Center  108 is at   2.194814 -2.039641  2.305925
      ESP Fit Center  109 is at   3.227458 -2.039641  2.070231
      ESP Fit Center  110 is at   2.711136 -1.145346  2.070231
      ESP Fit Center  111 is at   1.678493 -1.145346  2.070231
      ESP Fit Center  112 is at   1.162171 -2.039641  2.070231
      ESP Fit Center  113 is at   1.678493 -2.933936  2.070231
      ESP Fit Center  114 is at   2.711136 -2.933936  2.070231
      ESP Fit Center  115 is at   4.055573 -2.039641  1.409831
      ESP Fit Center  116 is at   3.700200 -0.945914  1.409831
      ESP Fit Center  117 is at   0.689429 -3.133368  1.409831
      ESP Fit Center  118 is at   1.619808 -3.809328  1.409831
      ESP Fit Center  119 is at   2.769820 -3.809328  1.409831
      ESP Fit Center  120 is at   3.700200 -3.133368  1.409831
      ESP Fit Center  121 is at   4.515143 -2.039641  0.455525
      ESP Fit Center  122 is at   0.458024 -3.578303  0.455525
      ESP Fit Center  123 is at   1.372015 -4.209186  0.455525
      ESP Fit Center  124 is at   2.474499 -4.343052  0.455525
      ESP Fit Center  125 is at   3.512911 -3.949234  0.455525
      ESP Fit Center  126 is at   4.249363 -3.117951  0.455525
      ESP Fit Center  127 is at   4.515143 -2.039641 -0.603674
      ESP Fit Center  128 is at   0.458024 -3.578303 -0.603674
      ESP Fit Center  129 is at   1.372015 -4.209186 -0.603674
      ESP Fit Center  130 is at   2.474499 -4.343052 -0.603674
      ESP Fit Center  131 is at   3.512911 -3.949234 -0.603674
      ESP Fit Center  132 is at   4.249363 -3.117951 -0.603674
      ESP Fit Center  133 is at   4.055573 -2.039641 -1.557980
      ESP Fit Center  134 is at   3.700200 -0.945914 -1.557980
      ESP Fit Center  135 is at   0.689429 -3.133368 -1.557980
      ESP Fit Center  136 is at   1.619808 -3.809328 -1.557980
      ESP Fit Center  137 is at   2.769820 -3.809328 -1.557980
      ESP Fit Center  138 is at   3.700200 -3.133368 -1.557980
      ESP Fit Center  139 is at   3.227458 -2.039641 -2.218380
      ESP Fit Center  140 is at   2.711136 -1.145346 -2.218380
      ESP Fit Center  141 is at   1.678493 -1.145346 -2.218380
      ESP Fit Center  142 is at   1.162171 -2.039641 -2.218380
      ESP Fit Center  143 is at   1.678493 -2.933936 -2.218380
      ESP Fit Center  144 is at   2.711136 -2.933936 -2.218380
      ESP Fit Center  145 is at   2.194814 -2.039641 -2.454075
      ESP Fit Center  146 is at   4.898254  0.236433  1.523251
      ESP Fit Center  147 is at   4.215923 -0.702716  1.523251
      ESP Fit Center  148 is at   5.508550  0.236433  0.683251
      ESP Fit Center  149 is at   5.134741  1.263463  0.683251
      ESP Fit Center  150 is at   5.134741 -0.790597  0.683251
      ESP Fit Center  151 is at   5.508550  0.236433 -0.355046
      ESP Fit Center  152 is at   5.134741  1.263463 -0.355046
      ESP Fit Center  153 is at   5.134741 -0.790597 -0.355046
      ESP Fit Center  154 is at   4.898254  0.236433 -1.195046
      ESP Fit Center  155 is at   4.215923 -0.702716 -1.195046
      ESP Fit Center  156 is at   4.357442  2.677069  1.617273
      ESP Fit Center  157 is at   3.675110  3.616217  1.617273
      ESP Fit Center  158 is at   4.967738  2.677069  0.777273
      ESP Fit Center  159 is at   4.593929  3.704099  0.777273
      ESP Fit Center  160 is at   3.647413  4.250570  0.777273
      ESP Fit Center  161 is at   2.571075  4.060782  0.777273
      ESP Fit Center  162 is at   4.593929  1.650039  0.777273
      ESP Fit Center  163 is at   4.967738  2.677069 -0.261024
      ESP Fit Center  164 is at   4.593929  3.704099 -0.261024
      ESP Fit Center  165 is at   3.647413  4.250570 -0.261024
      ESP Fit Center  166 is at   4.357442  2.677069 -1.101024
      ESP Fit Center  167 is at   3.675110  3.616217 -1.101024
      ESP Fit Center  168 is at  -1.467691  2.506682  1.290965
      ESP Fit Center  169 is at  -1.467691  1.345831  1.290965
      ESP Fit Center  170 is at  -1.467691  3.309970  0.450965
      ESP Fit Center  171 is at  -2.170221  2.472728  0.450965
      ESP Fit Center  172 is at  -0.391353  3.499758 -0.587332
      ESP Fit Center  173 is at  -1.467691  3.309970 -0.587332
      ESP Fit Center  174 is at  -2.170221  2.472728 -0.587332
      ESP Fit Center  175 is at  -1.467691  2.506682 -1.427332
      ESP Fit Center  176 is at  -5.864613  0.348037  0.907300
      ESP Fit Center  177 is at  -5.864613 -0.812815  0.907300
      ESP Fit Center  178 is at  -6.567143  0.314082  0.067300
      ESP Fit Center  179 is at  -6.567143 -0.778860  0.067300
      ESP Fit Center  180 is at  -5.864613 -1.616103  0.067300
      ESP Fit Center  181 is at  -4.788275 -1.805890  0.067300
      ESP Fit Center  182 is at  -6.567143  0.314082 -0.970997
      ESP Fit Center  183 is at  -6.567143 -0.778860 -0.970997
      ESP Fit Center  184 is at  -5.864613 -1.616103 -0.970997
      ESP Fit Center  185 is at  -4.788275 -1.805890 -0.970997
      ESP Fit Center  186 is at  -5.864613  0.348037 -1.810997
      ESP Fit Center  187 is at  -5.864613 -0.812815 -1.810997
      ESP Fit Center  188 is at  -4.760578 -1.171537 -1.810997
      ESP Fit Center  189 is at  -4.551133  1.323570  1.876803
      ESP Fit Center  190 is at  -3.563653  1.323570  1.555952
      ESP Fit Center  191 is at  -4.245985  2.262719  1.555952
      ESP Fit Center  192 is at  -5.350020  1.903996  1.555952
      ESP Fit Center  193 is at  -5.350020  0.743144  1.555952
      ESP Fit Center  194 is at  -3.327166  2.350600  0.715952
      ESP Fit Center  195 is at  -4.273682  2.897071  0.715952
      ESP Fit Center  196 is at  -5.350020  2.707284  0.715952
      ESP Fit Center  197 is at  -6.052550  1.870041  0.715952
      ESP Fit Center  198 is at  -6.052550  0.777099  0.715952
      ESP Fit Center  199 is at  -4.273682  2.897071 -0.322345
      ESP Fit Center  200 is at  -5.350020  2.707284 -0.322345
      ESP Fit Center  201 is at  -6.052550  1.870041 -0.322345
      ESP Fit Center  202 is at  -2.865778  1.891969 -1.980302
      ESP Fit Center  203 is at  -3.812294  2.438441 -1.980302
      ESP Fit Center  204 is at  -4.888632  2.248653 -1.980302
      ESP Fit Center  205 is at  -5.591162  1.411411 -1.980302
      ESP Fit Center  206 is at  -3.102265  0.864940 -2.820302
      ESP Fit Center  207 is at  -3.784597  1.804088 -2.820302
      ESP Fit Center  208 is at  -4.888632  1.445365 -2.820302
      ESP Fit Center  209 is at  -4.888632  0.284514 -2.820302
      ESP Fit Center  210 is at  -3.784597 -0.074209 -2.820302
      ESP Fit Center  211 is at  -4.089745  0.864940 -3.141154
      ESP Fit Center  212 is at  -1.203870 -3.008990 -0.403381
      ESP Fit Center  213 is at  -0.127532 -3.198777 -0.403381
      ESP Fit Center  214 is at  -1.906400 -2.171747 -1.441678
      ESP Fit Center  215 is at  -1.203870 -3.008990 -1.441678
      ESP Fit Center  216 is at  -0.127532 -3.198777 -1.441678
      ESP Fit Center  217 is at   0.582497 -1.625276 -2.281678
      ESP Fit Center  218 is at  -0.099835 -0.686127 -2.281678
      ESP Fit Center  219 is at  -1.203870 -2.205702 -2.281678
      ESP Fit Center  220 is at  -0.099835 -2.564425 -2.281678
      ESP Fit Center  221 is at  -0.404983 -1.625276 -2.602530
      ESP Fit Center  222 is at  -0.876848 -1.293133  2.421887
      ESP Fit Center  223 is at   0.110632 -1.293133  2.101036
      ESP Fit Center  224 is at  -0.571700 -0.353985  2.101036
      ESP Fit Center  225 is at  -1.675735 -1.873559  2.101036
      ESP Fit Center  226 is at  -0.571700 -2.232282  2.101036
      ESP Fit Center  227 is at  -1.675735 -2.676847  1.261036
      ESP Fit Center  228 is at  -0.599397 -2.866634  1.261036
      ESP Fit Center  229 is at  -1.675735 -2.676847  0.222739
      ESP Fit Center  230 is at  -0.368655  0.179335 -2.093372
      ESP Fit Center  231 is at  -0.742463  1.206365 -2.093372
      ESP Fit Center  232 is at  -1.688979  1.752837 -2.093372
      ESP Fit Center  233 is at  -0.978951  0.179335 -2.933372
      ESP Fit Center  234 is at  -1.661282  1.118484 -2.933372
      ESP Fit Center  235 is at  -2.765317  0.759761 -2.933372
      ESP Fit Center  236 is at  -2.765317 -0.401090 -2.933372
      ESP Fit Center  237 is at  -1.661282 -0.759813 -2.933372
      ESP Fit Center  238 is at  -1.966430  0.179335 -3.254224
      ESP Fit Center  239 is at   2.884804  0.582665  2.507376
      ESP Fit Center  240 is at   3.926125  0.582665  2.269701
      ESP Fit Center  241 is at   1.843483  0.582665  2.269701
      ESP Fit Center  242 is at   3.405465 -0.319145  2.269701
      ESP Fit Center  243 is at   4.463329  1.597121  1.603752
      ESP Fit Center  244 is at   4.463329  1.597121 -1.388999
      ESP Fit Center  245 is at   3.926125  0.582665 -2.054949
      ESP Fit Center  246 is at   3.405465  1.484476 -2.054949
      ESP Fit Center  247 is at   3.405465 -0.319145 -2.054949
      ESP Fit Center  248 is at   2.884804  0.582665 -2.292624
      ESP Fit Center  249 is at   2.574354  1.940936  2.559992
      ESP Fit Center  250 is at   3.615675  1.940936  2.322317
      ESP Fit Center  251 is at   3.095015  2.842747  2.322317
      ESP Fit Center  252 is at   2.053694  1.039126  2.322317
      ESP Fit Center  253 is at   4.450750  1.940936 -1.336384
      ESP Fit Center  254 is at   3.615675  1.940936 -2.002333
      ESP Fit Center  255 is at   3.095015  2.842747 -2.002333
      ESP Fit Center  256 is at   2.574354  1.940936 -2.240008
      ESP Fit Center  257 is at   0.339679  1.522409  2.377415
      ESP Fit Center  258 is at  -0.180982  2.424219  2.139741
      ESP Fit Center  259 is at  -0.701642  1.522409  2.139741
      ESP Fit Center  260 is at   1.381000  1.522409 -2.184910
      ESP Fit Center  261 is at  -0.180982  2.424219 -2.184910
      ESP Fit Center  262 is at  -0.701642  1.522409 -2.184910
      ESP Fit Center  263 is at   0.339679  1.522409 -2.422585
      ESP Fit Center  264 is at   0.510119  0.132518  2.306458
      ESP Fit Center  265 is at  -0.531202  0.132518  2.068784
      ESP Fit Center  266 is at   1.030779 -0.769292 -2.255867
      ESP Fit Center  267 is at   0.510119  0.132518 -2.493542
      ESP Fit Center  268 is at   1.832690 -0.319201  2.381142
      ESP Fit Center  269 is at   1.312029  0.582609  2.143467
      ESP Fit Center  270 is at   2.874011 -0.319201 -2.181183
      ESP Fit Center  271 is at   1.832690 -0.319201 -2.418858
      ESP Fit Center  272 is at  -2.238494  1.538405  1.662857
      ESP Fit Center  273 is at  -3.285016  1.688872  1.662857
      ESP Fit Center  274 is at  -2.497316  2.112738  0.700532
      ESP Fit Center  275 is at  -3.538637 -2.449587 -0.367568
      ESP Fit Center  276 is at  -3.285016 -2.025721 -1.329894
      ESP Fit Center  277 is at  -2.786073  2.320498  0.089957
      ESP Fit Center  278 is at  -2.786073  2.320498 -0.978143
      ESP Fit Center  279 is at  -3.724270  2.772310 -0.978143
      ESP Fit Center  280 is at  -5.703789  2.320498 -0.978143
      ESP Fit Center  281 is at  -6.353042  1.506361 -0.978143
      ESP Fit Center  282 is at  -6.045319  1.019789 -1.940469
      ESP Fit Center  283 is at  -4.511970 -1.366149 -1.940469
      ESP Fit Center  284 is at  -2.123074 -2.650620 -0.757539
      ESP Fit Center  285 is at   1.326325  2.416157  2.498645
      ESP Fit Center  286 is at   1.846985  3.317967  2.260970
      ESP Fit Center  287 is at   0.805664  3.317967  2.260970
      ESP Fit Center  288 is at   0.285004  2.416157  2.260970
      ESP Fit Center  289 is at   2.105808  4.122986  1.595020
      ESP Fit Center  290 is at   1.059286  4.273453  1.595020
      ESP Fit Center  291 is at   0.097547  3.834242  1.595020
      ESP Fit Center  292 is at   1.846985  4.697319  0.632695
      ESP Fit Center  293 is at   0.805664  4.697319  0.632695
      ESP Fit Center  294 is at  -0.132534  4.245507  0.632695
      ESP Fit Center  295 is at   1.846985  4.697319 -0.435405
      ESP Fit Center  296 is at   0.805664  4.697319 -0.435405
      ESP Fit Center  297 is at  -0.132534  4.245507 -0.435405
      ESP Fit Center  298 is at   2.105808  4.122986 -1.397731
      ESP Fit Center  299 is at   1.059286  4.273453 -1.397731
      ESP Fit Center  300 is at   0.097547  3.834242 -1.397731
      ESP Fit Center  301 is at   1.846985  3.317967 -2.063681
      ESP Fit Center  302 is at   0.805664  3.317967 -2.063681
      ESP Fit Center  303 is at   1.326325  2.416157 -2.301355
      ESP Fit Center  304 is at  -2.422595  2.092789 -1.169761
      ESP Fit Center  305 is at  -2.422595 -2.469536 -1.169761
      ESP Fit Center  306 is at  -3.130713 -1.606458 -2.132087
      ESP Fit Center  307 is at  -2.168974 -2.045670 -2.132087
      ESP Fit Center  308 is at  -3.028348 -0.642760  3.533507
      ESP Fit Center  309 is at  -2.056448 -0.642760  3.311677
      ESP Fit Center  310 is at  -2.542398  0.198929  3.311677
      ESP Fit Center  311 is at  -3.514297  0.198929  3.311677
      ESP Fit Center  312 is at  -4.000247 -0.642760  3.311677
      ESP Fit Center  313 is at  -3.514297 -1.484450  3.311677
      ESP Fit Center  314 is at  -2.542398 -1.484450  3.311677
      ESP Fit Center  315 is at  -1.277045 -0.642760  2.690124
      ESP Fit Center  316 is at  -1.611514  0.386630  2.690124
      ESP Fit Center  317 is at  -2.487165  1.022827  2.690124
      ESP Fit Center  318 is at  -3.569530  1.022827  2.690124
      ESP Fit Center  319 is at  -4.445181  0.386630  2.690124
      ESP Fit Center  320 is at  -4.779650 -0.642760  2.690124
      ESP Fit Center  321 is at  -4.445181 -1.672150  2.690124
      ESP Fit Center  322 is at  -3.569530 -2.308348  2.690124
      ESP Fit Center  323 is at  -2.487165 -2.308348  2.690124
      ESP Fit Center  324 is at  -1.611514 -1.672150  2.690124
      ESP Fit Center  325 is at  -1.787786  1.154504  1.791954
      ESP Fit Center  326 is at  -5.148728 -0.120133  1.791954
      ESP Fit Center  327 is at  -5.148728 -1.165387  1.791954
      ESP Fit Center  328 is at  -4.662974 -2.090913  1.791954
      ESP Fit Center  329 is at  -3.802747 -2.684685  1.791954
      ESP Fit Center  330 is at  -2.765115 -2.810676  1.791954
      ESP Fit Center  331 is at  -4.662974 -2.090913  0.795060
      ESP Fit Center  332 is at  -3.802747 -2.684685  0.795060
      ESP Fit Center  333 is at  -2.765115 -2.810676  0.795060
      ESP Fit Center  334 is at   2.194814 -2.039641  2.645925
      ESP Fit Center  335 is at   3.235713 -2.039641  2.438878
      ESP Fit Center  336 is at   2.715264 -1.138196  2.438878
      ESP Fit Center  337 is at   1.674365 -1.138196  2.438878
      ESP Fit Center  338 is at   1.153915 -2.039641  2.438878
      ESP Fit Center  339 is at   1.674365 -2.941086  2.438878
      ESP Fit Center  340 is at   2.715264 -2.941086  2.438878
      ESP Fit Center  341 is at   4.118145 -2.039641  1.849256
      ESP Fit Center  342 is at   3.860467 -1.077976  1.849256
      ESP Fit Center  343 is at   0.529161 -3.001306  1.849256
      ESP Fit Center  344 is at   1.233149 -3.705294  1.849256
      ESP Fit Center  345 is at   2.194814 -3.962971  1.849256
      ESP Fit Center  346 is at   3.156480 -3.705294  1.849256
      ESP Fit Center  347 is at   3.860467 -3.001306  1.849256
      ESP Fit Center  348 is at   4.707767 -2.039641  0.966824
      ESP Fit Center  349 is at   0.161793 -3.516717  0.966824
      ESP Fit Center  350 is at   0.938338 -4.215922  0.966824
      ESP Fit Center  351 is at   1.932139 -4.538827  0.966824
      ESP Fit Center  352 is at   2.971359 -4.429601  0.966824
      ESP Fit Center  353 is at   3.876308 -3.907128  0.966824
      ESP Fit Center  354 is at   4.490511 -3.061751  0.966824
      ESP Fit Center  355 is at   4.914814 -2.039641 -0.074075
      ESP Fit Center  356 is at  -0.117776 -3.471536 -0.074075
      ESP Fit Center  357 is at   0.555648 -4.210248 -0.074075
      ESP Fit Center  358 is at   1.450451 -4.655807 -0.074075
      ESP Fit Center  359 is at   2.445784 -4.748038 -0.074075
      ESP Fit Center  360 is at   3.407223 -4.474485 -0.074075
      ESP Fit Center  361 is at   4.204919 -3.872093 -0.074075
      ESP Fit Center  362 is at   4.731139 -3.022218 -0.074075
      ESP Fit Center  363 is at   4.707767 -2.039641 -1.114974
      ESP Fit Center  364 is at   0.161793 -3.516717 -1.114974
      ESP Fit Center  365 is at   0.938338 -4.215922 -1.114974
      ESP Fit Center  366 is at   1.932139 -4.538827 -1.114974
      ESP Fit Center  367 is at   2.971359 -4.429601 -1.114974
      ESP Fit Center  368 is at   3.876308 -3.907128 -1.114974
      ESP Fit Center  369 is at   4.490511 -3.061751 -1.114974
      ESP Fit Center  370 is at   4.118145 -2.039641 -1.997405
      ESP Fit Center  371 is at   3.860467 -1.077976 -1.997405
      ESP Fit Center  372 is at   0.529161 -3.001306 -1.997405
      ESP Fit Center  373 is at   1.233149 -3.705294 -1.997405
      ESP Fit Center  374 is at   2.194814 -3.962971 -1.997405
      ESP Fit Center  375 is at   3.156480 -3.705294 -1.997405
      ESP Fit Center  376 is at   3.860467 -3.001306 -1.997405
      ESP Fit Center  377 is at   3.235713 -2.039641 -2.587027
      ESP Fit Center  378 is at   2.715264 -1.138196 -2.587027
      ESP Fit Center  379 is at   1.674365 -1.138196 -2.587027
      ESP Fit Center  380 is at   1.153915 -2.039641 -2.587027
      ESP Fit Center  381 is at   1.674365 -2.941086 -2.587027
      ESP Fit Center  382 is at   2.715264 -2.941086 -2.587027
      ESP Fit Center  383 is at   2.194814 -2.039641 -2.794075
      ESP Fit Center  384 is at   4.870775  0.236433  1.826872
      ESP Fit Center  385 is at   4.390775 -0.594951  1.826872
      ESP Fit Center  386 is at   5.573543  0.236433  1.124103
      ESP Fit Center  387 is at   5.255983  1.213784  1.124103
      ESP Fit Center  388 is at   5.255983 -0.740918  1.124103
      ESP Fit Center  389 is at   5.830775  0.236433  0.164103
      ESP Fit Center  390 is at   5.573543  1.196433  0.164103
      ESP Fit Center  391 is at   4.870775 -1.426336  0.164103
      ESP Fit Center  392 is at   5.573543 -0.723567  0.164103
      ESP Fit Center  393 is at   5.573543  0.236433 -0.795897
      ESP Fit Center  394 is at   5.255983  1.213784 -0.795897
      ESP Fit Center  395 is at   5.255983 -0.740918 -0.795897
      ESP Fit Center  396 is at   4.870775  0.236433 -1.498666
      ESP Fit Center  397 is at   4.390775 -0.594951 -1.498666
      ESP Fit Center  398 is at   4.329963  2.677069  1.920893
      ESP Fit Center  399 is at   3.849963  3.508453  1.920893
      ESP Fit Center  400 is at   5.032731  2.677069  1.218125
      ESP Fit Center  401 is at   4.715171  3.654420  1.218125
      ESP Fit Center  402 is at   3.883786  4.258456  1.218125
      ESP Fit Center  403 is at   2.856139  4.258456  1.218125
      ESP Fit Center  404 is at   4.715171  1.699718  1.218125
      ESP Fit Center  405 is at   5.289963  2.677069  0.258125
      ESP Fit Center  406 is at   5.032731  3.637069  0.258125
      ESP Fit Center  407 is at   4.329963  4.339837  0.258125
      ESP Fit Center  408 is at   3.369963  4.597069  0.258125
      ESP Fit Center  409 is at   5.032731  2.677069 -0.701875
      ESP Fit Center  410 is at   4.715171  3.654420 -0.701875
      ESP Fit Center  411 is at   3.883786  4.258456 -0.701875
      ESP Fit Center  412 is at   2.856139  4.258456 -0.701875
      ESP Fit Center  413 is at   4.329963  2.677069 -1.404644
      ESP Fit Center  414 is at   3.849963  3.508453 -1.404644
      ESP Fit Center  415 is at  -1.148803  2.757641  1.594585
      ESP Fit Center  416 is at  -1.628803  1.926257  1.594585
      ESP Fit Center  417 is at  -1.182627  3.507644  0.891816
      ESP Fit Center  418 is at  -2.014011  2.903608  0.891816
      ESP Fit Center  419 is at  -0.668803  3.846257 -0.068184
      ESP Fit Center  420 is at  -1.628803  3.589026 -0.068184
      ESP Fit Center  421 is at  -2.331572  2.886257 -0.068184
      ESP Fit Center  422 is at  -1.182627  3.507644 -1.028184
      ESP Fit Center  423 is at  -2.014011  2.903608 -1.028184
      ESP Fit Center  424 is at  -1.148803  2.757641 -1.730953
      ESP Fit Center  425 is at  -6.025726 -0.232389  1.210920
      ESP Fit Center  426 is at  -5.545726 -1.063773  1.210920
      ESP Fit Center  427 is at  -6.728495 -0.232389  0.508151
      ESP Fit Center  428 is at  -6.410934 -1.209740  0.508151
      ESP Fit Center  429 is at  -5.579550 -1.813776  0.508151
      ESP Fit Center  430 is at  -6.728495  0.727611 -0.451849
      ESP Fit Center  431 is at  -6.985726 -0.232389 -0.451849
      ESP Fit Center  432 is at  -6.728495 -1.192389 -0.451849
      ESP Fit Center  433 is at  -6.025726 -1.895158 -0.451849
      ESP Fit Center  434 is at  -5.065726 -2.152389 -0.451849
      ESP Fit Center  435 is at  -6.728495 -0.232389 -1.411849
      ESP Fit Center  436 is at  -6.410934 -1.209740 -1.411849
      ESP Fit Center  437 is at  -5.579550 -1.813776 -1.411849
      ESP Fit Center  438 is at  -4.551902 -1.813776 -1.411849
      ESP Fit Center  439 is at  -6.025726 -0.232389 -2.114617
      ESP Fit Center  440 is at  -5.545726 -1.063773 -2.114617
      ESP Fit Center  441 is at  -4.551133  1.323570  2.116803
      ESP Fit Center  442 is at  -4.071133  2.154955  1.859572
      ESP Fit Center  443 is at  -5.031133  2.154955  1.859572
      ESP Fit Center  444 is at  -5.511133  1.323570  1.859572
      ESP Fit Center  445 is at  -5.031133  0.492186  1.859572
      ESP Fit Center  446 is at  -3.205924  2.300921  1.156803
      ESP Fit Center  447 is at  -4.037309  2.904957  1.156803
      ESP Fit Center  448 is at  -5.064956  2.904957  1.156803
      ESP Fit Center  449 is at  -5.896341  2.300921  1.156803
      ESP Fit Center  450 is at  -6.213901  1.323570  1.156803
      ESP Fit Center  451 is at  -3.591133  2.986339  0.196803
      ESP Fit Center  452 is at  -4.551133  3.243570  0.196803
      ESP Fit Center  453 is at  -5.511133  2.986339  0.196803
      ESP Fit Center  454 is at  -6.213901  2.283570  0.196803
      ESP Fit Center  455 is at  -6.471133  1.323570  0.196803
      ESP Fit Center  456 is at  -4.037309  2.904957 -0.763197
      ESP Fit Center  457 is at  -5.064956  2.904957 -0.763197
      ESP Fit Center  458 is at  -5.896341  2.300921 -0.763197
      ESP Fit Center  459 is at  -3.129745  2.527708 -1.461154
      ESP Fit Center  460 is at  -4.089745  2.784940 -1.461154
      ESP Fit Center  461 is at  -5.049745  2.527708 -1.461154
      ESP Fit Center  462 is at  -2.744537  1.842290 -2.421154
      ESP Fit Center  463 is at  -3.575921  2.446327 -2.421154
      ESP Fit Center  464 is at  -4.603569  2.446327 -2.421154
      ESP Fit Center  465 is at  -5.434953  1.842290 -2.421154
      ESP Fit Center  466 is at  -5.752513  0.864940 -2.421154
      ESP Fit Center  467 is at  -3.575921 -0.716448 -2.421154
      ESP Fit Center  468 is at  -3.129745  0.864940 -3.123923
      ESP Fit Center  469 is at  -3.609745  1.696324 -3.123923
      ESP Fit Center  470 is at  -4.569745  1.696324 -3.123923
      ESP Fit Center  471 is at  -5.049745  0.864940 -3.123923
      ESP Fit Center  472 is at  -4.569745  0.033555 -3.123923
      ESP Fit Center  473 is at  -3.609745  0.033555 -3.123923
      ESP Fit Center  474 is at  -4.089745  0.864940 -3.381154
      ESP Fit Center  475 is at  -0.918806 -3.206663  0.037470
      ESP Fit Center  476 is at  -1.364983 -3.288045 -0.922530
      ESP Fit Center  477 is at  -0.404983 -3.545276 -0.922530
      ESP Fit Center  478 is at  -1.750191 -2.602627 -1.882530
      ESP Fit Center  479 is at  -0.918806 -3.206663 -1.882530
      ESP Fit Center  480 is at   0.108841 -3.206663 -1.882530
      ESP Fit Center  481 is at   0.555017 -1.625276 -2.585299
      ESP Fit Center  482 is at   0.075017 -0.793892 -2.585299
      ESP Fit Center  483 is at  -1.364983 -1.625276 -2.585299
      ESP Fit Center  484 is at  -0.884983 -2.456660 -2.585299
      ESP Fit Center  485 is at   0.075017 -2.456660 -2.585299
      ESP Fit Center  486 is at  -0.404983 -1.625276 -2.842530
      ESP Fit Center  487 is at  -0.876848 -1.293133  2.661887
      ESP Fit Center  488 is at   0.083152 -1.293133  2.404656
      ESP Fit Center  489 is at  -0.396848 -0.461749  2.404656
      ESP Fit Center  490 is at  -1.356848 -2.124517  2.404656
      ESP Fit Center  491 is at  -0.396848 -2.124517  2.404656
      ESP Fit Center  492 is at  -1.390671 -2.874520  1.701887
      ESP Fit Center  493 is at  -0.363024 -2.874520  1.701887
      ESP Fit Center  494 is at  -1.836848 -2.955902  0.741887
      ESP Fit Center  495 is at  -0.876848 -3.213133  0.741887
      ESP Fit Center  496 is at  -1.966430  2.099335 -1.574224
      ESP Fit Center  497 is at  -0.303661  0.179335 -2.534224
      ESP Fit Center  498 is at  -0.621222  1.156686 -2.534224
      ESP Fit Center  499 is at  -1.452606  1.760723 -2.534224
      ESP Fit Center  500 is at  -2.480254  1.760723 -2.534224
      ESP Fit Center  501 is at  -3.311638 -0.798016 -2.534224
      ESP Fit Center  502 is at  -1.006430  0.179335 -3.236993
      ESP Fit Center  503 is at  -1.486430  1.010720 -3.236993
      ESP Fit Center  504 is at  -2.446430  1.010720 -3.236993
      ESP Fit Center  505 is at  -2.926430  0.179335 -3.236993
      ESP Fit Center  506 is at  -2.446430 -0.652049 -3.236993
      ESP Fit Center  507 is at  -1.486430 -0.652049 -3.236993
      ESP Fit Center  508 is at  -1.966430  0.179335 -3.494224
      ESP Fit Center  509 is at   2.884804  0.582665  2.807376
      ESP Fit Center  510 is at   3.918050  0.582665  2.601851
      ESP Fit Center  511 is at   1.851559  0.582665  2.601851
      ESP Fit Center  512 is at   3.401427 -0.312151  2.601851
      ESP Fit Center  513 is at   5.132249  1.664977 -0.925869
      ESP Fit Center  514 is at   4.793993  0.582665 -1.801812
      ESP Fit Center  515 is at   4.490916  1.614850 -1.801812
      ESP Fit Center  516 is at   4.490916 -0.449520 -1.801812
      ESP Fit Center  517 is at   3.918050  0.582665 -2.387099
      ESP Fit Center  518 is at   3.401427  1.477482 -2.387099
      ESP Fit Center  519 is at   3.401427 -0.312151 -2.387099
      ESP Fit Center  520 is at   2.884804  0.582665 -2.592624
      ESP Fit Center  521 is at   2.574354  1.940936  2.859992
      ESP Fit Center  522 is at   3.607600  1.940936  2.654467
      ESP Fit Center  523 is at   3.090977  2.835753  2.654467
      ESP Fit Center  524 is at   2.057732  1.046120  2.654467
      ESP Fit Center  525 is at   4.483543  1.940936  2.069180
      ESP Fit Center  526 is at   5.068829  1.940936 -0.873253
      ESP Fit Center  527 is at   4.483543  1.940936 -1.749196
      ESP Fit Center  528 is at   4.180466  2.973121 -1.749196
      ESP Fit Center  529 is at   3.367460  3.677595 -1.749196
      ESP Fit Center  530 is at   3.607600  1.940936 -2.334483
      ESP Fit Center  531 is at   3.090977  2.835753 -2.334483
      ESP Fit Center  532 is at   2.574354  1.940936 -2.540008
      ESP Fit Center  533 is at   0.339679  1.522409  2.677415
      ESP Fit Center  534 is at  -0.176944  2.417225  2.471890
      ESP Fit Center  535 is at  -0.693566  1.522409  2.471890
      ESP Fit Center  536 is at  -0.176944  0.627592  2.471890
      ESP Fit Center  537 is at  -0.910574  2.965277  1.886604
      ESP Fit Center  538 is at   1.372924  1.522409 -2.517059
      ESP Fit Center  539 is at  -0.176944  2.417225 -2.517059
      ESP Fit Center  540 is at   0.339679  1.522409 -2.722585
      ESP Fit Center  541 is at   0.510119  0.132518  2.606458
      ESP Fit Center  542 is at  -0.523126  0.132518  2.400933
      ESP Fit Center  543 is at   1.026741  1.027335 -2.588016
      ESP Fit Center  544 is at   0.510119  0.132518 -2.793542
      ESP Fit Center  545 is at   1.832690 -0.319201  2.681142
      ESP Fit Center  546 is at   1.316067  0.575616  2.475617
      ESP Fit Center  547 is at   1.832690 -0.319201 -2.718858
      ESP Fit Center  548 is at  -2.462904  2.263509  1.199727
      ESP Fit Center  549 is at  -4.051222 -2.662899  0.166482
      ESP Fit Center  550 is at  -3.573050 -2.600358 -0.866763
      ESP Fit Center  551 is at  -6.076784 -0.046733  1.465095
      ESP Fit Center  552 is at  -3.211686  2.985622 -0.444093
      ESP Fit Center  553 is at  -6.739406  1.524393 -0.444093
      ESP Fit Center  554 is at  -4.800004  2.923081 -1.477338
      ESP Fit Center  555 is at  -5.800210  2.441407 -1.477338
      ESP Fit Center  556 is at  -6.492375  1.573460 -1.477338
      ESP Fit Center  557 is at  -6.076784  1.029028 -2.353281
      ESP Fit Center  558 is at  -6.076784 -0.046733 -2.353281
      ESP Fit Center  559 is at  -4.516637 -1.398608 -2.353281
      ESP Fit Center  560 is at  -1.697461 -3.315744 -0.223489
      ESP Fit Center  561 is at   1.326325  2.416157  2.798645
      ESP Fit Center  562 is at   1.842947  3.310973  2.593119
      ESP Fit Center  563 is at   0.809702  3.310973  2.593119
      ESP Fit Center  564 is at   0.293079  2.416157  2.593119
      ESP Fit Center  565 is at   2.119430  4.152815  2.007833
      ESP Fit Center  566 is at   1.054619  4.305912  2.007833
      ESP Fit Center  567 is at   0.076072  3.859025  2.007833
      ESP Fit Center  568 is at   1.881397  4.848090  1.131890
      ESP Fit Center  569 is at   0.771252  4.848090  1.131890
      ESP Fit Center  570 is at  -0.228955  4.366416  1.131890
      ESP Fit Center  571 is at   2.359570  4.910631  0.098645
      ESP Fit Center  572 is at   1.326325  5.116157  0.098645
      ESP Fit Center  573 is at   0.293079  4.910631  0.098645
      ESP Fit Center  574 is at  -0.582864  4.325345  0.098645
      ESP Fit Center  575 is at   1.881397  4.848090 -0.934601
      ESP Fit Center  576 is at   0.771252  4.848090 -0.934601
      ESP Fit Center  577 is at  -0.228955  4.366416 -0.934601
      ESP Fit Center  578 is at   2.119430  4.152815 -1.810544
      ESP Fit Center  579 is at   1.054619  4.305912 -1.810544
      ESP Fit Center  580 is at   0.076072  3.859025 -1.810544
      ESP Fit Center  581 is at   1.842947  3.310973 -2.395830
      ESP Fit Center  582 is at   0.809702  3.310973 -2.395830
      ESP Fit Center  583 is at   1.326325  2.416157 -2.601355
      ESP Fit Center  584 is at  -3.457214 -2.138632 -1.668956
      ESP Fit Center  585 is at  -2.457008 -2.620306 -1.668956
      ESP Fit Center  586 is at  -3.152187 -1.631241 -2.544899
      ESP Fit Center  587 is at  -2.173641 -2.078129 -2.544899
      ESP Fit Center  588 is at  -3.028348 -0.642760  3.813507
      ESP Fit Center  589 is at  -1.934960 -0.642760  3.563949
      ESP Fit Center  590 is at  -2.481654  0.304141  3.563949
      ESP Fit Center  591 is at  -3.575041  0.304141  3.563949
      ESP Fit Center  592 is at  -4.121735 -0.642760  3.563949
      ESP Fit Center  593 is at  -3.575041 -1.589661  3.563949
      ESP Fit Center  594 is at  -2.481654 -1.589661  3.563949
      ESP Fit Center  595 is at  -1.058132 -0.642760  2.864701
      ESP Fit Center  596 is at  -1.370897  0.422419  2.864701
      ESP Fit Center  597 is at  -2.209890  1.149411  2.864701
      ESP Fit Center  598 is at  -3.308738  1.307401  2.864701
      ESP Fit Center  599 is at  -4.318564  0.846229  2.864701
      ESP Fit Center  600 is at  -4.918755 -0.087686  2.864701
      ESP Fit Center  601 is at  -4.918755 -1.197834  2.864701
      ESP Fit Center  602 is at  -4.318564 -2.131750  2.864701
      ESP Fit Center  603 is at  -3.308738 -2.592922  2.864701
      ESP Fit Center  604 is at  -2.209890 -2.434931  2.864701
      ESP Fit Center  605 is at  -1.370897 -1.707939  2.864701
      ESP Fit Center  606 is at  -5.485166 -0.642760  1.854260
      ESP Fit Center  607 is at  -5.241864 -1.708734  1.854260
[...]
  378 Fit      -0.000357
  379 Fit       0.004823
  380 Fit       0.004774
  381 Fit      -0.002139
  382 Fit      -0.004842
  383 Fit      -0.002146
  384 Fit       0.012280
  385 Fit       0.007831
  386 Fit       0.017380
  387 Fit       0.019213
  388 Fit       0.013747
  389 Fit       0.019011
  390 Fit       0.020923
  391 Fit       0.008434
  392 Fit       0.015891
  393 Fit       0.017184
  394 Fit       0.018392
  395 Fit       0.013696
  396 Fit       0.012203
  397 Fit       0.008424
  398 Fit       0.010652
  399 Fit       0.006653
  400 Fit       0.016590
  401 Fit       0.013459
  402 Fit       0.007385
  403 Fit      -0.005530
  404 Fit       0.020565
  405 Fit       0.018806
  406 Fit       0.015649
  407 Fit       0.011049
  408 Fit       0.001905
  409 Fit       0.016674
  410 Fit       0.013371
  411 Fit       0.007158
  412 Fit      -0.006706
  413 Fit       0.010833
  414 Fit       0.006626
  415 Fit      -0.003074
  416 Fit      -0.001495
  417 Fit      -0.001506
  418 Fit       0.009133
  419 Fit      -0.009651
  420 Fit       0.008228
  421 Fit       0.018363
  422 Fit       0.007329
  423 Fit       0.020772
  424 Fit       0.016416
  425 Fit      -0.003664
  426 Fit      -0.013635
  427 Fit       0.006541
  428 Fit       0.004444
  429 Fit      -0.002123
  430 Fit       0.011840
  431 Fit       0.011912
  432 Fit       0.011623
  433 Fit       0.009695
  434 Fit       0.006856
  435 Fit       0.014671
  436 Fit       0.014767
  437 Fit       0.014112
  438 Fit       0.015598
  439 Fit       0.016498
  440 Fit       0.016722
  441 Fit      -0.010690
  442 Fit       0.001561
  443 Fit       0.004413
  444 Fit      -0.001021
  445 Fit      -0.018894
  446 Fit       0.009842
  447 Fit       0.010820
  448 Fit       0.011409
  449 Fit       0.009824
  450 Fit       0.005719
  451 Fit       0.015617
  452 Fit       0.014554
  453 Fit       0.013963
  454 Fit       0.012359
  455 Fit       0.010294
  456 Fit       0.017574
  457 Fit       0.015710
  458 Fit       0.014563
  459 Fit       0.025010
  460 Fit       0.019262
  461 Fit       0.017283
  462 Fit       0.039180
  463 Fit       0.025685
  464 Fit       0.020749
  465 Fit       0.018555
  466 Fit       0.017761
  467 Fit       0.030799
  468 Fit       0.041227
  469 Fit       0.030152
  470 Fit       0.023696
  471 Fit       0.021664
  472 Fit       0.023761
  473 Fit       0.033757
  474 Fit       0.028118
  475 Fit       0.002168
  476 Fit       0.006759
  477 Fit       0.005627
  478 Fit       0.012823
  479 Fit       0.011775
  480 Fit       0.008547
  481 Fit       0.014461
  482 Fit       0.023249
  483 Fit       0.024458
  484 Fit       0.017019
  485 Fit       0.013769
  486 Fit       0.021115
  487 Fit      -0.019531
  488 Fit      -0.004933
  489 Fit      -0.011904
  490 Fit      -0.023702
  491 Fit      -0.007764
  492 Fit      -0.013319
  493 Fit      -0.004423
  494 Fit      -0.010273
  495 Fit      -0.001993
  496 Fit       0.032958
  497 Fit       0.032946
  498 Fit       0.031718
  499 Fit       0.035165
  500 Fit       0.040756
  501 Fit       0.031420
  502 Fit       0.037107
  503 Fit       0.038985
  504 Fit       0.042417
  505 Fit       0.041191
  506 Fit       0.035105
  507 Fit       0.035147
  508 Fit       0.039671
  509 Fit      -0.004967
  510 Fit       0.001394
  511 Fit      -0.008404
  512 Fit      -0.001926
  513 Fit       0.016236
  514 Fit       0.009133
  515 Fit       0.007981
  516 Fit       0.006742
  517 Fit       0.003103
  518 Fit       0.000790
  519 Fit       0.001700
  520 Fit       0.000515
  521 Fit      -0.006487
  522 Fit       0.000551
  523 Fit      -0.002905
  524 Fit      -0.008497
  525 Fit       0.009198
  526 Fit       0.016417
  527 Fit       0.008350
  528 Fit       0.006742
  529 Fit       0.000112
  530 Fit       0.001973
  531 Fit      -0.001074
  532 Fit      -0.001553
  533 Fit      -0.012715
  534 Fit      -0.013665
  535 Fit      -0.012676
  536 Fit      -0.012843
  537 Fit      -0.008402
  538 Fit       0.000954
  539 Fit       0.008344
  540 Fit       0.010182
  541 Fit      -0.010017
  542 Fit      -0.015119
  543 Fit       0.005503
  544 Fit       0.015296
  545 Fit      -0.006859
  546 Fit      -0.009189
  547 Fit       0.004723
  548 Fit       0.006983
  549 Fit      -0.011345
  550 Fit       0.003673
  551 Fit      -0.005861
  552 Fit       0.017126
  553 Fit       0.010538
  554 Fit       0.015924
  555 Fit       0.014029
  556 Fit       0.012681
  557 Fit       0.015402
  558 Fit       0.015415
  559 Fit       0.017452
  560 Fit       0.000060
  561 Fit      -0.014350
  562 Fit      -0.014978
  563 Fit      -0.018777
  564 Fit      -0.015426
  565 Fit      -0.015845
  566 Fit      -0.022752
  567 Fit      -0.020325
  568 Fit      -0.020853
  569 Fit      -0.025837
  570 Fit      -0.020529
  571 Fit      -0.016044
  572 Fit      -0.025020
  573 Fit      -0.024487
  574 Fit      -0.014400
  575 Fit      -0.019392
  576 Fit      -0.022597
  577 Fit      -0.014900
  578 Fit      -0.013266
  579 Fit      -0.016998
  580 Fit      -0.010230
  581 Fit      -0.009166
  582 Fit      -0.008247
  583 Fit      -0.003603
  584 Fit       0.011575
  585 Fit       0.008089
  586 Fit       0.018720
  587 Fit       0.016047
  588 Fit      -0.039246
  589 Fit      -0.036277
  590 Fit      -0.035419
  591 Fit      -0.036237
  592 Fit      -0.039057
  593 Fit      -0.039994
  594 Fit      -0.038409
  595 Fit      -0.027142
  596 Fit      -0.028108
  597 Fit      -0.026917
  598 Fit      -0.025985
  599 Fit      -0.028043
  600 Fit      -0.032716
  601 Fit      -0.036313
  602 Fit      -0.037719
  603 Fit      -0.037209
  604 Fit      -0.034395
  605 Fit      -0.028958
  606 Fit      -0.023391
  607 Fit      -0.028310
  608 Fit      -0.031207
  609 Fit      -0.031630
  610 Fit      -0.028841
  611 Fit      -0.018557
  612 Fit      -0.021058
  613 Fit      -0.017878
  614 Fit      -0.008743
  615 Fit      -0.007018
  616 Fit      -0.005864
  617 Fit      -0.007156
  618 Fit      -0.008896
  619 Fit      -0.009832
  620 Fit      -0.008771
  621 Fit      -0.004125
  622 Fit      -0.000468
  623 Fit      -0.008937
  624 Fit      -0.008843
  625 Fit      -0.007361
  626 Fit      -0.006666
  627 Fit      -0.006325
  628 Fit      -0.000688
  629 Fit      -0.007138
  630 Fit      -0.005689
  631 Fit      -0.003827
  632 Fit      -0.003266
  633 Fit      -0.003952
  634 Fit      -0.004024
  635 Fit       0.001617
  636 Fit      -0.003727
  637 Fit      -0.003364
  638 Fit      -0.001446
  639 Fit      -0.000231
  640 Fit      -0.000707
  641 Fit      -0.002179
  642 Fit      -0.002479
  643 Fit       0.001273
  644 Fit       0.000599
  645 Fit      -0.000910
  646 Fit       0.000171
  647 Fit       0.000949
  648 Fit       0.000189
  649 Fit      -0.001529
  650 Fit      -0.002141
  651 Fit      -0.000686
  652 Fit       0.004915
  653 Fit       0.002430
  654 Fit       0.000089
  655 Fit       0.000130
  656 Fit      -0.000347
  657 Fit      -0.001802
  658 Fit      -0.002684
  659 Fit      -0.002227
  660 Fit       0.000625
  661 Fit       0.001399
  662 Fit       0.006393
  663 Fit       0.000492
  664 Fit      -0.001214
  665 Fit      -0.002294
  666 Fit      -0.003219
  667 Fit      -0.002200
  668 Fit       0.000737
  669 Fit       0.005067
  670 Fit       0.005609
  671 Fit       0.000090
  672 Fit      -0.002479
  673 Fit       0.000081
  674 Fit       0.009667
  675 Fit       0.005262
  676 Fit       0.014103
  677 Fit       0.015966
  678 Fit       0.010975
  679 Fit       0.015563
  680 Fit       0.017500
  681 Fit       0.012796
  682 Fit       0.014108
  683 Fit       0.015491
  684 Fit       0.011092
  685 Fit       0.010005
  686 Fit       0.006071
  687 Fit       0.008377
  688 Fit       0.004405
  689 Fit       0.013842
  690 Fit       0.010962
  691 Fit       0.006214
  692 Fit      -0.003137
  693 Fit       0.015943
  694 Fit       0.012922
  695 Fit       0.009115
  696 Fit       0.002210
  697 Fit       0.014137
  698 Fit       0.011107
  699 Fit       0.006265
  700 Fit      -0.003582
  701 Fit       0.004812
  702 Fit      -0.005221
  703 Fit      -0.005158
  704 Fit      -0.008228
  705 Fit       0.003842
  706 Fit       0.009708
  707 Fit       0.001887
  708 Fit       0.012563
  709 Fit       0.000838
  710 Fit       0.014325
  711 Fit       0.026205
  712 Fit       0.015138
  713 Fit      -0.005634
  714 Fit      -0.016615
  715 Fit       0.005168
  716 Fit       0.003686
  717 Fit       0.000114
  718 Fit      -0.008140
  719 Fit       0.009877
  720 Fit       0.009517
  721 Fit       0.008415
  722 Fit       0.006124
  723 Fit       0.003621
  724 Fit       0.012785
  725 Fit       0.012559
  726 Fit       0.012141
  727 Fit       0.011800
  728 Fit       0.015036
  729 Fit       0.015093
  730 Fit      -0.013832
  731 Fit      -0.001460
  732 Fit       0.001693
  733 Fit      -0.003330
  734 Fit       0.006745
  735 Fit       0.007773
  736 Fit       0.008606
  737 Fit       0.008089
  738 Fit       0.005738
  739 Fit       0.001561
  740 Fit       0.013972
  741 Fit       0.012264
  742 Fit       0.011824
  743 Fit       0.010922
  744 Fit       0.009472
  745 Fit       0.014470
  746 Fit       0.013374
  747 Fit       0.023928
  748 Fit       0.018030
  749 Fit       0.024145
  750 Fit       0.019154
  751 Fit       0.016966
  752 Fit       0.016014
  753 Fit       0.026859
  754 Fit       0.020905
  755 Fit       0.019256
  756 Fit       0.021370
  757 Fit       0.030658
  758 Fit       0.025096
  759 Fit       0.004405
  760 Fit       0.004735
  761 Fit       0.010724
  762 Fit       0.009058
  763 Fit       0.012097
  764 Fit       0.014993
  765 Fit       0.011469
  766 Fit       0.019178
  767 Fit      -0.020820
  768 Fit      -0.007126
  769 Fit      -0.013533
  770 Fit      -0.024785
  771 Fit      -0.009784
  772 Fit      -0.010941
  773 Fit      -0.006263
  774 Fit      -0.007567
  775 Fit      -0.002973
  776 Fit       0.025135
  777 Fit       0.028109
  778 Fit       0.032940
  779 Fit       0.030908
  780 Fit       0.032510
  781 Fit       0.035969
  782 Fit       0.035205
  783 Fit       0.029928
  784 Fit       0.029720
  785 Fit       0.033462
  786 Fit      -0.004666
  787 Fit       0.000306
  788 Fit      -0.008041
  789 Fit      -0.002500
  790 Fit       0.006537
  791 Fit       0.003771
  792 Fit       0.013243
  793 Fit       0.011781
  794 Fit       0.006749
  795 Fit       0.006008
  796 Fit       0.004684
  797 Fit       0.002944
  798 Fit       0.001342
  799 Fit       0.001494
  800 Fit      -0.006181
  801 Fit      -0.000571
  802 Fit      -0.003500
  803 Fit      -0.010348
  804 Fit      -0.007950
  805 Fit       0.005941
  806 Fit      -0.001176
  807 Fit       0.011931
  808 Fit       0.006203
  809 Fit       0.004646
  810 Fit      -0.000466
  811 Fit       0.001892
  812 Fit      -0.000639
  813 Fit      -0.000432
  814 Fit      -0.012398
  815 Fit      -0.013107
  816 Fit      -0.013680
  817 Fit      -0.013653
  818 Fit      -0.009777
  819 Fit      -0.009559
  820 Fit       0.010854
  821 Fit       0.002501
  822 Fit       0.009163
  823 Fit       0.010712
  824 Fit      -0.010553
  825 Fit      -0.016641
  826 Fit       0.006773
  827 Fit       0.014814
  828 Fit      -0.007066
  829 Fit      -0.009198
  830 Fit       0.005079
  831 Fit      -0.003593
  832 Fit      -0.003489
  833 Fit       0.009025
  834 Fit      -0.009522
  835 Fit       0.003631
  836 Fit       0.013906
  837 Fit       0.007441
  838 Fit       0.017255
  839 Fit       0.014094
  840 Fit       0.011825
  841 Fit       0.010481
  842 Fit       0.010006
  843 Fit       0.014001
  844 Fit       0.012554
  845 Fit       0.011978
  846 Fit       0.012769
  847 Fit       0.014353
  848 Fit       0.014916
  849 Fit       0.016603
  850 Fit      -0.003440
  851 Fit       0.000983
  852 Fit      -0.012383
  853 Fit      -0.012324
  854 Fit      -0.015303
  855 Fit      -0.013843
  856 Fit      -0.012648
  857 Fit      -0.017553
  858 Fit      -0.016454
  859 Fit      -0.014379
  860 Fit      -0.019479
  861 Fit      -0.018279
  862 Fit      -0.011809
  863 Fit      -0.010212
  864 Fit      -0.018481
  865 Fit      -0.020170
  866 Fit      -0.015352
  867 Fit      -0.010088
  868 Fit      -0.017617
  869 Fit      -0.018657
  870 Fit      -0.012901
  871 Fit      -0.012584
  872 Fit      -0.015853
  873 Fit      -0.012332
  874 Fit      -0.001707
  875 Fit      -0.009161
  876 Fit      -0.011182
  877 Fit      -0.005677
  878 Fit      -0.005776
  879 Fit      -0.004401
  880 Fit       0.000415
  881 Fit      -0.001166
  882 Fit       0.003595
  883 Fit       0.010829
  884 Fit       0.010464
  885 Fit       0.018855
  886 Fit       0.016561
  887 Fit      -0.032950
  888 Fit      -0.030836
  889 Fit      -0.030167
  890 Fit      -0.030657
  891 Fit      -0.032716
  892 Fit      -0.033629
  893 Fit      -0.032470
  894 Fit      -0.025001
  895 Fit      -0.025375
  896 Fit      -0.024718
  897 Fit      -0.023815
  898 Fit      -0.024352
  899 Fit      -0.026860
  900 Fit      -0.029765
  901 Fit      -0.031654
  902 Fit      -0.032240
  903 Fit      -0.031515
  904 Fit      -0.029265
  905 Fit      -0.026126
  906 Fit      -0.013750
  907 Fit      -0.011612
  908 Fit      -0.020587
  909 Fit      -0.024466
  910 Fit      -0.027145
  911 Fit      -0.028382
  912 Fit      -0.027990
  913 Fit      -0.025309
  914 Fit      -0.017079
  915 Fit      -0.020632
  916 Fit      -0.021796
  917 Fit      -0.020346
  918 Fit      -0.010069
  919 Fit      -0.011621
  920 Fit      -0.007804
  921 Fit      -0.006017
  922 Fit      -0.005731
  923 Fit      -0.007475
  924 Fit      -0.008811
  925 Fit      -0.008722
  926 Fit      -0.007482
  927 Fit      -0.003508
  928 Fit      -0.001353
  929 Fit      -0.009120
  930 Fit      -0.008258
  931 Fit      -0.006914
  932 Fit      -0.006066
  933 Fit      -0.005326
  934 Fit      -0.000537
  935 Fit      -0.007516
  936 Fit      -0.006053
  937 Fit      -0.004590
  938 Fit      -0.003929
  939 Fit      -0.003908
  940 Fit      -0.003323
  941 Fit       0.001990
  942 Fit      -0.004980
  943 Fit      -0.003779
  944 Fit      -0.002367
  945 Fit      -0.001640
  946 Fit      -0.001834
  947 Fit      -0.002313
  948 Fit      -0.001688
  949 Fit       0.002788
  950 Fit      -0.001651
  951 Fit      -0.001850
  952 Fit      -0.000984
  953 Fit      -0.000200
  954 Fit      -0.000154
  955 Fit      -0.000816
  956 Fit      -0.001464
  957 Fit      -0.000843
  958 Fit       0.001730
  959 Fit       0.001132
  960 Fit      -0.000041
  961 Fit       0.000193
  962 Fit       0.000260
  963 Fit      -0.000374
  964 Fit      -0.001228
  965 Fit      -0.001056
  966 Fit       0.000109
  967 Fit       0.003622
  968 Fit       0.003474
  969 Fit       0.000675
  970 Fit      -0.000010
  971 Fit      -0.000562
  972 Fit      -0.001378
  973 Fit      -0.001575
  974 Fit      -0.000865
  975 Fit       0.001054
  976 Fit       0.001765
  977 Fit       0.006592
  978 Fit       0.001591
  979 Fit      -0.000374
  980 Fit      -0.001355
  981 Fit      -0.001787
  982 Fit      -0.000547
  983 Fit       0.001680
  984 Fit       0.005404
  985 Fit       0.006057
  986 Fit       0.001548
  987 Fit      -0.000789
  988 Fit       0.001533
  989 Fit       0.006970
  990 Fit       0.010816
  991 Fit       0.012346
  992 Fit       0.008046
  993 Fit       0.012753
  994 Fit       0.014559
  995 Fit       0.010354
  996 Fit       0.012808
  997 Fit       0.014464
  998 Fit       0.010451
  999 Fit       0.011083
 1000 Fit       0.012157
 1001 Fit       0.008442
 1002 Fit       0.005784
 1003 Fit       0.002397
 1004 Fit       0.010588
 1005 Fit       0.008089
 1006 Fit       0.003898
 1007 Fit      -0.003882
 1008 Fit       0.013316
 1009 Fit       0.010658
 1010 Fit       0.007517
 1011 Fit       0.002323
 1012 Fit      -0.007432
 1013 Fit       0.013519
 1014 Fit       0.010792
 1015 Fit       0.007625
 1016 Fit       0.002378
 1017 Fit       0.011173
 1018 Fit       0.008527
 1019 Fit       0.004256
 1020 Fit       0.000081
 1021 Fit      -0.005108
 1022 Fit       0.005341
 1023 Fit      -0.001296
 1024 Fit       0.009605
 1025 Fit       0.002096
 1026 Fit       0.014132
 1027 Fit       0.001971
 1028 Fit      -0.000222
 1029 Fit      -0.004691
 1030 Fit       0.006341
 1031 Fit       0.005211
 1032 Fit       0.003003
 1033 Fit      -0.000825
 1034 Fit       0.009559
 1035 Fit       0.009022
 1036 Fit       0.008040
 1037 Fit       0.006760
 1038 Fit       0.006532
 1039 Fit       0.012204
 1040 Fit       0.011617
 1041 Fit       0.011305
 1042 Fit       0.011532
 1043 Fit       0.014380
 1044 Fit      -0.015671
 1045 Fit      -0.005116
 1046 Fit      -0.001616
 1047 Fit      -0.006146
 1048 Fit       0.003607
 1049 Fit       0.005046
 1050 Fit       0.004795
 1051 Fit       0.002655
 1052 Fit      -0.001839
 1053 Fit       0.009801
 1054 Fit       0.008839
 1055 Fit       0.008859
 1056 Fit       0.008438
 1057 Fit       0.007305
 1058 Fit       0.005738
 1059 Fit       0.012175
 1060 Fit       0.011290
 1061 Fit       0.010672
 1062 Fit       0.009931
 1063 Fit       0.023851
 1064 Fit       0.017824
 1065 Fit       0.015346
 1066 Fit       0.022263
 1067 Fit       0.017914
 1068 Fit       0.015953
 1069 Fit       0.015133
 1070 Fit       0.015327
 1071 Fit       0.031730
 1072 Fit       0.024048
 1073 Fit       0.019182
 1074 Fit       0.017907
 1075 Fit       0.019873
 1076 Fit       0.027053
 1077 Fit       0.022605
 1078 Fit       0.000990
 1079 Fit       0.005996
 1080 Fit       0.005237
 1081 Fit       0.010970
 1082 Fit       0.008760
 1083 Fit       0.011501
 1084 Fit       0.014104
 1085 Fit       0.010799
 1086 Fit       0.017587
 1087 Fit      -0.021044
 1088 Fit      -0.009531
 1089 Fit      -0.015222
 1090 Fit      -0.011841
 1091 Fit      -0.013348
 1092 Fit      -0.009177
 1093 Fit       0.023183
 1094 Fit       0.022494
 1095 Fit       0.024824
 1096 Fit       0.028850
 1097 Fit       0.026613
 1098 Fit       0.027953
 1099 Fit       0.030696
 1100 Fit       0.030245
 1101 Fit       0.026565
 1102 Fit       0.026010
 1103 Fit       0.028701
 -----------------------------------------------------------------
 Leave Link  602 at Sat Feb 17 21:01:10 2018, MaxMem=   33554432 cpu:       0.4

 Test job not archived.
 1\1\GINC-NODE008\SP\RHF\6-31G(d)\C8H9Cl1N2O1\WULSDORT\17-Feb-2018\0\\#
 HF/6-31G* Geom=AllCheck Guess=Read Pop=(MK,ReadRadii) Integral=(Grid=U
 ltraFine) iop(6/33=2)\\Optimization for frag28-conf2\\0,1\C,0,-1.60584
 57635,-2.9565501314,5.9283771546\C,0,-2.6020488742,-2.8807119774,4.955
 8158759\C,0,-1.2018530258,-1.8444365405,3.4834506478\C,0,-0.1147176605
 ,-1.8490039414,4.3688865256\C,0,-0.3543990827,-2.4334028531,5.61782697
 21\C,0,1.9000148323,-0.7170946744,1.6734695129\C,0,1.8083202321,0.3243
 520084,0.568827634\C,0,1.239301642,-1.2750349276,3.9909329998\N,0,-2.4
 157379538,-2.3375304506,3.748580082\N,0,1.215545983,-0.4122046884,2.82
 5861022\O,0,2.5363956661,-1.7525834776,1.5390445632\Cl,0,0.9247765401,
 -2.5278934586,6.8215205723\H,0,-1.7955834033,-3.4087672167,6.895439194
 8\H,0,-3.593968476,-3.2786374478,5.1613983562\H,0,-1.0674018232,-1.409
 1218366,2.4962159434\H,0,2.8199204627,0.6488464371,0.3068395573\H,0,1.
 3766305324,-0.144798007,-0.3205412625\H,0,1.209738225,1.2019460929,0.8
 329186654\H,0,1.6577698582,-0.7339760213,4.8479197536\H,0,1.9387693082
 ,-2.0829280007,3.7503645138\H,0,0.7442131421,0.4784551589,2.8947506079
 \\Version=AM64L-G09RevC.01\State=1-A\HF=-951.4387818\RMSD=3.699e-09\Di
 pole=-0.5248511,1.2845894,0.419668\Quadrupole=-5.8722529,5.1696956,0.7
 025574,5.1016683,-0.8441534,-7.9164808\PG=C01 [X(C8H9Cl1N2O1)]\\@


 IT IS BY LOGIC THAT WE PROVE, BUT BY INTUITION THAT WE DISCOVER.
     -- J.H.POINCARE (1854-1912)
 Job cpu time:  0 days  0 hours  2 minutes 10.9 seconds.
 File lengths (MBytes):  RWF=     26 Int=      0 D2E=      0 Chk=      4 Scr=      1
 Normal termination of Gaussian 09 at Sat Feb 17 21:01:10 2018.
