 Entering Gaussian System, Link 0=g09
 Initial command:
 /home/fb_chem/chemsoft/lx24-amd64/Gaussian_09_C.01_NBO_3.1_64_istanbul-64/g09/l1.exe /local/2397373.1.parallel_long/Gau-26999.inp -scrdir=/local/2397373.1.parallel_long/
 Entering Link 1 = /home/fb_chem/chemsoft/lx24-amd64/Gaussian_09_C.01_NBO_3.1_64_istanbul-64/g09/l1.exe PID=     27000.
  
 Copyright (c) 1988,1990,1992,1993,1995,1998,2003,2009,2011,
            Gaussian, Inc.  All Rights Reserved.
  
 This is part of the Gaussian(R) 09 program.  It is based on
 the Gaussian(R) 03 system (copyright 2003, Gaussian, Inc.),
 the Gaussian(R) 98 system (copyright 1998, Gaussian, Inc.),
 the Gaussian(R) 94 system (copyright 1995, Gaussian, Inc.),
 the Gaussian 92(TM) system (copyright 1992, Gaussian, Inc.),
 the Gaussian 90(TM) system (copyright 1990, Gaussian, Inc.),
 the Gaussian 88(TM) system (copyright 1988, Gaussian, Inc.),
 the Gaussian 86(TM) system (copyright 1986, Carnegie Mellon
 University), and the Gaussian 82(TM) system (copyright 1983,
 Carnegie Mellon University). Gaussian is a federally registered
 trademark of Gaussian, Inc.
  
 This software contains proprietary and confidential information,
 including trade secrets, belonging to Gaussian, Inc.
  
 This software is provided under written license and may be
 used, copied, transmitted, or stored only in accord with that
 written license.
  
 The following legend is applicable only to US Government
 contracts under FAR:
  
                    RESTRICTED RIGHTS LEGEND
  
 Use, reproduction and disclosure by the US Government is
 subject to restrictions as set forth in subparagraphs (a)
 and (c) of the Commercial Computer Software - Restricted
 Rights clause in FAR 52.227-19.
  
 Gaussian, Inc.
 340 Quinnipiac St., Bldg. 40, Wallingford CT 06492
  
  
 ---------------------------------------------------------------
 Warning -- This program may not be used in any manner that
 competes with the business of Gaussian, Inc. or will provide
 assistance to any competitor of Gaussian, Inc.  The licensee
 of this program is prohibited from giving any competitor of
 Gaussian, Inc. access to this program.  By using this program,
 the user acknowledges that Gaussian, Inc. is engaged in the
 business of creating and licensing software in the field of
 computational chemistry and represents and warrants to the
 licensee that it is not a competitor of Gaussian, Inc. and that
 it will not use this program in any manner prohibited above.
 ---------------------------------------------------------------
  

 Cite this work as:
 Gaussian 09, Revision C.01,
 M. J. Frisch, G. W. Trucks, H. B. Schlegel, G. E. Scuseria, 
 M. A. Robb, J. R. Cheeseman, G. Scalmani, V. Barone, B. Mennucci, 
 G. A. Petersson, H. Nakatsuji, M. Caricato, X. Li, H. P. Hratchian, 
 A. F. Izmaylov, J. Bloino, G. Zheng, J. L. Sonnenberg, M. Hada, 
 M. Ehara, K. Toyota, R. Fukuda, J. Hasegawa, M. Ishida, T. Nakajima, 
 Y. Honda, O. Kitao, H. Nakai, T. Vreven, J. A. Montgomery, Jr., 
 J. E. Peralta, F. Ogliaro, M. Bearpark, J. J. Heyd, E. Brothers, 
 K. N. Kudin, V. N. Staroverov, T. Keith, R. Kobayashi, J. Normand, 
 K. Raghavachari, A. Rendell, J. C. Burant, S. S. Iyengar, J. Tomasi, 
 M. Cossi, N. Rega, J. M. Millam, M. Klene, J. E. Knox, J. B. Cross, 
 V. Bakken, C. Adamo, J. Jaramillo, R. Gomperts, R. E. Stratmann, 
 O. Yazyev, A. J. Austin, R. Cammi, C. Pomelli, J. W. Ochterski, 
 R. L. Martin, K. Morokuma, V. G. Zakrzewski, G. A. Voth, 
 P. Salvador, J. J. Dannenberg, S. Dapprich, A. D. Daniels, 
 O. Farkas, J. B. Foresman, J. V. Ortiz, J. Cioslowski, 
 and D. J. Fox, Gaussian, Inc., Wallingford CT, 2010.
 
 ******************************************
 Gaussian 09:  AM64L-G09RevC.01 23-Sep-2011
                16-Feb-2018 
 ******************************************
 %nprocs=4
 Will use up to    4 processors via shared memory.
 %chk=frag28-conf0.chk
 ---------------------------------------------------------
 #B3LYP/6-31G* Integral=(Grid=UltraFine) freq Opt pop=none
 ---------------------------------------------------------
 1/14=-1,18=20,19=15,26=3,38=1/1,3;
 2/9=110,12=2,17=6,18=5,40=1/2;
 3/5=1,6=6,7=1,11=2,16=1,25=1,30=1,71=1,74=-5,75=-5/1,2,3;
 4//1;
 5/5=2,38=5/2;
 7//1,2,3,16;
 1/14=-1,18=20,19=15/3(2);
 2/9=110/2;
 99//99;
 2/9=110/2;
 3/5=1,6=6,7=1,11=2,16=1,25=1,30=1,71=1,74=-5,75=-5/1,2,3;
 4/5=5,16=3/1;
 5/5=2,38=5/2;
 7//1,2,3,16;
 1/14=-1,18=20,19=15/3(-5);
 2/9=110/2;
 99/9=1/99;
 -----------------------------
 Optimization for frag28-conf0
 -----------------------------
 Charge =  0 Multiplicity = 1
 Symbolic Z-Matrix:
 C                    -2.39586  -2.65499   4.75472 
 C                    -1.77304  -3.87718   4.59571 
 C                     0.28886  -2.87552   4.33314 
 C                    -0.23335  -1.59589   4.4887 
 C                    -1.61223  -1.50549   4.69691 
 C                     1.38641   1.31576   2.79026 
 C                     1.19107   1.82496   1.38851 
 C                     0.67571  -0.40791   4.39998 
 N                    -0.44513  -4.01516   4.38436 
 N                     0.62329   0.21799   3.09674 
 O                     2.18242   1.82551   3.57621 
 Cl                   -2.40533   0.01898   4.88286 
 H                    -3.46732  -2.6065    4.91708 
 H                    -2.34581  -4.80103   4.6335 
 H                     1.35265  -3.02631   4.15453 
 H                     0.15001   1.70934   1.07383 
 H                     1.44983   2.88656   1.34737 
 H                     1.83895   1.26522   0.70884 
 H                     0.42951   0.33965   5.16293 
 H                     1.71632  -0.69846   4.59112 
 H                    -0.01234  -0.15306   2.3957 
 

 GradGradGradGradGradGradGradGradGradGradGradGradGradGradGradGradGradGrad
 Berny optimization.
 Initialization pass.
                           ----------------------------
                           !    Initial Parameters    !
                           ! (Angstroms and Degrees)  !
 --------------------------                            --------------------------
 ! Name  Definition              Value          Derivative Info.                !
 --------------------------------------------------------------------------------
 ! R1    R(1,2)                  1.3809         estimate D2E/DX2                !
 ! R2    R(1,5)                  1.3924         estimate D2E/DX2                !
 ! R3    R(1,13)                 1.0848         estimate D2E/DX2                !
 ! R4    R(2,9)                  1.3517         estimate D2E/DX2                !
 ! R5    R(2,14)                 1.0876         estimate D2E/DX2                !
 ! R6    R(3,4)                  1.3908         estimate D2E/DX2                !
 ! R7    R(3,9)                  1.3565         estimate D2E/DX2                !
 ! R8    R(3,15)                 1.0892         estimate D2E/DX2                !
 ! R9    R(4,5)                  1.3974         estimate D2E/DX2                !
 ! R10   R(4,8)                  1.4985         estimate D2E/DX2                !
 ! R11   R(5,12)                 1.7285         estimate D2E/DX2                !
 ! R12   R(6,7)                  1.5041         estimate D2E/DX2                !
 ! R13   R(6,10)                 1.3716         estimate D2E/DX2                !
 ! R14   R(6,11)                 1.2293         estimate D2E/DX2                !
 ! R15   R(7,16)                 1.0937         estimate D2E/DX2                !
 ! R16   R(7,17)                 1.0935         estimate D2E/DX2                !
 ! R17   R(7,18)                 1.0932         estimate D2E/DX2                !
 ! R18   R(8,10)                 1.4467         estimate D2E/DX2                !
 ! R19   R(8,19)                 1.0962         estimate D2E/DX2                !
 ! R20   R(8,20)                 1.0972         estimate D2E/DX2                !
 ! R21   R(10,21)                1.0164         estimate D2E/DX2                !
 ! A1    A(2,1,5)              118.1675         estimate D2E/DX2                !
 ! A2    A(2,1,13)             120.1512         estimate D2E/DX2                !
 ! A3    A(5,1,13)             121.6811         estimate D2E/DX2                !
 ! A4    A(1,2,9)              123.4654         estimate D2E/DX2                !
 ! A5    A(1,2,14)             120.6807         estimate D2E/DX2                !
 ! A6    A(9,2,14)             115.8537         estimate D2E/DX2                !
 ! A7    A(4,3,9)              124.4419         estimate D2E/DX2                !
 ! A8    A(4,3,15)             120.8269         estimate D2E/DX2                !
 ! A9    A(9,3,15)             114.7311         estimate D2E/DX2                !
 ! A10   A(3,4,5)              116.5304         estimate D2E/DX2                !
 ! A11   A(3,4,8)              119.6691         estimate D2E/DX2                !
 ! A12   A(5,4,8)              123.7881         estimate D2E/DX2                !
 ! A13   A(1,5,4)              120.5373         estimate D2E/DX2                !
 ! A14   A(1,5,12)             117.7373         estimate D2E/DX2                !
 ! A15   A(4,5,12)             121.7247         estimate D2E/DX2                !
 ! A16   A(7,6,10)             114.0119         estimate D2E/DX2                !
 ! A17   A(7,6,11)             122.6526         estimate D2E/DX2                !
 ! A18   A(10,6,11)            123.3175         estimate D2E/DX2                !
 ! A19   A(6,7,16)             110.8527         estimate D2E/DX2                !
 ! A20   A(6,7,17)             109.4517         estimate D2E/DX2                !
 ! A21   A(6,7,18)             109.2157         estimate D2E/DX2                !
 ! A22   A(16,7,17)            108.4847         estimate D2E/DX2                !
 ! A23   A(16,7,18)            109.337          estimate D2E/DX2                !
 ! A24   A(17,7,18)            109.4796         estimate D2E/DX2                !
 ! A25   A(4,8,10)             111.9834         estimate D2E/DX2                !
 ! A26   A(4,8,19)             111.2965         estimate D2E/DX2                !
 ! A27   A(4,8,20)             110.8004         estimate D2E/DX2                !
 ! A28   A(10,8,19)            108.8935         estimate D2E/DX2                !
 ! A29   A(10,8,20)            107.8108         estimate D2E/DX2                !
 ! A30   A(19,8,20)            105.8046         estimate D2E/DX2                !
 ! A31   A(2,9,3)              116.8539         estimate D2E/DX2                !
 ! A32   A(6,10,8)             121.8288         estimate D2E/DX2                !
 ! A33   A(6,10,21)            119.076          estimate D2E/DX2                !
 ! A34   A(8,10,21)            119.0802         estimate D2E/DX2                !
 ! D1    D(5,1,2,9)             -0.1495         estimate D2E/DX2                !
 ! D2    D(5,1,2,14)          -179.9978         estimate D2E/DX2                !
 ! D3    D(13,1,2,9)           179.7026         estimate D2E/DX2                !
 ! D4    D(13,1,2,14)           -0.1456         estimate D2E/DX2                !
 ! D5    D(2,1,5,4)             -0.2522         estimate D2E/DX2                !
 ! D6    D(2,1,5,12)           179.4513         estimate D2E/DX2                !
 ! D7    D(13,1,5,4)           179.8981         estimate D2E/DX2                !
 ! D8    D(13,1,5,12)           -0.3984         estimate D2E/DX2                !
 ! D9    D(1,2,9,3)              0.127          estimate D2E/DX2                !
 ! D10   D(14,2,9,3)           179.982          estimate D2E/DX2                !
 ! D11   D(9,3,4,5)             -0.6842         estimate D2E/DX2                !
 ! D12   D(9,3,4,8)           -179.455          estimate D2E/DX2                !
 ! D13   D(15,3,4,5)           179.2143         estimate D2E/DX2                !
 ! D14   D(15,3,4,8)             0.4435         estimate D2E/DX2                !
 ! D15   D(4,3,9,2)              0.3111         estimate D2E/DX2                !
 ! D16   D(15,3,9,2)          -179.5929         estimate D2E/DX2                !
 ! D17   D(3,4,5,1)              0.634          estimate D2E/DX2                !
 ! D18   D(3,4,5,12)          -179.0575         estimate D2E/DX2                !
 ! D19   D(8,4,5,1)            179.3489         estimate D2E/DX2                !
 ! D20   D(8,4,5,12)            -0.3426         estimate D2E/DX2                !
 ! D21   D(3,4,8,10)            98.9692         estimate D2E/DX2                !
 ! D22   D(3,4,8,19)          -138.8796         estimate D2E/DX2                !
 ! D23   D(3,4,8,20)           -21.4422         estimate D2E/DX2                !
 ! D24   D(5,4,8,10)           -79.7075         estimate D2E/DX2                !
 ! D25   D(5,4,8,19)            42.4437         estimate D2E/DX2                !
 ! D26   D(5,4,8,20)           159.8811         estimate D2E/DX2                !
 ! D27   D(10,6,7,16)           35.524          estimate D2E/DX2                !
 ! D28   D(10,6,7,17)          155.1503         estimate D2E/DX2                !
 ! D29   D(10,6,7,18)          -85.0071         estimate D2E/DX2                !
 ! D30   D(11,6,7,16)         -145.9722         estimate D2E/DX2                !
 ! D31   D(11,6,7,17)          -26.3459         estimate D2E/DX2                !
 ! D32   D(11,6,7,18)           93.4967         estimate D2E/DX2                !
 ! D33   D(7,6,10,8)          -179.842          estimate D2E/DX2                !
 ! D34   D(7,6,10,21)           -1.2679         estimate D2E/DX2                !
 ! D35   D(11,6,10,8)            1.6655         estimate D2E/DX2                !
 ! D36   D(11,6,10,21)        -179.7603         estimate D2E/DX2                !
 ! D37   D(4,8,10,6)          -179.3421         estimate D2E/DX2                !
 ! D38   D(4,8,10,21)            2.0838         estimate D2E/DX2                !
 ! D39   D(19,8,10,6)           57.1441         estimate D2E/DX2                !
 ! D40   D(19,8,10,21)        -121.43           estimate D2E/DX2                !
 ! D41   D(20,8,10,6)          -57.2062         estimate D2E/DX2                !
 ! D42   D(20,8,10,21)         124.2197         estimate D2E/DX2                !
 --------------------------------------------------------------------------------
 Trust Radius=3.00D-01 FncErr=1.00D-07 GrdErr=1.00D-06
 Number of steps in this run=    107 maximum allowed number of steps=    126.
 GradGradGradGradGradGradGradGradGradGradGradGradGradGradGradGradGradGrad

                          Input orientation:                          
 ---------------------------------------------------------------------
 Center     Atomic      Atomic             Coordinates (Angstroms)
 Number     Number       Type             X           Y           Z
 ---------------------------------------------------------------------
      1          6           0       -2.395862   -2.654993    4.754718
      2          6           0       -1.773044   -3.877181    4.595713
      3          6           0        0.288863   -2.875519    4.333142
      4          6           0       -0.233354   -1.595888    4.488697
      5          6           0       -1.612227   -1.505487    4.696909
      6          6           0        1.386406    1.315755    2.790263
      7          6           0        1.191070    1.824957    1.388509
      8          6           0        0.675710   -0.407914    4.399976
      9          7           0       -0.445134   -4.015157    4.384355
     10          7           0        0.623289    0.217989    3.096739
     11          8           0        2.182415    1.825511    3.576212
     12         17           0       -2.405326    0.018978    4.882863
     13          1           0       -3.467325   -2.606496    4.917076
     14          1           0       -2.345809   -4.801026    4.633500
     15          1           0        1.352651   -3.026310    4.154531
     16          1           0        0.150006    1.709345    1.073831
     17          1           0        1.449826    2.886556    1.347365
     18          1           0        1.838948    1.265223    0.708837
     19          1           0        0.429512    0.339648    5.162926
     20          1           0        1.716322   -0.698460    4.591124
     21          1           0       -0.012336   -0.153058    2.395699
 ---------------------------------------------------------------------
                    Distance matrix (angstroms):
                    1          2          3          4          5
     1  C    0.000000
     2  C    1.380915   0.000000
     3  C    2.726556   2.307321   0.000000
     4  C    2.422584   2.754341   1.390815   0.000000
     5  C    1.392404   2.379292   2.371383   1.397432   0.000000
     6  C    5.825073   6.341006   4.599115   3.739781   4.537236
     7  C    6.653375   7.182374   5.619548   4.831390   5.467709
     8  C    3.822272   4.250943   2.498638   1.498516   2.554895
     9  N    2.406772   1.351686   1.356521   2.430761   2.785361
    10  N    4.485331   4.975917   3.348183   2.441625   3.244757
    11  O    6.513403   7.014680   5.124273   4.286554   5.172120
    12  Cl   2.677057   3.957561   3.992363   2.735072   1.728462
    13  H    1.084778   2.142078   3.810814   3.415173   2.168429
    14  H    2.150036   1.087648   3.277085   3.841399   3.376794
    15  H    3.814375   3.269342   1.089167   2.161756   3.376030
    16  H    6.251225   6.878302   5.627021   4.767896   5.154348
    17  H    7.556993   8.166198   6.592739   5.726549   6.315509
    18  H    7.047756   7.389087   5.717001   5.173754   5.957530
    19  H    4.137299   4.791098   3.323495   2.154129   2.791127
    20  H    4.556846   4.720165   2.616062   2.148745   3.426620
    21  H    4.183999   4.670037   3.355027   2.551715   3.111959
                    6          7          8          9         10
     6  C    0.000000
     7  C    1.504113   0.000000
     8  C    2.463189   3.784209   0.000000
     9  N    5.857840   6.764553   3.777398   0.000000
    10  N    1.371629   2.413041   1.446697   4.551814   0.000000
    11  O    1.229308   2.401835   2.817257   6.455271   2.290174
    12  Cl   4.520822   5.329740   3.147729   4.512771   3.521697
    13  H    6.592882   7.334112   4.718675   3.376648   5.293814
    14  H    7.398781   8.181878   5.336997   2.071769   6.030563
    15  H    4.551471   5.586750   2.715601   2.064624   3.489465
    16  H    2.151682   1.093710   3.977737   6.639554   2.557399
    17  H    2.133868   1.093453   4.557546   7.774820   3.296168
    18  H    2.130653   1.093162   4.216280   6.827070   2.876908
    19  H    2.738241   4.127025   1.096154   4.509490   2.078817
    20  H    2.721949   4.110993   1.097191   3.964230   2.065863
    21  H    2.066295   2.524908   2.134359   4.365533   1.016441
                   11         12         13         14         15
    11  O    0.000000
    12  Cl   5.100811   0.000000
    13  H    7.304805   2.832336   0.000000
    14  H    8.095287   4.826817   2.480761   0.000000
    15  H    4.956120   4.891486   4.897948   4.130089   0.000000
    16  H    3.225847   4.888331   6.817778   7.828490   5.776113
    17  H    2.574929   5.965312   8.191144   9.181745   6.546114
    18  H    2.941722   6.081898   7.801027   8.349524   5.525083
    19  H    2.792512   2.866630   4.891374   5.865937   3.633004
    20  H    2.760022   4.193782   5.533267   5.773539   2.396195
    21  H    3.182025   3.455717   4.930888   5.661842   3.634867
                   16         17         18         19         20
    16  H    0.000000
    17  H    1.774874   0.000000
    18  H    1.784094   1.785456   0.000000
    19  H    4.321445   4.699605   4.762574   0.000000
    20  H    4.541169   4.842038   4.352383   1.749431   0.000000
    21  H    2.289592   3.532163   2.878242   2.845266   2.847036
                   21
    21  H    0.000000
 Stoichiometry    C8H9ClN2O
 Framework group  C1[X(C8H9ClN2O)]
 Deg. of freedom    57
 Full point group                 C1      NOp   1
 Largest Abelian subgroup         C1      NOp   1
 Largest concise Abelian subgroup C1      NOp   1
                         Standard orientation:                         
 ---------------------------------------------------------------------
 Center     Atomic      Atomic             Coordinates (Angstroms)
 Number     Number       Type             X           Y           Z
 ---------------------------------------------------------------------
      1          6           0        2.790755    0.509035    0.377978
      2          6           0        3.330955   -0.757615    0.481465
      3          6           0        1.368480   -1.733770   -0.239329
      4          6           0        0.729409   -0.507441   -0.387882
      5          6           0        1.474283    0.628420   -0.059558
      6          6           0       -2.975352   -0.251559    0.053971
      7          6           0       -3.769738   -0.075581    1.319017
      8          6           0       -0.694767   -0.464599   -0.852034
      9          7           0        2.648465   -1.885638    0.183429
     10          7           0       -1.618669   -0.302529    0.249360
     11          8           0       -3.503391   -0.367834   -1.050046
     12         17           0        0.804659    2.217991   -0.171134
     13          1           0        3.386346    1.378153    0.636141
     14          1           0        4.355307   -0.898217    0.818973
     15          1           0        0.849032   -2.664574   -0.463078
     16          1           0       -3.239194    0.569234    2.025372
     17          1           0       -4.732258    0.386599    1.083256
     18          1           0       -3.937561   -1.053670    1.777472
     19          1           0       -0.854695    0.346543   -1.571774
     20          1           0       -0.960551   -1.389094   -1.379765
     21          1           0       -1.251226   -0.202314    1.191748
 ---------------------------------------------------------------------
 Rotational constants (GHZ):      1.3731875      0.4708721      0.3895670
 Standard basis: 6-31G(d) (6D, 7F)
 There are   202 symmetry adapted basis functions of A   symmetry.
 Integral buffers will be    131072 words long.
 Raffenetti 2 integral format.
 Two-electron integral symmetry is turned on.
   202 basis functions,   396 primitive gaussians,   202 cartesian basis functions
    48 alpha electrons       48 beta electrons
       nuclear repulsion energy       751.5223938248 Hartrees.
 NAtoms=   21 NActive=   21 NUniq=   21 SFac= 1.00D+00 NAtFMM=   60 NAOKFM=F Big=F
 One-electron integrals computed using PRISM.
 NBasis=   202 RedAO= T  NBF=   202
 NBsUse=   202 1.00D-06 NBFU=   202
 Harris functional with IExCor=  402 diagonalized for initial guess.
 ExpMin= 1.43D-01 ExpMax= 2.52D+04 ExpMxC= 3.78D+03 IAcc=3 IRadAn=         5 AccDes= 0.00D+00
 HarFok:  IExCor=  402 AccDes= 0.00D+00 IRadAn=         5 IDoV= 1
 ScaDFX=  1.000000  1.000000  1.000000  1.000000
 FoFCou: FMM=F IPFlag=           0 FMFlag=      100000 FMFlg1=           0
         NFxFlg=           0 DoJE=T BraDBF=F KetDBF=T FulRan=T
         Omega=  0.000000  0.000000  1.000000  0.000000  0.000000 ICntrl=     500 IOpCl=  0
         NMat0=    1 NMatS0=    1 NMatT0=    0 NMatD0=    1 NMtDS0=    0 NMtDT0=    0
         I1Cent=           4 NGrid=           0.
 Petite list used in FoFCou.
 Initial guess orbital symmetries:
       Occupied  (A) (A) (A) (A) (A) (A) (A) (A) (A) (A) (A) (A)
                 (A) (A) (A) (A) (A) (A) (A) (A) (A) (A) (A) (A)
                 (A) (A) (A) (A) (A) (A) (A) (A) (A) (A) (A) (A)
                 (A) (A) (A) (A) (A) (A) (A) (A) (A) (A) (A) (A)
       Virtual   (A) (A) (A) (A) (A) (A) (A) (A) (A) (A) (A) (A)
                 (A) (A) (A) (A) (A) (A) (A) (A) (A) (A) (A) (A)
                 (A) (A) (A) (A) (A) (A) (A) (A) (A) (A) (A) (A)
                 (A) (A) (A) (A) (A) (A) (A) (A) (A) (A) (A) (A)
                 (A) (A) (A) (A) (A) (A) (A) (A) (A) (A) (A) (A)
                 (A) (A) (A) (A) (A) (A) (A) (A) (A) (A) (A) (A)
                 (A) (A) (A) (A) (A) (A) (A) (A) (A) (A) (A) (A)
                 (A) (A) (A) (A) (A) (A) (A) (A) (A) (A) (A) (A)
                 (A) (A) (A) (A) (A) (A) (A) (A) (A) (A) (A) (A)
                 (A) (A) (A) (A) (A) (A) (A) (A) (A) (A) (A) (A)
                 (A) (A) (A) (A) (A) (A) (A) (A) (A) (A) (A) (A)
                 (A) (A) (A) (A) (A) (A) (A) (A) (A) (A) (A) (A)
                 (A) (A) (A) (A) (A) (A) (A) (A) (A) (A)
 The electronic state of the initial guess is 1-A.
 Requested convergence on RMS density matrix=1.00D-08 within 128 cycles.
 Requested convergence on MAX density matrix=1.00D-06.
 Requested convergence on             energy=1.00D-06.
 No special actions if energy rises.
 Integral accuracy reduced to 1.0D-05 until final iterations.
 Initial convergence to 1.0D-05 achieved.  Increase integral accuracy.
 SCF Done:  E(RB3LYP) =  -955.201671434     A.U. after   15 cycles
             Convg  =    0.4388D-08             -V/T =  2.0063
 Calling FoFJK, ICntrl=      2127 FMM=F ISym2X=0 I1Cent= 0 IOpClX= 0 NMat=1 NMatS=1 NMatT=0.
 ***** Axes restored to original set *****
 -------------------------------------------------------------------
 Center     Atomic                   Forces (Hartrees/Bohr)
 Number     Number              X              Y              Z
 -------------------------------------------------------------------
      1        6          -0.004669110    0.003296077    0.000969124
      2        6           0.020247435   -0.008574933   -0.003424662
      3        6          -0.012901600   -0.027140537    0.000691301
      4        6           0.002450522    0.005106710   -0.001228805
      5        6          -0.002613606   -0.007934488   -0.000199913
      6        6           0.004419179    0.001237917    0.008592014
      7        6          -0.003731205    0.005045682   -0.004402613
      8        6           0.008300633    0.005463963    0.007207512
      9        7          -0.000879331    0.012539642    0.000500517
     10        7          -0.003558764    0.004125450   -0.011223777
     11        8          -0.006642425   -0.007222511   -0.000573555
     12       17          -0.003226976    0.012015442    0.001311180
     13        1           0.000333043    0.002400975    0.000216274
     14        1          -0.000328982   -0.000024377    0.000094647
     15        1          -0.000201213    0.002729552    0.000718911
     16        1          -0.000298778   -0.000714727   -0.003776900
     17        1           0.001758243   -0.002048649   -0.000140146
     18        1           0.000456847    0.000775360   -0.003243613
     19        1          -0.001096858   -0.000324272    0.000946882
     20        1          -0.001169376   -0.002819135    0.002059411
     21        1           0.003352322    0.002066859    0.004906212
 -------------------------------------------------------------------
 Cartesian Forces:  Max     0.027140537 RMS     0.006312078

 GradGradGradGradGradGradGradGradGradGradGradGradGradGradGradGradGradGrad
 Berny optimization.
 Internal  Forces:  Max     0.016856084 RMS     0.004157883
 Search for a local minimum.
 Step number   1 out of a maximum of  107
 All quantities printed in internal units (Hartrees-Bohrs-Radians)
 Mixed Optimization -- RFO/linear search
 Second derivative matrix not updated -- first step.
 ITU=  0
     Eigenvalues ---    0.00712   0.00786   0.01074   0.01260   0.01472
     Eigenvalues ---    0.01581   0.02067   0.02152   0.02170   0.02227
     Eigenvalues ---    0.02242   0.02260   0.02313   0.02338   0.05116
     Eigenvalues ---    0.06572   0.07356   0.07509   0.10065   0.13302
     Eigenvalues ---    0.15997   0.16000   0.16000   0.16000   0.16000
     Eigenvalues ---    0.16000   0.16000   0.21927   0.22001   0.22342
     Eigenvalues ---    0.23242   0.24577   0.24992   0.24993   0.25000
     Eigenvalues ---    0.25000   0.31950   0.32534   0.32672   0.33995
     Eigenvalues ---    0.34111   0.34387   0.34417   0.34450   0.34909
     Eigenvalues ---    0.35086   0.35423   0.38681   0.43351   0.44144
     Eigenvalues ---    0.44911   0.46765   0.48301   0.50665   0.52244
     Eigenvalues ---    0.53701   0.91375
 RFO step:  Lambda=-4.98581518D-03 EMin= 7.11534152D-03
 Linear search not attempted -- first point.
 Iteration  1 RMS(Cart)=  0.03627729 RMS(Int)=  0.00062559
 Iteration  2 RMS(Cart)=  0.00085035 RMS(Int)=  0.00008058
 Iteration  3 RMS(Cart)=  0.00000047 RMS(Int)=  0.00008058
 Variable       Old X    -DE/DX   Delta X   Delta X   Delta X     New X
                                 (Linear)    (Quad)   (Total)
    R1        2.60955   0.01170   0.00000   0.02399   0.02396   2.63351
    R2        2.63126   0.00061   0.00000   0.00304   0.00306   2.63432
    R3        2.04993  -0.00019   0.00000  -0.00053  -0.00053   2.04941
    R4        2.55432  -0.01197   0.00000  -0.02282  -0.02287   2.53145
    R5        2.05536   0.00020   0.00000   0.00055   0.00055   2.05591
    R6        2.62826   0.00982   0.00000   0.02011   0.02013   2.64839
    R7        2.56345  -0.01686   0.00000  -0.03264  -0.03266   2.53079
    R8        2.05823  -0.00069   0.00000  -0.00195  -0.00195   2.05627
    R9        2.64076   0.00233   0.00000   0.00639   0.00643   2.64719
   R10        2.83178   0.00549   0.00000   0.01663   0.01663   2.84841
   R11        3.26632   0.01222   0.00000   0.03684   0.03684   3.30316
   R12        2.84236   0.01205   0.00000   0.03713   0.03713   2.87949
   R13        2.59200  -0.00380   0.00000  -0.00742  -0.00742   2.58458
   R14        2.32305  -0.00766   0.00000  -0.00834  -0.00834   2.31471
   R15        2.06681   0.00145   0.00000   0.00415   0.00415   2.07096
   R16        2.06633  -0.00157   0.00000  -0.00449  -0.00449   2.06184
   R17        2.06578   0.00189   0.00000   0.00541   0.00541   2.07118
   R18        2.73386   0.01045   0.00000   0.02668   0.02668   2.76054
   R19        2.07143   0.00068   0.00000   0.00198   0.00198   2.07341
   R20        2.07339   0.00000   0.00000  -0.00001  -0.00001   2.07338
   R21        1.92079  -0.00623   0.00000  -0.01373  -0.01373   1.90706
    A1        2.06241  -0.00087   0.00000   0.00055   0.00056   2.06297
    A2        2.09703   0.00292   0.00000   0.01477   0.01477   2.11180
    A3        2.12374  -0.00205   0.00000  -0.01532  -0.01533   2.10841
    A4        2.15488   0.00260   0.00000   0.00940   0.00934   2.16422
    A5        2.10628  -0.00159   0.00000  -0.00642  -0.00639   2.09988
    A6        2.02203  -0.00102   0.00000  -0.00297  -0.00294   2.01908
    A7        2.17192   0.00565   0.00000   0.02052   0.02052   2.19244
    A8        2.10883  -0.00560   0.00000  -0.02705  -0.02707   2.08176
    A9        2.00244  -0.00005   0.00000   0.00655   0.00653   2.00897
   A10        2.03384  -0.00215   0.00000  -0.00665  -0.00661   2.02723
   A11        2.08862   0.00330   0.00000   0.01218   0.01211   2.10073
   A12        2.16051  -0.00114   0.00000  -0.00523  -0.00531   2.15520
   A13        2.10377  -0.00482   0.00000  -0.01318  -0.01312   2.09065
   A14        2.05490   0.00676   0.00000   0.02370   0.02364   2.07855
   A15        2.12450  -0.00195   0.00000  -0.01047  -0.01053   2.11397
   A16        1.98988   0.00702   0.00000   0.02745   0.02743   2.01731
   A17        2.14069   0.00362   0.00000   0.01412   0.01410   2.15479
   A18        2.15230  -0.01065   0.00000  -0.04186  -0.04187   2.11042
   A19        1.93475   0.00446   0.00000   0.03133   0.03116   1.96590
   A20        1.91029  -0.00169   0.00000  -0.01091  -0.01094   1.89935
   A21        1.90617   0.00279   0.00000   0.01334   0.01320   1.91937
   A22        1.89342   0.00001   0.00000   0.00715   0.00709   1.90050
   A23        1.90829  -0.00343   0.00000  -0.01939  -0.01964   1.88865
   A24        1.91078  -0.00224   0.00000  -0.02227  -0.02226   1.88852
   A25        1.95448  -0.00203   0.00000  -0.00973  -0.00969   1.94479
   A26        1.94249  -0.00016   0.00000  -0.00897  -0.00900   1.93349
   A27        1.93383  -0.00225   0.00000  -0.02004  -0.01999   1.91384
   A28        1.90055   0.00091   0.00000   0.00593   0.00578   1.90633
   A29        1.88165   0.00367   0.00000   0.03038   0.03029   1.91195
   A30        1.84664   0.00014   0.00000   0.00475   0.00442   1.85106
   A31        2.03949  -0.00042   0.00000  -0.01057  -0.01065   2.02883
   A32        2.12631  -0.00304   0.00000  -0.01350  -0.01350   2.11281
   A33        2.07827   0.00219   0.00000   0.01082   0.01082   2.08909
   A34        2.07834   0.00086   0.00000   0.00277   0.00277   2.08111
    D1       -0.00261   0.00010   0.00000   0.00418   0.00422   0.00161
    D2       -3.14155  -0.00001   0.00000  -0.00056  -0.00058   3.14105
    D3        3.13640   0.00016   0.00000   0.00697   0.00707  -3.13971
    D4       -0.00254   0.00005   0.00000   0.00223   0.00227  -0.00027
    D5       -0.00440  -0.00009   0.00000  -0.00248  -0.00245  -0.00685
    D6        3.13202   0.00020   0.00000   0.00886   0.00899   3.14101
    D7        3.13981  -0.00016   0.00000  -0.00537  -0.00534   3.13447
    D8       -0.00695   0.00013   0.00000   0.00598   0.00610  -0.00086
    D9        0.00222   0.00003   0.00000   0.00028   0.00023   0.00244
   D10        3.14128   0.00013   0.00000   0.00480   0.00482  -3.13709
   D11       -0.01194   0.00016   0.00000   0.00819   0.00825  -0.00369
   D12       -3.13208  -0.00014   0.00000  -0.00649  -0.00645  -3.13853
   D13        3.12788   0.00042   0.00000   0.01713   0.01710  -3.13821
   D14        0.00774   0.00012   0.00000   0.00245   0.00240   0.01014
   D15        0.00543  -0.00016   0.00000  -0.00675  -0.00677  -0.00134
   D16       -3.13449  -0.00041   0.00000  -0.01517  -0.01526   3.13344
   D17        0.01106  -0.00009   0.00000  -0.00344  -0.00337   0.00769
   D18       -3.12514  -0.00042   0.00000  -0.01534  -0.01515  -3.14029
   D19        3.13023   0.00028   0.00000   0.01214   0.01207  -3.14089
   D20       -0.00598  -0.00005   0.00000   0.00024   0.00029  -0.00569
   D21        1.72734   0.00092   0.00000   0.01971   0.01971   1.74705
   D22       -2.42391   0.00053   0.00000   0.01395   0.01394  -2.40996
   D23       -0.37424  -0.00083   0.00000   0.00146   0.00149  -0.37274
   D24       -1.39116   0.00060   0.00000   0.00390   0.00389  -1.38727
   D25        0.74078   0.00021   0.00000  -0.00186  -0.00188   0.73890
   D26        2.79045  -0.00114   0.00000  -0.01435  -0.01433   2.77612
   D27        0.62001  -0.00034   0.00000  -0.00302  -0.00287   0.61714
   D28        2.70788   0.00136   0.00000   0.01837   0.01848   2.72637
   D29       -1.48365  -0.00069   0.00000  -0.00731  -0.00733  -1.49098
   D30       -2.54770  -0.00065   0.00000  -0.01572  -0.01573  -2.56342
   D31       -0.45982   0.00105   0.00000   0.00568   0.00562  -0.45420
   D32        1.63182  -0.00100   0.00000  -0.02000  -0.02019   1.61164
   D33       -3.13884  -0.00064   0.00000  -0.03021  -0.03009   3.11425
   D34       -0.02213  -0.00056   0.00000  -0.02549  -0.02536  -0.04748
   D35        0.02907  -0.00057   0.00000  -0.01838  -0.01851   0.01056
   D36       -3.13741  -0.00049   0.00000  -0.01365  -0.01377   3.13201
   D37       -3.13011   0.00025   0.00000  -0.00032  -0.00030  -3.13041
   D38        0.03637   0.00015   0.00000  -0.00516  -0.00513   0.03124
   D39        0.99735   0.00118   0.00000   0.01348   0.01359   1.01095
   D40       -2.11935   0.00108   0.00000   0.00864   0.00876  -2.11059
   D41       -0.99844  -0.00136   0.00000  -0.01093  -0.01108  -1.00952
   D42        2.16804  -0.00146   0.00000  -0.01577  -0.01591   2.15213
         Item               Value     Threshold  Converged?
 Maximum Force            0.016856     0.000450     NO 
 RMS     Force            0.004158     0.000300     NO 
 Maximum Displacement     0.173176     0.001800     NO 
 RMS     Displacement     0.036524     0.001200     NO 
 Predicted change in Energy=-2.549523D-03
 GradGradGradGradGradGradGradGradGradGradGradGradGradGradGradGradGradGrad

                          Input orientation:                          
 ---------------------------------------------------------------------
 Center     Atomic      Atomic             Coordinates (Angstroms)
 Number     Number       Type             X           Y           Z
 ---------------------------------------------------------------------
      1          6           0       -2.394543   -2.666317    4.771580
      2          6           0       -1.757331   -3.895008    4.609140
      3          6           0        0.271287   -2.902613    4.336205
      4          6           0       -0.240670   -1.606335    4.483439
      5          6           0       -1.620802   -1.508785    4.702658
      6          6           0        1.359307    1.318887    2.782032
      7          6           0        1.210098    1.856340    1.364029
      8          6           0        0.673835   -0.411393    4.395162
      9          7           0       -0.442831   -4.034203    4.391878
     10          7           0        0.598665    0.222255    3.081077
     11          8           0        2.132460    1.792189    3.605794
     12         17           0       -2.396267    0.044970    4.902267
     13          1           0       -3.463264   -2.610306    4.947185
     14          1           0       -2.327913   -4.820080    4.657020
     15          1           0        1.337679   -3.037519    4.166963
     16          1           0        0.187310    1.760888    0.982190
     17          1           0        1.493572    2.909912    1.355204
     18          1           0        1.880608    1.315669    0.686269
     19          1           0        0.424734    0.327322    5.167236
     20          1           0        1.707123   -0.721945    4.594383
     21          1           0       -0.038458   -0.147452    2.391276
 ---------------------------------------------------------------------
                    Distance matrix (angstroms):
                    1          2          3          4          5
     1  C    0.000000
     2  C    1.393596   0.000000
     3  C    2.711464   2.274781   0.000000
     4  C    2.417799   2.748469   1.401469   0.000000
     5  C    1.394024   2.391954   2.378455   1.400835   0.000000
     6  C    5.825078   6.343221   4.628208   3.743212   4.534929
     7  C    6.712619   7.239777   5.688834   4.881143   5.521278
     8  C    3.826397   4.253460   2.524223   1.507315   2.562066
     9  N    2.413393   1.339584   1.339238   2.437990   2.803914
    10  N    4.490093   4.983728   3.383390   2.452518   3.248394
    11  O    6.459960   6.962858   5.102807   4.236977   5.117277
    12  Cl   2.714435   4.002199   4.015535   2.747512   1.747955
    13  H    1.084499   2.162161   3.795472   3.407070   2.160510
    14  H    2.157837   1.087941   3.245834   3.835997   3.386261
    15  H    3.799056   3.241896   1.088133   2.153980   3.372922
    16  H    6.373819   6.994680   5.744973   4.876484   5.272752
    17  H    7.608113   8.213611   6.645735   5.761070   6.358432
    18  H    7.129017   7.468244   5.805675   5.239888   6.030655
    19  H    4.131191   4.785493   3.338658   2.156240   2.787713
    20  H    4.542647   4.697977   2.623661   2.142045   3.421393
    21  H    4.190663   4.681626   3.386681   2.558588   3.114406
                    6          7          8          9         10
     6  C    0.000000
     7  C    1.523762   0.000000
     8  C    2.462911   3.823344   0.000000
     9  N    5.873234   6.826312   3.791003   0.000000
    10  N    1.367701   2.447925   1.460814   4.573876   0.000000
    11  O    1.224894   2.424949   2.757982   6.418481   2.256668
    12  Cl   4.496954   5.367127   3.144988   4.551490   3.509670
    13  H    6.586625   7.391227   4.717577   3.385094   5.291977
    14  H    7.402573   8.242323   5.339998   2.059474   6.039338
    15  H    4.571299   5.641149   2.718327   2.052847   3.514457
    16  H    2.192800   1.095905   4.074787   6.753231   2.634755
    17  H    2.141314   1.091077   4.576503   7.822517   3.317076
    18  H    2.159627   1.096024   4.265552   6.910212   2.928146
    19  H    2.746967   4.173617   1.097201   4.514061   2.096032
    20  H    2.751470   4.162904   1.097186   3.954032   2.100068
    21  H    2.063150   2.574745   2.143031   4.390075   1.009175
                   11         12         13         14         15
    11  O    0.000000
    12  Cl   5.024240   0.000000
    13  H    7.245234   2.861991   0.000000
    14  H    8.045006   4.871708   2.501264   0.000000
    15  H    4.926730   4.897424   4.882653   4.105392   0.000000
    16  H    3.266173   4.998624   6.939395   7.946059   5.872889
    17  H    2.592804   5.993362   8.242897   9.233554   6.580442
    18  H    2.968860   6.138483   7.881982   8.433619   5.600022
    19  H    2.738661   2.847452   4.877972   5.859448   3.627143
    20  H    2.734792   4.185781   5.515730   5.751535   2.383498
    21  H    3.154385   3.449835   4.932303   5.675267   3.660505
                   16         17         18         19         20
    16  H    0.000000
    17  H    1.779246   0.000000
    18  H    1.775683   1.771690   0.000000
    19  H    4.430134   4.726920   4.814090   0.000000
    20  H    4.639206   4.871167   4.410819   1.753180   0.000000
    21  H    2.382909   3.573239   2.954757   2.854104   2.868933
                   21
    21  H    0.000000
 Stoichiometry    C8H9ClN2O
 Framework group  C1[X(C8H9ClN2O)]
 Deg. of freedom    57
 Full point group                 C1      NOp   1
 Largest Abelian subgroup         C1      NOp   1
 Largest concise Abelian subgroup C1      NOp   1
                         Standard orientation:                         
 ---------------------------------------------------------------------
 Center     Atomic      Atomic             Coordinates (Angstroms)
 Number     Number       Type             X           Y           Z
 ---------------------------------------------------------------------
      1          6           0        2.793258    0.518037    0.390075
      2          6           0        3.339097   -0.761094    0.479477
      3          6           0        1.409844   -1.726739   -0.241733
      4          6           0        0.740656   -0.502937   -0.378162
      5          6           0        1.473577    0.642417   -0.041518
      6          6           0       -2.969787   -0.259459    0.051920
      7          6           0       -3.825308   -0.126381    1.305803
      8          6           0       -0.688955   -0.465233   -0.854387
      9          7           0        2.673369   -1.882663    0.173902
     10          7           0       -1.618884   -0.304890    0.260736
     11          8           0       -3.436127   -0.363193   -1.075968
     12         17           0        0.765217    2.235902   -0.161420
     13          1           0        3.377919    1.394093    0.648603
     14          1           0        4.365942   -0.897955    0.811853
     15          1           0        0.889194   -2.648749   -0.492443
     16          1           0       -3.354159    0.497672    2.073648
     17          1           0       -4.784993    0.314654    1.032045
     18          1           0       -4.013930   -1.116169    1.737091
     19          1           0       -0.839260    0.352298   -1.570558
     20          1           0       -0.921872   -1.390263   -1.396498
     21          1           0       -1.254204   -0.209183    1.196836
 ---------------------------------------------------------------------
 Rotational constants (GHZ):      1.3612015      0.4702023      0.3884135
 Standard basis: 6-31G(d) (6D, 7F)
 There are   202 symmetry adapted basis functions of A   symmetry.
 Integral buffers will be    131072 words long.
 Raffenetti 2 integral format.
 Two-electron integral symmetry is turned on.
   202 basis functions,   396 primitive gaussians,   202 cartesian basis functions
    48 alpha electrons       48 beta electrons
       nuclear repulsion energy       749.9340260201 Hartrees.
 NAtoms=   21 NActive=   21 NUniq=   21 SFac= 1.00D+00 NAtFMM=   60 NAOKFM=F Big=F
 One-electron integrals computed using PRISM.
 NBasis=   202 RedAO= T  NBF=   202
 NBsUse=   202 1.00D-06 NBFU=   202
 Initial guess read from the read-write file.
 B after Tr=     0.000000    0.000000    0.000000
         Rot=    1.000000    0.000000    0.000000    0.000000 Ang=   0.00 deg.
 Initial guess orbital symmetries:
       Occupied  (A) (A) (A) (A) (A) (A) (A) (A) (A) (A) (A) (A)
                 (A) (A) (A) (A) (A) (A) (A) (A) (A) (A) (A) (A)
                 (A) (A) (A) (A) (A) (A) (A) (A) (A) (A) (A) (A)
                 (A) (A) (A) (A) (A) (A) (A) (A) (A) (A) (A) (A)
       Virtual   (A) (A) (A) (A) (A) (A) (A) (A) (A) (A) (A) (A)
                 (A) (A) (A) (A) (A) (A) (A) (A) (A) (A) (A) (A)
                 (A) (A) (A) (A) (A) (A) (A) (A) (A) (A) (A) (A)
                 (A) (A) (A) (A) (A) (A) (A) (A) (A) (A) (A) (A)
                 (A) (A) (A) (A) (A) (A) (A) (A) (A) (A) (A) (A)
                 (A) (A) (A) (A) (A) (A) (A) (A) (A) (A) (A) (A)
                 (A) (A) (A) (A) (A) (A) (A) (A) (A) (A) (A) (A)
                 (A) (A) (A) (A) (A) (A) (A) (A) (A) (A) (A) (A)
                 (A) (A) (A) (A) (A) (A) (A) (A) (A) (A) (A) (A)
                 (A) (A) (A) (A) (A) (A) (A) (A) (A) (A) (A) (A)
                 (A) (A) (A) (A) (A) (A) (A) (A) (A) (A) (A) (A)
                 (A) (A) (A) (A) (A) (A) (A) (A) (A) (A) (A) (A)
                 (A) (A) (A) (A) (A) (A) (A) (A) (A) (A)
 Harris functional with IExCor=  402 diagonalized for initial guess.
 ExpMin= 1.43D-01 ExpMax= 2.52D+04 ExpMxC= 3.78D+03 IAcc=3 IRadAn=         5 AccDes= 0.00D+00
 HarFok:  IExCor=  402 AccDes= 0.00D+00 IRadAn=         5 IDoV= 1
 ScaDFX=  1.000000  1.000000  1.000000  1.000000
 FoFCou: FMM=F IPFlag=           0 FMFlag=      100000 FMFlg1=           0
         NFxFlg=           0 DoJE=T BraDBF=F KetDBF=T FulRan=T
         Omega=  0.000000  0.000000  1.000000  0.000000  0.000000 ICntrl=     500 IOpCl=  0
         NMat0=    1 NMatS0=    1 NMatT0=    0 NMatD0=    1 NMtDS0=    0 NMtDT0=    0
         I1Cent=           4 NGrid=           0.
 Petite list used in FoFCou.
 Requested convergence on RMS density matrix=1.00D-08 within 128 cycles.
 Requested convergence on MAX density matrix=1.00D-06.
 Requested convergence on             energy=1.00D-06.
 No special actions if energy rises.
 Integral accuracy reduced to 1.0D-05 until final iterations.
 Initial convergence to 1.0D-05 achieved.  Increase integral accuracy.
 SCF Done:  E(RB3LYP) =  -955.204076906     A.U. after   12 cycles
             Convg  =    0.9596D-08             -V/T =  2.0064
 Calling FoFJK, ICntrl=      2127 FMM=F ISym2X=0 I1Cent= 0 IOpClX= 0 NMat=1 NMatS=1 NMatT=0.
 ***** Axes restored to original set *****
 -------------------------------------------------------------------
 Center     Atomic                   Forces (Hartrees/Bohr)
 Number     Number              X              Y              Z
 -------------------------------------------------------------------
      1        6          -0.001190584    0.001022623    0.000131781
      2        6           0.002074126   -0.002461597   -0.000421245
      3        6          -0.000600083   -0.005615737    0.000080698
      4        6           0.000474342    0.002431042   -0.000910722
      5        6           0.000503309   -0.005163952   -0.000057890
      6        6           0.001562622   -0.001862582    0.003039192
      7        6          -0.001285608    0.000464019    0.000778872
      8        6           0.001792175    0.001109336    0.001999459
      9        7          -0.001148527    0.005561869    0.000542667
     10        7          -0.001258356    0.000217529   -0.003141968
     11        8           0.000518397    0.002095742   -0.001364041
     12       17          -0.000972259    0.001931199    0.000152356
     13        1           0.000059149    0.000018247    0.000050506
     14        1          -0.001383897    0.000521588    0.000144919
     15        1           0.001096643    0.001843380   -0.000155901
     16        1           0.000247134   -0.000696738    0.000079987
     17        1           0.000580267    0.000142932    0.000495030
     18        1           0.000255970   -0.000194488    0.000110558
     19        1          -0.000260323   -0.000333053   -0.000869525
     20        1          -0.000363530    0.000100466   -0.001330054
     21        1          -0.000700966   -0.001131821    0.000645322
 -------------------------------------------------------------------
 Cartesian Forces:  Max     0.005615737 RMS     0.001658495

 GradGradGradGradGradGradGradGradGradGradGradGradGradGradGradGradGradGrad
 Berny optimization.
 Using GEDIIS/GDIIS optimizer.
 Internal  Forces:  Max     0.003764889 RMS     0.000926605
 Search for a local minimum.
 Step number   2 out of a maximum of  107
 All quantities printed in internal units (Hartrees-Bohrs-Radians)
 Mixed Optimization -- En-DIIS/RFO-DIIS
 Update second derivatives using D2CorX and points    1    2
 DE= -2.41D-03 DEPred=-2.55D-03 R= 9.43D-01
 SS=  1.41D+00  RLast= 1.50D-01 DXNew= 5.0454D-01 4.4911D-01
 Trust test= 9.43D-01 RLast= 1.50D-01 DXMaxT set to 4.49D-01
 ITU=  1  0
 Use linear search instead of GDIIS.
     Eigenvalues ---    0.00711   0.00785   0.01074   0.01246   0.01475
     Eigenvalues ---    0.01577   0.02067   0.02154   0.02172   0.02231
     Eigenvalues ---    0.02243   0.02262   0.02313   0.02338   0.05192
     Eigenvalues ---    0.06588   0.07076   0.07463   0.10066   0.13284
     Eigenvalues ---    0.14978   0.15998   0.16000   0.16000   0.16000
     Eigenvalues ---    0.16000   0.16336   0.21611   0.21941   0.22341
     Eigenvalues ---    0.23473   0.24388   0.24901   0.24996   0.24999
     Eigenvalues ---    0.27790   0.31646   0.32538   0.33120   0.34014
     Eigenvalues ---    0.34195   0.34397   0.34438   0.34505   0.35025
     Eigenvalues ---    0.35098   0.35423   0.39431   0.43201   0.43890
     Eigenvalues ---    0.45069   0.46918   0.48166   0.50706   0.50906
     Eigenvalues ---    0.53828   0.91422
 RFO step:  Lambda=-3.91125407D-04 EMin= 7.11011270D-03
 Quartic linear search produced a step of -0.03171.
 Iteration  1 RMS(Cart)=  0.01439330 RMS(Int)=  0.00016129
 Iteration  2 RMS(Cart)=  0.00020028 RMS(Int)=  0.00003448
 Iteration  3 RMS(Cart)=  0.00000004 RMS(Int)=  0.00003448
 Variable       Old X    -DE/DX   Delta X   Delta X   Delta X     New X
                                 (Linear)    (Quad)   (Total)
    R1        2.63351  -0.00016  -0.00076   0.00233   0.00157   2.63509
    R2        2.63432  -0.00074  -0.00010  -0.00105  -0.00115   2.63317
    R3        2.04941  -0.00005   0.00002  -0.00019  -0.00018   2.04923
    R4        2.53145  -0.00060   0.00073  -0.00369  -0.00296   2.52849
    R5        2.05591   0.00029  -0.00002   0.00086   0.00084   2.05675
    R6        2.64839   0.00034  -0.00064   0.00290   0.00226   2.65066
    R7        2.53079  -0.00229   0.00104  -0.00786  -0.00682   2.52398
    R8        2.05627   0.00087   0.00006   0.00220   0.00226   2.05853
    R9        2.64719   0.00113  -0.00020   0.00321   0.00300   2.65020
   R10        2.84841   0.00056  -0.00053   0.00351   0.00298   2.85139
   R11        3.30316   0.00217  -0.00117   0.01047   0.00930   3.31246
   R12        2.87949  -0.00144  -0.00118  -0.00027  -0.00145   2.87805
   R13        2.58458   0.00032   0.00024  -0.00021   0.00002   2.58460
   R14        2.31471   0.00022   0.00026  -0.00069  -0.00042   2.31429
   R15        2.07096  -0.00020  -0.00013  -0.00010  -0.00023   2.07073
   R16        2.06184   0.00028   0.00014   0.00030   0.00045   2.06228
   R17        2.07118   0.00018  -0.00017   0.00111   0.00094   2.07213
   R18        2.76054  -0.00099  -0.00085   0.00046  -0.00038   2.76016
   R19        2.07341  -0.00078  -0.00006  -0.00198  -0.00205   2.07136
   R20        2.07338  -0.00061   0.00000  -0.00174  -0.00174   2.07164
   R21        1.90706   0.00042   0.00044  -0.00062  -0.00018   1.90688
    A1        2.06297  -0.00094  -0.00002  -0.00342  -0.00344   2.05953
    A2        2.11180   0.00049  -0.00047   0.00352   0.00305   2.11486
    A3        2.10841   0.00044   0.00049  -0.00010   0.00039   2.10880
    A4        2.16422  -0.00107  -0.00030  -0.00364  -0.00393   2.16028
    A5        2.09988  -0.00096   0.00020  -0.00739  -0.00719   2.09269
    A6        2.01908   0.00203   0.00009   0.01103   0.01112   2.03021
    A7        2.19244  -0.00105  -0.00065  -0.00233  -0.00298   2.18947
    A8        2.08176  -0.00150   0.00086  -0.01288  -0.01203   2.06973
    A9        2.00897   0.00254  -0.00021   0.01522   0.01501   2.02398
   A10        2.02723  -0.00118   0.00021  -0.00480  -0.00460   2.02264
   A11        2.10073  -0.00025  -0.00038   0.00013  -0.00025   2.10047
   A12        2.15520   0.00143   0.00017   0.00470   0.00487   2.16007
   A13        2.09065   0.00160   0.00042   0.00554   0.00595   2.09660
   A14        2.07855  -0.00079  -0.00075  -0.00085  -0.00160   2.07695
   A15        2.11397  -0.00081   0.00033  -0.00467  -0.00433   2.10964
   A16        2.01731  -0.00172  -0.00087  -0.00330  -0.00430   2.01301
   A17        2.15479  -0.00203  -0.00045  -0.00599  -0.00657   2.14822
   A18        2.11042   0.00376   0.00133   0.01030   0.01150   2.12192
   A19        1.96590  -0.00012  -0.00099   0.00338   0.00239   1.96830
   A20        1.89935  -0.00064   0.00035  -0.00451  -0.00417   1.89518
   A21        1.91937  -0.00039  -0.00042  -0.00214  -0.00256   1.91681
   A22        1.90050   0.00083  -0.00022   0.00810   0.00788   1.90838
   A23        1.88865   0.00011   0.00062  -0.00252  -0.00189   1.88676
   A24        1.88852   0.00025   0.00071  -0.00239  -0.00170   1.88682
   A25        1.94479  -0.00049   0.00031  -0.00490  -0.00461   1.94018
   A26        1.93349   0.00011   0.00029   0.00029   0.00057   1.93405
   A27        1.91384   0.00055   0.00063   0.00103   0.00164   1.91548
   A28        1.90633   0.00003  -0.00018  -0.00037  -0.00055   1.90578
   A29        1.91195  -0.00065  -0.00096  -0.00387  -0.00483   1.90711
   A30        1.85106   0.00048  -0.00014   0.00841   0.00828   1.85933
   A31        2.02883   0.00264   0.00034   0.00868   0.00902   2.03785
   A32        2.11281  -0.00167   0.00043  -0.00883  -0.00841   2.10440
   A33        2.08909   0.00218  -0.00034   0.01298   0.01263   2.10172
   A34        2.08111  -0.00052  -0.00009  -0.00422  -0.00431   2.07680
    D1        0.00161   0.00002  -0.00013   0.00127   0.00114   0.00275
    D2        3.14105   0.00005   0.00002   0.00205   0.00207  -3.14007
    D3       -3.13971   0.00002  -0.00022   0.00183   0.00160  -3.13811
    D4       -0.00027   0.00006  -0.00007   0.00260   0.00253   0.00226
    D5       -0.00685   0.00005   0.00008   0.00196   0.00204  -0.00481
    D6        3.14101  -0.00006  -0.00029  -0.00164  -0.00193   3.13907
    D7        3.13447   0.00004   0.00017   0.00141   0.00158   3.13605
    D8       -0.00086  -0.00007  -0.00019  -0.00219  -0.00239  -0.00325
    D9        0.00244  -0.00004  -0.00001  -0.00169  -0.00169   0.00076
   D10       -3.13709  -0.00007  -0.00015  -0.00241  -0.00257  -3.13965
   D11       -0.00369   0.00007  -0.00026   0.00423   0.00396   0.00026
   D12       -3.13853  -0.00002   0.00020  -0.00209  -0.00188  -3.14040
   D13       -3.13821   0.00000  -0.00054   0.00232   0.00178  -3.13643
   D14        0.01014  -0.00009  -0.00008  -0.00400  -0.00406   0.00609
   D15       -0.00134   0.00000   0.00021  -0.00120  -0.00099  -0.00232
   D16        3.13344   0.00005   0.00048   0.00055   0.00105   3.13448
   D17        0.00769  -0.00008   0.00011  -0.00441  -0.00430   0.00339
   D18       -3.14029   0.00003   0.00048  -0.00072  -0.00024  -3.14054
   D19       -3.14089   0.00000  -0.00038   0.00210   0.00173  -3.13916
   D20       -0.00569   0.00011  -0.00001   0.00580   0.00579   0.00010
   D21        1.74705  -0.00008  -0.00062   0.00983   0.00921   1.75626
   D22       -2.40996  -0.00030  -0.00044   0.00618   0.00574  -2.40423
   D23       -0.37274   0.00068  -0.00005   0.01724   0.01721  -0.35554
   D24       -1.38727  -0.00016  -0.00012   0.00307   0.00294  -1.38433
   D25        0.73890  -0.00038   0.00006  -0.00058  -0.00053   0.73837
   D26        2.77612   0.00061   0.00045   0.01048   0.01093   2.78706
   D27        0.61714  -0.00057   0.00009  -0.03177  -0.03162   0.58552
   D28        2.72637  -0.00005  -0.00059  -0.02248  -0.02301   2.70336
   D29       -1.49098  -0.00036   0.00023  -0.02932  -0.02901  -1.52000
   D30       -2.56342  -0.00011   0.00050  -0.00214  -0.00170  -2.56513
   D31       -0.45420   0.00041  -0.00018   0.00715   0.00691  -0.44729
   D32        1.61164   0.00010   0.00064   0.00031   0.00090   1.61254
   D33        3.11425   0.00012   0.00095   0.01005   0.01111   3.12537
   D34       -0.04748   0.00003   0.00080   0.00575   0.00664  -0.04084
   D35        0.01056  -0.00019   0.00059  -0.01838  -0.01788  -0.00732
   D36        3.13201  -0.00029   0.00044  -0.02267  -0.02235   3.10966
   D37       -3.13041  -0.00015   0.00001  -0.00965  -0.00964  -3.14005
   D38        0.03124  -0.00009   0.00016  -0.00557  -0.00543   0.02581
   D39        1.01095   0.00001  -0.00043  -0.00649  -0.00692   1.00402
   D40       -2.11059   0.00007  -0.00028  -0.00242  -0.00271  -2.11330
   D41       -1.00952  -0.00022   0.00035  -0.01421  -0.01383  -1.02335
   D42        2.15213  -0.00016   0.00050  -0.01013  -0.00962   2.14251
         Item               Value     Threshold  Converged?
 Maximum Force            0.003765     0.000450     NO 
 RMS     Force            0.000927     0.000300     NO 
 Maximum Displacement     0.055813     0.001800     NO 
 RMS     Displacement     0.014418     0.001200     NO 
 Predicted change in Energy=-1.993413D-04
 GradGradGradGradGradGradGradGradGradGradGradGradGradGradGradGradGradGrad

                          Input orientation:                          
 ---------------------------------------------------------------------
 Center     Atomic      Atomic             Coordinates (Angstroms)
 Number     Number       Type             X           Y           Z
 ---------------------------------------------------------------------
      1          6           0       -2.397918   -2.663724    4.770450
      2          6           0       -1.762214   -3.894907    4.613934
      3          6           0        0.271570   -2.908532    4.341354
      4          6           0       -0.236536   -1.608427    4.479297
      5          6           0       -1.618384   -1.511044    4.697938
      6          6           0        1.363949    1.313181    2.782534
      7          6           0        1.203982    1.859535    1.369939
      8          6           0        0.684337   -0.416495    4.389579
      9          7           0       -0.448293   -4.031958    4.401520
     10          7           0        0.604988    0.213373    3.074150
     11          8           0        2.122060    1.806458    3.608223
     12         17           0       -2.391232    0.050834    4.887223
     13          1           0       -3.466525   -2.601842    4.944191
     14          1           0       -2.341621   -4.814912    4.663536
     15          1           0        1.340595   -3.035423    4.174864
     16          1           0        0.187049    1.737363    0.980497
     17          1           0        1.464037    2.919397    1.375404
     18          1           0        1.893107    1.343048    0.691184
     19          1           0        0.438663    0.324282    5.159232
     20          1           0        1.717313   -0.731437    4.578173
     21          1           0       -0.034328   -0.162298    2.389762
 ---------------------------------------------------------------------
                    Distance matrix (angstroms):
                    1          2          3          4          5
     1  C    0.000000
     2  C    1.394428   0.000000
     3  C    2.714815   2.276733   0.000000
     4  C    2.422807   2.752056   1.402666   0.000000
     5  C    1.393414   2.389675   2.377404   1.402424   0.000000
     6  C    5.824021   6.344375   4.630990   3.738494   4.532033
     7  C    6.707982   7.241231   5.695012   4.875444   5.513812
     8  C    3.833457   4.258555   2.526450   1.508892   2.568199
     9  N    2.410231   1.338017   1.335631   2.434008   2.794993
    10  N    4.491388   4.985233   3.385744   2.449807   3.248644
    11  O    6.462468   6.971700   5.117902   4.240658   5.117052
    12  Cl   2.717076   4.004900   4.018250   2.749957   1.752879
    13  H    1.084406   2.164662   3.798793   3.411133   2.160117
    14  H    2.154579   1.088385   3.250670   3.840166   3.382277
    15  H    3.803862   3.249449   1.089328   2.148567   3.369406
    16  H    6.357308   6.980255   5.734705   4.859561   5.256530
    17  H    7.590275   8.205578   6.647074   5.746937   6.337930
    18  H    7.148953   7.495699   5.833443   5.253225   6.044046
    19  H    4.138299   4.789861   3.338852   2.157213   2.795113
    20  H    4.550365   4.702757   2.624118   2.143924   3.427682
    21  H    4.184658   4.675992   3.382911   2.549182   3.107415
                    6          7          8          9         10
     6  C    0.000000
     7  C    1.522997   0.000000
     8  C    2.456877   3.816880   0.000000
     9  N    5.871613   6.828630   3.788742   0.000000
    10  N    1.367712   2.443968   1.460611   4.571012   0.000000
    11  O    1.224670   2.419835   2.760269   6.428308   2.263772
    12  Cl   4.486046   5.344927   3.150424   4.547539   3.505850
    13  H    6.582829   7.381924   4.723663   3.383703   5.291475
    14  H    7.404251   8.244230   5.345797   2.065516   6.040886
    15  H    4.566123   5.643304   2.708423   2.060237   3.508185
    16  H    2.193709   1.095784   4.063034   6.737368   2.623090
    17  H    2.137748   1.091314   4.563043   7.818934   3.308515
    18  H    2.157463   1.096522   4.270275   6.938259   2.934952
    19  H    2.735465   4.159502   1.096117   4.509728   2.094644
    20  H    2.744020   4.155648   1.096263   3.951518   2.095714
    21  H    2.070383   2.580941   2.140179   4.380960   1.009079
                   11         12         13         14         15
    11  O    0.000000
    12  Cl   5.008778   0.000000
    13  H    7.242251   2.862899   0.000000
    14  H    8.054854   4.871137   2.498370   0.000000
    15  H    4.937163   4.894790   4.887562   4.118750   0.000000
    16  H    3.264044   4.975381   6.920128   7.930401   5.857827
    17  H    2.580137   5.951859   8.217711   9.225745   6.581193
    18  H    2.962480   6.134502   7.897840   8.463626   5.622482
    19  H    2.726958   2.856058   4.884561   5.864043   3.615257
    20  H    2.746914   4.193757   5.523093   5.758211   2.369161
    21  H    3.163962   3.440600   4.925085   5.669256   3.651281
                   16         17         18         19         20
    16  H    0.000000
    17  H    1.784336   0.000000
    18  H    1.774773   1.771196   0.000000
    19  H    4.418363   4.701422   4.807988   0.000000
    20  H    4.623846   4.863175   4.409430   1.757020   0.000000
    21  H    2.375657   3.573635   2.977623   2.851393   2.860298
                   21
    21  H    0.000000
 Stoichiometry    C8H9ClN2O
 Framework group  C1[X(C8H9ClN2O)]
 Deg. of freedom    57
 Full point group                 C1      NOp   1
 Largest Abelian subgroup         C1      NOp   1
 Largest concise Abelian subgroup C1      NOp   1
                         Standard orientation:                         
 ---------------------------------------------------------------------
 Center     Atomic      Atomic             Coordinates (Angstroms)
 Number     Number       Type             X           Y           Z
 ---------------------------------------------------------------------
      1          6           0        2.793502    0.530056    0.385788
      2          6           0        3.346769   -0.746581    0.478124
      3          6           0        1.421048   -1.727804   -0.237636
      4          6           0        0.741022   -0.508685   -0.374696
      5          6           0        1.472705    0.641142   -0.044043
      6          6           0       -2.965440   -0.271511    0.052187
      7          6           0       -3.819728   -0.117854    1.303626
      8          6           0       -0.690484   -0.483579   -0.851055
      9          7           0        2.683507   -1.868426    0.175078
     10          7           0       -1.615514   -0.317911    0.267094
     11          8           0       -3.438909   -0.358706   -1.073887
     12         17           0        0.749767    2.233330   -0.166032
     13          1           0        3.371342    1.411921    0.639465
     14          1           0        4.375441   -0.869291    0.811826
     15          1           0        0.895542   -2.648722   -0.487413
     16          1           0       -3.334746    0.489038    2.076425
     17          1           0       -4.767692    0.344329    1.023060
     18          1           0       -4.034885   -1.104689    1.730504
     19          1           0       -0.847048    0.327560   -1.571481
     20          1           0       -0.922261   -1.417051   -1.377079
     21          1           0       -1.242793   -0.216807    1.199348
 ---------------------------------------------------------------------
 Rotational constants (GHZ):      1.3652346      0.4702485      0.3885919
 Standard basis: 6-31G(d) (6D, 7F)
 There are   202 symmetry adapted basis functions of A   symmetry.
 Integral buffers will be    131072 words long.
 Raffenetti 2 integral format.
 Two-electron integral symmetry is turned on.
   202 basis functions,   396 primitive gaussians,   202 cartesian basis functions
    48 alpha electrons       48 beta electrons
       nuclear repulsion energy       749.9750250379 Hartrees.
 NAtoms=   21 NActive=   21 NUniq=   21 SFac= 1.00D+00 NAtFMM=   60 NAOKFM=F Big=F
 One-electron integrals computed using PRISM.
 NBasis=   202 RedAO= T  NBF=   202
 NBsUse=   202 1.00D-06 NBFU=   202
 Initial guess read from the read-write file.
 B after Tr=     0.000000    0.000000    0.000000
         Rot=    1.000000    0.000000    0.000000    0.000000 Ang=   0.00 deg.
 Initial guess orbital symmetries:
       Occupied  (A) (A) (A) (A) (A) (A) (A) (A) (A) (A) (A) (A)
                 (A) (A) (A) (A) (A) (A) (A) (A) (A) (A) (A) (A)
                 (A) (A) (A) (A) (A) (A) (A) (A) (A) (A) (A) (A)
                 (A) (A) (A) (A) (A) (A) (A) (A) (A) (A) (A) (A)
       Virtual   (A) (A) (A) (A) (A) (A) (A) (A) (A) (A) (A) (A)
                 (A) (A) (A) (A) (A) (A) (A) (A) (A) (A) (A) (A)
                 (A) (A) (A) (A) (A) (A) (A) (A) (A) (A) (A) (A)
                 (A) (A) (A) (A) (A) (A) (A) (A) (A) (A) (A) (A)
                 (A) (A) (A) (A) (A) (A) (A) (A) (A) (A) (A) (A)
                 (A) (A) (A) (A) (A) (A) (A) (A) (A) (A) (A) (A)
                 (A) (A) (A) (A) (A) (A) (A) (A) (A) (A) (A) (A)
                 (A) (A) (A) (A) (A) (A) (A) (A) (A) (A) (A) (A)
                 (A) (A) (A) (A) (A) (A) (A) (A) (A) (A) (A) (A)
                 (A) (A) (A) (A) (A) (A) (A) (A) (A) (A) (A) (A)
                 (A) (A) (A) (A) (A) (A) (A) (A) (A) (A) (A) (A)
                 (A) (A) (A) (A) (A) (A) (A) (A) (A) (A) (A) (A)
                 (A) (A) (A) (A) (A) (A) (A) (A) (A) (A)
 Harris functional with IExCor=  402 diagonalized for initial guess.
 ExpMin= 1.43D-01 ExpMax= 2.52D+04 ExpMxC= 3.78D+03 IAcc=3 IRadAn=         5 AccDes= 0.00D+00
 HarFok:  IExCor=  402 AccDes= 0.00D+00 IRadAn=         5 IDoV= 1
 ScaDFX=  1.000000  1.000000  1.000000  1.000000
 FoFCou: FMM=F IPFlag=           0 FMFlag=      100000 FMFlg1=           0
         NFxFlg=           0 DoJE=T BraDBF=F KetDBF=T FulRan=T
         Omega=  0.000000  0.000000  1.000000  0.000000  0.000000 ICntrl=     500 IOpCl=  0
         NMat0=    1 NMatS0=    1 NMatT0=    0 NMatD0=    1 NMtDS0=    0 NMtDT0=    0
         I1Cent=           4 NGrid=           0.
 Petite list used in FoFCou.
 Requested convergence on RMS density matrix=1.00D-08 within 128 cycles.
 Requested convergence on MAX density matrix=1.00D-06.
 Requested convergence on             energy=1.00D-06.
 No special actions if energy rises.
 Integral accuracy reduced to 1.0D-05 until final iterations.
 Initial convergence to 1.0D-05 achieved.  Increase integral accuracy.
 SCF Done:  E(RB3LYP) =  -955.204266546     A.U. after   11 cycles
             Convg  =    0.6748D-08             -V/T =  2.0064
 Calling FoFJK, ICntrl=      2127 FMM=F ISym2X=0 I1Cent= 0 IOpClX= 0 NMat=1 NMatS=1 NMatT=0.
 ***** Axes restored to original set *****
 -------------------------------------------------------------------
 Center     Atomic                   Forces (Hartrees/Bohr)
 Number     Number              X              Y              Z
 -------------------------------------------------------------------
      1        6          -0.000169225    0.000728338   -0.000001110
      2        6           0.000290197   -0.000323177   -0.000026640
      3        6           0.000050603   -0.000915577    0.000023769
      4        6          -0.000562121    0.001343692    0.000350350
      5        6           0.001159993   -0.001854030   -0.000369566
      6        6          -0.002537983    0.001613833    0.000782139
      7        6           0.000439804   -0.000423458   -0.000175837
      8        6          -0.000282231   -0.000429263    0.000656704
      9        7          -0.000321371    0.000812498    0.000074470
     10        7           0.000967937    0.000152529   -0.000475675
     11        8           0.000936545   -0.000780140   -0.000580345
     12       17          -0.000303348    0.000440431    0.000083040
     13        1           0.000051277   -0.000056118    0.000011937
     14        1          -0.000122448    0.000112029    0.000015139
     15        1           0.000173572    0.000130742   -0.000038917
     16        1           0.000236789   -0.000211726    0.000227862
     17        1           0.000003583    0.000075941    0.000106746
     18        1           0.000112368    0.000066352   -0.000028655
     19        1           0.000015730   -0.000060046   -0.000249484
     20        1          -0.000125929   -0.000155786   -0.000223877
     21        1          -0.000013742   -0.000267063   -0.000162048
 -------------------------------------------------------------------
 Cartesian Forces:  Max     0.002537983 RMS     0.000618566

 GradGradGradGradGradGradGradGradGradGradGradGradGradGradGradGradGradGrad
 Berny optimization.
 Using GEDIIS/GDIIS optimizer.
 Internal  Forces:  Max     0.000788710 RMS     0.000249094
 Search for a local minimum.
 Step number   3 out of a maximum of  107
 All quantities printed in internal units (Hartrees-Bohrs-Radians)
 Mixed Optimization -- En-DIIS/RFO-DIIS
 Swaping is turned off.
 Update second derivatives using D2CorX and points    1    2    3
 DE= -1.90D-04 DEPred=-1.99D-04 R= 9.51D-01
 SS=  1.41D+00  RLast= 7.85D-02 DXNew= 7.5532D-01 2.3556D-01
 Trust test= 9.51D-01 RLast= 7.85D-02 DXMaxT set to 4.49D-01
 ITU=  1  1  0
     Eigenvalues ---    0.00672   0.00778   0.01051   0.01471   0.01538
     Eigenvalues ---    0.01693   0.02136   0.02159   0.02180   0.02231
     Eigenvalues ---    0.02243   0.02262   0.02314   0.02340   0.05243
     Eigenvalues ---    0.06489   0.07061   0.07506   0.10012   0.13159
     Eigenvalues ---    0.13881   0.15997   0.16000   0.16000   0.16000
     Eigenvalues ---    0.16076   0.16213   0.21288   0.22017   0.22355
     Eigenvalues ---    0.23267   0.23685   0.24954   0.25000   0.25091
     Eigenvalues ---    0.27024   0.31348   0.32706   0.32879   0.33998
     Eigenvalues ---    0.34122   0.34411   0.34428   0.34470   0.34919
     Eigenvalues ---    0.35090   0.35423   0.39505   0.43190   0.44759
     Eigenvalues ---    0.45058   0.46980   0.48121   0.50305   0.50817
     Eigenvalues ---    0.53851   0.91415
 En-DIIS/RFO-DIIS IScMMF=        0 using points:     3    2
 RFO step:  Lambda=-2.43682339D-05.
 DidBck=F Rises=F RFO-DIIS coefs:    0.95988    0.04012
 Iteration  1 RMS(Cart)=  0.00788704 RMS(Int)=  0.00011459
 Iteration  2 RMS(Cart)=  0.00016912 RMS(Int)=  0.00007402
 Iteration  3 RMS(Cart)=  0.00000001 RMS(Int)=  0.00007402
 Variable       Old X    -DE/DX   Delta X   Delta X   Delta X     New X
                                  (DIIS)     (GDIIS)  (Total)
    R1        2.63509  -0.00014  -0.00006   0.00103   0.00096   2.63605
    R2        2.63317  -0.00060   0.00005  -0.00169  -0.00164   2.63153
    R3        2.04923  -0.00005   0.00001  -0.00023  -0.00023   2.04901
    R4        2.52849  -0.00023   0.00012  -0.00228  -0.00216   2.52633
    R5        2.05675  -0.00003  -0.00003   0.00031   0.00027   2.05702
    R6        2.65066   0.00033  -0.00009   0.00222   0.00213   2.65278
    R7        2.52398  -0.00031   0.00027  -0.00438  -0.00411   2.51987
    R8        2.05853   0.00016  -0.00009   0.00139   0.00130   2.05983
    R9        2.65020  -0.00079  -0.00012  -0.00017  -0.00029   2.64991
   R10        2.85139  -0.00048  -0.00012   0.00035   0.00023   2.85162
   R11        3.31246   0.00054  -0.00037   0.00664   0.00627   3.31873
   R12        2.87805  -0.00038   0.00006  -0.00083  -0.00077   2.87728
   R13        2.58460  -0.00025   0.00000  -0.00065  -0.00065   2.58395
   R14        2.31429  -0.00013   0.00002  -0.00053  -0.00052   2.31377
   R15        2.07073  -0.00028   0.00001  -0.00077  -0.00076   2.06997
   R16        2.06228   0.00008  -0.00002   0.00029   0.00027   2.06256
   R17        2.07213   0.00006  -0.00004   0.00072   0.00068   2.07280
   R18        2.76016   0.00037   0.00002   0.00142   0.00144   2.76159
   R19        2.07136  -0.00022   0.00008  -0.00147  -0.00139   2.06997
   R20        2.07164  -0.00011   0.00007  -0.00109  -0.00102   2.07062
   R21        1.90688   0.00022   0.00001   0.00003   0.00004   1.90692
    A1        2.05953  -0.00022   0.00014  -0.00254  -0.00240   2.05712
    A2        2.11486   0.00006  -0.00012   0.00193   0.00180   2.11666
    A3        2.10880   0.00016  -0.00002   0.00061   0.00060   2.10940
    A4        2.16028  -0.00021   0.00016  -0.00236  -0.00221   2.15808
    A5        2.09269  -0.00006   0.00029  -0.00393  -0.00364   2.08905
    A6        2.03021   0.00028  -0.00045   0.00629   0.00585   2.03606
    A7        2.18947  -0.00027   0.00012  -0.00180  -0.00168   2.18778
    A8        2.06973  -0.00002   0.00048  -0.00645  -0.00597   2.06377
    A9        2.02398   0.00029  -0.00060   0.00826   0.00765   2.03163
   A10        2.02264  -0.00031   0.00018  -0.00340  -0.00321   2.01942
   A11        2.10047   0.00004   0.00001   0.00035   0.00036   2.10083
   A12        2.16007   0.00027  -0.00020   0.00305   0.00286   2.16293
   A13        2.09660   0.00067  -0.00024   0.00477   0.00453   2.10113
   A14        2.07695  -0.00046   0.00006  -0.00184  -0.00178   2.07517
   A15        2.10964  -0.00020   0.00017  -0.00293  -0.00275   2.10688
   A16        2.01301   0.00017   0.00017  -0.00076  -0.00100   2.01201
   A17        2.14822  -0.00021   0.00026  -0.00356  -0.00370   2.14452
   A18        2.12192   0.00003  -0.00046   0.00391   0.00303   2.12495
   A19        1.96830  -0.00031  -0.00010  -0.00004  -0.00013   1.96817
   A20        1.89518  -0.00009   0.00017  -0.00261  -0.00244   1.89274
   A21        1.91681   0.00010   0.00010  -0.00021  -0.00011   1.91670
   A22        1.90838   0.00021  -0.00032   0.00491   0.00459   1.91297
   A23        1.88676   0.00009   0.00008  -0.00091  -0.00084   1.88592
   A24        1.88682   0.00001   0.00007  -0.00114  -0.00107   1.88575
   A25        1.94018   0.00027   0.00018  -0.00138  -0.00119   1.93899
   A26        1.93405  -0.00003  -0.00002   0.00006   0.00003   1.93408
   A27        1.91548  -0.00013  -0.00007  -0.00045  -0.00051   1.91497
   A28        1.90578  -0.00019   0.00002  -0.00141  -0.00139   1.90439
   A29        1.90711  -0.00008   0.00019  -0.00188  -0.00168   1.90543
   A30        1.85933   0.00015  -0.00033   0.00529   0.00495   1.86429
   A31        2.03785   0.00035  -0.00036   0.00534   0.00498   2.04283
   A32        2.10440  -0.00002   0.00034  -0.00418  -0.00384   2.10056
   A33        2.10172   0.00009  -0.00051   0.00640   0.00589   2.10761
   A34        2.07680  -0.00007   0.00017  -0.00232  -0.00215   2.07466
    D1        0.00275  -0.00001  -0.00005   0.00015   0.00011   0.00285
    D2       -3.14007   0.00000  -0.00008   0.00088   0.00080  -3.13927
    D3       -3.13811   0.00001  -0.00006   0.00113   0.00107  -3.13704
    D4        0.00226   0.00002  -0.00010   0.00186   0.00176   0.00402
    D5       -0.00481   0.00000  -0.00008   0.00088   0.00080  -0.00401
    D6        3.13907   0.00001   0.00008  -0.00005   0.00002   3.13910
    D7        3.13605  -0.00001  -0.00006  -0.00010  -0.00016   3.13589
    D8       -0.00325   0.00000   0.00010  -0.00103  -0.00093  -0.00418
    D9        0.00076   0.00001   0.00007  -0.00029  -0.00022   0.00054
   D10       -3.13965   0.00000   0.00010  -0.00099  -0.00089  -3.14054
   D11        0.00026   0.00000  -0.00016   0.00162   0.00146   0.00172
   D12       -3.14040   0.00001   0.00008  -0.00019  -0.00012  -3.14052
   D13       -3.13643  -0.00002  -0.00007   0.00023   0.00016  -3.13627
   D14        0.00609   0.00000   0.00016  -0.00158  -0.00142   0.00467
   D15       -0.00232   0.00000   0.00004  -0.00065  -0.00061  -0.00294
   D16        3.13448   0.00001  -0.00004   0.00067   0.00063   3.13511
   D17        0.00339   0.00000   0.00017  -0.00167  -0.00149   0.00190
   D18       -3.14054  -0.00001   0.00001  -0.00071  -0.00070  -3.14124
   D19       -3.13916  -0.00002  -0.00007   0.00022   0.00015  -3.13902
   D20        0.00010  -0.00003  -0.00023   0.00117   0.00094   0.00103
   D21        1.75626   0.00005  -0.00037   0.00930   0.00893   1.76518
   D22       -2.40423  -0.00003  -0.00023   0.00660   0.00637  -2.39786
   D23       -0.35554   0.00007  -0.00069   0.01285   0.01216  -0.34338
   D24       -1.38433   0.00007  -0.00012   0.00733   0.00722  -1.37712
   D25        0.73837  -0.00001   0.00002   0.00464   0.00466   0.74303
   D26        2.78706   0.00009  -0.00044   0.01088   0.01044   2.79750
   D27        0.58552   0.00031   0.00127   0.00425   0.00547   0.59099
   D28        2.70336   0.00031   0.00092   0.00861   0.00948   2.71284
   D29       -1.52000   0.00033   0.00116   0.00559   0.00670  -1.51330
   D30       -2.56513  -0.00053   0.00007  -0.04726  -0.04714  -2.61227
   D31       -0.44729  -0.00053  -0.00028  -0.04290  -0.04313  -0.49042
   D32        1.61254  -0.00050  -0.00004  -0.04592  -0.04591   1.56663
   D33        3.12537  -0.00027  -0.00045  -0.02067  -0.02118   3.10419
   D34       -0.04084  -0.00032  -0.00027  -0.02533  -0.02567  -0.06651
   D35       -0.00732   0.00055   0.00072   0.03003   0.03082   0.02350
   D36        3.10966   0.00051   0.00090   0.02537   0.02633   3.13599
   D37       -3.14005  -0.00007   0.00039  -0.01191  -0.01152   3.13162
   D38        0.02581  -0.00003   0.00022  -0.00744  -0.00723   0.01858
   D39        1.00402  -0.00009   0.00028  -0.01011  -0.00983   0.99419
   D40       -2.11330  -0.00005   0.00011  -0.00564  -0.00554  -2.11884
   D41       -1.02335  -0.00012   0.00055  -0.01460  -0.01404  -1.03739
   D42        2.14251  -0.00007   0.00039  -0.01014  -0.00975   2.13276
         Item               Value     Threshold  Converged?
 Maximum Force            0.000789     0.000450     NO 
 RMS     Force            0.000249     0.000300     YES
 Maximum Displacement     0.030957     0.001800     NO 
 RMS     Displacement     0.007889     0.001200     NO 
 Predicted change in Energy=-7.722851D-05
 GradGradGradGradGradGradGradGradGradGradGradGradGradGradGradGradGradGrad

[...]
 172,-0.01879765,0.03306527,0.00482461,-0.00503279,-0.00115002,-0.02512
 270,-0.30286110,0.04700399,-0.00195286,-0.01955204,0.01240385,0.005868
 61,-0.12637256,0.03324705,-0.00195328,-0.00142769,-0.00216008,0.083504
 11,0.73081284,0.00019130,-0.00009801,0.00050087,-0.00048862,0.00014864
 ,-0.00002223,-0.00064210,-0.00304637,-0.00040817,0.00979434,0.01114060
 ,-0.00952076,-0.00220540,0.00142937,0.00129280,-0.00702819,0.02148582,
 -0.14533446,0.00241929,0.03709291,-0.00568069,-0.01758494,0.04105834,-
 0.19305247,0.00119327,0.00058147,0.00038308,0.08598816,0.08606439,0.72
 782227,0.00018058,-0.00036664,-0.00005067,-0.00008565,0.00008651,-0.00
 000686,-0.00000996,0.00023518,-0.00004960,0.00012376,-0.00001685,0.000
 82663,-0.00046772,0.00099883,-0.00001436,-0.09651419,-0.05915081,-0.08
 298524,0.01442394,-0.00419245,-0.00893498,-0.00223405,0.00050248,-0.00
 117437,0.00000196,-0.00016901,0.00000716,0.01577331,-0.01721868,-0.007
 86489,0.05832499,-0.00022241,0.00044457,0.00000911,0.00015762,-0.00014
 755,-0.00001837,-0.00062952,0.00020840,0.00030096,0.00060644,0.0009408
 2,-0.00013410,0.00159292,-0.00254947,-0.00039225,-0.06088227,-0.297575
 88,-0.26991717,-0.00161729,0.01465301,-0.00499381,-0.00000285,0.003140
 26,-0.00864594,-0.00055878,-0.00046152,0.00011259,-0.01842084,-0.07348
 445,-0.05461215,0.08212428,0.36215499,-0.00022179,0.00061409,-0.000146
 68,0.00015616,-0.00017846,-0.00003663,0.00032207,0.00036236,0.00012346
 ,-0.00070316,0.00126083,0.00362410,0.00111690,-0.00192805,-0.00047730,
 -0.08315851,-0.26070367,-0.48753337,-0.01091232,-0.02617010,-0.0469008
 1,0.00293241,0.00273669,-0.00880430,-0.00036306,0.00013198,-0.00032504
 ,-0.00805477,-0.04886523,0.00792303,0.10142276,0.33100308,0.52870657,0
 .00828257,-0.01145502,-0.00064851,-0.00185139,-0.00170365,0.00116380,-
 0.00575472,-0.00424443,0.00154259,-0.00721618,0.03327196,0.00242074,-0
 .05044311,0.03123534,0.00403245,-0.00040675,0.00182187,0.00075603,0.00
 001479,-0.00006095,0.00000007,-0.00064667,0.00270017,-0.00117995,0.001
 84825,0.00150531,-0.00071497,-0.00126426,-0.00120006,0.00053297,0.0002
 5017,-0.00067437,-0.00046571,0.05679610,0.01322611,-0.04739482,-0.0023
 3042,-0.00914504,0.00487826,0.00127885,0.00228583,0.00544649,-0.000397
 58,0.01297328,-0.02733236,-0.00255652,0.03210259,-0.14740305,-0.006195
 29,0.00047966,-0.00212823,-0.00138616,-0.00007462,0.00013740,-0.000013
 96,-0.00361096,-0.00221314,0.00208526,0.00298401,-0.00304498,-0.000379
 56,-0.00066682,0.00296408,-0.00095834,-0.00062533,0.00111932,0.0010586
 1,-0.05226709,0.21523326,-0.00036252,0.00110905,0.00532081,0.00099952,
 0.00037110,0.00602318,0.00164347,0.00060742,0.00554146,0.00119939,-0.0
 0505595,0.00471203,0.00435477,-0.00640550,-0.02694495,0.00011407,-0.00
 098156,-0.00060760,0.00000263,0.00002758,0.00005697,-0.00084577,-0.000
 19838,-0.00237095,-0.00050593,-0.00017331,-0.00283309,0.00213829,0.000
 70439,-0.00057633,-0.00014206,0.00013562,0.00035274,-0.00759424,0.0098
 3462,0.01444271,-0.32783844,0.05937883,0.04361981,-0.00416913,-0.00099
 654,0.00068573,0.00101343,-0.00027158,-0.00015963,-0.00019044,-0.00387
 923,0.00109183,-0.01647212,0.00759041,0.00279757,-0.00002833,0.0002966
 5,0.00007958,0.00000973,-0.00002627,0.00000230,-0.00032005,0.00095795,
 -0.00011045,0.00125490,0.00170448,0.00099326,0.00002486,-0.00025136,0.
 00009331,0.00001638,-0.00013355,-0.00006929,0.00128237,0.00037667,-0.0
 0059568,0.34536720,0.06258213,-0.07166376,-0.00944367,0.03019938,0.001
 58985,-0.00444692,-0.00149093,-0.00219247,0.00018340,-0.00267105,-0.00
 343181,0.00038160,-0.02400800,0.00710839,0.00363065,-0.00002106,0.0001
 5460,0.00006202,-0.00000073,-0.00000853,0.00000045,-0.00103849,0.00091
 452,-0.00001965,0.00252290,-0.00580028,-0.00038326,0.00011863,-0.00009
 759,-0.00000740,0.00002870,-0.00008099,-0.00005217,-0.00076563,0.00149
 758,0.00017504,-0.06481803,0.07131130,0.04372593,-0.00922440,-0.040924
 27,0.00068006,0.00040223,0.00045024,-0.00028835,-0.00004655,-0.0000257
 9,0.00082922,0.00065544,0.00638935,0.00268381,-0.00107004,0.00160791,0
 .00002273,-0.00005145,0.00005993,-0.00000506,0.00000658,-0.00000184,0.
 00021963,-0.00019940,0.00057294,0.00107326,-0.00029705,0.00758448,-0.0
 0009379,0.00004021,-0.00010268,-0.00000078,0.00002110,-0.00003264,-0.0
 0057393,-0.00007049,-0.00265216,-0.04773492,0.00976581,0.03169776,0.00
 995537,0.00879035,-0.00053538,-0.16371171,-0.13377933,0.01688279,-0.00
 345492,0.00132695,0.00186576,-0.00031564,0.00010078,-0.00000174,-0.000
 00364,0.00204681,0.00104959,0.00001726,0.00022091,0.00000233,-0.000000
 53,-0.00002080,0.00000883,0.00008230,-0.00021602,-0.00036335,-0.032285
 87,-0.02049458,0.00394857,-0.00000217,-0.00016371,0.00004123,-0.000008
 45,-0.00011580,-0.00001731,0.00020714,0.00067949,-0.00007086,0.0004074
 3,-0.00055525,-0.00051223,0.18976894,-0.02063029,-0.01797401,0.0028740
 1,-0.13504717,-0.22505199,0.01842313,0.00325112,0.00207889,-0.00047638
 ,0.00094823,-0.00020545,-0.00012546,0.00284628,-0.00293520,-0.00047936
 ,0.00004296,0.00006054,-0.00007881,0.00000264,-0.00001355,0.00000613,-
 0.00003364,0.00010830,-0.00000148,0.00547682,0.01417328,-0.00071090,-0
 .00006561,-0.00002330,0.00002391,-0.00004774,-0.00001782,0.00004234,-0
 .00042639,-0.00175140,0.00005994,0.00029520,0.00070196,-0.00002365,0.1
 4308647,0.23060825,-0.00064053,-0.00120879,0.00608710,0.01704279,0.018
 08474,-0.04330768,0.00198256,-0.00016925,0.00965006,0.00006485,0.00004
 703,-0.00046621,0.00095595,-0.00039366,0.00716191,0.00001531,-0.000127
 61,-0.00014231,-0.00001821,0.00003177,0.00000873,-0.00027943,-0.000286
 83,-0.00148283,0.00379672,0.00307106,-0.00442342,0.00020130,0.00045599
 ,-0.00010066,0.00000342,0.00000326,0.00007462,-0.00003673,-0.00012858,
 -0.00033936,-0.00052606,0.00009799,-0.00304059,-0.02255216,-0.01950369
 ,0.02964381,0.00025972,0.00025889,-0.00009054,0.00033084,-0.00258326,0
 .00119398,-0.29426920,0.08353541,0.03460952,-0.00592264,0.00056414,0.0
 0148763,0.00087483,0.00079333,0.00064455,0.00004615,0.00004661,-0.0000
 1730,-0.00002978,0.00001020,0.00001121,0.00048972,-0.00163840,-0.00048
 059,-0.02655168,-0.00585955,0.00313043,0.00035077,0.00015404,-0.000238
 06,0.00003204,-0.00007133,-0.00001497,-0.00011907,0.00025310,0.0000226
 8,-0.00013965,0.00020968,-0.00015659,-0.00068668,0.00029003,0.00018335
 ,0.32447654,-0.00074731,-0.00065554,0.00010199,-0.00456051,-0.00158895
 ,0.00065158,0.08298246,-0.08348037,-0.01118072,0.02838169,-0.00660987,
 -0.00395613,-0.00037189,-0.00449454,0.00008406,-0.00004915,-0.00056798
 ,-0.00004237,0.00002589,0.00002837,-0.00001942,0.00303954,0.00067795,0
 .00046011,-0.03117645,0.00664653,0.00424902,-0.00045102,0.00045841,-0.
 00035271,-0.00001584,0.00026109,0.00012243,0.00163658,-0.00130269,-0.0
 0025932,0.00000360,0.00023834,-0.00000651,-0.00087024,0.00023587,0.000
 13204,-0.07637681,0.09031923,-0.00011266,-0.00005451,-0.00048907,0.001
 34823,0.00042428,0.00957858,0.03418992,-0.01086552,-0.04551536,0.00135
 614,-0.00044161,0.00631697,0.00081665,-0.00010748,0.00656228,0.0000316
 8,-0.00001910,-0.00020368,0.00000661,0.00005064,0.00001587,-0.00005270
 ,-0.00031013,-0.00322452,0.00325624,0.00071546,-0.00436134,-0.00002188
 ,0.00074987,-0.00011404,-0.00002126,-0.00007574,0.00003906,-0.00001065
 ,-0.00002882,-0.00027829,-0.00019918,-0.00002176,-0.00139385,0.0001872
 7,-0.00004325,0.00056262,-0.04039408,0.01021138,0.03216326,-0.00001131
 ,0.00000466,-0.00000414,0.00000150,-0.00001144,-0.00000116,0.00003492,
 -0.00002283,-0.00000374,-0.00002026,0.00002593,0.00002263,0.00001325,-
 0.00004945,0.00000481,-0.00439193,-0.00244461,-0.00082308,-0.05220160,
 -0.02078785,-0.01969560,-0.00002020,0.00012058,-0.00000107,-0.00001785
 ,0.00001224,0.00000004,-0.00039267,0.00005880,0.00032898,0.00265031,0.
 00039801,-0.00125561,-0.00000709,0.00003505,-0.00001865,-0.00000288,-0
 .00000160,0.00000669,-0.00000030,0.00000037,0.00000156,-0.00000858,0.0
 0000595,-0.00000368,0.04962171,-0.00000139,0.00002122,0.00000870,0.000
 01072,-0.00000328,-0.00000101,0.00003552,0.00000738,-0.00000397,-0.000
 09144,-0.00000561,-0.00006570,0.00000080,0.00000139,-0.00000245,0.0011
 9725,0.00958700,0.00743717,-0.02113200,-0.18670106,-0.13127118,0.00004
 663,0.00060598,-0.00048787,0.00000447,0.00002474,0.00001001,0.00004056
 ,-0.00064167,0.00028478,0.00066752,0.00116102,0.00448636,-0.00000567,0
 .00000200,0.00001016,0.00000315,0.00000005,-0.00000518,0.00000306,0.00
 000381,-0.00000323,-0.00000037,-0.00000450,-0.00000294,0.02296321,0.20
 085166,-0.00001033,0.00002349,0.00001108,0.00001894,0.00000962,-0.0000
 0738,0.00002219,0.00001949,-0.00001108,-0.00008039,-0.00003877,0.00009
 674,0.00007358,-0.00006736,-0.00004030,-0.00276189,-0.03045468,-0.0127
 4433,-0.01927023,-0.12784984,-0.17807177,0.00001924,0.00044089,0.00039
 391,-0.00000800,0.00002624,0.00000518,0.00035891,0.00131006,0.00191857
 ,-0.00118942,0.00417237,-0.00915407,-0.00001550,0.00003978,0.00003219,
 0.00000118,-0.00000069,-0.00000820,0.00000069,0.00000406,-0.00000025,-
 0.00000704,-0.00000068,-0.00000619,0.02210460,0.14265498,0.19073946,0.
 00000234,0.00003613,0.00000661,0.00001059,-0.00002477,-0.00000010,-0.0
 0000314,-0.00000884,-0.00000145,-0.00000700,-0.00003632,0.00002925,0.0
 0000916,-0.00006859,-0.00000798,-0.00022995,0.00022239,0.00077070,-0.2
 1499731,0.13249933,-0.00803791,-0.00030817,0.00000255,0.00019632,-0.00
 000756,0.00001136,-0.00000328,-0.00037930,-0.00062049,-0.00016581,0.00
 109914,-0.00066476,-0.00058004,0.00000703,0.00004454,-0.00001838,-0.00
 000037,-0.00000238,0.00000276,0.00000161,0.00000314,-0.00000181,0.0000
 0030,-0.00000146,0.00000192,0.00476250,-0.00414455,0.00112623,0.230845
 99,-0.00004063,0.00008531,-0.00002559,0.00001977,-0.00005033,0.0000016
 1,-0.00004293,-0.00003536,0.00002352,0.00007182,0.00010195,0.00028392,
 0.00015404,-0.00040821,-0.00003559,0.01049106,-0.01089326,0.00118638,0
 .13357669,-0.14792180,0.00358710,-0.00089293,-0.00014206,0.00005282,-0
 .00005830,0.00000302,-0.00002030,-0.00062029,-0.00037994,0.00263274,-0
 .00156180,0.00108591,-0.00146933,-0.00008465,0.00022372,-0.00001673,-0
 .00001475,-0.00001227,0.00000821,-0.00000495,0.00000565,0.00000784,-0.
 00001083,0.00001694,0.00000194,0.01789686,-0.01333468,0.00198718,-0.14
 473756,0.15869531,0.00003308,-0.00009654,0.00002659,-0.00002496,0.0000
 5019,-0.00000325,0.00010376,0.00000890,-0.00003631,-0.00012833,-0.0000
 4684,-0.00042804,-0.00014428,0.00039229,0.00004761,-0.02836300,0.02078
 946,-0.00055160,-0.00970238,0.00420277,-0.04765190,0.00134804,0.000691
 22,0.00014730,0.00005360,0.00003464,0.00003565,0.00076612,0.00051620,-
 0.00350161,0.00389998,-0.00152687,0.00058183,0.00009930,-0.00019224,-0
 .00002552,0.00001377,0.00001130,-0.00000035,0.00000594,-0.00000488,-0.
 00000821,-0.00000356,-0.00000900,-0.00001099,0.01943407,-0.01309945,0.
 00154225,0.00765354,-0.00698881,0.04985399,0.00000906,-0.00002216,-0.0
 0000287,0.00000114,0.00001448,-0.00000204,-0.00000003,0.00003204,0.000
 00366,-0.00002161,-0.00002943,0.00003341,-0.00002566,0.00006624,0.0000
 1245,0.00440929,0.00254547,-0.00249683,-0.22831218,-0.12217771,0.04607
 533,-0.00030802,0.00028057,-0.00019887,-0.00000419,-0.00002207,0.00000
 300,-0.00025647,0.00070591,-0.00020300,0.00058761,0.00068462,0.0005634
 1,0.00002310,-0.00004864,0.00000407,0.00000103,0.00000280,-0.00000292,
 -0.00000174,-0.00000377,0.00000008,0.00000339,-0.00000057,-0.00000274,
 -0.00101225,0.00029210,-0.00040920,-0.02096879,-0.01501438,0.00521959,
 0.24581299,-0.00000615,-0.00000667,0.00000647,-0.00001238,0.00001124,0
 .00000132,-0.00005506,-0.00001515,-0.00000014,0.00007057,0.00006107,-0
 .00002644,0.00005608,-0.00004979,-0.00003749,-0.01133483,-0.01036400,0
 .00336135,-0.12292974,-0.12556690,0.02822507,0.00081422,-0.00039836,-0
 .00010589,0.00000920,-0.00001347,-0.00000941,0.00082083,-0.00052320,0.
 00283931,0.00140816,0.00101090,-0.00199720,-0.00002551,0.00003062,0.00
 001636,-0.00000324,-0.00000219,-0.00000179,-0.00000340,-0.00000073,0.0
 0000138,0.00000021,0.00000544,0.00000679,-0.01819815,-0.01173549,0.005
 97689,0.01754082,0.01263239,-0.00483830,0.13253005,0.13440668,0.000014
 18,0.00002575,-0.00000119,0.00002138,-0.00001050,-0.00000301,0.0000444
 6,0.00003902,0.00000549,-0.00010899,-0.00010864,0.00001217,-0.00004262
 ,0.00002965,0.00002166,0.02890106,0.01796783,-0.00591344,0.04628975,0.
 02751791,-0.05981330,-0.00118964,0.00093632,0.00021167,0.00000329,0.00
 002505,0.00001436,-0.00121687,0.00065357,-0.00393200,-0.00350159,-0.00
 098676,0.00197323,0.00002945,-0.00001654,-0.00001068,0.00000591,0.0000
 0252,-0.00000369,0.00000552,0.00000354,-0.00000335,0.00000567,-0.00001
 500,-0.00000910,-0.02013197,-0.01156084,0.00597238,-0.00094888,-0.0011
 1977,-0.00007824,-0.04849925,-0.03379890,0.06208444,0.00045432,0.00010
 826,0.00078135,0.00020415,-0.00030971,-0.00005103,-0.00329097,-0.00057
 760,0.00002325,0.00194819,-0.01846614,-0.01774685,0.00119775,-0.001496
 07,-0.00017200,0.00180997,0.00107245,0.00094660,0.00005684,-0.00018335
 ,-0.00031543,-0.05398281,0.01526712,0.01328040,0.00024332,-0.00085312,
 0.00082575,0.00065333,-0.00235447,-0.00359875,-0.00174494,-0.00048854,
 -0.00072588,-0.00112313,0.00114133,-0.00021479,0.00000520,0.00003439,0
 .00001261,-0.00005072,0.00004739,-0.00017259,0.00017796,-0.00031241,-0
 .00004121,-0.00000231,0.00005240,-0.00010076,0.00000314,-0.00001595,0.
 00000577,-0.00000314,-0.00001880,0.00004079,0.05467306,0.00005114,-0.0
 0035049,0.00036753,0.00030543,-0.00002196,-0.00005235,-0.00243030,-0.0
 0039027,-0.00064842,-0.00146865,-0.01648256,-0.01022710,0.00190211,-0.
 00020546,0.00018738,0.00040075,0.00278298,0.00399544,0.00006953,-0.000
 48649,-0.00094090,0.01575398,-0.18803775,-0.14063287,-0.00021684,-0.00
 069809,0.00084542,-0.00121939,0.01283892,0.01258664,0.00007055,-0.0031
 7390,-0.00133086,0.00042889,0.00096220,0.00000265,-0.00000211,0.000051
 00,-0.00001046,-0.00007163,0.00001409,-0.00013218,-0.00015030,0.000117
 27,-0.00028593,-0.00006302,0.00027627,-0.00050446,0.00000057,-0.000093
 05,-0.00004706,-0.00001161,-0.00000734,0.00001369,-0.01434417,0.204034
 02,-0.00024267,0.00006518,-0.00021486,0.00003782,0.00020273,-0.0000217
 3,0.00053943,0.00091185,-0.00006087,-0.00183362,0.00334424,0.00603736,
 0.00039995,-0.00011432,0.00053786,-0.00109352,-0.00570397,-0.00379717,
 -0.00015943,-0.00003770,-0.00004299,0.01212366,-0.12832909,-0.17224841
 ,0.00018952,0.00028649,-0.00066806,0.00018988,-0.01885845,-0.03512099,
 0.00003409,0.00008606,0.00414582,0.00025333,0.00010895,0.00006388,0.00
 000052,-0.00001595,-0.00000678,0.00003971,0.00000264,0.00010427,0.0001
 2341,-0.00003258,0.00024830,0.00006235,0.00012671,0.00033346,0.0000028
 6,0.00011486,0.00006138,0.00004819,0.00004670,0.00008230,-0.01307415,0
 .14195503,0.20049112,-0.00089874,0.00109404,0.00022742,0.00045421,-0.0
 0003227,-0.00010983,0.00009343,0.00362620,0.00009087,-0.02473804,0.009
 22358,0.00079187,-0.00196512,-0.00412729,-0.00029103,-0.00016056,-0.00
 162128,0.00049283,-0.00029709,0.00008779,-0.00001880,-0.25005369,0.098
 24273,-0.01718885,0.00018964,-0.00060245,0.00005553,0.00765186,0.00176
 675,-0.00626555,-0.00008182,0.00059211,-0.00008835,0.00016617,-0.00028
 084,-0.00002915,-0.00022598,-0.00031927,0.00008225,0.00008286,-0.00005
 727,-0.00002534,0.00087621,-0.00131913,-0.00026629,-0.00000781,-0.0000
 0016,0.00001625,-0.00000251,0.00002159,-0.00003724,-0.00002343,-0.0000
 2871,0.00008229,-0.00117060,0.00095913,0.00076713,0.27040270,-0.000838
 76,0.00065027,0.00049506,-0.00012529,-0.00009939,-0.00003297,-0.002597
 11,0.00028456,0.00035433,-0.02241735,0.00860364,-0.00170946,-0.0018204
 6,-0.00434189,-0.00012486,0.00295669,0.00415840,0.00218394,-0.00071213
 ,-0.00042363,0.00006337,0.10136832,-0.10113093,0.00460158,0.00031116,0
 .00068644,-0.00016188,0.01046866,-0.01227997,0.01118427,-0.00106296,-0
 .00077621,-0.00138833,0.00022966,0.00043757,-0.00000208,-0.00020414,-0
 .00026762,0.00011235,0.00002192,-0.00000735,0.00000235,0.00042431,-0.0
 0021951,-0.00007856,0.00001632,0.00004595,-0.00002664,0.00002345,0.000
 01673,-0.00004743,0.00004652,-0.00014230,0.00027259,0.02162635,-0.0090
 4629,0.00227495,-0.10772588,0.11413091,0.00031465,-0.00004358,-0.00005
 121,-0.00009830,-0.00013165,0.00012781,-0.00001175,0.00006498,-0.00015
 025,0.00125609,-0.00195160,0.00128445,0.00057522,0.00017666,0.00109802
 ,-0.00355706,-0.00632513,-0.00361784,0.00189706,0.00045660,-0.00020331
 ,-0.01701695,0.00325271,-0.04948341,0.00025273,0.00038201,-0.00016897,
 -0.02548427,0.02811617,-0.01496326,-0.00024464,0.00173149,0.00289091,0
 .00047228,0.00017949,0.00004977,0.00001935,0.00007187,-0.00016146,0.00
 002936,0.00002165,-0.00000286,0.00000694,-0.00018657,0.00015015,-0.000
 04557,-0.00005804,-0.00000910,-0.00005129,-0.00012547,0.00014948,-0.00
 005948,0.00031535,-0.00039023,0.02096907,-0.00823758,0.00393837,0.0219
 9263,-0.01793385,0.05947018,-0.00021528,-0.00008009,-0.00004044,-0.000
 14030,0.00000691,0.00003712,0.00060819,-0.00086315,-0.00022154,0.00087
 999,0.00157123,0.00047667,-0.00046076,-0.00009557,0.00021867,-0.009391
 92,-0.00095449,-0.00258990,-0.00320014,0.00032399,0.00018034,-0.003806
 74,-0.00036963,0.00191039,0.00002587,0.00027483,0.00003609,-0.01037633
 ,-0.03781984,-0.05429756,0.00768258,-0.00167370,0.00011705,-0.00004532
 ,0.00013767,-0.00008085,0.00000487,-0.00000620,0.00002964,-0.00000055,
 0.00002124,0.00000499,-0.00019119,0.00017711,-0.00006835,0.00101285,0.
 00005818,0.00011095,0.00016228,0.00086813,-0.00023280,0.00008990,-0.00
 063419,0.00019604,-0.00005863,0.00003596,0.00159155,-0.00029169,0.0000
 1070,-0.00121607,0.01771233,0.00005217,0.00027455,0.00000996,0.0001776
 2,-0.00016810,0.00002361,0.00001551,0.00008474,-0.00023849,0.00115655,
 0.00159532,-0.00028930,-0.00077665,0.00039070,-0.00008956,-0.00316139,
 -0.00750102,-0.03482803,0.00039224,-0.00050858,-0.00052394,0.00261805,
 0.01238823,0.01671212,-0.00021327,-0.00034567,-0.00013322,-0.03849216,
 -0.18674169,-0.16947819,-0.00169413,-0.00791248,0.00226464,0.00008363,
 -0.00036182,0.00003890,-0.00000614,-0.00001009,-0.00000496,0.00001895,
 -0.00000984,0.00001838,0.00015090,-0.00008149,0.00017496,0.00004095,-0
 .00016220,0.00227807,-0.00007453,0.00040404,0.00020043,0.00012954,0.00
 066726,0.00012950,0.00007063,-0.00208309,0.00356568,0.00050063,-0.0002
 7938,0.00022449,0.03901091,0.19036063,0.00002245,-0.00013056,-0.000092
 78,-0.00008160,0.00007904,-0.00000661,0.00016335,0.00049267,0.00018128
 ,-0.00053456,-0.00076335,0.00119388,0.00067297,0.00001767,0.00002463,0
 .00166839,0.00105848,0.00605536,0.00042169,0.00157376,0.00007807,-0.00
 220304,-0.01716101,-0.01676731,-0.00000964,0.00001067,-0.00012013,-0.0
 5285025,-0.17349517,-0.32741027,-0.00001333,0.00372752,0.00297547,-0.0
 0006285,0.00006892,0.00004318,-0.00000891,0.00000882,-0.00000832,-0.00
 001456,-0.00001350,0.00002460,-0.00001661,0.00004839,-0.00003065,0.000
 01854,0.00154299,-0.00099256,0.00002674,-0.00008653,-0.00015007,-0.000
 08601,0.00001857,-0.00021947,-0.00067215,0.00309638,-0.00386226,-0.000
 27863,-0.00003872,0.00004276,0.05383800,0.17994495,0.33904121\\-0.0000
 0395,0.00001137,0.00000076,-0.00000162,-0.00000238,0.00000306,0.000006
 11,-0.00000574,-0.00000610,-0.00001906,0.00002903,0.00000595,0.0000226
 8,-0.00003620,-0.00000298,0.00000739,0.00000370,-0.00000763,-0.0000021
 5,0.00000789,-0.00000237,-0.00000276,-0.00001235,-0.00000751,0.0000002
 1,-0.00000033,-0.00000044,-0.00000066,0.00000087,0.00001659,-0.0000027
 7,0.00000213,0.00000062,-0.00000304,0.00001249,-0.00000006,0.00000100,
 -0.00000151,0.00000060,0.00000042,0.00000036,-0.00000032,0.,-0.0000016
 2,0.00000144,-0.00000059,-0.00000134,0.00000303,-0.00000228,-0.0000014
 8,0.00000037,0.00000003,-0.00000266,-0.00000093,0.00000138,0.00000069,
 -0.00000419,0.00000101,-0.00000098,0.00000486,-0.00000135,-0.00000195,
 -0.00000476\\\@


 FAULTILY FAULTLESS, ICILY REGULAR, SPLENDIDLY NULL...
           MAUDE BY TENNYSON
 Job cpu time:  0 days  1 hours  7 minutes  3.8 seconds.
 File lengths (MBytes):  RWF=    119 Int=      0 D2E=      0 Chk=      4 Scr=      1
 Normal termination of Gaussian 09 at Fri Feb 16 20:43:25 2018.
