 Entering Gaussian System, Link 0=g09
 Initial command:
 /home/fb_chem/chemsoft/lx24-amd64/Gaussian_09_C.01_NBO_3.1_64_istanbul-64/g09/l1.exe /local/2426266.1.parallel/Gau-20612.inp -scrdir=/local/2426266.1.parallel/
 Entering Link 1 = /home/fb_chem/chemsoft/lx24-amd64/Gaussian_09_C.01_NBO_3.1_64_istanbul-64/g09/l1.exe PID=     20613.
  
 Copyright (c) 1988,1990,1992,1993,1995,1998,2003,2009,2011,
            Gaussian, Inc.  All Rights Reserved.
  
 This is part of the Gaussian(R) 09 program.  It is based on
 the Gaussian(R) 03 system (copyright 2003, Gaussian, Inc.),
 the Gaussian(R) 98 system (copyright 1998, Gaussian, Inc.),
 the Gaussian(R) 94 system (copyright 1995, Gaussian, Inc.),
 the Gaussian 92(TM) system (copyright 1992, Gaussian, Inc.),
 the Gaussian 90(TM) system (copyright 1990, Gaussian, Inc.),
 the Gaussian 88(TM) system (copyright 1988, Gaussian, Inc.),
 the Gaussian 86(TM) system (copyright 1986, Carnegie Mellon
 University), and the Gaussian 82(TM) system (copyright 1983,
 Carnegie Mellon University). Gaussian is a federally registered
 trademark of Gaussian, Inc.
  
 This software contains proprietary and confidential information,
 including trade secrets, belonging to Gaussian, Inc.
  
 This software is provided under written license and may be
 used, copied, transmitted, or stored only in accord with that
 written license.
  
 The following legend is applicable only to US Government
 contracts under FAR:
  
                    RESTRICTED RIGHTS LEGEND
  
 Use, reproduction and disclosure by the US Government is
 subject to restrictions as set forth in subparagraphs (a)
 and (c) of the Commercial Computer Software - Restricted
 Rights clause in FAR 52.227-19.
  
 Gaussian, Inc.
 340 Quinnipiac St., Bldg. 40, Wallingford CT 06492
  
  
 ---------------------------------------------------------------
 Warning -- This program may not be used in any manner that
 competes with the business of Gaussian, Inc. or will provide
 assistance to any competitor of Gaussian, Inc.  The licensee
 of this program is prohibited from giving any competitor of
 Gaussian, Inc. access to this program.  By using this program,
 the user acknowledges that Gaussian, Inc. is engaged in the
 business of creating and licensing software in the field of
 computational chemistry and represents and warrants to the
 licensee that it is not a competitor of Gaussian, Inc. and that
 it will not use this program in any manner prohibited above.
 ---------------------------------------------------------------
  

 Cite this work as:
 Gaussian 09, Revision C.01,
 M. J. Frisch, G. W. Trucks, H. B. Schlegel, G. E. Scuseria, 
 M. A. Robb, J. R. Cheeseman, G. Scalmani, V. Barone, B. Mennucci, 
 G. A. Petersson, H. Nakatsuji, M. Caricato, X. Li, H. P. Hratchian, 
 A. F. Izmaylov, J. Bloino, G. Zheng, J. L. Sonnenberg, M. Hada, 
 M. Ehara, K. Toyota, R. Fukuda, J. Hasegawa, M. Ishida, T. Nakajima, 
 Y. Honda, O. Kitao, H. Nakai, T. Vreven, J. A. Montgomery, Jr., 
 J. E. Peralta, F. Ogliaro, M. Bearpark, J. J. Heyd, E. Brothers, 
 K. N. Kudin, V. N. Staroverov, T. Keith, R. Kobayashi, J. Normand, 
 K. Raghavachari, A. Rendell, J. C. Burant, S. S. Iyengar, J. Tomasi, 
 M. Cossi, N. Rega, J. M. Millam, M. Klene, J. E. Knox, J. B. Cross, 
 V. Bakken, C. Adamo, J. Jaramillo, R. Gomperts, R. E. Stratmann, 
 O. Yazyev, A. J. Austin, R. Cammi, C. Pomelli, J. W. Ochterski, 
 R. L. Martin, K. Morokuma, V. G. Zakrzewski, G. A. Voth, 
 P. Salvador, J. J. Dannenberg, S. Dapprich, A. D. Daniels, 
 O. Farkas, J. B. Foresman, J. V. Ortiz, J. Cioslowski, 
 and D. J. Fox, Gaussian, Inc., Wallingford CT, 2010.
 
 ******************************************
 Gaussian 09:  AM64L-G09RevC.01 23-Sep-2011
                26-Feb-2018 
 ******************************************
 %nprocs=4
 Will use up to    4 processors via shared memory.
 %chk=frag2-conf0.chk
 ----------------------------------------------------------------------
 #HF/6-31G* Geom=AllCheck Guess=Read Pop=(MK,ReadRadii) Integral=(Grid=
 UltraFine) iop(6/33=2)
 ----------------------------------------------------------------------
 1/29=7,38=1/1;
 2/12=2,40=1/2;
 3/5=1,6=6,7=1,11=9,14=-4,16=1,25=1,30=1,75=-5,116=-2/1,2,3;
 4/5=1/1;
 5/5=2,38=6/2;
 6/7=2,8=2,9=2,10=2,15=8,20=101,28=1,33=2/1,2;
 99/5=1,9=1/99;
 Structure from the checkpoint file:  frag2-conf0.chk
 ----------------------------
 Optimization for frag2-conf0
 ----------------------------
 Charge =  0 Multiplicity = 1
 Redundant internal coordinates found in file.
 C,0,-0.1211864211,1.7824025306,-1.9620339122
 C,0,2.139035089,2.384888703,1.145868773
 C,0,-0.9475263274,-3.1889143992,-1.1322045655
 C,0,-0.2905757607,0.4711814697,-1.2044416545
 N,0,1.0188578021,1.435699076,1.047427845
 N,0,-0.4030429458,-0.6697005392,-2.0751900953
 O,0,-1.9983705537,-2.1452458499,-3.3398102072
 O,0,-2.6887685662,-1.194966684,-1.0628284928
 O,0,2.3928243975,0.3318309893,-0.8383841604
 O,0,0.8627048443,-1.079186651,0.663153959
 S,0,-1.6840499234,-1.7732783256,-1.9591180968
 S,0,1.1526157705,0.1641932974,-0.0702313699
 H,0,0.7641907399,1.7489064518,-2.6050566513
 H,0,-1.0085426017,1.9546984194,-2.5791898787
 H,0,-0.0159151301,2.6184893959,-1.2658792194
 H,0,2.3398969998,2.8104194608,0.1617881331
 H,0,3.0638706879,1.9331981314,1.5228663756
 H,0,1.8280870682,3.1904503398,1.8170177536
 H,0,-1.7508258755,-3.9081825189,-0.9561674853
 H,0,-0.1874235964,-3.6135851122,-1.7899778078
 H,0,-0.5024350603,-2.8462394581,-0.1969357184
 H,0,-1.1545163113,0.5012683211,-0.5353055548
 H,0,0.7590286054,1.0258608458,1.9421575342
 H,0,-0.0774777806,-0.5665336447,-3.0302199579
 Recover connectivity data from disk.
                          Input orientation:                          
 ---------------------------------------------------------------------
 Center     Atomic      Atomic             Coordinates (Angstroms)
 Number     Number       Type             X           Y           Z
 ---------------------------------------------------------------------
      1          6           0       -0.121186    1.782403   -1.962034
      2          6           0        2.139035    2.384889    1.145869
      3          6           0       -0.947526   -3.188914   -1.132205
      4          6           0       -0.290576    0.471181   -1.204442
      5          7           0        1.018858    1.435699    1.047428
      6          7           0       -0.403043   -0.669701   -2.075190
      7          8           0       -1.998371   -2.145246   -3.339810
      8          8           0       -2.688769   -1.194967   -1.062828
      9          8           0        2.392824    0.331831   -0.838384
     10          8           0        0.862705   -1.079187    0.663154
     11         16           0       -1.684050   -1.773278   -1.959118
     12         16           0        1.152616    0.164193   -0.070231
     13          1           0        0.764191    1.748906   -2.605057
     14          1           0       -1.008543    1.954698   -2.579190
     15          1           0       -0.015915    2.618489   -1.265879
     16          1           0        2.339897    2.810419    0.161788
     17          1           0        3.063871    1.933198    1.522866
     18          1           0        1.828087    3.190450    1.817018
     19          1           0       -1.750826   -3.908183   -0.956167
     20          1           0       -0.187424   -3.613585   -1.789978
     21          1           0       -0.502435   -2.846239   -0.196936
     22          1           0       -1.154516    0.501268   -0.535306
     23          1           0        0.759029    1.025861    1.942158
     24          1           0       -0.077478   -0.566534   -3.030220
 ---------------------------------------------------------------------
                    Distance matrix (angstroms):
                    1          2          3          4          5
     1  C    0.000000
     2  C    3.889814   0.000000
     3  C    5.107391   6.766370   0.000000
     4  C    1.523791   3.884488   3.719288   0.000000
     5  N    3.236783   1.471546   5.477638   2.777738   0.000000
     6  N    2.470841   5.115457   2.744471   1.439605   4.025575
     7  O    4.566017   7.600103   2.658391   3.784449   6.416751
     8  O    4.033085   6.403233   2.648125   2.923599   5.011993
     9  O    3.112394   2.866481   4.862090   2.711836   2.581200
    10  O    4.006039   3.723151   3.309260   2.687305   2.548863
    11  S    3.883995   6.445718   1.797298   2.747527   5.161644
    12  S    2.796442   2.717243   4.096549   1.861042   1.698170
    13  H    1.094757   4.045258   5.429672   2.169524   3.674724
    14  H    1.094517   4.895750   5.343617   2.146213   4.187131
    15  H    1.093048   3.242670   5.883172   2.165674   2.796630
    16  H    3.409453   1.090796   6.962297   3.775977   2.102227
    17  H    4.723543   1.096117   7.026859   4.563772   2.157690
    18  H    4.479230   1.093645   7.556338   4.583925   2.079969
    19  H    6.004186   7.691055   1.092532   4.623073   6.343707
    20  H    5.399136   7.072008   1.091223   4.127809   5.916186
    21  H    4.968425   6.012087   1.090990   3.473505   4.711451
    22  H    2.178217   4.149922   3.743873   1.093180   2.846359
    23  H    4.073063   2.094147   5.488931   3.363098   1.017851
    24  H    2.580781   5.573468   3.352063   2.110860   4.673125
                    6          7          8          9         10
     6  N    0.000000
     7  O    2.514273   0.000000
     8  O    2.554471   2.562094   0.000000
     9  O    3.217084   5.628111   5.310751   0.000000
    10  O    3.044392   5.034477   3.950365   2.566487   0.000000
    11  S    1.694797   1.464059   1.465346   4.723180   3.720757
    12  S    2.671201   5.094347   4.193900   1.468427   1.472378
    13  H    2.737308   4.830738   4.792472   2.789567   4.323079
    14  H    2.740094   4.285772   3.878518   4.151313   4.818591
    15  H    3.408379   5.560979   4.661311   3.348669   4.262153
    16  H    4.963771   7.459248   6.544485   2.673303   4.190764
    17  H    5.633878   8.118227   7.040177   2.930902   3.828668
    18  H    5.918445   8.348910   6.922960   3.942308   4.526938
    19  H    3.681915   2.975059   2.872743   5.929707   4.178033
    20  H    2.965518   2.799559   3.554601   4.809316   3.680190
    21  H    2.876637   3.550616   2.873417   4.346736   2.392872
    22  H    2.075361   3.947325   2.347216   3.564294   2.829015
    23  H    4.512696   6.749693   5.084223   3.298845   2.465324
    24  H    1.014257   2.505595   3.329324   3.422513   3.845487
                   11         12         13         14         15
    11  S    0.000000
    12  S    3.920250   0.000000
    13  H    4.337846   3.014553   0.000000
    14  H    3.839090   3.764490   1.784826   0.000000
    15  H    4.748776   2.969614   1.777114   1.775025   0.000000
    16  H    6.457606   2.909636   3.356351   4.411039   2.761326
    17  H    6.957365   3.052906   4.728873   5.780301   4.210915
    18  H    7.157717   3.629904   4.771233   5.375890   3.637545
    19  H    2.359700   5.079282   6.406778   6.128504   6.760420
    20  H    2.378072   4.361748   5.506926   5.683562   6.256424
    21  H    2.377550   3.437725   5.340295   5.383334   5.589508
    22  H    2.735180   2.377556   3.085759   2.512216   2.512524
    23  H    5.387371   2.224206   4.604343   4.942634   3.664492
    24  H    2.276964   3.287647   2.500087   2.725238   3.641574
                   16         17         18         19         20
    16  H    0.000000
    17  H    1.773750   0.000000
    18  H    1.773741   1.787280   0.000000
    19  H    7.945027   7.965465   8.419606   0.000000
    20  H    7.173881   7.232749   7.960377   1.796178   0.000000
    21  H    6.340767   6.206390   6.777091   1.806277   1.796061
    22  H    4.246062   4.907268   4.654143   4.469448   4.409250
    23  H    2.975485   2.512243   2.417435   6.248555   6.029019
    24  H    5.237979   6.070200   6.421979   4.274155   3.291627
                   21         22         23         24
    21  H    0.000000
    22  H    3.427173   0.000000
    23  H    4.600019   3.174063   0.000000
    24  H    3.661304   2.919728   5.287722   0.000000
 Stoichiometry    C4H12N2O4S2
 Framework group  C1[X(C4H12N2O4S2)]
 Deg. of freedom    66
 Full point group                 C1      NOp   1
 Largest Abelian subgroup         C1      NOp   1
 Largest concise Abelian subgroup C1      NOp   1
                         Standard orientation:                         
 ---------------------------------------------------------------------
 Center     Atomic      Atomic             Coordinates (Angstroms)
 Number     Number       Type             X           Y           Z
 ---------------------------------------------------------------------
      1          6           0        0.806129    2.237995   -0.067173
      2          6           0        4.038169    0.126733    0.409423
      3          6           0       -2.444600   -1.697222   -0.246827
      4          6           0        0.228228    0.851827    0.190719
      5          7           0        2.695104   -0.200413    0.914002
      6          7           0       -0.959959    0.587164   -0.577805
      7          8           0       -3.470079    0.729452   -0.602761
      8          8           0       -2.254857    0.200850    1.589987
      9          8           0        1.993193   -0.215520   -1.569883
     10          8           0        0.843173   -1.763317    0.123821
     11         16           0       -2.401505    0.057635    0.139048
     12         16           0        1.465336   -0.475086   -0.224420
     13          1           0        1.043202    2.369776   -1.127797
     14          1           0        0.072254    2.991918    0.234481
     15          1           0        1.718043    2.389596    0.516080
     16          1           0        3.975953    0.995375   -0.247408
     17          1           0        4.509404   -0.693144   -0.144843
     18          1           0        4.658327    0.385894    1.272150
     19          1           0       -3.317909   -2.113438    0.260835
     20          1           0       -2.538111   -1.808768   -1.328299
     21          1           0       -1.518277   -2.149588    0.110318
     22          1           0        0.014535    0.695420    1.251338
     23          1           0        2.688864   -0.985794    1.561426
     24          1           0       -1.132588    1.167013   -1.391864
 ---------------------------------------------------------------------
 Rotational constants (GHZ):      1.5244409      0.4204175      0.3899225
 Standard basis: 6-31G(d) (6D, 7F)
 There are   212 symmetry adapted basis functions of A   symmetry.
 Integral buffers will be    131072 words long.
 Raffenetti 1 integral format.
 Two-electron integral symmetry is turned on.
   212 basis functions,   432 primitive gaussians,   212 cartesian basis functions
    57 alpha electrons       57 beta electrons
       nuclear repulsion energy      1101.0685976250 Hartrees.
 NAtoms=   24 NActive=   24 NUniq=   24 SFac= 1.00D+00 NAtFMM=   60 NAOKFM=F Big=F
 One-electron integrals computed using PRISM.
 NBasis=   212 RedAO= T  NBF=   212
 NBsUse=   212 1.00D-06 NBFU=   212
 Initial guess read from the checkpoint file:  frag2-conf0.chk
 B after Tr=     0.000000    0.000000    0.000000
         Rot=    1.000000    0.000000    0.000000    0.000000 Ang=   0.00 deg.
 Initial guess orbital symmetries:
       Occupied  (A) (A) (A) (A) (A) (A) (A) (A) (A) (A) (A) (A)
                 (A) (A) (A) (A) (A) (A) (A) (A) (A) (A) (A) (A)
                 (A) (A) (A) (A) (A) (A) (A) (A) (A) (A) (A) (A)
                 (A) (A) (A) (A) (A) (A) (A) (A) (A) (A) (A) (A)
                 (A) (A) (A) (A) (A) (A) (A) (A) (A)
       Virtual   (A) (A) (A) (A) (A) (A) (A) (A) (A) (A) (A) (A)
                 (A) (A) (A) (A) (A) (A) (A) (A) (A) (A) (A) (A)
                 (A) (A) (A) (A) (A) (A) (A) (A) (A) (A) (A) (A)
                 (A) (A) (A) (A) (A) (A) (A) (A) (A) (A) (A) (A)
                 (A) (A) (A) (A) (A) (A) (A) (A) (A) (A) (A) (A)
                 (A) (A) (A) (A) (A) (A) (A) (A) (A) (A) (A) (A)
                 (A) (A) (A) (A) (A) (A) (A) (A) (A) (A) (A) (A)
                 (A) (A) (A) (A) (A) (A) (A) (A) (A) (A) (A) (A)
                 (A) (A) (A) (A) (A) (A) (A) (A) (A) (A) (A) (A)
                 (A) (A) (A) (A) (A) (A) (A) (A) (A) (A) (A) (A)
                 (A) (A) (A) (A) (A) (A) (A) (A) (A) (A) (A) (A)
                 (A) (A) (A) (A) (A) (A) (A) (A) (A) (A) (A) (A)
                 (A) (A) (A) (A) (A) (A) (A) (A) (A) (A) (A)
 Requested convergence on RMS density matrix=1.00D-08 within 128 cycles.
 Requested convergence on MAX density matrix=1.00D-06.
 Requested convergence on             energy=1.00D-06.
 No special actions if energy rises.
 SCF Done:  E(RHF) =  -1361.66436385     A.U. after   13 cycles
             Convg  =    0.3075D-08             -V/T =  2.0021

 **********************************************************************

            Population analysis using the SCF density.

 **********************************************************************

 Orbital symmetries:
 BldTbl:  Degeneracy threshold= 1.00D-02
       Occupied  (A) (A) (A) (A) (A) (A) (A) (A) (A) (A) (A) (A)
                 (A) (A) (A) (A) (A) (A) (A) (A) (A) (A) (A) (A)
                 (A) (A) (A) (A) (A) (A) (A) (A) (A) (A) (A) (A)
                 (A) (A) (A) (A) (A) (A) (A) (A) (A) (A) (A) (A)
                 (A) (A) (A) (A) (A) (A) (A) (A) (A)
       Virtual   (A) (A) (A) (A) (A) (A) (A) (A) (A) (A) (A) (A)
                 (A) (A) (A) (A) (A) (A) (A) (A) (A) (A) (A) (A)
                 (A) (A) (A) (A) (A) (A) (A) (A) (A) (A) (A) (A)
                 (A) (A) (A) (A) (A) (A) (A) (A) (A) (A) (A) (A)
                 (A) (A) (A) (A) (A) (A) (A) (A) (A) (A) (A) (A)
                 (A) (A) (A) (A) (A) (A) (A) (A) (A) (A) (A) (A)
                 (A) (A) (A) (A) (A) (A) (A) (A) (A) (A) (A) (A)
                 (A) (A) (A) (A) (A) (A) (A) (A) (A) (A) (A) (A)
                 (A) (A) (A) (A) (A) (A) (A) (A) (A) (A) (A) (A)
                 (A) (A) (A) (A) (A) (A) (A) (A) (A) (A) (A) (A)
                 (A) (A) (A) (A) (A) (A) (A) (A) (A) (A) (A) (A)
                 (A) (A) (A) (A) (A) (A) (A) (A) (A) (A) (A) (A)
                 (A) (A) (A) (A) (A) (A) (A) (A) (A) (A) (A)
 The electronic state is 1-A.
 Alpha  occ. eigenvalues --  -92.22216 -92.21372 -20.57070 -20.57055 -20.56745
 Alpha  occ. eigenvalues --  -20.56510 -15.62581 -15.62211 -11.34001 -11.28643
 Alpha  occ. eigenvalues --  -11.27332 -11.25987  -9.19292  -9.18662  -6.87904
 Alpha  occ. eigenvalues --   -6.87868  -6.87740  -6.87223  -6.87218  -6.87080
 Alpha  occ. eigenvalues --   -1.46456  -1.46003  -1.34614  -1.34535  -1.26054
 Alpha  occ. eigenvalues --   -1.23959  -1.07435  -1.02886  -0.97487  -0.91958
 Alpha  occ. eigenvalues --   -0.85775  -0.82717  -0.74131  -0.72026  -0.71258
 Alpha  occ. eigenvalues --   -0.69326  -0.67800  -0.66725  -0.64402  -0.64227
 Alpha  occ. eigenvalues --   -0.61148  -0.60710  -0.59980  -0.59637  -0.58741
 Alpha  occ. eigenvalues --   -0.57265  -0.55368  -0.52547  -0.51717  -0.50352
 Alpha  occ. eigenvalues --   -0.50197  -0.48972  -0.47826  -0.47319  -0.46390
 Alpha  occ. eigenvalues --   -0.43844  -0.41859
 Alpha virt. eigenvalues --    0.18748   0.20137   0.22517   0.22946   0.23393
 Alpha virt. eigenvalues --    0.24022   0.24642   0.24732   0.25752   0.27062
 Alpha virt. eigenvalues --    0.27086   0.28027   0.29244   0.29487   0.31190
 Alpha virt. eigenvalues --    0.31378   0.32465   0.33018   0.34207   0.35206
 Alpha virt. eigenvalues --    0.38081   0.39622   0.41391   0.51468   0.53495
 Alpha virt. eigenvalues --    0.55005   0.56594   0.60231   0.63511   0.64746
 Alpha virt. eigenvalues --    0.69130   0.71404   0.71762   0.73433   0.74750
 Alpha virt. eigenvalues --    0.74979   0.76062   0.77210   0.78942   0.80521
 Alpha virt. eigenvalues --    0.88070   0.91040   0.91667   0.94500   0.96529
 Alpha virt. eigenvalues --    0.98544   1.00896   1.02355   1.02992   1.03943
 Alpha virt. eigenvalues --    1.04735   1.07593   1.09164   1.10648   1.11404
 Alpha virt. eigenvalues --    1.13093   1.13362   1.13877   1.14991   1.15522
 Alpha virt. eigenvalues --    1.16225   1.16688   1.18359   1.18765   1.21244
 Alpha virt. eigenvalues --    1.21780   1.23845   1.24951   1.27093   1.28755
 Alpha virt. eigenvalues --    1.30480   1.31816   1.33160   1.34355   1.36120
 Alpha virt. eigenvalues --    1.37307   1.41311   1.41928   1.45793   1.46191
 Alpha virt. eigenvalues --    1.48998   1.49222   1.50604   1.52385   1.54646
 Alpha virt. eigenvalues --    1.59667   1.64806   1.67435   1.68437   1.69384
 Alpha virt. eigenvalues --    1.76422   1.77186   1.81653   1.85747   1.89189
 Alpha virt. eigenvalues --    1.92901   1.96509   1.97918   2.02143   2.07191
 Alpha virt. eigenvalues --    2.08820   2.09364   2.09960   2.10504   2.11714
 Alpha virt. eigenvalues --    2.13194   2.14792   2.15768   2.18655   2.21808
 Alpha virt. eigenvalues --    2.23820   2.28125   2.29185   2.30651   2.31455
 Alpha virt. eigenvalues --    2.33072   2.37874   2.38699   2.39536   2.43378
 Alpha virt. eigenvalues --    2.43590   2.46832   2.47754   2.49966   2.52944
 Alpha virt. eigenvalues --    2.54072   2.57081   2.60772   2.61801   2.62407
 Alpha virt. eigenvalues --    2.63260   2.65667   2.67530   2.73838   2.74368
 Alpha virt. eigenvalues --    2.80539   2.96303   2.98079   3.07403   3.10743
 Alpha virt. eigenvalues --    3.14270   3.18139   3.18883   4.13487   4.20756
 Alpha virt. eigenvalues --    4.27901   4.34458   4.36474   4.37889   4.39090
 Alpha virt. eigenvalues --    4.49757   4.63553   4.65777   4.67255   4.84000
          Condensed to atoms (all electrons):
              1          2          3          4          5          6
     1  C    5.186455  -0.000097  -0.000082   0.291195   0.000344  -0.052767
     2  C   -0.000097   4.944932   0.000000   0.000519   0.199448  -0.000018
     3  C   -0.000082   0.000000   5.513059   0.000220  -0.000006  -0.059986
     4  C    0.291195   0.000519   0.000220   5.347606  -0.051417   0.175879
     5  N    0.000344   0.199448  -0.000006  -0.051417   7.476391   0.002099
     6  N   -0.052767  -0.000018  -0.059986   0.175879   0.002099   7.555501
     7  O   -0.000035   0.000000  -0.060297   0.001054   0.000000  -0.053922
     8  O   -0.000006   0.000000  -0.058898  -0.000362   0.000001  -0.056173
     9  O    0.003476   0.004412  -0.000018  -0.058570  -0.049796   0.003176
    10  O    0.001592   0.000602  -0.005058  -0.057827  -0.052494   0.003766
    11  S    0.000917   0.000000   0.313950  -0.016060   0.000038   0.163723
    12  S   -0.040479  -0.019229  -0.000274   0.301262   0.165297  -0.055781
    13  H    0.390372   0.000022   0.000000  -0.038683   0.000347  -0.002221
    14  H    0.385527  -0.000003   0.000005  -0.032002  -0.000137  -0.000576
    15  H    0.388559  -0.000650   0.000002  -0.034349   0.003311   0.003882
    16  H    0.000307   0.398574   0.000000   0.000201  -0.035333  -0.000009
    17  H   -0.000005   0.403521   0.000000  -0.000064  -0.045079   0.000002
    18  H    0.000064   0.393164   0.000000  -0.000084  -0.037374   0.000000
    19  H    0.000001   0.000000   0.364535  -0.000038   0.000000   0.002268
    20  H    0.000001   0.000000   0.356022   0.000113   0.000000   0.001122
    21  H    0.000000   0.000000   0.351470   0.000260   0.000009  -0.000914
    22  H   -0.020126   0.000032  -0.000101   0.373040   0.004141  -0.033121
    23  H    0.000013  -0.024296   0.000000   0.001118   0.313884  -0.000044
    24  H   -0.001463   0.000000   0.001049  -0.024152  -0.000010   0.315266
              7          8          9         10         11         12
     1  C   -0.000035  -0.000006   0.003476   0.001592   0.000917  -0.040479
     2  C    0.000000   0.000000   0.004412   0.000602   0.000000  -0.019229
     3  C   -0.060297  -0.058898  -0.000018  -0.005058   0.313950  -0.000274
     4  C    0.001054  -0.000362  -0.058570  -0.057827  -0.016060   0.301262
     5  N    0.000000   0.000001  -0.049796  -0.052494   0.000038   0.165297
     6  N   -0.053922  -0.056173   0.003176   0.003766   0.163723  -0.055781
     7  O    8.330964  -0.035308   0.000000   0.000000   0.494720  -0.000076
     8  O   -0.035308   8.354947   0.000000  -0.000111   0.475596  -0.000708
     9  O    0.000000   0.000000   8.370191  -0.034698   0.000060   0.453759
    10  O    0.000000  -0.000111  -0.034698   8.374469   0.003777   0.467651
    11  S    0.494720   0.475596   0.000060   0.003777  13.009413  -0.002309
    12  S   -0.000076  -0.000708   0.453759   0.467651  -0.002309  13.128350
    13  H    0.000003  -0.000004   0.004501   0.000009  -0.000152  -0.006013
    14  H   -0.000029   0.000106  -0.000004  -0.000026   0.000222   0.003708
    15  H    0.000000   0.000000  -0.000520  -0.000014   0.000013  -0.002829
    16  H    0.000000   0.000000   0.001002  -0.000020   0.000000  -0.002318
    17  H    0.000000   0.000000   0.000563   0.000221   0.000000  -0.003857
    18  H    0.000000   0.000000   0.000236  -0.000059   0.000000   0.002267
    19  H    0.000220   0.000535   0.000000   0.000091  -0.020292   0.000026
    20  H    0.000796   0.001591   0.000001  -0.000020  -0.013178   0.000007
    21  H    0.001384   0.000614   0.000002   0.006826  -0.009694  -0.000225
    22  H    0.000125   0.008432   0.001334   0.001473  -0.002559  -0.028456
    23  H    0.000000   0.000000   0.000726   0.003292  -0.000002  -0.009814
    24  H    0.002783   0.000655   0.000219  -0.000002  -0.006338   0.000317
             13         14         15         16         17         18
     1  C    0.390372   0.385527   0.388559   0.000307  -0.000005   0.000064
     2  C    0.000022  -0.000003  -0.000650   0.398574   0.403521   0.393164
     3  C    0.000000   0.000005   0.000002   0.000000   0.000000   0.000000
     4  C   -0.038683  -0.032002  -0.034349   0.000201  -0.000064  -0.000084
     5  N    0.000347  -0.000137   0.003311  -0.035333  -0.045079  -0.037374
     6  N   -0.002221  -0.000576   0.003882  -0.000009   0.000002   0.000000
     7  O    0.000003  -0.000029   0.000000   0.000000   0.000000   0.000000
     8  O   -0.000004   0.000106   0.000000   0.000000   0.000000   0.000000
     9  O    0.004501  -0.000004  -0.000520   0.001002   0.000563   0.000236
    10  O    0.000009  -0.000026  -0.000014  -0.000020   0.000221  -0.000059
    11  S   -0.000152   0.000222   0.000013   0.000000   0.000000   0.000000
    12  S   -0.006013   0.003708  -0.002829  -0.002318  -0.003857   0.002267
    13  H    0.485441  -0.022751  -0.021861   0.000043  -0.000001   0.000001
    14  H   -0.022751   0.476662  -0.019222   0.000006   0.000000  -0.000001
    15  H   -0.021861  -0.019222   0.479290   0.000084   0.000048  -0.000055
    16  H    0.000043   0.000006   0.000084   0.482147  -0.028157  -0.023364
    17  H   -0.000001   0.000000   0.000048  -0.028157   0.514202  -0.032088
    18  H    0.000001  -0.000001  -0.000055  -0.023364  -0.032088   0.510121
    19  H    0.000000   0.000000   0.000000   0.000000   0.000000   0.000000
    20  H    0.000000   0.000000   0.000000   0.000000   0.000000   0.000000
    21  H    0.000000   0.000000   0.000000   0.000000   0.000000   0.000000
    22  H    0.003075  -0.003366  -0.001831  -0.000008   0.000003  -0.000004
    23  H   -0.000004   0.000002   0.000039   0.002933  -0.000714  -0.003281
    24  H    0.002257   0.000149   0.000055   0.000000   0.000000   0.000000
             19         20         21         22         23         24
     1  C    0.000001   0.000001   0.000000  -0.020126   0.000013  -0.001463
     2  C    0.000000   0.000000   0.000000   0.000032  -0.024296   0.000000
     3  C    0.364535   0.356022   0.351470  -0.000101   0.000000   0.001049
     4  C   -0.000038   0.000113   0.000260   0.373040   0.001118  -0.024152
     5  N    0.000000   0.000000   0.000009   0.004141   0.313884  -0.000010
     6  N    0.002268   0.001122  -0.000914  -0.033121  -0.000044   0.315266
     7  O    0.000220   0.000796   0.001384   0.000125   0.000000   0.002783
     8  O    0.000535   0.001591   0.000614   0.008432   0.000000   0.000655
     9  O    0.000000   0.000001   0.000002   0.001334   0.000726   0.000219
    10  O    0.000091  -0.000020   0.006826   0.001473   0.003292  -0.000002
    11  S   -0.020292  -0.013178  -0.009694  -0.002559  -0.000002  -0.006338
    12  S    0.000026   0.000007  -0.000225  -0.028456  -0.009814   0.000317
    13  H    0.000000   0.000000   0.000000   0.003075  -0.000004   0.002257
    14  H    0.000000   0.000000   0.000000  -0.003366   0.000002   0.000149
    15  H    0.000000   0.000000   0.000000  -0.001831   0.000039   0.000055
    16  H    0.000000   0.000000   0.000000  -0.000008   0.002933   0.000000
    17  H    0.000000   0.000000   0.000000   0.000003  -0.000714   0.000000
    18  H    0.000000   0.000000   0.000000  -0.000004  -0.003281   0.000000
    19  H    0.453697  -0.016407  -0.013967   0.000012   0.000000  -0.000022
    20  H   -0.016407   0.459145  -0.016025  -0.000013   0.000000  -0.000106
    21  H   -0.013967  -0.016025   0.401023  -0.000079   0.000003  -0.000012
    22  H    0.000012  -0.000013  -0.000079   0.414574  -0.000100   0.001989
    23  H    0.000000   0.000000   0.000003  -0.000100   0.308947   0.000000
    24  H   -0.000022  -0.000106  -0.000012   0.001989   0.000000   0.278112
 Mulliken atomic charges:
              1
     1  C   -0.533764
     2  C   -0.300932
     3  C   -0.715592
     4  C   -0.178856
     5  N   -0.893665
     6  N   -0.911151
     7  O   -0.682383
     8  O   -0.690906
     9  O   -0.700053
    10  O   -0.713442
    11  S    1.608157
    12  S    1.649726
    13  H    0.205617
    14  H    0.211727
    15  H    0.206048
    16  H    0.203909
    17  H    0.191405
    18  H    0.190458
    19  H    0.229341
    20  H    0.226951
    21  H    0.279325
    22  H    0.281534
    23  H    0.407295
    24  H    0.429253
 Sum of Mulliken atomic charges =   0.00000
 Mulliken charges with hydrogens summed into heavy atoms:
              1
     1  C    0.089629
     2  C    0.284839
     3  C    0.020025
     4  C    0.102677
     5  N   -0.486371
     6  N   -0.481899
     7  O   -0.682383
     8  O   -0.690906
     9  O   -0.700053
    10  O   -0.713442
    11  S    1.608157
    12  S    1.649726
 Sum of Mulliken charges with hydrogens summed into heavy atoms =   0.00000
 DipInt: DoE/N= T F RetVal/Mat= T F Init=T NMatP=  1 IDeriv=0 Min/MaxMlt=  0  4
 Entering OneElI...
 OneElI was handed    33436596 working-precision words.
 Multipole integrals L=0 to 4 MinM= 0 MaxM= 0.
 Requested accuracy = 0.1000D-12
 PrsmSu:  NPrtUS=   1 ThrOK=F IAlg=1 NPAlg=1 LenDen=           0.
 Prism:   IPart=     0 DynPar=F LinDyn=F Incr=          24.
 PRISM was handed    33212077 working-precision words and  2467 shell-pairs
 IPart=  0 NShTot=        2467 NBatch=          65 AvBLen=        38.0
 PrSmSu:  NxtVal=             25.
 Electronic moments (au):
       -114.00000000          1.66235037          0.25088868          0.30312042
      -2159.37910045       -508.41742805       -301.12972483          7.86740607
          8.43084502         -2.22309302       -777.40458616       -196.27798905
        -38.31714546         73.97549767         85.64467327       -384.63919458
        -65.40944027        -26.60760044         70.29493860        -16.15376289
     -79287.04169686      -7915.23595238      -2593.06247019        234.26850995
      -4678.26896674      -2192.24959670         49.20008583       1193.32910957
       -129.03532159      -5888.25637957      -5974.50427896       -774.10417128
          3.69420366       -380.69919171        249.74675497
 Electronic spatial extent (au):  <R**2>=           2968.9263
 DipInt: DoE/N= F T RetVal/Mat= T F Init=T NMatP=  1 IDeriv=0 Min/MaxMlt=  0  4
 Nuclear    moments (au):
        114.00000000          0.00000000          0.00000000          0.00000000
       2094.31882578        446.53846044        231.99830005          0.00000000
          0.00000000          0.00000000        916.72281042        206.78993711
         35.00676698        -86.17015461       -142.73687334        414.40206572
         69.06189178         22.78633570        -72.66891666          6.32720563
      72137.11085682       6188.87822876       1610.26915361          0.38692969
       4743.98354754       2215.39788130        -62.72103482      -1063.84481617
         85.39950225       4467.81287954       4513.64361711        352.11393174
        -28.12127895        382.37819718       -270.10438363
 Total      moments (au):
          0.00000000          1.66235037          0.25088868          0.30312042
        -65.06027467        -61.87896761        -69.13142478          7.86740607
          8.43084502         -2.22309302        139.31822426         10.51194806
         -3.31037847        -12.19465694        -57.09220008         29.76287114
          3.65245151         -3.82126474         -2.37397805         -9.82655726
      -7149.93084004      -1726.35772362       -982.79331657        234.65543964
         65.71458080         23.14828461        -13.52094899        129.48429340
        -43.63581935      -1420.44350004      -1460.86066185       -421.99023955
        -24.42707529          1.67900547        -20.35762866
 Traceless Quadrup. (au):
          0.29661435          3.47792141         -3.77453576          7.86740607
          8.43084502         -2.22309302
 Charge=              0.0000 electrons
 Dipole moment (field-independent basis, Debye):
    X=              4.2253    Y=              0.6377    Z=              0.7705  Tot=              4.3420
 Quadrupole moment (field-independent basis, Debye-Ang):
   XX=            -87.5083   YY=            -83.2293   ZZ=            -92.9841
   XY=             10.5819   XZ=             11.3398   YZ=             -2.9901
 Traceless Quadrupole moment (field-independent basis, Debye-Ang):
   XX=              0.3990   YY=              4.6779   ZZ=             -5.0769
   XY=             10.5819   XZ=             11.3398   YZ=             -2.9901
 Octapole moment (field-independent basis, Debye-Ang**2):
  XXX=             99.1613  YYY=              7.4820  ZZZ=             -2.3562  XYY=             -8.6797
  XXY=            -40.6360  XXZ=             21.1841  XZZ=              2.5997  YZZ=             -2.7198
  YYZ=             -1.6897  XYZ=             -6.9942
 Hexadecapole moment (field-independent basis, Debye-Ang**3):
 XXXX=          -2693.0066 YYYY=           -650.2291 ZZZZ=           -370.1671 XXXY=             88.3825
 XXXZ=             24.7513 YYYX=              8.7188 YYYZ=             -5.0926 ZZZX=             48.7700
 ZZZY=            -16.4353 XXYY=           -535.0071 XXZZ=           -550.2301 YYZZ=           -158.9417
 XXYZ=             -9.2004 YYXZ=              0.6324 ZZXY=             -7.6677
 N-N= 1.101068597625D+03 E-N=-5.422289480622D+03  KE= 1.358790727646D+03
 Entering OneElI...
 OneElI was handed    33345896 working-precision words.
 Calculate electrostatic properties
    NBasis =   212  MinDer = 0  MaxDer = 0
    NGrid  =    24  NMatD  =   1
 Requested accuracy = 0.1000D-12
 PrsmSu:  NPrtUS=   4 ThrOK=T IAlg=1 NPAlg=1 LenDen=           0.
 Prism:   IPart=     0 DynPar=F LinDyn=F Incr=         136.
 PRISM was handed     8228228 working-precision words and  2269 shell-pairs
 PRISM was handed     8228228 working-precision words and  2269 shell-pairs
 PRISM was handed     8228228 working-precision words and  2269 shell-pairs
 PRISM was handed     8228228 working-precision words and  2269 shell-pairs
 IPart=  0 NShTot=       14112 NBatch=         588 AvBLen=        24.0
 IPart=  2 NShTot=       13392 NBatch=         558 AvBLen=        24.0
 IPart=  3 NShTot=       13152 NBatch=         548 AvBLen=        24.0
 IPart=  1 NShTot=       13800 NBatch=         575 AvBLen=        24.0
 PrSmSu:  NxtVal=            545.
 --------------------------------------------------------
       Center         ----      EFG at Nuclei      ----
                      3XX-RR        3YY-RR        3ZZ-RR
 --------------------------------------------------------
     1   Atom        0.043902     -0.105986      0.062084
     2   Atom       -0.260703      0.136046      0.124657
     3   Atom        0.162956     -0.271995      0.109039
     4   Atom       -0.203130      0.031736      0.171394
     5   Atom       -0.492169      0.653365     -0.161196
     6   Atom       -0.621697      0.774943     -0.153247
     7   Atom       -0.499695      0.433855      0.065840
     8   Atom        0.640017      0.910865     -1.550882
     9   Atom        0.510278      0.700152     -1.210430
    10   Atom        0.401572     -0.997636      0.596064
    11   Atom       -0.542851      0.341801      0.201050
    12   Atom       -0.110419      0.272260     -0.161841
    13   Atom        0.128797      0.134940     -0.263738
    14   Atom       -0.053071     -0.065392      0.118463
    15   Atom       -0.159370      0.132382      0.026989
    16   Atom        0.131289     -0.130646     -0.000643
    17   Atom        0.056630     -0.100722      0.044093
    18   Atom       -0.001542      0.130531     -0.128989
    19   Atom       -0.130987      0.072948      0.058039
    20   Atom        0.155594      0.131851     -0.287446
    21   Atom       -0.155563      0.055096      0.100467
    22   Atom        0.120369      0.129943     -0.250312
    23   Atom        0.158274     -0.131245     -0.027029
    24   Atom        0.140652      0.023196     -0.163848
 --------------------------------------------------------
                        XY            XZ            YZ
 --------------------------------------------------------
     1   Atom       -0.048563      0.007468      0.028115
     2   Atom       -0.118816      0.128481      0.028473
     3   Atom       -0.036608      0.017560     -0.095089
     4   Atom        0.142683     -0.119541     -0.138032
     5   Atom       -0.408650     -0.441990      0.604531
     6   Atom       -0.486520     -0.141079      0.705292
     7   Atom        0.807954     -0.864978      0.605135
     8   Atom       -0.004402     -0.234000     -0.186767
     9   Atom       -0.226946      0.761804      0.421916
    10   Atom       -0.926114      0.274230      0.553032
    11   Atom       -0.284957      0.518874      0.112230
    12   Atom       -0.216512     -0.475549     -0.145206
    13   Atom       -0.018320      0.088223      0.052210
    14   Atom        0.199995      0.083865     -0.082545
    15   Atom       -0.053933     -0.198359     -0.031428
    16   Atom        0.019191     -0.009404      0.217380
    17   Atom        0.131156      0.098331     -0.163203
    18   Atom       -0.064528     -0.191223     -0.079629
    19   Atom       -0.133598      0.169357      0.071719
    20   Atom       -0.006486     -0.037919     -0.042828
    21   Atom        0.148763     -0.125415      0.054707
    22   Atom       -0.007968      0.064520      0.056417
    23   Atom       -0.016338     -0.016758      0.290373
    24   Atom        0.032787     -0.085968      0.284561
 --------------------------------------------------------


 ---------------------------------------------------------------------------------
              Nuclear Quadrupole in Principal Axis System
 ---------------------------------------------------------------------------------

       Atom             a.u.   MegaHertz   Gauss  10(-4) cm-1        Axes

              Baa    -0.1249   -16.756    -5.979    -5.589  0.2795  0.9478 -0.1537
     1 C(13)  Bbb     0.0582     7.808     2.786     2.604  0.9590 -0.2677  0.0934
              Bcc     0.0667     8.948     3.193     2.985 -0.0474  0.1735  0.9837
 
              Baa    -0.3314   -44.476   -15.870   -14.836  0.9271  0.2525 -0.2769
     2 C(13)  Bbb     0.1584    21.261     7.587     7.092  0.0871  0.5736  0.8145
              Bcc     0.1730    23.215     8.284     7.744 -0.3645  0.7792 -0.5098
 
              Baa    -0.2966   -39.799   -14.201   -13.276  0.0688  0.9720  0.2249
     3 C(13)  Bbb     0.1178    15.807     5.640     5.273 -0.4719 -0.1669  0.8657
              Bcc     0.1788    23.992     8.561     8.003  0.8790 -0.1657  0.4472
 
              Baa    -0.2771   -37.183   -13.268   -12.403  0.9210 -0.3662  0.1328
     4 C(13)  Bbb    -0.0402    -5.390    -1.923    -1.798  0.2130  0.7589  0.6154
              Bcc     0.3173    42.573    15.191    14.201 -0.3261 -0.5386  0.7769
 
              Baa    -0.7987   -30.805   -10.992   -10.275  0.8174 -0.0097  0.5759
     5 N(14)  Bbb    -0.3732   -14.395    -5.136    -4.801 -0.4741 -0.5792  0.6631
              Bcc     1.1719    45.199    16.128    15.077 -0.3271  0.8151  0.4781
 
              Baa    -0.7917   -30.535   -10.896   -10.185  0.8997  0.3778 -0.2185
     6 N(14)  Bbb    -0.4925   -18.995    -6.778    -6.336  0.3562 -0.3462  0.8679
              Bcc     1.2842    49.530    17.673    16.521 -0.2522  0.8587  0.4461
 
              Baa    -1.6224   117.396    41.890    39.159  0.7250 -0.4406  0.5294
     7 O(17)  Bbb     0.6923   -50.094   -17.875   -16.709 -0.6092 -0.0515  0.7914
              Bcc     0.9301   -67.302   -24.015   -22.450  0.3214  0.8962  0.3058
 
              Baa    -1.5895   115.012    41.039    38.364  0.1042  0.0743  0.9918
     8 O(17)  Bbb     0.6638   -48.035   -17.140   -16.023  0.9933 -0.0580 -0.1001
              Bcc     0.9256   -66.977   -23.899   -22.341  0.0500  0.9956 -0.0798
 
              Baa    -1.5975   115.593    41.246    38.558 -0.3521 -0.2026  0.9138
     9 O(17)  Bbb     0.7374   -53.357   -19.039   -17.798  0.6068  0.6940  0.3876
              Bcc     0.8601   -62.236   -22.207   -20.760  0.7127 -0.6909  0.1214
 
              Baa    -1.6299   117.937    42.083    39.339  0.4294  0.8627 -0.2672
    10 O(17)  Bbb     0.7672   -55.517   -19.810   -18.518  0.1279  0.2348  0.9636
              Bcc     0.8626   -62.420   -22.273   -20.821  0.8940 -0.4479 -0.0095
 
              Baa    -0.8851   -36.287   -12.948   -12.104  0.8657  0.2412 -0.4385
    11 S(33)  Bbb     0.4039    16.559     5.909     5.523 -0.0049  0.8803  0.4744
              Bcc     0.4812    19.728     7.039     6.580  0.5005 -0.4086  0.7633
 
              Baa    -0.6805   -27.899    -9.955    -9.306  0.6748  0.2587  0.6912
    12 S(33)  Bbb     0.2849    11.680     4.168     3.896  0.3801  0.6809 -0.6260
              Bcc     0.3956    16.220     5.788     5.410 -0.6326  0.6852  0.3611
 
              Baa    -0.2898  -154.597   -55.164   -51.568 -0.2099 -0.1282  0.9693
    13 H(1)   Bbb     0.1374    73.313    26.160    24.454  0.5217  0.8237  0.2220
              Bcc     0.1523    81.285    29.004    27.114  0.8269 -0.5523  0.1060
 
              Baa    -0.2930  -156.310   -55.775   -52.139 -0.6706  0.6890  0.2749
    14 H(1)   Bbb     0.1403    74.842    26.705    24.965  0.6579  0.7236 -0.2089
              Bcc     0.1527    81.468    29.070    27.175  0.3429 -0.0408  0.9385
 
              Baa    -0.2945  -157.110   -56.061   -52.406  0.8357  0.1446  0.5298
    15 H(1)   Bbb     0.1410    75.247    26.850    25.100 -0.0159  0.9707 -0.2398
              Bcc     0.1534    81.863    29.211    27.307 -0.5490  0.1920  0.8135
 
              Baa    -0.2936  -156.637   -55.892   -52.248 -0.0494  0.8013 -0.5962
    16 H(1)   Bbb     0.1318    70.326    25.094    23.458  0.9901 -0.0394 -0.1350
              Bcc     0.1618    86.311    30.798    28.790  0.1317  0.5970  0.7914
 
              Baa    -0.2852  -152.161   -54.295   -50.756 -0.4319  0.7501  0.5008
    17 H(1)   Bbb     0.1301    69.411    24.768    23.153  0.8084  0.5681 -0.1538
              Bcc     0.1551    82.750    29.527    27.603  0.3999 -0.3384  0.8518
 
              Baa    -0.2916  -155.602   -55.523   -51.903  0.5709  0.2356  0.7865
    18 H(1)   Bbb     0.1348    71.904    25.657    23.984  0.7445  0.2555 -0.6169
              Bcc     0.1569    83.699    29.866    27.919 -0.3463  0.9377 -0.0296
 
              Baa    -0.2931  -156.407   -55.810   -52.172  0.7993  0.3825 -0.4636
    19 H(1)   Bbb     0.1344    71.720    25.591    23.923 -0.2077  0.8996  0.3841
              Bcc     0.1587    84.687    30.219    28.249  0.5639 -0.2107  0.7985
 
              Baa    -0.2950  -157.422   -56.172   -52.510  0.0849  0.1007  0.9913
    20 H(1)   Bbb     0.1359    72.499    25.870    24.183  0.1132  0.9875 -0.1100
              Bcc     0.1592    84.922    30.302    28.327  0.9899 -0.1216 -0.0724
 
              Baa    -0.2814  -150.117   -53.566   -50.074  0.8397 -0.4260  0.3368
    21 H(1)   Bbb     0.1286    68.603    24.479    22.883  0.3057  0.8834  0.3552
              Bcc     0.1528    81.515    29.087    27.190 -0.4489 -0.1952  0.8720
 
              Baa    -0.2693  -143.710   -51.279   -47.936 -0.1645 -0.1412  0.9762
    22 H(1)   Bbb     0.1309    69.867    24.930    23.305  0.9689 -0.2084  0.1331
              Bcc     0.1384    73.843    26.349    24.631  0.1847  0.9678  0.1711
 
              Baa    -0.3742  -199.631   -71.233   -66.590  0.0033  0.7671 -0.6415
    23 H(1)   Bbb     0.1500    80.039    28.560    26.698  0.9426  0.2118  0.2582
              Bcc     0.2241   119.592    42.673    39.892 -0.3340  0.6055  0.7223
 
              Baa    -0.3849  -205.371   -73.282   -68.504  0.1670 -0.5729  0.8024
    24 H(1)   Bbb     0.1488    79.392    28.329    26.482  0.9460  0.3224  0.0333
              Bcc     0.2361   125.979    44.953    42.022 -0.2778  0.7535  0.5958
 

 ---------------------------------------------------------------------------------

 No NMR shielding tensors so no spin-rotation constants.
 Leave Link  601 at Mon Feb 26 23:18:23 2018, MaxMem=   33554432 cpu:       1.2
 Merz-Kollman atomic radii used.
 Read replacement radii for each type of atom:
 Atom Element Radius
    1     6    1.50
    2     6    1.50
    3     6    1.50
    4     6    1.50
    5     7    1.50
    6     7    1.50
    7     8    1.40
    8     8    1.40
    9     8    1.40
   10     8    1.40
   11    16    1.75
   12    16    1.75
   13     1    1.20
   14     1    1.20
   15     1    1.20
   16     1    1.20
   17     1    1.20
   18     1    1.20
   19     1    1.20
   20     1    1.20
   21     1    1.20
   22     1    1.20
   23     1    1.20
   24     1    1.20
 Generate VDW surfaces: Layer= 4 Dens= 1 Start= 1.400 Inc= 0.200

 **********************************************************************

            Electrostatic Properties Using The SCF Density

 **********************************************************************

       Atomic Center    1 is at   0.806129  2.237995 -0.067173
       Atomic Center    2 is at   4.038169  0.126733  0.409423
       Atomic Center    3 is at  -2.444600 -1.697222 -0.246827
       Atomic Center    4 is at   0.228228  0.851827  0.190719
       Atomic Center    5 is at   2.695104 -0.200413  0.914002
       Atomic Center    6 is at  -0.959959  0.587164 -0.577805
       Atomic Center    7 is at  -3.470079  0.729452 -0.602761
       Atomic Center    8 is at  -2.254857  0.200850  1.589987
       Atomic Center    9 is at   1.993193 -0.215520 -1.569883
       Atomic Center   10 is at   0.843173 -1.763317  0.123821
       Atomic Center   11 is at  -2.401505  0.057635  0.139048
       Atomic Center   12 is at   1.465336 -0.475086 -0.224420
       Atomic Center   13 is at   1.043202  2.369776 -1.127797
       Atomic Center   14 is at   0.072254  2.991918  0.234481
       Atomic Center   15 is at   1.718043  2.389596  0.516080
       Atomic Center   16 is at   3.975953  0.995375 -0.247408
       Atomic Center   17 is at   4.509404 -0.693144 -0.144843
       Atomic Center   18 is at   4.658327  0.385894  1.272150
       Atomic Center   19 is at  -3.317909 -2.113438  0.260835
       Atomic Center   20 is at  -2.538111 -1.808768 -1.328299
       Atomic Center   21 is at  -1.518277 -2.149588  0.110318
       Atomic Center   22 is at   0.014535  0.695420  1.251338
       Atomic Center   23 is at   2.688864 -0.985794  1.561426
       Atomic Center   24 is at  -1.132588  1.167013 -1.391864
      ESP Fit Center   25 is at   0.806129  2.237995  2.032827
      ESP Fit Center   26 is at   1.999065  3.966261 -0.067173
      ESP Fit Center   27 is at   1.059256  4.322684 -0.067173
      ESP Fit Center   28 is at   0.547308  4.038137 -1.117173
      ESP Fit Center   29 is at   3.779347  1.926875  1.459423
      ESP Fit Center   30 is at   4.793664 -1.527572  1.459423
      ESP Fit Center   31 is at   6.138169  0.126733  0.409423
      ESP Fit Center   32 is at   4.038169  0.126733 -1.690577
      ESP Fit Center   33 is at  -2.191473 -3.781911 -0.246827
      ESP Fit Center   34 is at  -0.625946 -1.697222 -1.296827
      ESP Fit Center   35 is at  -4.189585 -1.184848 -1.296827
      ESP Fit Center   36 is at  -4.189585 -2.209596 -1.296827
      ESP Fit Center   37 is at  -2.703421 -3.497364 -1.296827
      ESP Fit Center   38 is at  -1.689104 -3.351527 -1.296827
      ESP Fit Center   39 is at   3.745104 -0.200413  2.732656
      ESP Fit Center   40 is at   3.220104  0.708914  2.732656
      ESP Fit Center   41 is at   2.170104  0.708914  2.732656
      ESP Fit Center   42 is at   1.645104 -0.200413  2.732656
      ESP Fit Center   43 is at   3.450600  1.453892  1.964002
      ESP Fit Center   44 is at   2.436282  1.599729  1.964002
      ESP Fit Center   45 is at   1.504139  1.174033  1.964002
      ESP Fit Center   46 is at  -1.704629  2.550698 -0.577805
      ESP Fit Center   47 is at   0.090041  0.587164 -2.396459
      ESP Fit Center   48 is at  -1.484959 -0.322163 -2.396459
      ESP Fit Center   49 is at  -0.434959 -0.322163 -2.396459
      ESP Fit Center   50 is at  -3.994607  2.343784  0.377239
      ESP Fit Center   51 is at  -4.843312  1.727164  0.377239
      ESP Fit Center   52 is at  -5.167488  0.729452  0.377239
      ESP Fit Center   53 is at  -4.843312 -0.268261  0.377239
      ESP Fit Center   54 is at  -2.490079  2.426861 -0.602761
      ESP Fit Center   55 is at  -3.470079  2.689452 -0.602761
      ESP Fit Center   56 is at  -4.450079  2.426861 -0.602761
      ESP Fit Center   57 is at  -5.167488  1.709452 -0.602761
      ESP Fit Center   58 is at  -5.430079  0.729452 -0.602761
      ESP Fit Center   59 is at  -5.167488 -0.250548 -0.602761
      ESP Fit Center   60 is at  -2.945550  2.343784 -1.582761
      ESP Fit Center   61 is at  -3.994607  2.343784 -1.582761
      ESP Fit Center   62 is at  -4.843312  1.727164 -1.582761
      ESP Fit Center   63 is at  -5.167488  0.729452 -1.582761
      ESP Fit Center   64 is at  -4.843312 -0.268261 -1.582761
      ESP Fit Center   65 is at  -3.994607 -0.884881 -1.582761
      ESP Fit Center   66 is at  -2.490079  0.729452 -2.300171
      ESP Fit Center   67 is at  -2.980079  1.578157 -2.300171
      ESP Fit Center   68 is at  -3.960079  1.578157 -2.300171
      ESP Fit Center   69 is at  -4.450079  0.729452 -2.300171
      ESP Fit Center   70 is at  -3.960079 -0.119253 -2.300171
      ESP Fit Center   71 is at  -2.980079 -0.119253 -2.300171
      ESP Fit Center   72 is at  -3.470079  0.729452 -2.562761
      ESP Fit Center   73 is at  -2.254857  0.200850  3.549987
      ESP Fit Center   74 is at  -1.274857  0.200850  3.287397
      ESP Fit Center   75 is at  -1.764857  1.049555  3.287397
      ESP Fit Center   76 is at  -2.744857  1.049555  3.287397
      ESP Fit Center   77 is at  -3.234857  0.200850  3.287397
      ESP Fit Center   78 is at  -2.744857 -0.647855  3.287397
      ESP Fit Center   79 is at  -1.764857 -0.647855  3.287397
      ESP Fit Center   80 is at  -1.730329  1.815182  2.569987
      ESP Fit Center   81 is at  -2.779385  1.815182  2.569987
      ESP Fit Center   82 is at  -3.628090  1.198562  2.569987
      ESP Fit Center   83 is at  -3.952267  0.200850  2.569987
      ESP Fit Center   84 is at  -3.628090 -0.796863  2.569987
      ESP Fit Center   85 is at  -2.779385 -1.413483  2.569987
      ESP Fit Center   86 is at  -1.730329 -1.413483  2.569987
      ESP Fit Center   87 is at  -0.881624 -0.796863  2.569987
      ESP Fit Center   88 is at  -1.274857  1.898260  1.589987
      ESP Fit Center   89 is at  -2.254857  2.160850  1.589987
      ESP Fit Center   90 is at  -3.234857  1.898260  1.589987
      ESP Fit Center   91 is at   2.973193  1.481889 -1.569883
      ESP Fit Center   92 is at   2.973193 -1.912930 -1.569883
      ESP Fit Center   93 is at   3.690603 -1.195520 -1.569883
      ESP Fit Center   94 is at   3.690603 -0.215520 -2.549883
      ESP Fit Center   95 is at   3.366426  0.782192 -2.549883
      ESP Fit Center   96 is at   2.517722  1.398812 -2.549883
      ESP Fit Center   97 is at   1.468665  1.398812 -2.549883
      ESP Fit Center   98 is at   0.619960  0.782192 -2.549883
      ESP Fit Center   99 is at   0.295783 -0.215520 -2.549883
      ESP Fit Center  100 is at   0.619960 -1.213233 -2.549883
      ESP Fit Center  101 is at   1.468665 -1.829853 -2.549883
      ESP Fit Center  102 is at   2.517722 -1.829853 -2.549883
      ESP Fit Center  103 is at   3.366426 -1.213233 -2.549883
      ESP Fit Center  104 is at   2.973193 -0.215520 -3.267293
      ESP Fit Center  105 is at   2.483193  0.633184 -3.267293
      ESP Fit Center  106 is at   1.503193  0.633184 -3.267293
      ESP Fit Center  107 is at   1.013193 -0.215520 -3.267293
      ESP Fit Center  108 is at   1.503193 -1.064225 -3.267293
      ESP Fit Center  109 is at   2.483193 -1.064225 -3.267293
      ESP Fit Center  110 is at   1.993193 -0.215520 -3.529883
      ESP Fit Center  111 is at   0.843173 -1.763317  2.083821
      ESP Fit Center  112 is at  -0.136827 -1.763317  1.821231
      ESP Fit Center  113 is at   0.353173 -2.612022  1.821231
      ESP Fit Center  114 is at   1.333173 -2.612022  1.821231
      ESP Fit Center  115 is at   0.318645 -3.377649  1.103821
      ESP Fit Center  116 is at   1.367702 -3.377649  1.103821
      ESP Fit Center  117 is at   2.216407 -2.761029  1.103821
      ESP Fit Center  118 is at  -0.136827 -3.460726  0.123821
      ESP Fit Center  119 is at   0.843173 -3.723317  0.123821
      ESP Fit Center  120 is at   1.823173 -3.460726  0.123821
      ESP Fit Center  121 is at   2.540583 -2.743317  0.123821
      ESP Fit Center  122 is at   0.318645 -3.377649 -0.856179
      ESP Fit Center  123 is at   1.367702 -3.377649 -0.856179
      ESP Fit Center  124 is at   2.216407 -2.761029 -0.856179
      ESP Fit Center  125 is at  -0.136827 -1.763317 -1.573589
      ESP Fit Center  126 is at   0.353173 -2.612022 -1.573589
      ESP Fit Center  127 is at   1.333173 -2.612022 -1.573589
      ESP Fit Center  128 is at  -4.239402  0.597290  1.666598
      ESP Fit Center  129 is at  -4.239402 -0.482021  1.666598
      ESP Fit Center  130 is at  -1.869998  2.386321  0.684225
      ESP Fit Center  131 is at  -2.933013  2.386321  0.684225
      ESP Fit Center  132 is at  -4.790079  0.057635  0.684225
      ESP Fit Center  133 is at  -4.553535 -0.978729  0.684225
      ESP Fit Center  134 is at  -4.553535 -0.978729 -0.406128
      ESP Fit Center  135 is at  -2.401505  0.057635 -2.310952
      ESP Fit Center  136 is at   2.954587 -2.342548  0.320756
      ESP Fit Center  137 is at   2.954587 -2.342548 -0.769597
      ESP Fit Center  138 is at   0.210959 -1.922715 -1.751970
      ESP Fit Center  139 is at   1.192734 -2.371076 -1.751970
      ESP Fit Center  140 is at   2.261058 -2.217475 -1.751970
      ESP Fit Center  141 is at   2.640977  2.369776 -1.646946
      ESP Fit Center  142 is at   2.267169  3.396806 -1.646946
      ESP Fit Center  143 is at   1.320653  3.943277 -1.646946
      ESP Fit Center  144 is at   0.244315  3.753490 -1.646946
      ESP Fit Center  145 is at  -0.458215  2.916247 -1.646946
      ESP Fit Center  146 is at   2.030681  2.369776 -2.486946
      ESP Fit Center  147 is at   1.348350  3.308925 -2.486946
      ESP Fit Center  148 is at   0.244315  2.950202 -2.486946
      ESP Fit Center  149 is at   0.244315  1.789351 -2.486946
      ESP Fit Center  150 is at   1.348350  1.430628 -2.486946
      ESP Fit Center  151 is at   1.043202  2.369776 -2.807797
      ESP Fit Center  152 is at   0.072254  2.991918  1.914481
      ESP Fit Center  153 is at   0.377402  3.931067  1.593630
      ESP Fit Center  154 is at  -0.726634  3.572344  1.593630
      ESP Fit Center  155 is at  -0.726634  2.411492  1.593630
      ESP Fit Center  156 is at   0.349704  4.565419  0.753630
      ESP Fit Center  157 is at  -0.726634  4.375632  0.753630
      ESP Fit Center  158 is at  -1.429164  3.538389  0.753630
      ESP Fit Center  159 is at  -1.429164  2.445447  0.753630
      ESP Fit Center  160 is at   0.349704  4.565419 -0.284667
      ESP Fit Center  161 is at  -0.726634  4.375632 -0.284667
      ESP Fit Center  162 is at  -1.429164  3.538389 -0.284667
      ESP Fit Center  163 is at  -0.726634  3.572344 -1.124667
      ESP Fit Center  164 is at   1.718043  2.389596  2.196080
      ESP Fit Center  165 is at   2.705522  2.389596  1.875229
      ESP Fit Center  166 is at   2.023191  3.328745  1.875229
      ESP Fit Center  167 is at   3.315818  2.389596  1.035229
      ESP Fit Center  168 is at   2.942010  3.416626  1.035229
      ESP Fit Center  169 is at   1.995494  3.963097  1.035229
      ESP Fit Center  170 is at   2.942010  3.416626 -0.003068
      ESP Fit Center  171 is at   5.199919  2.022405  0.271741
      ESP Fit Center  172 is at   4.253404  2.568876  0.271741
      ESP Fit Center  173 is at   5.573728  0.995375 -0.766556
      ESP Fit Center  174 is at   5.199919  2.022405 -0.766556
      ESP Fit Center  175 is at   4.253404  2.568876 -0.766556
      ESP Fit Center  176 is at   3.177065  2.379089 -0.766556
      ESP Fit Center  177 is at   4.963432  0.995375 -1.606556
      ESP Fit Center  178 is at   4.281101  1.934524 -1.606556
      ESP Fit Center  179 is at   3.177065  1.575801 -1.606556
      ESP Fit Center  180 is at   3.975953  0.995375 -1.927408
      ESP Fit Center  181 is at   6.107179 -0.693144  0.374306
      ESP Fit Center  182 is at   3.710517 -2.076858  0.374306
      ESP Fit Center  183 is at   4.786855 -2.266646  0.374306
      ESP Fit Center  184 is at   5.733371 -1.720174  0.374306
      ESP Fit Center  185 is at   6.107179 -0.693144 -0.663992
      ESP Fit Center  186 is at   3.710517 -2.076858 -0.663992
      ESP Fit Center  187 is at   4.786855 -2.266646 -0.663992
      ESP Fit Center  188 is at   5.733371 -1.720174 -0.663992
      ESP Fit Center  189 is at   5.496884 -0.693144 -1.503992
      ESP Fit Center  190 is at   3.710517 -1.273570 -1.503992
      ESP Fit Center  191 is at   4.814552 -1.632293 -1.503992
      ESP Fit Center  192 is at   4.509404 -0.693144 -1.824843
      ESP Fit Center  193 is at   4.658327  0.385894  2.952150
      ESP Fit Center  194 is at   5.645807  0.385894  2.631298
      ESP Fit Center  195 is at   4.963475  1.325042  2.631298
      ESP Fit Center  196 is at   3.859440  0.966319  2.631298
      ESP Fit Center  197 is at   4.963475 -0.553255  2.631298
      ESP Fit Center  198 is at   6.256102  0.385894  1.791298
      ESP Fit Center  199 is at   5.882294  1.412923  1.791298
      ESP Fit Center  200 is at   4.935778  1.959395  1.791298
      ESP Fit Center  201 is at   3.859440  1.769607  1.791298
      ESP Fit Center  202 is at   4.935778 -1.187608  1.791298
      ESP Fit Center  203 is at   5.882294 -0.641136  1.791298
      ESP Fit Center  204 is at   6.256102  0.385894  0.753001
      ESP Fit Center  205 is at   5.882294  1.412923  0.753001
      ESP Fit Center  206 is at  -3.317909 -2.113438  1.940835
      ESP Fit Center  207 is at  -4.116796 -1.533013  1.619984
      ESP Fit Center  208 is at  -4.116796 -2.693864  1.619984
      ESP Fit Center  209 is at  -3.012761 -3.052587  1.619984
      ESP Fit Center  210 is at  -4.819326 -1.566967  0.779984
      ESP Fit Center  211 is at  -4.819326 -2.659910  0.779984
      ESP Fit Center  212 is at  -4.116796 -3.497152  0.779984
      ESP Fit Center  213 is at  -3.040458 -3.686939  0.779984
      ESP Fit Center  214 is at  -4.819326 -1.566967 -0.258314
      ESP Fit Center  215 is at  -4.819326 -2.659910 -0.258314
      ESP Fit Center  216 is at  -4.116796 -3.497152 -0.258314
      ESP Fit Center  217 is at  -4.116796 -2.693864 -1.098314
      ESP Fit Center  218 is at  -0.940336 -1.808768 -1.847447
      ESP Fit Center  219 is at  -4.039528 -1.262297 -1.847447
      ESP Fit Center  220 is at  -4.039528 -2.355240 -1.847447
      ESP Fit Center  221 is at  -3.336998 -3.192482 -1.847447
      ESP Fit Center  222 is at  -2.260660 -3.382270 -1.847447
      ESP Fit Center  223 is at  -1.314144 -2.835798 -1.847447
      ESP Fit Center  224 is at  -1.550632 -1.808768 -2.687447
      ESP Fit Center  225 is at  -2.232963 -0.869620 -2.687447
      ESP Fit Center  226 is at  -3.336998 -1.228343 -2.687447
      ESP Fit Center  227 is at  -3.336998 -2.389194 -2.687447
      ESP Fit Center  228 is at  -2.232963 -2.747917 -2.687447
      ESP Fit Center  229 is at  -2.538111 -1.808768 -3.008299
      ESP Fit Center  230 is at  -1.518277 -2.149588  1.790318
      ESP Fit Center  231 is at  -0.530798 -2.149588  1.469466
      ESP Fit Center  232 is at  -1.213130 -3.088736  1.469466
      ESP Fit Center  233 is at  -1.240827 -3.723089  0.629466
      ESP Fit Center  234 is at  -1.240827 -3.723089 -0.408831
      ESP Fit Center  235 is at  -0.530798 -2.149588 -1.248831
      ESP Fit Center  236 is at  -1.213130 -3.088736 -1.248831
      ESP Fit Center  237 is at   0.014535  0.695420  2.931338
      ESP Fit Center  238 is at   1.002014  0.695420  2.610487
      ESP Fit Center  239 is at   0.319683  1.634569  2.610487
      ESP Fit Center  240 is at  -0.784352  1.275846  2.610487
      ESP Fit Center  241 is at   0.319683 -0.243728  2.610487
      ESP Fit Center  242 is at  -0.784352  2.079134  1.770487
      ESP Fit Center  243 is at   2.688864 -0.985794  3.241426
      ESP Fit Center  244 is at   3.676344 -0.985794  2.920574
      ESP Fit Center  245 is at   1.889977 -0.405369  2.920574
      ESP Fit Center  246 is at   1.889977 -1.566220  2.920574
      ESP Fit Center  247 is at   2.994012 -1.924943  2.920574
      ESP Fit Center  248 is at   1.187447 -1.532266  2.080574
      ESP Fit Center  249 is at   1.889977 -2.369508  2.080574
      ESP Fit Center  250 is at   2.966315 -2.559296  2.080574
      ESP Fit Center  251 is at   3.912831 -2.012824  2.080574
      ESP Fit Center  252 is at   2.966315 -2.559296  1.042277
      ESP Fit Center  253 is at   3.912831 -2.012824  1.042277
      ESP Fit Center  254 is at  -1.931475  2.550727 -0.872716
      ESP Fit Center  255 is at  -0.855137  2.740514 -1.911013
      ESP Fit Center  256 is at  -1.931475  2.550727 -1.911013
      ESP Fit Center  257 is at  -0.145109  1.167013 -2.751013
      ESP Fit Center  258 is at  -0.827440  2.106162 -2.751013
      ESP Fit Center  259 is at  -1.931475  1.747439 -2.751013
      ESP Fit Center  260 is at  -1.931475  0.586587 -2.751013
      ESP Fit Center  261 is at  -0.827440  0.227865 -2.751013
      ESP Fit Center  262 is at  -1.132588  1.167013 -3.071864
      ESP Fit Center  263 is at   0.806129  2.237995  2.332827
      ESP Fit Center  264 is at   1.326790  4.519158  0.466877
      ESP Fit Center  265 is at   2.264987  4.067345 -0.601223
      ESP Fit Center  266 is at   1.326790  4.519158 -0.601223
      ESP Fit Center  267 is at  -0.422649  3.656080 -1.563549
      ESP Fit Center  268 is at   3.771130  1.984029  1.905798
      ESP Fit Center  269 is at   4.817651 -1.580097  1.905798
      ESP Fit Center  270 is at   4.558829  2.407896  0.943473
      ESP Fit Center  271 is at   6.146280 -0.888480  0.943473
      ESP Fit Center  272 is at   6.377996  0.126733 -0.124628
      ESP Fit Center  273 is at   6.146280  1.141946 -0.124628
      ESP Fit Center  274 is at  -2.965260 -3.978385 -0.780878
      ESP Fit Center  275 is at  -1.923939 -3.978385 -0.780878
      ESP Fit Center  276 is at  -0.568204 -1.697222 -1.743203
      ESP Fit Center  277 is at  -0.866075 -2.711678 -1.743203
      ESP Fit Center  278 is at  -1.000550  2.269912  1.687094
      ESP Fit Center  279 is at   2.695104 -0.200413  3.314002
      ESP Fit Center  280 is at   3.736425 -0.200413  3.076328
      ESP Fit Center  281 is at   3.215764  0.701397  3.076328
      ESP Fit Center  282 is at   2.174443  0.701397  3.076328
      ESP Fit Center  283 is at   1.653783 -0.200413  3.076328
      ESP Fit Center  284 is at   3.474587  1.506416  2.410378
      ESP Fit Center  285 is at   2.428065  1.656883  2.410378
      ESP Fit Center  286 is at   1.466326  1.217672  2.410378
      ESP Fit Center  287 is at  -1.480620 -0.314647 -2.740131
      ESP Fit Center  288 is at  -0.439299 -0.314647 -2.740131
      ESP Fit Center  289 is at  -4.011261  2.395039  0.793856
      ESP Fit Center  290 is at  -4.886912  1.758841  0.793856
      ESP Fit Center  291 is at  -5.221381  0.729452  0.793856
      ESP Fit Center  292 is at  -3.206846  2.897368 -0.104314
      ESP Fit Center  293 is at  -4.244478  2.771376 -0.104314
      ESP Fit Center  294 is at  -5.104705  2.177604 -0.104314
      ESP Fit Center  295 is at  -5.590459  1.252078 -0.104314
      ESP Fit Center  296 is at  -5.590459  0.206825 -0.104314
      ESP Fit Center  297 is at  -5.104705 -0.718701 -0.104314
      ESP Fit Center  298 is at  -3.206846  2.897368 -1.101208
      ESP Fit Center  299 is at  -4.244478  2.771376 -1.101208
      ESP Fit Center  300 is at  -5.104705  2.177604 -1.101208
      ESP Fit Center  301 is at  -5.590459  1.252078 -1.101208
      ESP Fit Center  302 is at  -5.590459  0.206825 -1.101208
      ESP Fit Center  303 is at  -5.104705 -0.718701 -1.101208
      ESP Fit Center  304 is at  -2.928896  2.395039 -1.999378
      ESP Fit Center  305 is at  -4.011261  2.395039 -1.999378
      ESP Fit Center  306 is at  -4.886912  1.758841 -1.999378
      ESP Fit Center  307 is at  -5.221381  0.729452 -1.999378
      ESP Fit Center  308 is at  -4.886912 -0.299938 -1.999378
      ESP Fit Center  309 is at  -2.984129  1.571141 -2.620931
      ESP Fit Center  310 is at  -3.956028  1.571141 -2.620931
      ESP Fit Center  311 is at  -4.441978  0.729452 -2.620931
      ESP Fit Center  312 is at  -3.956028 -0.112238 -2.620931
      ESP Fit Center  313 is at  -2.984129 -0.112238 -2.620931
      ESP Fit Center  314 is at  -3.470079  0.729452 -2.842761
      ESP Fit Center  315 is at  -2.254857  0.200850  3.829987
      ESP Fit Center  316 is at  -1.282957  0.200850  3.608157
      ESP Fit Center  317 is at  -1.768907  1.042539  3.608157
      ESP Fit Center  318 is at  -2.740807  1.042539  3.608157
      ESP Fit Center  319 is at  -3.226757  0.200850  3.608157
      ESP Fit Center  320 is at  -2.740807 -0.640840  3.608157
      ESP Fit Center  321 is at  -1.768907 -0.640840  3.608157
      ESP Fit Center  322 is at  -0.838024  1.230240  2.986604
      ESP Fit Center  323 is at  -1.713675  1.866437  2.986604
      ESP Fit Center  324 is at  -2.796039  1.866437  2.986604
      ESP Fit Center  325 is at  -3.671691  1.230240  2.986604
      ESP Fit Center  326 is at  -4.006160  0.200850  2.986604
      ESP Fit Center  327 is at  -3.671691 -0.828540  2.986604
      ESP Fit Center  328 is at  -2.796039 -1.464738  2.986604
      ESP Fit Center  329 is at  -1.713675 -1.464738  2.986604
      ESP Fit Center  330 is at  -0.838024 -0.828540  2.986604
      ESP Fit Center  331 is at  -1.991624  2.368766  2.088434
      ESP Fit Center  332 is at  -3.029257  2.242774  2.088434
      ESP Fit Center  333 is at  -3.889484  1.649003  2.088434
      ESP Fit Center  334 is at  -4.375237  0.723477  2.088434
      ESP Fit Center  335 is at  -1.014295 -1.596414  2.088434
      ESP Fit Center  336 is at   4.177032 -0.215520 -2.068330
      ESP Fit Center  337 is at   3.233755  1.581743 -2.068330
      ESP Fit Center  338 is at   3.233755 -2.012784 -2.068330
      ESP Fit Center  339 is at   3.926886 -1.230401 -2.068330
      ESP Fit Center  340 is at   3.744496 -0.215520 -2.966501
      ESP Fit Center  341 is at   3.410027  0.813869 -2.966501
      ESP Fit Center  342 is at   2.534375  1.450067 -2.966501
      ESP Fit Center  343 is at   1.452011  1.450067 -2.966501
      ESP Fit Center  344 is at   0.576360  0.813869 -2.966501
      ESP Fit Center  345 is at   0.241891 -0.215520 -2.966501
      ESP Fit Center  346 is at   0.576360 -1.244910 -2.966501
      ESP Fit Center  347 is at   1.452011 -1.881108 -2.966501
      ESP Fit Center  348 is at   2.534375 -1.881108 -2.966501
      ESP Fit Center  349 is at   3.410027 -1.244910 -2.966501
      ESP Fit Center  350 is at   2.965093 -0.215520 -3.588054
      ESP Fit Center  351 is at   2.479143  0.626169 -3.588054
      ESP Fit Center  352 is at   1.507243  0.626169 -3.588054
      ESP Fit Center  353 is at   1.021293 -0.215520 -3.588054
      ESP Fit Center  354 is at   1.507243 -1.057210 -3.588054
      ESP Fit Center  355 is at   2.479143 -1.057210 -3.588054
      ESP Fit Center  356 is at   1.993193 -0.215520 -3.809883
      ESP Fit Center  357 is at   0.843173 -1.763317  2.363821
      ESP Fit Center  358 is at  -0.128726 -1.763317  2.141991
      ESP Fit Center  359 is at   0.357224 -2.605006  2.141991
      ESP Fit Center  360 is at   1.329123 -2.605006  2.141991
      ESP Fit Center  361 is at   0.301991 -3.428904  1.520438
      ESP Fit Center  362 is at   1.384356 -3.428904  1.520438
      ESP Fit Center  363 is at   0.068773 -3.805241  0.622268
      ESP Fit Center  364 is at   1.106406 -3.931233  0.622268
      ESP Fit Center  365 is at   2.083735 -3.560581  0.622268
      ESP Fit Center  366 is at   0.068773 -3.805241 -0.374626
      ESP Fit Center  367 is at   1.106406 -3.931233 -0.374626
      ESP Fit Center  368 is at   2.083735 -3.560581 -0.374626
      ESP Fit Center  369 is at   0.301991 -3.428904 -1.272796
      ESP Fit Center  370 is at   1.384356 -3.428904 -1.272796
      ESP Fit Center  371 is at   0.357224 -2.605006 -1.894349
      ESP Fit Center  372 is at  -4.116148 -0.932315  2.118947
      ESP Fit Center  373 is at  -1.602121  2.517887  1.210562
      ESP Fit Center  374 is at  -2.671906  2.630326  1.210562
      ESP Fit Center  375 is at  -3.694937  2.297923  1.210562
      ESP Fit Center  376 is at  -4.494321  1.578154  1.210562
      ESP Fit Center  377 is at  -4.931839  0.595474  1.210562
      ESP Fit Center  378 is at  -4.931839 -0.480204  1.210562
      ESP Fit Center  379 is at  -2.143154  2.845690  0.139048
      ESP Fit Center  380 is at  -2.401505  0.057635 -2.660952
      ESP Fit Center  381 is at   0.929579 -1.403044  2.362442
      ESP Fit Center  382 is at   2.713403 -2.981543 -0.224420
      ESP Fit Center  383 is at   3.534561 -2.361434 -0.224420
      ESP Fit Center  384 is at   2.264720 -2.935339 -1.295934
      ESP Fit Center  385 is at   3.196285 -2.397500 -1.295934
      ESP Fit Center  386 is at  -0.249307 -1.465036 -2.204319
      ESP Fit Center  387 is at   0.475386 -2.189729 -2.204319
      ESP Fit Center  388 is at   1.465336 -2.454985 -2.204319
      ESP Fit Center  389 is at   2.963202  2.369776 -1.127797
      ESP Fit Center  390 is at   2.705971  3.329776 -1.127797
      ESP Fit Center  391 is at   2.003202  4.032545 -1.127797
      ESP Fit Center  392 is at   2.705971  2.369776 -2.087797
      ESP Fit Center  393 is at   2.388410  3.347127 -2.087797
      ESP Fit Center  394 is at   1.557026  3.951163 -2.087797
      ESP Fit Center  395 is at   0.529378  3.951163 -2.087797
      ESP Fit Center  396 is at  -0.302006  3.347127 -2.087797
      ESP Fit Center  397 is at   2.003202  2.369776 -2.790566
      ESP Fit Center  398 is at   1.523202  3.201161 -2.790566
      ESP Fit Center  399 is at   0.563202  3.201161 -2.790566
      ESP Fit Center  400 is at   0.083202  2.369776 -2.790566
      ESP Fit Center  401 is at   0.563202  1.538392 -2.790566
      ESP Fit Center  402 is at   1.043202  2.369776 -3.047797
      ESP Fit Center  403 is at   0.072254  2.991918  2.154481
      ESP Fit Center  404 is at   0.552254  3.823302  1.897250
      ESP Fit Center  405 is at  -0.407746  3.823302  1.897250
      ESP Fit Center  406 is at  -0.887746  2.991918  1.897250
      ESP Fit Center  407 is at   0.586077  4.573305  1.194481
      ESP Fit Center  408 is at  -0.441570  4.573305  1.194481
      ESP Fit Center  409 is at  -1.272955  3.969269  1.194481
      ESP Fit Center  410 is at  -1.590515  2.991918  1.194481
      ESP Fit Center  411 is at   1.032254  4.654687  0.234481
      ESP Fit Center  412 is at   0.072254  4.911918  0.234481
      ESP Fit Center  413 is at  -0.887746  4.654687  0.234481
      ESP Fit Center  414 is at  -1.590515  3.951918  0.234481
      ESP Fit Center  415 is at  -1.847746  2.991918  0.234481
      ESP Fit Center  416 is at   0.586077  4.573305 -0.725519
      ESP Fit Center  417 is at  -0.441570  4.573305 -0.725519
      ESP Fit Center  418 is at  -1.272955  3.969269 -0.725519
      ESP Fit Center  419 is at  -1.590515  2.991918 -0.725519
      ESP Fit Center  420 is at  -0.407746  3.823302 -1.428288
      ESP Fit Center  421 is at   1.718043  2.389596  2.436080
      ESP Fit Center  422 is at   2.678043  2.389596  2.178849
      ESP Fit Center  423 is at   2.198043  3.220981  2.178849
      ESP Fit Center  424 is at   1.238043  3.220981  2.178849
      ESP Fit Center  425 is at   3.380812  2.389596  1.476080
      ESP Fit Center  426 is at   3.063251  3.366947  1.476080
      ESP Fit Center  427 is at   2.231867  3.970983  1.476080
      ESP Fit Center  428 is at   3.380812  3.349596  0.516080
      ESP Fit Center  429 is at   2.678043  4.052365  0.516080
      ESP Fit Center  430 is at   3.063251  3.366947 -0.443920
      ESP Fit Center  431 is at   4.489777  2.576762  0.712592
      ESP Fit Center  432 is at   5.638722  1.955375 -0.247408
      ESP Fit Center  433 is at   4.935953  2.658144 -0.247408
      ESP Fit Center  434 is at   3.975953  2.915375 -0.247408
      ESP Fit Center  435 is at   5.638722  0.995375 -1.207408
      ESP Fit Center  436 is at   5.321161  1.972726 -1.207408
      ESP Fit Center  437 is at   4.489777  2.576762 -1.207408
      ESP Fit Center  438 is at   3.462129  2.576762 -1.207408
      ESP Fit Center  439 is at   4.935953  0.995375 -1.910177
      ESP Fit Center  440 is at   4.455953  1.826760 -1.910177
      ESP Fit Center  441 is at   3.495953  1.826760 -1.910177
      ESP Fit Center  442 is at   3.975953  0.995375 -2.167408
      ESP Fit Center  443 is at   3.995580 -2.274532  0.815157
      ESP Fit Center  444 is at   5.023228 -2.274532  0.815157
      ESP Fit Center  445 is at   5.854612 -1.670495  0.815157
      ESP Fit Center  446 is at   6.429404 -0.693144 -0.144843
      ESP Fit Center  447 is at   3.549404 -2.355913 -0.144843
      ESP Fit Center  448 is at   4.509404 -2.613144 -0.144843
      ESP Fit Center  449 is at   5.469404 -2.355913 -0.144843
      ESP Fit Center  450 is at   6.172173 -1.653144 -0.144843
      ESP Fit Center  451 is at   6.172173 -0.693144 -1.104843
      ESP Fit Center  452 is at   3.995580 -2.274532 -1.104843
      ESP Fit Center  453 is at   5.023228 -2.274532 -1.104843
      ESP Fit Center  454 is at   5.854612 -1.670495 -1.104843
      ESP Fit Center  455 is at   5.469404 -0.693144 -1.807612
      ESP Fit Center  456 is at   4.989404  0.138240 -1.807612
      ESP Fit Center  457 is at   4.029404 -1.524529 -1.807612
      ESP Fit Center  458 is at   4.989404 -1.524529 -1.807612
      ESP Fit Center  459 is at   4.509404 -0.693144 -2.064843
      ESP Fit Center  460 is at   4.658327  0.385894  3.192150
      ESP Fit Center  461 is at   5.618327  0.385894  2.934918
      ESP Fit Center  462 is at   5.138327  1.217278  2.934918
      ESP Fit Center  463 is at   4.178327  1.217278  2.934918
      ESP Fit Center  464 is at   4.178327 -0.445491  2.934918
      ESP Fit Center  465 is at   5.138327 -0.445491  2.934918
      ESP Fit Center  466 is at   6.321096  0.385894  2.232150
      ESP Fit Center  467 is at   6.003536  1.363245  2.232150
      ESP Fit Center  468 is at   5.172151  1.967281  2.232150
      ESP Fit Center  469 is at   4.144504  1.967281  2.232150
      ESP Fit Center  470 is at   5.172151 -1.195494  2.232150
      ESP Fit Center  471 is at   6.003536 -0.591457  2.232150
      ESP Fit Center  472 is at   6.578327  0.385894  1.272150
      ESP Fit Center  473 is at   6.321096  1.345894  1.272150
      ESP Fit Center  474 is at   5.618327  2.048662  1.272150
      ESP Fit Center  475 is at   4.658327  2.305894  1.272150
      ESP Fit Center  476 is at   6.321096 -0.574106  1.272150
      ESP Fit Center  477 is at  -3.317909 -2.113438  2.180835
      ESP Fit Center  478 is at  -4.277909 -2.113438  1.923604
      ESP Fit Center  479 is at  -3.797909 -2.944823  1.923604
      ESP Fit Center  480 is at  -2.837909 -2.944823  1.923604
      ESP Fit Center  481 is at  -4.980678 -2.113438  1.220835
      ESP Fit Center  482 is at  -4.663117 -3.090789  1.220835
      ESP Fit Center  483 is at  -3.831733 -3.694825  1.220835
      ESP Fit Center  484 is at  -2.804085 -3.694825  1.220835
      ESP Fit Center  485 is at  -4.980678 -1.153438  0.260835
      ESP Fit Center  486 is at  -5.237909 -2.113438  0.260835
      ESP Fit Center  487 is at  -4.980678 -3.073438  0.260835
      ESP Fit Center  488 is at  -4.277909 -3.776207  0.260835
      ESP Fit Center  489 is at  -3.317909 -4.033438  0.260835
      ESP Fit Center  490 is at  -4.980678 -2.113438 -0.699165
      ESP Fit Center  491 is at  -4.663117 -3.090789 -0.699165
      ESP Fit Center  492 is at  -3.831733 -3.694825 -0.699165
      ESP Fit Center  493 is at  -0.875342 -1.808768 -2.288299
      ESP Fit Center  494 is at  -3.883319 -0.831417 -2.288299
      ESP Fit Center  495 is at  -4.200880 -1.808768 -2.288299
      ESP Fit Center  496 is at  -3.883319 -2.786119 -2.288299
      ESP Fit Center  497 is at  -3.051935 -3.390155 -2.288299
      ESP Fit Center  498 is at  -2.024287 -3.390155 -2.288299
      ESP Fit Center  499 is at  -1.192903 -2.786119 -2.288299
      ESP Fit Center  500 is at  -1.578111 -1.808768 -2.991067
      ESP Fit Center  501 is at  -2.058111 -0.977384 -2.991067
      ESP Fit Center  502 is at  -3.018111 -0.977384 -2.991067
      ESP Fit Center  503 is at  -3.498111 -1.808768 -2.991067
      ESP Fit Center  504 is at  -3.018111 -2.640153 -2.991067
      ESP Fit Center  505 is at  -2.058111 -2.640153 -2.991067
      ESP Fit Center  506 is at  -2.538111 -1.808768 -3.248299
      ESP Fit Center  507 is at  -1.518277 -2.149588  2.030318
      ESP Fit Center  508 is at  -1.998277 -2.980972  1.773086
      ESP Fit Center  509 is at  -1.038277 -2.980972  1.773086
      ESP Fit Center  510 is at  -2.032101 -3.730975  1.070318
      ESP Fit Center  511 is at  -1.004454 -3.730975  1.070318
      ESP Fit Center  512 is at  -1.518277 -4.069588  0.110318
      ESP Fit Center  513 is at  -0.558277 -3.812356  0.110318
      ESP Fit Center  514 is at  -1.004454 -3.730975 -0.849682
      ESP Fit Center  515 is at   0.014535  0.695420  3.171338
      ESP Fit Center  516 is at   0.974535  0.695420  2.914107
      ESP Fit Center  517 is at   0.494535  1.526805  2.914107
      ESP Fit Center  518 is at  -0.465465  1.526805  2.914107
      ESP Fit Center  519 is at  -0.465465 -0.135964  2.914107
      ESP Fit Center  520 is at   0.494535 -0.135964  2.914107
      ESP Fit Center  521 is at  -0.499289  2.276808  2.211338
      ESP Fit Center  522 is at   2.688864 -0.985794  3.481426
      ESP Fit Center  523 is at   3.648864 -0.985794  3.224195
      ESP Fit Center  524 is at   1.728864 -0.985794  3.224195
      ESP Fit Center  525 is at   2.208864 -1.817179  3.224195
      ESP Fit Center  526 is at   3.168864 -1.817179  3.224195
      ESP Fit Center  527 is at   1.026096 -0.985794  2.521426
      ESP Fit Center  528 is at   1.343656 -1.963145  2.521426
[...]
  464 Fit       0.033060
  465 Fit       0.027251
  466 Fit       0.023718
  467 Fit       0.023189
  468 Fit       0.021955
  469 Fit       0.019530
  470 Fit       0.028974
  471 Fit       0.024378
  472 Fit       0.022685
  473 Fit       0.022553
  474 Fit       0.022053
  475 Fit       0.021987
  476 Fit       0.022722
  477 Fit      -0.002087
  478 Fit       0.005352
  479 Fit       0.008878
  480 Fit       0.005832
  481 Fit       0.009265
  482 Fit       0.013021
  483 Fit       0.013177
  484 Fit       0.011078
  485 Fit       0.000821
  486 Fit       0.009061
  487 Fit       0.013550
  488 Fit       0.014803
  489 Fit       0.014036
  490 Fit       0.007718
  491 Fit       0.013304
  492 Fit       0.015183
  493 Fit      -0.000545
  494 Fit      -0.006141
  495 Fit       0.006549
  496 Fit       0.012624
  497 Fit       0.013503
  498 Fit       0.010241
  499 Fit       0.003386
  500 Fit       0.009347
  501 Fit       0.013243
  502 Fit       0.009194
  503 Fit       0.010810
  504 Fit       0.013410
  505 Fit       0.011385
  506 Fit       0.012788
  507 Fit      -0.007464
  508 Fit       0.003792
  509 Fit      -0.003249
  510 Fit       0.008361
  511 Fit      -0.000658
  512 Fit       0.005456
  513 Fit      -0.008915
  514 Fit      -0.001474
  515 Fit       0.004955
  516 Fit       0.014966
  517 Fit       0.014290
  518 Fit       0.000023
  519 Fit      -0.010417
  520 Fit       0.012105
  521 Fit       0.010409
  522 Fit       0.028175
  523 Fit       0.033959
  524 Fit       0.022378
  525 Fit       0.027165
  526 Fit       0.033331
  527 Fit       0.018079
  528 Fit       0.011784
  529 Fit       0.020806
  530 Fit       0.030993
  531 Fit       0.036800
  532 Fit       0.015448
  533 Fit       0.029257
  534 Fit       0.017747
  535 Fit       0.030462
  536 Fit       0.013923
  537 Fit       0.034762
  538 Fit       0.025964
  539 Fit       0.007824
  540 Fit       0.018555
  541 Fit       0.029499
  542 Fit       0.025314
  543 Fit       0.017199
  544 Fit       0.017378
  545 Fit       0.011154
  546 Fit       0.022775
  547 Fit       0.016004
  548 Fit       0.013217
  549 Fit       0.016299
  550 Fit       0.016386
  551 Fit       0.017813
  552 Fit       0.016483
  553 Fit       0.015850
  554 Fit       0.029894
  555 Fit       0.020179
  556 Fit       0.026836
  557 Fit       0.021851
  558 Fit       0.019349
  559 Fit       0.019837
  560 Fit       0.019768
  561 Fit       0.016829
  562 Fit       0.017340
  563 Fit       0.002322
  564 Fit      -0.004516
  565 Fit       0.008178
  566 Fit      -0.000493
  567 Fit       0.009449
  568 Fit       0.011774
  569 Fit       0.010236
  570 Fit       0.005798
  571 Fit       0.018405
  572 Fit       0.024394
  573 Fit       0.013774
  574 Fit       0.009004
  575 Fit       0.013903
  576 Fit       0.013238
  577 Fit       0.008424
  578 Fit       0.011347
  579 Fit       0.009669
  580 Fit      -0.003320
  581 Fit      -0.035874
  582 Fit      -0.034884
  583 Fit      -0.028773
  584 Fit      -0.034650
  585 Fit      -0.035629
  586 Fit      -0.032546
  587 Fit      -0.023079
  588 Fit      -0.011764
  589 Fit      -0.026385
  590 Fit      -0.032241
  591 Fit      -0.033668
  592 Fit      -0.031860
  593 Fit      -0.025178
  594 Fit      -0.010244
  595 Fit      -0.000225
  596 Fit      -0.021343
  597 Fit      -0.028802
  598 Fit      -0.030245
  599 Fit      -0.026976
  600 Fit      -0.016260
  601 Fit      -0.005527
  602 Fit      -0.022000
  603 Fit      -0.024261
  604 Fit      -0.014622
  605 Fit      -0.013796
  606 Fit      -0.028123
  607 Fit      -0.020767
  608 Fit      -0.024388
  609 Fit      -0.030780
  610 Fit      -0.031704
  611 Fit      -0.028438
  612 Fit      -0.024788
  613 Fit      -0.018212
  614 Fit      -0.027858
  615 Fit      -0.033570
  616 Fit      -0.033817
  617 Fit      -0.029227
  618 Fit      -0.023784
  619 Fit      -0.021475
  620 Fit      -0.020552
  621 Fit      -0.014423
  622 Fit      -0.011897
  623 Fit      -0.025105
  624 Fit      -0.033829
  625 Fit      -0.014212
  626 Fit      -0.018555
  627 Fit      -0.021119
  628 Fit      -0.017759
  629 Fit      -0.013962
  630 Fit      -0.007216
  631 Fit      -0.001313
  632 Fit      -0.005553
  633 Fit      -0.017508
  634 Fit      -0.026367
  635 Fit      -0.030357
  636 Fit      -0.028614
  637 Fit      -0.024810
  638 Fit      -0.025545
  639 Fit      -0.021763
  640 Fit      -0.018960
  641 Fit      -0.022343
  642 Fit      -0.028384
  643 Fit      -0.028973
  644 Fit      -0.026081
  645 Fit       0.002984
  646 Fit      -0.011929
  647 Fit      -0.011831
  648 Fit      -0.000030
  649 Fit      -0.011092
  650 Fit      -0.015899
  651 Fit      -0.010266
  652 Fit      -0.018007
  653 Fit      -0.019661
  654 Fit      -0.011767
  655 Fit      -0.020655
  656 Fit      -0.023825
  657 Fit      -0.018735
  658 Fit      -0.014381
  659 Fit      -0.024631
  660 Fit      -0.026483
  661 Fit      -0.023918
  662 Fit      -0.015511
  663 Fit      -0.027493
  664 Fit      -0.034039
  665 Fit      -0.032191
  666 Fit      -0.022120
  667 Fit      -0.007752
  668 Fit      -0.014241
  669 Fit      -0.005783
  670 Fit      -0.011970
  671 Fit       0.007643
  672 Fit      -0.000449
  673 Fit      -0.009024
  674 Fit      -0.021126
  675 Fit      -0.014534
  676 Fit      -0.012021
  677 Fit      -0.023136
  678 Fit      -0.029626
  679 Fit       0.004401
  680 Fit       0.012367
  681 Fit       0.014619
  682 Fit       0.016014
  683 Fit       0.019365
  684 Fit       0.002264
  685 Fit       0.011996
  686 Fit       0.016453
  687 Fit       0.023226
  688 Fit       0.008018
  689 Fit       0.008997
  690 Fit       0.014266
  691 Fit       0.010655
  692 Fit       0.004919
  693 Fit       0.015277
  694 Fit       0.013346
  695 Fit       0.010255
  696 Fit       0.004563
  697 Fit       0.015024
  698 Fit       0.013519
  699 Fit       0.010632
  700 Fit       0.006036
  701 Fit       0.015347
  702 Fit       0.014263
  703 Fit       0.014038
  704 Fit       0.014634
  705 Fit       0.015197
  706 Fit       0.016646
  707 Fit       0.015382
  708 Fit       0.019968
  709 Fit       0.017838
  710 Fit       0.021997
  711 Fit       0.018931
  712 Fit       0.020272
  713 Fit       0.020661
  714 Fit       0.018946
  715 Fit       0.018748
  716 Fit       0.020532
  717 Fit       0.014902
  718 Fit       0.015681
  719 Fit       0.016546
  720 Fit       0.005556
  721 Fit       0.007675
  722 Fit       0.000600
  723 Fit       0.023703
  724 Fit       0.019604
  725 Fit       0.019132
  726 Fit       0.017197
  727 Fit       0.010331
  728 Fit       0.012693
  729 Fit       0.014423
  730 Fit       0.015644
  731 Fit       0.013003
  732 Fit       0.002812
  733 Fit       0.008613
  734 Fit       0.011464
  735 Fit       0.005846
  736 Fit       0.001886
  737 Fit      -0.009744
  738 Fit       0.021961
  739 Fit       0.021602
  740 Fit       0.020232
  741 Fit       0.017935
  742 Fit       0.024330
  743 Fit       0.020783
  744 Fit       0.020367
  745 Fit       0.019691
  746 Fit       0.018587
  747 Fit       0.024905
  748 Fit       0.021517
  749 Fit       0.020019
  750 Fit       0.019935
  751 Fit       0.019832
  752 Fit       0.020280
  753 Fit       0.020279
  754 Fit      -0.006506
  755 Fit       0.001115
  756 Fit       0.005397
  757 Fit       0.002762
  758 Fit       0.001854
  759 Fit       0.007507
  760 Fit       0.009901
  761 Fit       0.009602
  762 Fit       0.001188
  763 Fit       0.007885
  764 Fit       0.010926
  765 Fit       0.011585
  766 Fit      -0.001275
  767 Fit       0.007732
  768 Fit       0.011360
  769 Fit      -0.005269
  770 Fit      -0.002283
  771 Fit       0.007040
  772 Fit       0.010499
  773 Fit       0.010024
  774 Fit       0.006052
  775 Fit      -0.001150
  776 Fit       0.005536
  777 Fit       0.009806
  778 Fit       0.005437
  779 Fit       0.007281
  780 Fit       0.009977
  781 Fit       0.007852
  782 Fit       0.009133
  783 Fit      -0.010806
  784 Fit      -0.005071
  785 Fit       0.004309
  786 Fit      -0.005144
  787 Fit       0.001050
  788 Fit      -0.006609
  789 Fit       0.001874
  790 Fit       0.011916
  791 Fit       0.011089
  792 Fit      -0.002899
  793 Fit       0.009104
  794 Fit      -0.008402
  795 Fit       0.023181
  796 Fit       0.028798
  797 Fit       0.017452
  798 Fit       0.021263
  799 Fit       0.027327
  800 Fit       0.008169
  801 Fit       0.017856
  802 Fit       0.026172
  803 Fit       0.031212
  804 Fit       0.013746
  805 Fit       0.024893
  806 Fit       0.014897
  807 Fit       0.022742
  808 Fit       0.009338
  809 Fit       0.011748
  810 Fit       0.022858
  811 Fit       0.018776
  812 Fit       0.011159
  813 Fit       0.012535
  814 Fit       0.005961
  815 Fit       0.016643
  816 Fit       0.012700
  817 Fit       0.010466
  818 Fit       0.014688
  819 Fit       0.015245
  820 Fit       0.014221
  821 Fit       0.016321
  822 Fit       0.014564
  823 Fit       0.013967
  824 Fit       0.014159
  825 Fit       0.014197
  826 Fit       0.014946
  827 Fit       0.026960
  828 Fit       0.018479
  829 Fit       0.024031
  830 Fit       0.020374
  831 Fit       0.018269
  832 Fit       0.019957
  833 Fit       0.017447
  834 Fit       0.015891
  835 Fit       0.016285
  836 Fit       0.016812
  837 Fit       0.013312
  838 Fit       0.013888
  839 Fit       0.008575
  840 Fit      -0.000781
  841 Fit      -0.007392
  842 Fit       0.003529
  843 Fit       0.006328
  844 Fit       0.008639
  845 Fit       0.005074
  846 Fit       0.008298
  847 Fit       0.005038
  848 Fit       0.002817
  849 Fit       0.008126
  850 Fit       0.009174
  851 Fit       0.007447
  852 Fit       0.002839
  853 Fit      -0.006791
  854 Fit       0.016147
  855 Fit       0.020821
  856 Fit       0.013646
  857 Fit       0.009814
  858 Fit       0.012064
  859 Fit       0.013223
  860 Fit       0.009426
  861 Fit       0.010028
  862 Fit       0.009829
  863 Fit       0.006955
  864 Fit      -0.003314
  865 Fit      -0.021845
  866 Fit      -0.028398
  867 Fit      -0.030499
  868 Fit      -0.029196
  869 Fit      -0.023837
  870 Fit      -0.013620
  871 Fit      -0.023278
  872 Fit      -0.027882
  873 Fit      -0.029370
  874 Fit      -0.028476
  875 Fit      -0.024750
  876 Fit      -0.016640
  877 Fit      -0.002207
  878 Fit      -0.017346
  879 Fit      -0.024367
  880 Fit      -0.027043
  881 Fit      -0.026922
  882 Fit      -0.023871
  883 Fit      -0.016492
  884 Fit      -0.012567
  885 Fit      -0.021042
  886 Fit      -0.023982
  887 Fit      -0.023218
  888 Fit      -0.018341
  889 Fit      -0.007677
  890 Fit      -0.003391
  891 Fit      -0.016456
  892 Fit      -0.018484
  893 Fit      -0.010715
  894 Fit      -0.009781
  895 Fit      -0.023023
  896 Fit      -0.017125
  897 Fit      -0.020016
  898 Fit      -0.025205
  899 Fit      -0.026100
  900 Fit      -0.023428
  901 Fit      -0.020199
  902 Fit      -0.007076
  903 Fit      -0.014011
  904 Fit      -0.021291
  905 Fit      -0.026560
  906 Fit      -0.028528
  907 Fit      -0.026921
  908 Fit      -0.023189
  909 Fit      -0.019918
  910 Fit      -0.018379
  911 Fit      -0.016631
  912 Fit      -0.011414
  913 Fit      -0.009256
  914 Fit      -0.019475
  915 Fit      -0.026825
  916 Fit      -0.030119
  917 Fit      -0.028281
  918 Fit      -0.011716
  919 Fit      -0.012184
  920 Fit      -0.009964
  921 Fit      -0.007179
  922 Fit      -0.004587
  923 Fit      -0.021946
  924 Fit      -0.017154
  925 Fit      -0.012880
  926 Fit      -0.017575
  927 Fit      -0.014941
  928 Fit      -0.012065
  929 Fit      -0.007837
  930 Fit      -0.003356
  931 Fit      -0.002887
  932 Fit      -0.009972
  933 Fit      -0.017585
  934 Fit      -0.023164
  935 Fit      -0.024872
  936 Fit      -0.023268
  937 Fit      -0.020416
  938 Fit      -0.020701
  939 Fit      -0.017470
  940 Fit      -0.015146
  941 Fit      -0.017832
  942 Fit      -0.022754
  943 Fit      -0.023414
  944 Fit      -0.020889
  945 Fit      -0.009486
  946 Fit      -0.007535
  947 Fit       0.003538
  948 Fit      -0.010270
  949 Fit      -0.010075
  950 Fit      -0.001885
  951 Fit      -0.013751
  952 Fit      -0.012121
  953 Fit      -0.002412
  954 Fit      -0.013934
  955 Fit      -0.017136
  956 Fit      -0.014920
  957 Fit      -0.006495
  958 Fit      -0.018404
  959 Fit      -0.019760
  960 Fit      -0.015219
  961 Fit      -0.021352
  962 Fit      -0.025243
  963 Fit      -0.029554
  964 Fit      -0.028048
  965 Fit      -0.021099
  966 Fit      -0.011174
  967 Fit      -0.009426
  968 Fit      -0.022049
  969 Fit      -0.030167
  970 Fit      -0.025466
  971 Fit      -0.014179
  972 Fit      -0.014158
  973 Fit       0.005465
  974 Fit       0.008148
  975 Fit       0.003058
  976 Fit      -0.018880
  977 Fit      -0.008766
  978 Fit      -0.022853
  979 Fit      -0.019758
  980 Fit      -0.010406
  981 Fit      -0.019356
  982 Fit      -0.025177
  983 Fit       0.013748
  984 Fit       0.014051
  985 Fit       0.001210
  986 Fit       0.009525
  987 Fit       0.012214
  988 Fit       0.013793
  989 Fit       0.016778
  990 Fit       0.000894
  991 Fit       0.009486
  992 Fit       0.013485
  993 Fit       0.017603
  994 Fit       0.004866
  995 Fit       0.006645
  996 Fit       0.008296
  997 Fit       0.002391
  998 Fit       0.013362
  999 Fit       0.010881
 1000 Fit       0.007297
 1001 Fit       0.000839
 1002 Fit       0.013262
 1003 Fit       0.011424
 1004 Fit       0.008576
 1005 Fit       0.003571
 1006 Fit       0.013836
 1007 Fit       0.012305
 1008 Fit       0.010096
 1009 Fit       0.006227
 1010 Fit       0.014069
 1011 Fit       0.013171
 1012 Fit       0.014353
 1013 Fit       0.012898
 1014 Fit       0.013579
 1015 Fit       0.014532
 1016 Fit       0.017404
 1017 Fit       0.015692
 1018 Fit       0.019857
 1019 Fit       0.017285
 1020 Fit       0.015793
 1021 Fit       0.020548
 1022 Fit       0.017316
 1023 Fit       0.017865
 1024 Fit       0.018988
 1025 Fit       0.015556
 1026 Fit       0.015619
 1027 Fit       0.016735
 1028 Fit       0.011505
 1029 Fit       0.012108
 1030 Fit       0.012325
 1031 Fit       0.002483
 1032 Fit       0.004375
 1033 Fit       0.013039
 1034 Fit       0.013778
 1035 Fit       0.014488
 1036 Fit       0.015408
 1037 Fit       0.013810
 1038 Fit       0.003936
 1039 Fit       0.008371
 1040 Fit       0.010856
 1041 Fit       0.012399
 1042 Fit       0.009705
 1043 Fit      -0.002009
 1044 Fit       0.004815
 1045 Fit       0.008070
 1046 Fit       0.002837
 1047 Fit      -0.001209
 1048 Fit       0.019655
 1049 Fit       0.019306
 1050 Fit       0.018116
 1051 Fit       0.016609
 1052 Fit       0.021733
 1053 Fit       0.018717
 1054 Fit       0.018248
 1055 Fit       0.017705
 1056 Fit       0.016785
 1057 Fit       0.022822
 1058 Fit       0.019649
 1059 Fit       0.018093
 1060 Fit       0.017956
 1061 Fit       0.017855
 1062 Fit       0.018007
 1063 Fit       0.018463
 1064 Fit       0.017902
 1065 Fit      -0.002768
 1066 Fit       0.001849
 1067 Fit      -0.002012
 1068 Fit       0.003887
 1069 Fit       0.006413
 1070 Fit       0.006417
 1071 Fit       0.002498
 1072 Fit       0.006712
 1073 Fit       0.008522
 1074 Fit       0.008638
 1075 Fit       0.001855
 1076 Fit       0.006905
 1077 Fit       0.009104
 1078 Fit       0.009639
 1079 Fit       0.005579
 1080 Fit      -0.005072
 1081 Fit      -0.002055
 1082 Fit       0.005029
 1083 Fit       0.007970
 1084 Fit       0.007607
 1085 Fit       0.004266
 1086 Fit      -0.001538
 1087 Fit       0.003710
 1088 Fit       0.006898
 1089 Fit       0.003966
 1090 Fit       0.005231
 1091 Fit       0.007338
 1092 Fit       0.005587
 1093 Fit       0.006495
 1094 Fit      -0.005959
 1095 Fit       0.002092
 1096 Fit      -0.005394
 1097 Fit      -0.002223
 1098 Fit      -0.002516
 1099 Fit       0.000020
 1100 Fit       0.009595
 1101 Fit       0.007834
 1102 Fit      -0.004167
 1103 Fit       0.006075
 1104 Fit       0.006989
 1105 Fit       0.019454
 1106 Fit       0.024097
 1107 Fit       0.014566
 1108 Fit       0.017621
 1109 Fit       0.022585
 1110 Fit       0.009069
 1111 Fit       0.015841
 1112 Fit       0.022195
 1113 Fit       0.026393
 1114 Fit       0.004648
 1115 Fit       0.015866
 1116 Fit       0.023020
 1117 Fit       0.008900
 1118 Fit       0.015962
 1119 Fit       0.017980
 1120 Fit       0.007816
 1121 Fit       0.008124
 1122 Fit       0.017016
 1123 Fit       0.014207
 1124 Fit       0.008620
 1125 Fit       0.009212
 1126 Fit       0.004202
 1127 Fit       0.012203
 -----------------------------------------------------------------
 Leave Link  602 at Mon Feb 26 23:18:23 2018, MaxMem=   33554432 cpu:       0.7

 Test job not archived.
 1\1\GINC-NODE083\SP\RHF\6-31G(d)\C4H12N2O4S2\WULSDORT\26-Feb-2018\0\\#
 HF/6-31G* Geom=AllCheck Guess=Read Pop=(MK,ReadRadii) Integral=(Grid=U
 ltraFine) iop(6/33=2)\\Optimization for frag2-conf0\\0,1\C,0,-0.121186
 4211,1.7824025306,-1.9620339122\C,0,2.139035089,2.384888703,1.14586877
 3\C,0,-0.9475263274,-3.1889143992,-1.1322045655\C,0,-0.2905757607,0.47
 11814697,-1.2044416545\N,0,1.0188578021,1.435699076,1.047427845\N,0,-0
 .4030429458,-0.6697005392,-2.0751900953\O,0,-1.9983705537,-2.145245849
 9,-3.3398102072\O,0,-2.6887685662,-1.194966684,-1.0628284928\O,0,2.392
 8243975,0.3318309893,-0.8383841604\O,0,0.8627048443,-1.079186651,0.663
 153959\S,0,-1.6840499234,-1.7732783256,-1.9591180968\S,0,1.1526157705,
 0.1641932974,-0.0702313699\H,0,0.7641907399,1.7489064518,-2.6050566513
 \H,0,-1.0085426017,1.9546984194,-2.5791898787\H,0,-0.0159151301,2.6184
 893959,-1.2658792194\H,0,2.3398969998,2.8104194608,0.1617881331\H,0,3.
 0638706879,1.9331981314,1.5228663756\H,0,1.8280870682,3.1904503398,1.8
 170177536\H,0,-1.7508258755,-3.9081825189,-0.9561674853\H,0,-0.1874235
 964,-3.6135851122,-1.7899778078\H,0,-0.5024350603,-2.8462394581,-0.196
 9357184\H,0,-1.1545163113,0.5012683211,-0.5353055548\H,0,0.7590286054,
 1.0258608458,1.9421575342\H,0,-0.0774777806,-0.5665336447,-3.030219957
 9\\Version=AM64L-G09RevC.01\State=1-A\HF=-1361.6643639\RMSD=3.075e-09\
 Dipole=0.7528102,1.305667,0.8042053\Quadrupole=-12.9353121,10.882065,2
 .053247,1.2902193,-1.7643435,1.1732788\PG=C01 [X(C4H12N2O4S2)]\\@


 THOUGH I SPEAK WITH THE TONGUES OF MEN AND OF ANGELS, 
 AND HAVE NOT LOVE,
 I AM BECOME AS SOUNDING BRASS, A TINKLING CYMBAL.
 AND THOUGH I HAVE THE GIFT OF PROPHECY,
 AND UNDERSTAND ALL MYSTERIES, AND ALL KNOWLEDGE.
 AND THOUGH I HAVE ALL FAITH, SO THAT I COULD REMOVE MOUNTAINS,
 AND HAVE NOT LOVE, I AM NOTHING.
 AND THOUGH I BESTOW ALL MY GOODS TO FEED THE POOR,
 AND THOUGH I GIVE MY BODY TO BE BURNED,
 AND HAVE NOT LOVE IT PROFITETH ME NOTHING.
 LOVE SUFFERETH LONG, AND IS KIND,
 LOVE ENVIETH NOT,
 LOVE VAUNTETH NOT ITSELF, IS NOT PUFFED UP,
 DOTH NOT BEHAVE ITSELF UNSEEMLY, SEEKETH NOT HER OWN,
 IS NOT EASILY PROVOKED, THINKETH NO EVIL,
 REJOICETH NOT IN INIQUITY, BUT REJOICETH IN THE TRUTH,
 BEARETH ALL THINGS, BELIEVETH ALL THINGS,
 HOPETH ALL THINGS, ENDURETH ALL THINGS.
 LOVE NEVER FAILETH, BUT WHETHER THERE BE PROPHECIES, THEY SHALL FAIL, 
 WHETHER THERE BE TONGUES, THEY SHALL CEASE,
 WHETHER THERE BE KNOWLEDGE, IT SHALL VANISH AWAY.
 FOR WE KNOW IN PART, AND WE PROPHESY IN PART.
 BUT WHEN THAT WHICH IS PERFECT IS COME, THEN THAT WHICH IS IN PART 
 SHALL BE DONE AWAY. 
 WHEN I WAS A CHILD, I SPAKE AS A CHILD, I UNDERSTOOD AS A CHILD, 
 I THOUGHT AS A CHILD.
 BUT WHEN I BECAME A MAN, I PUT AWAY CHILDISH THINGS.
 FOR NOW WE SEE THROUGH A GLASS, DARKLY, BUT THEN FACE TO FACE.
 NOW I KNOW IN PART. BUT THEN SHALL I KNOW EVEN AS ALSO I AM KNOWN.
 AND NOW ABIDETH FAITH, HOPE AND LOVE, THESE THREE.
 BUT THE GREATEST OF THESE IS LOVE.

                     I CORINTHIANS 13
 Job cpu time:  0 days  0 hours  2 minutes 18.3 seconds.
 File lengths (MBytes):  RWF=     29 Int=      0 D2E=      0 Chk=      5 Scr=      1
 Normal termination of Gaussian 09 at Mon Feb 26 23:18:23 2018.
