 Entering Gaussian System, Link 0=g09
 Initial command:
 /home/fb_chem/chemsoft/lx24-amd64/Gaussian_09_C.01_NBO_3.1_64_istanbul-64/g09/l1.exe /local/2426252.1.parallel/Gau-7556.inp -scrdir=/local/2426252.1.parallel/
 Entering Link 1 = /home/fb_chem/chemsoft/lx24-amd64/Gaussian_09_C.01_NBO_3.1_64_istanbul-64/g09/l1.exe PID=      7558.
  
 Copyright (c) 1988,1990,1992,1993,1995,1998,2003,2009,2011,
            Gaussian, Inc.  All Rights Reserved.
  
 This is part of the Gaussian(R) 09 program.  It is based on
 the Gaussian(R) 03 system (copyright 2003, Gaussian, Inc.),
 the Gaussian(R) 98 system (copyright 1998, Gaussian, Inc.),
 the Gaussian(R) 94 system (copyright 1995, Gaussian, Inc.),
 the Gaussian 92(TM) system (copyright 1992, Gaussian, Inc.),
 the Gaussian 90(TM) system (copyright 1990, Gaussian, Inc.),
 the Gaussian 88(TM) system (copyright 1988, Gaussian, Inc.),
 the Gaussian 86(TM) system (copyright 1986, Carnegie Mellon
 University), and the Gaussian 82(TM) system (copyright 1983,
 Carnegie Mellon University). Gaussian is a federally registered
 trademark of Gaussian, Inc.
  
 This software contains proprietary and confidential information,
 including trade secrets, belonging to Gaussian, Inc.
  
 This software is provided under written license and may be
 used, copied, transmitted, or stored only in accord with that
 written license.
  
 The following legend is applicable only to US Government
 contracts under FAR:
  
                    RESTRICTED RIGHTS LEGEND
  
 Use, reproduction and disclosure by the US Government is
 subject to restrictions as set forth in subparagraphs (a)
 and (c) of the Commercial Computer Software - Restricted
 Rights clause in FAR 52.227-19.
  
 Gaussian, Inc.
 340 Quinnipiac St., Bldg. 40, Wallingford CT 06492
  
  
 ---------------------------------------------------------------
 Warning -- This program may not be used in any manner that
 competes with the business of Gaussian, Inc. or will provide
 assistance to any competitor of Gaussian, Inc.  The licensee
 of this program is prohibited from giving any competitor of
 Gaussian, Inc. access to this program.  By using this program,
 the user acknowledges that Gaussian, Inc. is engaged in the
 business of creating and licensing software in the field of
 computational chemistry and represents and warrants to the
 licensee that it is not a competitor of Gaussian, Inc. and that
 it will not use this program in any manner prohibited above.
 ---------------------------------------------------------------
  

 Cite this work as:
 Gaussian 09, Revision C.01,
 M. J. Frisch, G. W. Trucks, H. B. Schlegel, G. E. Scuseria, 
 M. A. Robb, J. R. Cheeseman, G. Scalmani, V. Barone, B. Mennucci, 
 G. A. Petersson, H. Nakatsuji, M. Caricato, X. Li, H. P. Hratchian, 
 A. F. Izmaylov, J. Bloino, G. Zheng, J. L. Sonnenberg, M. Hada, 
 M. Ehara, K. Toyota, R. Fukuda, J. Hasegawa, M. Ishida, T. Nakajima, 
 Y. Honda, O. Kitao, H. Nakai, T. Vreven, J. A. Montgomery, Jr., 
 J. E. Peralta, F. Ogliaro, M. Bearpark, J. J. Heyd, E. Brothers, 
 K. N. Kudin, V. N. Staroverov, T. Keith, R. Kobayashi, J. Normand, 
 K. Raghavachari, A. Rendell, J. C. Burant, S. S. Iyengar, J. Tomasi, 
 M. Cossi, N. Rega, J. M. Millam, M. Klene, J. E. Knox, J. B. Cross, 
 V. Bakken, C. Adamo, J. Jaramillo, R. Gomperts, R. E. Stratmann, 
 O. Yazyev, A. J. Austin, R. Cammi, C. Pomelli, J. W. Ochterski, 
 R. L. Martin, K. Morokuma, V. G. Zakrzewski, G. A. Voth, 
 P. Salvador, J. J. Dannenberg, S. Dapprich, A. D. Daniels, 
 O. Farkas, J. B. Foresman, J. V. Ortiz, J. Cioslowski, 
 and D. J. Fox, Gaussian, Inc., Wallingford CT, 2010.
 
 ******************************************
 Gaussian 09:  AM64L-G09RevC.01 23-Sep-2011
                26-Feb-2018 
 ******************************************
 %nprocs=4
 Will use up to    4 processors via shared memory.
 %chk=frag2-conf0.chk
 ---------------------------------------------------------
 #B3LYP/6-31G* Integral=(Grid=UltraFine) freq Opt pop=none
 ---------------------------------------------------------
 1/14=-1,18=20,19=15,26=3,38=1/1,3;
 2/9=110,12=2,17=6,18=5,40=1/2;
 3/5=1,6=6,7=1,11=2,16=1,25=1,30=1,71=1,74=-5,75=-5/1,2,3;
 4//1;
 5/5=2,38=5/2;
 7//1,2,3,16;
 1/14=-1,18=20,19=15/3(2);
 2/9=110/2;
 99//99;
 2/9=110/2;
 3/5=1,6=6,7=1,11=2,16=1,25=1,30=1,71=1,74=-5,75=-5/1,2,3;
 4/5=5,16=3/1;
 5/5=2,38=5/2;
 7//1,2,3,16;
 1/14=-1,18=20,19=15/3(-5);
 2/9=110/2;
 99/9=1/99;
 ----------------------------
 Optimization for frag2-conf0
 ----------------------------
 Charge =  0 Multiplicity = 1
 Symbolic Z-Matrix:
 C                    -0.13005   1.26469  -1.63282 
 C                     2.09928   2.92291   0.64704 
 C                    -1.52712  -3.40054  -2.04023 
 C                    -0.10395   0.13798  -0.6057 
 N                     1.25177   1.84618   1.17084 
 N                    -0.17705  -1.20989  -1.30324 
 O                    -1.67705  -1.09476  -3.31803 
 O                    -2.69218  -1.26879  -1.01518 
 O                     2.60881   0.2917   -0.32255 
 O                     1.27194  -0.60622   1.60446 
 S                    -1.65944  -1.6282   -1.96916 
 S                     1.39836   0.31348   0.48313 
 H                     0.73512   1.21076  -2.30212 
 H                    -1.03244   1.22743  -2.24956 
 H                    -0.1216    2.24513  -1.14878 
 H                     2.05886   2.97387  -0.44343 
 H                     3.1322    2.78464   0.97772 
 H                     1.74031   3.87696   1.04388 
 H                    -2.45163  -3.78992  -2.47183 
 H                    -0.67957  -3.66692  -2.67431 
 H                    -1.39794  -3.78613  -1.02732 
 H                    -0.94337   0.22429   0.09332 
 H                     1.20697   1.78703   2.19423 
 H                     0.58021  -1.28802  -1.99305 
 

 GradGradGradGradGradGradGradGradGradGradGradGradGradGradGradGradGradGrad
 Berny optimization.
 Initialization pass.
                           ----------------------------
                           !    Initial Parameters    !
                           ! (Angstroms and Degrees)  !
 --------------------------                            --------------------------
 ! Name  Definition              Value          Derivative Info.                !
 --------------------------------------------------------------------------------
 ! R1    R(1,4)                  1.5248         estimate D2E/DX2                !
 ! R2    R(1,13)                 1.0952         estimate D2E/DX2                !
 ! R3    R(1,14)                 1.0936         estimate D2E/DX2                !
 ! R4    R(1,15)                 1.0934         estimate D2E/DX2                !
 ! R5    R(2,5)                  1.467          estimate D2E/DX2                !
 ! R6    R(2,16)                 1.0924         estimate D2E/DX2                !
 ! R7    R(2,17)                 1.0933         estimate D2E/DX2                !
 ! R8    R(2,18)                 1.0939         estimate D2E/DX2                !
 ! R9    R(3,11)                 1.7787         estimate D2E/DX2                !
 ! R10   R(3,19)                 1.0921         estimate D2E/DX2                !
 ! R11   R(3,20)                 1.0915         estimate D2E/DX2                !
 ! R12   R(3,21)                 1.0915         estimate D2E/DX2                !
 ! R13   R(4,6)                  1.5194         estimate D2E/DX2                !
 ! R14   R(4,12)                 1.8637         estimate D2E/DX2                !
 ! R15   R(4,22)                 1.0958         estimate D2E/DX2                !
 ! R16   R(5,12)                 1.6863         estimate D2E/DX2                !
 ! R17   R(5,23)                 1.0261         estimate D2E/DX2                !
 ! R18   R(6,11)                 1.6781         estimate D2E/DX2                !
 ! R19   R(6,24)                 1.0273         estimate D2E/DX2                !
 ! R20   R(7,11)                 1.4506         estimate D2E/DX2                !
 ! R21   R(8,11)                 1.4511         estimate D2E/DX2                !
 ! R22   R(9,12)                 1.4542         estimate D2E/DX2                !
 ! R23   R(10,12)                1.4557         estimate D2E/DX2                !
 ! A1    A(4,1,13)             111.208          estimate D2E/DX2                !
 ! A2    A(4,1,14)             111.6423         estimate D2E/DX2                !
 ! A3    A(4,1,15)             111.3598         estimate D2E/DX2                !
 ! A4    A(13,1,14)            107.7889         estimate D2E/DX2                !
 ! A5    A(13,1,15)            107.9742         estimate D2E/DX2                !
 ! A6    A(14,1,15)            106.652          estimate D2E/DX2                !
 ! A7    A(5,2,16)             111.6722         estimate D2E/DX2                !
 ! A8    A(5,2,17)             110.1807         estimate D2E/DX2                !
 ! A9    A(5,2,18)             108.7256         estimate D2E/DX2                !
 ! A10   A(16,2,17)            110.0457         estimate D2E/DX2                !
 ! A11   A(16,2,18)            108.0179         estimate D2E/DX2                !
 ! A12   A(17,2,18)            108.0958         estimate D2E/DX2                !
 ! A13   A(11,3,19)            107.9443         estimate D2E/DX2                !
 ! A14   A(11,3,20)            108.9146         estimate D2E/DX2                !
 ! A15   A(11,3,21)            108.8885         estimate D2E/DX2                !
 ! A16   A(19,3,20)            109.9231         estimate D2E/DX2                !
 ! A17   A(19,3,21)            109.9375         estimate D2E/DX2                !
 ! A18   A(20,3,21)            111.161          estimate D2E/DX2                !
 ! A19   A(1,4,6)              110.207          estimate D2E/DX2                !
 ! A20   A(1,4,12)             109.7401         estimate D2E/DX2                !
 ! A21   A(1,4,22)             111.0011         estimate D2E/DX2                !
 ! A22   A(6,4,12)             112.9877         estimate D2E/DX2                !
 ! A23   A(6,4,22)             109.0186         estimate D2E/DX2                !
 ! A24   A(12,4,22)            103.7339         estimate D2E/DX2                !
 ! A25   A(2,5,12)             118.1179         estimate D2E/DX2                !
 ! A26   A(2,5,23)             115.0663         estimate D2E/DX2                !
 ! A27   A(12,5,23)            110.9864         estimate D2E/DX2                !
 ! A28   A(4,6,11)             116.4755         estimate D2E/DX2                !
 ! A29   A(4,6,24)             109.8926         estimate D2E/DX2                !
 ! A30   A(11,6,24)            111.4538         estimate D2E/DX2                !
 ! A31   A(3,11,6)             101.451          estimate D2E/DX2                !
 ! A32   A(3,11,7)             109.2788         estimate D2E/DX2                !
 ! A33   A(3,11,8)             109.0258         estimate D2E/DX2                !
 ! A34   A(6,11,7)             106.742          estimate D2E/DX2                !
 ! A35   A(6,11,8)             107.8226         estimate D2E/DX2                !
 ! A36   A(7,11,8)             120.7683         estimate D2E/DX2                !
 ! A37   A(4,12,5)             104.7011         estimate D2E/DX2                !
 ! A38   A(4,12,9)             110.2355         estimate D2E/DX2                !
 ! A39   A(4,12,10)            108.6947         estimate D2E/DX2                !
 ! A40   A(5,12,9)             108.1747         estimate D2E/DX2                !
 ! A41   A(5,12,10)            104.6279         estimate D2E/DX2                !
 ! A42   A(9,12,10)            119.3128         estimate D2E/DX2                !
 ! D1    D(13,1,4,6)           -61.966          estimate D2E/DX2                !
 ! D2    D(13,1,4,12)           63.078          estimate D2E/DX2                !
 ! D3    D(13,1,4,22)          177.1534         estimate D2E/DX2                !
 ! D4    D(14,1,4,6)            58.4666         estimate D2E/DX2                !
 ! D5    D(14,1,4,12)         -176.4893         estimate D2E/DX2                !
 ! D6    D(14,1,4,22)          -62.414          estimate D2E/DX2                !
 ! D7    D(15,1,4,6)           177.5581         estimate D2E/DX2                !
 ! D8    D(15,1,4,12)          -57.3978         estimate D2E/DX2                !
 ! D9    D(15,1,4,22)           56.6775         estimate D2E/DX2                !
 ! D10   D(16,2,5,12)           49.2039         estimate D2E/DX2                !
 ! D11   D(16,2,5,23)         -176.512          estimate D2E/DX2                !
 ! D12   D(17,2,5,12)          -73.4133         estimate D2E/DX2                !
 ! D13   D(17,2,5,23)           60.8707         estimate D2E/DX2                !
 ! D14   D(18,2,5,12)          168.2918         estimate D2E/DX2                !
 ! D15   D(18,2,5,23)          -57.4241         estimate D2E/DX2                !
 ! D16   D(19,3,11,6)         -179.6449         estimate D2E/DX2                !
 ! D17   D(19,3,11,7)          -67.1733         estimate D2E/DX2                !
 ! D18   D(19,3,11,8)           66.7656         estimate D2E/DX2                !
 ! D19   D(20,3,11,6)          -60.3308         estimate D2E/DX2                !
 ! D20   D(20,3,11,7)           52.1407         estimate D2E/DX2                !
 ! D21   D(20,3,11,8)         -173.9204         estimate D2E/DX2                !
 ! D22   D(21,3,11,6)           61.0386         estimate D2E/DX2                !
 ! D23   D(21,3,11,7)          173.5102         estimate D2E/DX2                !
 ! D24   D(21,3,11,8)          -52.5509         estimate D2E/DX2                !
 ! D25   D(1,4,6,11)           -72.5269         estimate D2E/DX2                !
 ! D26   D(1,4,6,24)            55.4068         estimate D2E/DX2                !
 ! D27   D(12,4,6,11)          164.3052         estimate D2E/DX2                !
 ! D28   D(12,4,6,24)          -67.7611         estimate D2E/DX2                !
 ! D29   D(22,4,6,11)           49.5332         estimate D2E/DX2                !
 ! D30   D(22,4,6,24)          177.467          estimate D2E/DX2                !
 ! D31   D(1,4,12,5)            57.8777         estimate D2E/DX2                !
 ! D32   D(1,4,12,9)           -58.2518         estimate D2E/DX2                !
 ! D33   D(1,4,12,10)          169.2489         estimate D2E/DX2                !
 ! D34   D(6,4,12,5)          -178.6961         estimate D2E/DX2                !
 ! D35   D(6,4,12,9)            65.1744         estimate D2E/DX2                !
 ! D36   D(6,4,12,10)          -67.3249         estimate D2E/DX2                !
 ! D37   D(22,4,12,5)          -60.7861         estimate D2E/DX2                !
 ! D38   D(22,4,12,9)         -176.9156         estimate D2E/DX2                !
 ! D39   D(22,4,12,10)          50.5851         estimate D2E/DX2                !
 ! D40   D(2,5,12,4)          -104.0161         estimate D2E/DX2                !
 ! D41   D(2,5,12,9)            13.5322         estimate D2E/DX2                !
 ! D42   D(2,5,12,10)          141.7193         estimate D2E/DX2                !
 ! D43   D(23,5,12,4)          119.9741         estimate D2E/DX2                !
 ! D44   D(23,5,12,9)         -122.4776         estimate D2E/DX2                !
 ! D45   D(23,5,12,10)           5.7095         estimate D2E/DX2                !
 ! D46   D(4,6,11,3)          -157.4406         estimate D2E/DX2                !
 ! D47   D(4,6,11,7)            88.1839         estimate D2E/DX2                !
 ! D48   D(4,6,11,8)           -42.9525         estimate D2E/DX2                !
 ! D49   D(24,6,11,3)           75.392          estimate D2E/DX2                !
 ! D50   D(24,6,11,7)          -38.9835         estimate D2E/DX2                !
 ! D51   D(24,6,11,8)         -170.1199         estimate D2E/DX2                !
 --------------------------------------------------------------------------------
 Trust Radius=3.00D-01 FncErr=1.00D-07 GrdErr=1.00D-06
 Number of steps in this run=    126 maximum allowed number of steps=    144.
 GradGradGradGradGradGradGradGradGradGradGradGradGradGradGradGradGradGrad

                          Input orientation:                          
 ---------------------------------------------------------------------
 Center     Atomic      Atomic             Coordinates (Angstroms)
 Number     Number       Type             X           Y           Z
 ---------------------------------------------------------------------
      1          6           0       -0.130046    1.264688   -1.632820
      2          6           0        2.099276    2.922910    0.647037
      3          6           0       -1.527117   -3.400541   -2.040232
      4          6           0       -0.103945    0.137979   -0.605696
      5          7           0        1.251766    1.846182    1.170835
      6          7           0       -0.177048   -1.209889   -1.303242
      7          8           0       -1.677054   -1.094758   -3.318026
      8          8           0       -2.692178   -1.268795   -1.015180
      9          8           0        2.608811    0.291701   -0.322548
     10          8           0        1.271942   -0.606218    1.604456
     11         16           0       -1.659436   -1.628195   -1.969159
     12         16           0        1.398365    0.313479    0.483128
     13          1           0        0.735119    1.210760   -2.302122
     14          1           0       -1.032436    1.227428   -2.249565
     15          1           0       -0.121602    2.245127   -1.148781
     16          1           0        2.058861    2.973870   -0.443428
     17          1           0        3.132201    2.784637    0.977724
     18          1           0        1.740305    3.876959    1.043877
     19          1           0       -2.451627   -3.789918   -2.471828
     20          1           0       -0.679572   -3.666921   -2.674308
     21          1           0       -1.397938   -3.786126   -1.027321
     22          1           0       -0.943375    0.224289    0.093316
     23          1           0        1.206971    1.787025    2.194231
     24          1           0        0.580212   -1.288018   -1.993045
 ---------------------------------------------------------------------
                    Distance matrix (angstroms):
                    1          2          3          4          5
     1  C    0.000000
     2  C    3.594068   0.000000
     3  C    4.886937   7.769052   0.000000
     4  C    1.524840   3.765550   4.074854   0.000000
     5  N    3.179312   1.466964   6.749907   2.812823   0.000000
     6  N    2.496871   5.105415   2.676714   1.519428   4.183555
     7  O    3.286356   6.791469   2.640430   3.369131   6.113672
     8  O    3.655753   6.579619   2.636748   2.974162   5.480551
     9  O    3.188238   2.850085   5.804222   2.731822   2.547190
    10  O    3.993221   3.749117   5.378357   2.707705   2.490521
    11  S    3.289518   6.456389   1.778698   2.719918   5.514160
    12  S    2.778143   2.706894   5.359079   1.863672   1.686301
    13  H    1.095164   3.672862   5.142995   2.175488   3.568209
    14  H    1.093650   4.590488   4.659037   2.179747   4.159275
    15  H    1.093447   2.935413   5.885892   2.176081   2.725054
    16  H    3.021137   1.092402   7.486129   3.570202   2.128128
    17  H    4.446059   1.093347   8.311060   4.470421   2.110456
    18  H    4.181732   1.093870   8.552764   4.483562   2.092569
    19  H    5.625186   8.689079   1.092066   4.941906   7.664838
    20  H    5.070251   7.885379   1.091487   4.368955   6.993532
    21  H    5.242605   7.748880   1.091491   4.153406   6.601190
    22  H    2.173357   4.104496   4.246430   1.095769   2.934319
    23  H    4.087391   2.116661   7.233032   3.503918   1.026082
    24  H    2.674049   5.197068   2.984260   2.103872   4.503814
                    6          7          8          9         10
     6  N    0.000000
     7  O    2.514484   0.000000
     8  O    2.532258   2.522671   0.000000
     9  O    3.313238   5.409602   5.569145   0.000000
    10  O    3.304346   5.759000   4.797474   2.511339   0.000000
    11  S    1.678064   1.450623   1.451139   4.961377   4.733724
    12  S    2.827312   5.088232   4.634766   1.454225   1.455747
    13  H    2.772968   3.487987   4.421626   2.876474   4.341767
    14  H    2.750951   2.636227   3.241848   4.224649   4.850350
    15  H    3.458912   4.275499   4.355842   3.457411   4.201482
    16  H    4.821038   6.226886   6.395270   2.740637   4.198821
    17  H    5.666584   7.525431   7.370574   2.859960   3.918067
    18  H    5.921253   7.444630   7.096859   3.933891   4.542300
    19  H    3.632610   2.929147   2.921601   6.847412   6.373148
    20  H    2.858209   2.832908   3.543205   5.658174   5.611073
    21  H    2.864211   3.545236   2.830577   5.760158   4.915926
    22  H    2.143478   3.730339   2.552719   3.577082   2.807296
    23  H    4.809295   6.856183   5.902687   3.245817   2.465698
    24  H    1.027314   2.624532   3.415425   3.066153   3.726307
                   11         12         13         14         15
    11  S    0.000000
    12  S    4.374238   0.000000
    13  H    3.728863   3.000438   0.000000
    14  H    2.937063   3.769842   1.768415   0.000000
    15  H    4.247420   2.950372   1.770334   1.754154   0.000000
    16  H    6.110040   2.893517   2.883677   3.983504   2.404788
    17  H    7.149615   3.058993   4.356659   5.494042   3.924325
    18  H    7.137461   3.623500   4.394852   5.055182   3.307163
    19  H    2.356542   6.355476   5.932195   5.218933   6.603123
    20  H    2.369340   5.489154   5.092313   4.925401   6.131140
    21  H    2.368989   5.187247   5.580674   5.173316   6.166020
    22  H    2.863258   2.375637   3.086842   2.550159   2.510359
    23  H    6.100314   2.266240   4.557621   5.007535   3.626388
    24  H    2.265460   3.060328   2.522582   2.998984   3.699790
                   16         17         18         19         20
    16  H    0.000000
    17  H    1.790961   0.000000
    18  H    1.768933   1.770570   0.000000
    19  H    8.379006   9.289958   9.418784   0.000000
    20  H    7.521699   8.336039   8.751619   1.787822   0.000000
    21  H    7.614981   8.229052   8.535884   1.787981   1.800784
    22  H    4.106301   4.893657   4.631167   4.996864   4.782348
    23  H    3.015221   2.486289   2.444500   8.140009   7.550314
    24  H    4.769844   5.650190   6.102926   3.959896   2.776752
                   21         22         23         24
    21  H    0.000000
    22  H    4.188781   0.000000
    23  H    6.944347   3.388211   0.000000
    24  H    3.329601   2.993542   5.232781   0.000000
 Stoichiometry    C4H12N2O4S2
 Framework group  C1[X(C4H12N2O4S2)]
 Deg. of freedom    66
 Full point group                 C1      NOp   1
 Largest Abelian subgroup         C1      NOp   1
 Largest concise Abelian subgroup C1      NOp   1
                         Standard orientation:                         
 ---------------------------------------------------------------------
 Center     Atomic      Atomic             Coordinates (Angstroms)
 Number     Number       Type             X           Y           Z
 ---------------------------------------------------------------------
      1          6           0        0.347685    1.742990   -0.140831
      2          6           0        3.872621    1.078347    0.083667
      3          6           0       -3.533489   -1.213221   -0.422706
      4          6           0        0.197045    0.278658    0.256883
      5          7           0        2.955079    0.186981    0.801695
      6          7           0       -1.005430   -0.333811   -0.441399
      7          8           0       -2.876185    1.335546   -0.631537
      8          8           0       -2.472254    0.158956    1.563080
      9          8           0        2.128351   -0.525806   -1.499746
     10          8           0        1.709037   -1.951554    0.524665
     11         16           0       -2.515692    0.143697    0.112672
     12         16           0        1.783928   -0.634573   -0.091090
     13          1           0        0.524379    1.845127   -1.216811
     14          1           0       -0.546018    2.322388    0.107486
     15          1           0        1.182760    2.214480    0.384500
     16          1           0        3.336220    1.757209   -0.583239
     17          1           0        4.600422    0.492485   -0.484205
     18          1           0        4.418505    1.682667    0.813982
     19          1           0       -4.560711   -1.004692   -0.116212
     20          1           0       -3.478027   -1.289577   -1.510106
     21          1           0       -3.181185   -2.129167    0.055077
     22          1           0        0.070686    0.177058    1.340590
     23          1           0        3.399890   -0.435672    1.485282
     24          1           0       -0.921019   -0.208237   -1.457510
 ---------------------------------------------------------------------
 Rotational constants (GHZ):      1.5890645      0.3756534      0.3514807
 Standard basis: 6-31G(d) (6D, 7F)
 There are   212 symmetry adapted basis functions of A   symmetry.
 Integral buffers will be    131072 words long.
 Raffenetti 2 integral format.
 Two-electron integral symmetry is turned on.
   212 basis functions,   432 primitive gaussians,   212 cartesian basis functions
    57 alpha electrons       57 beta electrons
       nuclear repulsion energy      1085.6292911455 Hartrees.
 NAtoms=   24 NActive=   24 NUniq=   24 SFac= 1.00D+00 NAtFMM=   60 NAOKFM=F Big=F
 One-electron integrals computed using PRISM.
 NBasis=   212 RedAO= T  NBF=   212
 NBsUse=   212 1.00D-06 NBFU=   212
 Harris functional with IExCor=  402 diagonalized for initial guess.
 ExpMin= 1.17D-01 ExpMax= 2.19D+04 ExpMxC= 3.30D+03 IAcc=3 IRadAn=         5 AccDes= 0.00D+00
 HarFok:  IExCor=  402 AccDes= 0.00D+00 IRadAn=         5 IDoV= 1
 ScaDFX=  1.000000  1.000000  1.000000  1.000000
 FoFCou: FMM=F IPFlag=           0 FMFlag=      100000 FMFlg1=           0
         NFxFlg=           0 DoJE=T BraDBF=F KetDBF=T FulRan=T
         Omega=  0.000000  0.000000  1.000000  0.000000  0.000000 ICntrl=     500 IOpCl=  0
         NMat0=    1 NMatS0=    1 NMatT0=    0 NMatD0=    1 NMtDS0=    0 NMtDT0=    0
         I1Cent=           4 NGrid=           0.
 Petite list used in FoFCou.
 Initial guess orbital symmetries:
       Occupied  (A) (A) (A) (A) (A) (A) (A) (A) (A) (A) (A) (A)
                 (A) (A) (A) (A) (A) (A) (A) (A) (A) (A) (A) (A)
                 (A) (A) (A) (A) (A) (A) (A) (A) (A) (A) (A) (A)
                 (A) (A) (A) (A) (A) (A) (A) (A) (A) (A) (A) (A)
                 (A) (A) (A) (A) (A) (A) (A) (A) (A)
       Virtual   (A) (A) (A) (A) (A) (A) (A) (A) (A) (A) (A) (A)
                 (A) (A) (A) (A) (A) (A) (A) (A) (A) (A) (A) (A)
                 (A) (A) (A) (A) (A) (A) (A) (A) (A) (A) (A) (A)
                 (A) (A) (A) (A) (A) (A) (A) (A) (A) (A) (A) (A)
                 (A) (A) (A) (A) (A) (A) (A) (A) (A) (A) (A) (A)
                 (A) (A) (A) (A) (A) (A) (A) (A) (A) (A) (A) (A)
                 (A) (A) (A) (A) (A) (A) (A) (A) (A) (A) (A) (A)
                 (A) (A) (A) (A) (A) (A) (A) (A) (A) (A) (A) (A)
                 (A) (A) (A) (A) (A) (A) (A) (A) (A) (A) (A) (A)
                 (A) (A) (A) (A) (A) (A) (A) (A) (A) (A) (A) (A)
                 (A) (A) (A) (A) (A) (A) (A) (A) (A) (A) (A) (A)
                 (A) (A) (A) (A) (A) (A) (A) (A) (A) (A) (A) (A)
                 (A) (A) (A) (A) (A) (A) (A) (A) (A) (A) (A)
 The electronic state of the initial guess is 1-A.
 Requested convergence on RMS density matrix=1.00D-08 within 128 cycles.
 Requested convergence on MAX density matrix=1.00D-06.
 Requested convergence on             energy=1.00D-06.
 No special actions if energy rises.
 Integral accuracy reduced to 1.0D-05 until final iterations.
 Initial convergence to 1.0D-05 achieved.  Increase integral accuracy.
 SCF Done:  E(RB3LYP) =  -1366.27771397     A.U. after   15 cycles
             Convg  =    0.3623D-08             -V/T =  2.0060
 Calling FoFJK, ICntrl=      2127 FMM=F ISym2X=0 I1Cent= 0 IOpClX= 0 NMat=1 NMatS=1 NMatT=0.
 ***** Axes restored to original set *****
 -------------------------------------------------------------------
 Center     Atomic                   Forces (Hartrees/Bohr)
 Number     Number              X              Y              Z
 -------------------------------------------------------------------
      1        6           0.001134061    0.010789865   -0.001190351
      2        6           0.003850838    0.002160730    0.007933225
      3        6           0.002741772   -0.008407770    0.001477773
      4        6          -0.012116578   -0.005898119   -0.019465147
      5        7          -0.012132082    0.003577349   -0.007146390
      6        7           0.028553007    0.018899204    0.032357798
      7        8          -0.007272420    0.001903071   -0.023370192
      8        8          -0.009278430    0.004625388    0.010806479
      9        8           0.006826118    0.000341945   -0.020531895
     10        8          -0.007822361   -0.010196499    0.007057585
     11       16           0.005006971    0.002214888    0.002217537
     12       16           0.002516851   -0.007050164    0.020643144
     13        1           0.000377013   -0.001354773    0.000217274
     14        1          -0.000032241   -0.003990909    0.001439196
     15        1           0.000668664    0.000323743    0.001667128
     16        1           0.000103340   -0.002770855    0.002073451
     17        1           0.003786188    0.002072573   -0.004759648
     18        1          -0.002425048   -0.000275533    0.000156524
     19        1          -0.000679237    0.001721952   -0.001139181
     20        1           0.000240573   -0.001139713    0.000043822
     21        1           0.000712090    0.000474498   -0.000391928
     22        1           0.001795010   -0.004836590   -0.002199806
     23        1           0.000274867   -0.004100675   -0.009817485
     24        1          -0.006828968    0.000916394    0.001921088
 -------------------------------------------------------------------
 Cartesian Forces:  Max     0.032357798 RMS     0.008807903

 GradGradGradGradGradGradGradGradGradGradGradGradGradGradGradGradGradGrad
 Berny optimization.
 Internal  Forces:  Max     0.030429601 RMS     0.006613786
 Search for a local minimum.
 Step number   1 out of a maximum of  126
 All quantities printed in internal units (Hartrees-Bohrs-Radians)
 Mixed Optimization -- RFO/linear search
 Second derivative matrix not updated -- first step.
 ITU=  0
     Eigenvalues ---    0.00230   0.00230   0.00437   0.00652   0.00806
     Eigenvalues ---    0.01477   0.01586   0.02114   0.02348   0.03823
     Eigenvalues ---    0.04939   0.05424   0.05479   0.05515   0.06071
     Eigenvalues ---    0.06228   0.07210   0.07610   0.07924   0.08476
     Eigenvalues ---    0.08598   0.09367   0.12002   0.12393   0.12855
     Eigenvalues ---    0.13041   0.16000   0.16000   0.16000   0.16000
     Eigenvalues ---    0.16000   0.16000   0.16000   0.16000   0.16000
     Eigenvalues ---    0.16571   0.17743   0.18206   0.18332   0.21681
     Eigenvalues ---    0.22786   0.23131   0.25000   0.25000   0.27869
     Eigenvalues ---    0.29905   0.30422   0.34154   0.34223   0.34369
     Eigenvalues ---    0.34394   0.34417   0.34429   0.34536   0.34575
     Eigenvalues ---    0.34641   0.34641   0.36106   0.37591   0.38665
     Eigenvalues ---    0.43191   0.43382   0.93418   0.94077   0.95433
     Eigenvalues ---    0.95662
 RFO step:  Lambda=-2.15298593D-02 EMin= 2.30000000D-03
 Linear search not attempted -- first point.
 Iteration  1 RMS(Cart)=  0.12889380 RMS(Int)=  0.00415299
 Iteration  2 RMS(Cart)=  0.00771225 RMS(Int)=  0.00090764
 Iteration  3 RMS(Cart)=  0.00002091 RMS(Int)=  0.00090756
 Iteration  4 RMS(Cart)=  0.00000003 RMS(Int)=  0.00090756
 Variable       Old X    -DE/DX   Delta X   Delta X   Delta X     New X
                                 (Linear)    (Quad)   (Total)
    R1        2.88153   0.00279   0.00000   0.00870   0.00870   2.89023
    R2        2.06956   0.00023   0.00000   0.00064   0.00064   2.07020
    R3        2.06670  -0.00065   0.00000  -0.00178  -0.00178   2.06492
    R4        2.06631   0.00103   0.00000   0.00283   0.00283   2.06914
    R5        2.77216   0.00201   0.00000   0.00526   0.00526   2.77742
    R6        2.06434  -0.00220   0.00000  -0.00601  -0.00601   2.05834
    R7        2.06613   0.00188   0.00000   0.00513   0.00513   2.07125
    R8        2.06711   0.00061   0.00000   0.00168   0.00168   2.06879
    R9        3.36125   0.00755   0.00000   0.02515   0.02515   3.38640
   R10        2.06371   0.00041   0.00000   0.00112   0.00112   2.06483
   R11        2.06261   0.00044   0.00000   0.00120   0.00120   2.06381
   R12        2.06262  -0.00045   0.00000  -0.00122  -0.00122   2.06140
   R13        2.87130  -0.03043   0.00000  -0.09341  -0.09341   2.77789
   R14        3.52183  -0.00814   0.00000  -0.03417  -0.03417   3.48766
   R15        2.07070  -0.00316   0.00000  -0.00870  -0.00870   2.06200
   R16        3.18665  -0.00354   0.00000  -0.00891  -0.00891   3.17773
   R17        1.93901  -0.00957   0.00000  -0.02101  -0.02101   1.91800
   R18        3.17108   0.01130   0.00000   0.02767   0.02767   3.19875
   R19        1.94134  -0.00639   0.00000  -0.01410  -0.01410   1.92724
   R20        2.74128   0.02252   0.00000   0.02302   0.02302   2.76430
   R21        2.74225   0.01485   0.00000   0.01522   0.01522   2.75747
   R22        2.74809   0.01705   0.00000   0.01772   0.01772   2.76581
   R23        2.75096   0.01256   0.00000   0.01314   0.01314   2.76410
    A1        1.94095  -0.00084   0.00000  -0.00580  -0.00593   1.93501
    A2        1.94853  -0.00519   0.00000  -0.03038  -0.03052   1.91800
    A3        1.94360  -0.00040   0.00000   0.00074   0.00075   1.94435
    A4        1.88127   0.00230   0.00000   0.00721   0.00694   1.88821
    A5        1.88450   0.00123   0.00000   0.01014   0.01015   1.89465
    A6        1.86143   0.00332   0.00000   0.02048   0.02048   1.88191
    A7        1.94905  -0.00503   0.00000  -0.03367  -0.03368   1.91536
    A8        1.92302   0.00882   0.00000   0.05212   0.05217   1.97518
    A9        1.89762  -0.00283   0.00000  -0.01330  -0.01373   1.88389
   A10        1.92066  -0.00331   0.00000  -0.02263  -0.02223   1.89843
   A11        1.88527   0.00200   0.00000   0.00368   0.00317   1.88844
   A12        1.88663   0.00036   0.00000   0.01438   0.01404   1.90067
   A13        1.88398  -0.00311   0.00000  -0.01772  -0.01771   1.86628
   A14        1.90092   0.00198   0.00000   0.01078   0.01079   1.91171
   A15        1.90046  -0.00015   0.00000  -0.00005  -0.00007   1.90040
   A16        1.91852   0.00026   0.00000  -0.00013  -0.00009   1.91843
   A17        1.91877   0.00162   0.00000   0.00922   0.00920   1.92797
   A18        1.94012  -0.00069   0.00000  -0.00255  -0.00257   1.93756
   A19        1.92347   0.01355   0.00000   0.07446   0.07515   1.99863
   A20        1.91533   0.00571   0.00000   0.03101   0.03307   1.94840
   A21        1.93733  -0.00361   0.00000   0.02084   0.02016   1.95749
   A22        1.97201  -0.02024   0.00000  -0.12105  -0.12193   1.85007
   A23        1.90273  -0.00061   0.00000  -0.02048  -0.02376   1.87897
   A24        1.81050   0.00425   0.00000   0.01078   0.00766   1.81815
   A25        2.06155   0.00754   0.00000   0.02672   0.02677   2.08831
   A26        2.00829   0.00003   0.00000   0.00247   0.00257   2.01085
   A27        1.93708  -0.00680   0.00000  -0.04290  -0.04285   1.89422
   A28        2.03288  -0.00074   0.00000  -0.00028  -0.00032   2.03256
   A29        1.91799   0.00252   0.00000   0.02111   0.02111   1.93910
   A30        1.94524  -0.00122   0.00000  -0.00431  -0.00441   1.94082
   A31        1.77065  -0.00734   0.00000  -0.02719  -0.02715   1.74350
   A32        1.90727  -0.00466   0.00000  -0.02460  -0.02417   1.88311
   A33        1.90286   0.00254   0.00000  -0.00391  -0.00443   1.89843
   A34        1.86300   0.01177   0.00000   0.07371   0.07357   1.93657
   A35        1.88186  -0.00240   0.00000  -0.01936  -0.01984   1.86202
   A36        2.10781  -0.00090   0.00000  -0.00148  -0.00209   2.10571
   A37        1.82738  -0.01413   0.00000  -0.06772  -0.06808   1.75929
   A38        1.92397  -0.00837   0.00000  -0.06168  -0.06135   1.86262
   A39        1.89708  -0.00194   0.00000  -0.01981  -0.01883   1.87825
   A40        1.88800   0.00933   0.00000   0.03956   0.03521   1.92322
   A41        1.82610   0.00762   0.00000   0.04637   0.04429   1.87039
   A42        2.08240   0.00578   0.00000   0.05406   0.05104   2.13344
    D1       -1.08151   0.00665   0.00000   0.04530   0.04529  -1.03623
    D2        1.10092  -0.00568   0.00000  -0.03519  -0.03488   1.06604
    D3        3.09191   0.00075   0.00000   0.00764   0.00711   3.09902
    D4        1.02044   0.00546   0.00000   0.02973   0.02987   1.05030
    D5       -3.08032  -0.00686   0.00000  -0.05076  -0.05030  -3.13062
    D6       -1.08933  -0.00044   0.00000  -0.00793  -0.00831  -1.09763
    D7        3.09897   0.00593   0.00000   0.03587   0.03593   3.13491
    D8       -1.00178  -0.00640   0.00000  -0.04463  -0.04424  -1.04602
    D9        0.98921   0.00003   0.00000  -0.00180  -0.00224   0.98697
   D10        0.85877   0.00156   0.00000   0.02558   0.02520   0.88397
   D11       -3.08072  -0.00065   0.00000  -0.01010  -0.01045  -3.09117
   D12       -1.28130   0.00303   0.00000   0.04092   0.04119  -1.24011
   D13        1.06239   0.00082   0.00000   0.00524   0.00554   1.06794
   D14        2.93725  -0.00085   0.00000   0.00106   0.00113   2.93837
   D15       -1.00224  -0.00307   0.00000  -0.03461  -0.03453  -1.03676
   D16       -3.13539  -0.00422   0.00000  -0.02846  -0.02843   3.11936
   D17       -1.17240   0.00388   0.00000   0.03259   0.03258  -1.13982
   D18        1.16528   0.00095   0.00000   0.00733   0.00737   1.17265
   D19       -1.05297  -0.00457   0.00000  -0.03273  -0.03273  -1.08571
   D20        0.91003   0.00352   0.00000   0.02832   0.02828   0.93830
   D21       -3.03548   0.00059   0.00000   0.00307   0.00306  -3.03242
   D22        1.06532  -0.00429   0.00000  -0.02930  -0.02929   1.03604
   D23        3.02832   0.00381   0.00000   0.03175   0.03172   3.06004
   D24       -0.91719   0.00087   0.00000   0.00649   0.00651  -0.91068
   D25       -1.26583  -0.00135   0.00000  -0.07085  -0.07166  -1.33750
   D26        0.96703  -0.00138   0.00000  -0.05784  -0.05857   0.90847
   D27        2.86767  -0.00439   0.00000  -0.08007  -0.07792   2.78975
   D28       -1.18265  -0.00443   0.00000  -0.06706  -0.06482  -1.24747
   D29        0.86452   0.00240   0.00000  -0.01085  -0.01232   0.85219
   D30        3.09738   0.00237   0.00000   0.00216   0.00077   3.09816
   D31        1.01016  -0.00284   0.00000  -0.00576  -0.00472   1.00544
   D32       -1.01669  -0.00213   0.00000   0.01381   0.01323  -1.00345
   D33        2.95395  -0.00158   0.00000   0.00707   0.00755   2.96150
   D34       -3.11884   0.00463   0.00000   0.02803   0.02825  -3.09058
   D35        1.13751   0.00533   0.00000   0.04760   0.04621   1.18372
   D36       -1.17504   0.00588   0.00000   0.04086   0.04053  -1.13451
   D37       -1.06092  -0.00365   0.00000  -0.05057  -0.04967  -1.11059
   D38       -3.08776  -0.00295   0.00000  -0.03101  -0.03172  -3.11947
   D39        0.88288  -0.00240   0.00000  -0.03775  -0.03740   0.84548
   D40       -1.81542   0.00198   0.00000  -0.01166  -0.01165  -1.82707
   D41        0.23618  -0.01047   0.00000  -0.09854  -0.10026   0.13593
   D42        2.47347   0.00676   0.00000   0.01894   0.02056   2.49403
   D43        2.09394   0.00153   0.00000   0.00493   0.00500   2.09894
   D44       -2.13764  -0.01092   0.00000  -0.08195  -0.08361  -2.22125
   D45        0.09965   0.00631   0.00000   0.03552   0.03721   0.13685
   D46       -2.74786   0.00158   0.00000   0.05872   0.05827  -2.68958
   D47        1.53910   0.00560   0.00000   0.07092   0.07131   1.61041
   D48       -0.74966   0.00024   0.00000   0.03511   0.03510  -0.71456
   D49        1.31584  -0.00022   0.00000   0.03304   0.03264   1.34847
   D50       -0.68039   0.00380   0.00000   0.04523   0.04567  -0.63472
   D51       -2.96915  -0.00156   0.00000   0.00942   0.00946  -2.95969
         Item               Value     Threshold  Converged?
 Maximum Force            0.030430     0.000450     NO 
 RMS     Force            0.006614     0.000300     NO 
 Maximum Displacement     0.401732     0.001800     NO 
 RMS     Displacement     0.132590     0.001200     NO 
 Predicted change in Energy=-1.237328D-02
 GradGradGradGradGradGradGradGradGradGradGradGradGradGradGradGradGradGrad

                          Input orientation:                          
 ---------------------------------------------------------------------
 Center     Atomic      Atomic             Coordinates (Angstroms)
 Number     Number       Type             X           Y           Z
 ---------------------------------------------------------------------
      1          6           0       -0.115191    1.400239   -1.669149
      2          6           0        2.087522    2.838257    0.690881
      3          6           0       -1.429848   -3.378425   -1.887144
      4          6           0       -0.131260    0.222767   -0.693190
      5          7           0        1.207831    1.742535    1.121796
      6          7           0       -0.156276   -1.100069   -1.333789
      7          8           0       -1.757994   -1.228921   -3.381772
      8          8           0       -2.665842   -1.203982   -1.011023
      9          8           0        2.524422    0.194303   -0.471459
     10          8           0        1.131880   -0.768293    1.452021
     11         16           0       -1.641930   -1.601030   -1.971856
     12         16           0        1.352398    0.228492    0.404508
     13          1           0        0.762348    1.353013   -2.323227
     14          1           0       -1.009693    1.375619   -2.296265
     15          1           0       -0.103626    2.358328   -1.139216
     16          1           0        2.062654    2.924849   -0.394612
     17          1           0        3.127725    2.707303    1.010529
     18          1           0        1.700082    3.769225    1.117123
     19          1           0       -2.353983   -3.827225   -2.259241
     20          1           0       -0.590638   -3.676565   -2.519256
     21          1           0       -1.258204   -3.664414   -0.848542
     22          1           0       -0.974686    0.272111   -0.002657
     23          1           0        1.132901    1.617772    2.126272
     24          1           0        0.589865   -1.188237   -2.023428
 ---------------------------------------------------------------------
                    Distance matrix (angstroms):
                    1          2          3          4          5
     1  C    0.000000
     2  C    3.534060   0.000000
     3  C    4.960995   7.593763   0.000000
     4  C    1.529442   3.698572   4.010042   0.000000
     5  N    3.107560   1.469745   6.498869   2.719749   0.000000
     6  N    2.523032   4.964305   2.668163   1.469995   3.996383
     7  O    3.541802   6.922169   2.638552   3.461522   6.156930
     8  O    3.704175   6.467661   2.650184   2.925874   5.313776
     9  O    3.139474   2.921028   5.514055   2.665074   2.582421
    10  O    3.999927   3.807859   4.952299   2.679488   2.533589
    11  S    3.380855   6.380145   1.792006   2.691347   5.373197
    12  S    2.797652   2.726406   5.099256   1.845593   1.681585
    13  H    1.095501   3.612046   5.232819   2.175548   3.495478
    14  H    1.092710   4.544787   4.790078   2.161149   4.090866
    15  H    1.094942   2.894947   5.935368   2.181817   2.685386
    16  H    2.948201   1.089225   7.359109   3.493373   2.104301
    17  H    4.405179   1.096060   8.136589   4.438081   2.151547
    18  H    4.082967   1.094758   8.361278   4.382740   2.085619
    19  H    5.717235   8.535738   1.092659   4.878058   7.425642
    20  H    5.169397   7.740829   1.092120   4.330166   6.771883
    21  H    5.256480   7.473181   1.090847   4.050223   6.260883
    22  H    2.188287   4.055024   4.133386   1.091164   2.861804
    23  H    4.001284   2.112163   6.901969   3.390207   1.014964
    24  H    2.706071   5.081643   2.982404   2.068933   4.343240
                    6          7          8          9         10
     6  N    0.000000
     7  O    2.603140   0.000000
     8  O    2.532370   2.538752   0.000000
     9  O    3.099218   5.369784   5.402330   0.000000
    10  O    3.087096   5.650585   4.547429   2.562332   0.000000
    11  S    1.692708   1.462806   1.459193   4.778379   4.484463
    12  S    2.657601   5.112191   4.494659   1.463602   1.462700
    13  H    2.800084   3.760189   4.473543   2.806520   4.346147
    14  H    2.789931   2.919231   3.324006   4.149144   4.819994
    15  H    3.464267   4.542504   4.389924   3.469228   4.244614
    16  H    4.691020   6.385474   6.307605   2.770382   4.232693
    17  H    5.547664   7.658748   7.276692   2.979167   4.032131
    18  H    5.758737   7.561733   6.951480   3.997899   4.585202
    19  H    3.622673   2.892484   2.921765   6.570213   5.939847
    20  H    2.869205   2.845631   3.562991   5.374077   5.214994
    21  H    2.832945   3.549461   2.839291   5.416655   4.403704
    22  H    2.079564   3.779561   2.460825   3.531231   2.763359
    23  H    4.584829   6.841014   5.677619   3.272736   2.479500
    24  H    1.019853   2.712784   3.409522   2.839461   3.542440
                   11         12         13         14         15
    11  S    0.000000
    12  S    4.237954   0.000000
    13  H    3.824969   3.008861   0.000000
    14  H    3.060296   3.766902   1.772391   0.000000
    15  H    4.328532   3.006542   1.778329   1.767890   0.000000
    16  H    6.057658   2.900586   2.807315   3.931375   2.359693
    17  H    7.085617   3.108626   4.306163   5.461364   3.896771
    18  H    7.039210   3.628429   4.307369   4.972267   3.214818
    19  H    2.354900   6.105870   6.045699   5.373832   6.676798
    20  H    2.390127   5.251024   5.212068   5.074436   6.209801
    21  H    2.380469   4.851813   5.606416   5.249723   6.139297
    22  H    2.798503   2.362838   3.093651   2.545504   2.530378
    23  H    5.903814   2.223229   4.472744   4.920180   3.569430
    24  H    2.270235   2.912636   2.564680   3.034202   3.720334
                   16         17         18         19         20
    16  H    0.000000
    17  H    1.776548   0.000000
    18  H    1.769116   1.782472   0.000000
    19  H    8.280944   9.134582   9.248855   0.000000
    20  H    7.425143   8.187759   8.597118   1.788768   0.000000
    21  H    7.392735   7.955583   8.238585   1.793687   1.799189
    22  H    4.051676   4.877139   4.542917   4.878441   4.698171
    23  H    2.987933   2.532052   2.443118   7.812751   7.251312
    24  H    4.662577   5.551654   5.972610   3.960569   2.798430
                   21         22         23         24
    21  H    0.000000
    22  H    4.036351   0.000000
    23  H    6.516777   3.284062   0.000000
    24  H    3.305627   2.943459   5.038708   0.000000
 Stoichiometry    C4H12N2O4S2
 Framework group  C1[X(C4H12N2O4S2)]
 Deg. of freedom    66
 Full point group                 C1      NOp   1
 Largest Abelian subgroup         C1      NOp   1
 Largest concise Abelian subgroup C1      NOp   1
                         Standard orientation:                         
 ---------------------------------------------------------------------
 Center     Atomic      Atomic             Coordinates (Angstroms)
 Number     Number       Type             X           Y           Z
 ---------------------------------------------------------------------
      1          6           0        0.470179    1.850817   -0.155709
      2          6           0        3.881225    0.966379    0.112837
      3          6           0       -3.347119   -1.310572   -0.368585
      4          6           0        0.229502    0.395097    0.246969
      5          7           0        2.880249    0.136525    0.798070
      6          7           0       -0.900452   -0.248489   -0.438514
      7          8           0       -2.990526    1.287853   -0.656658
      8          8           0       -2.377321    0.221526    1.564195
      9          8           0        1.986085   -0.529569   -1.531240
     10          8           0        1.478883   -1.957739    0.534824
     11         16           0       -2.448356    0.164734    0.107839
     12         16           0        1.703361   -0.659789   -0.101121
     13          1           0        0.669686    1.930687   -1.229925
     14          1           0       -0.414120    2.450788    0.072468
     15          1           0        1.316940    2.281274    0.388903
     16          1           0        3.383511    1.658693   -0.564947
     17          1           0        4.611522    0.379532   -0.456042
     18          1           0        4.410456    1.551751    0.871618
     19          1           0       -4.380611   -1.173023   -0.041661
     20          1           0       -3.312356   -1.424714   -1.454167
     21          1           0       -2.900910   -2.172218    0.129825
     22          1           0        0.070604    0.286109    1.320986
     23          1           0        3.252470   -0.509760    1.486488
     24          1           0       -0.825541   -0.141381   -1.449957
 ---------------------------------------------------------------------
 Rotational constants (GHZ):      1.5505319      0.3940614      0.3662898
 Standard basis: 6-31G(d) (6D, 7F)
 There are   212 symmetry adapted basis functions of A   symmetry.
 Integral buffers will be    131072 words long.
 Raffenetti 2 integral format.
 Two-electron integral symmetry is turned on.
   212 basis functions,   432 primitive gaussians,   212 cartesian basis functions
    57 alpha electrons       57 beta electrons
       nuclear repulsion energy      1092.3660149466 Hartrees.
 NAtoms=   24 NActive=   24 NUniq=   24 SFac= 1.00D+00 NAtFMM=   60 NAOKFM=F Big=F
 One-electron integrals computed using PRISM.
 NBasis=   212 RedAO= T  NBF=   212
 NBsUse=   212 1.00D-06 NBFU=   212
 Initial guess read from the read-write file.
 B after Tr=     0.000000    0.000000    0.000000
         Rot=    1.000000    0.000000    0.000000    0.000000 Ang=   0.00 deg.
 Initial guess orbital symmetries:
       Occupied  (A) (A) (A) (A) (A) (A) (A) (A) (A) (A) (A) (A)
                 (A) (A) (A) (A) (A) (A) (A) (A) (A) (A) (A) (A)
                 (A) (A) (A) (A) (A) (A) (A) (A) (A) (A) (A) (A)
                 (A) (A) (A) (A) (A) (A) (A) (A) (A) (A) (A) (A)
                 (A) (A) (A) (A) (A) (A) (A) (A) (A)
       Virtual   (A) (A) (A) (A) (A) (A) (A) (A) (A) (A) (A) (A)
                 (A) (A) (A) (A) (A) (A) (A) (A) (A) (A) (A) (A)
                 (A) (A) (A) (A) (A) (A) (A) (A) (A) (A) (A) (A)
                 (A) (A) (A) (A) (A) (A) (A) (A) (A) (A) (A) (A)
                 (A) (A) (A) (A) (A) (A) (A) (A) (A) (A) (A) (A)
                 (A) (A) (A) (A) (A) (A) (A) (A) (A) (A) (A) (A)
                 (A) (A) (A) (A) (A) (A) (A) (A) (A) (A) (A) (A)
                 (A) (A) (A) (A) (A) (A) (A) (A) (A) (A) (A) (A)
                 (A) (A) (A) (A) (A) (A) (A) (A) (A) (A) (A) (A)
                 (A) (A) (A) (A) (A) (A) (A) (A) (A) (A) (A) (A)
                 (A) (A) (A) (A) (A) (A) (A) (A) (A) (A) (A) (A)
                 (A) (A) (A) (A) (A) (A) (A) (A) (A) (A) (A) (A)
                 (A) (A) (A) (A) (A) (A) (A) (A) (A) (A) (A)
 Harris functional with IExCor=  402 diagonalized for initial guess.
 ExpMin= 1.17D-01 ExpMax= 2.19D+04 ExpMxC= 3.30D+03 IAcc=3 IRadAn=         5 AccDes= 0.00D+00
 HarFok:  IExCor=  402 AccDes= 0.00D+00 IRadAn=         5 IDoV= 1
 ScaDFX=  1.000000  1.000000  1.000000  1.000000
 FoFCou: FMM=F IPFlag=           0 FMFlag=      100000 FMFlg1=           0
         NFxFlg=           0 DoJE=T BraDBF=F KetDBF=T FulRan=T
         Omega=  0.000000  0.000000  1.000000  0.000000  0.000000 ICntrl=     500 IOpCl=  0
         NMat0=    1 NMatS0=    1 NMatT0=    0 NMatD0=    1 NMtDS0=    0 NMtDT0=    0
         I1Cent=           4 NGrid=           0.
 Petite list used in FoFCou.
 Requested convergence on RMS density matrix=1.00D-08 within 128 cycles.
 Requested convergence on MAX density matrix=1.00D-06.
 Requested convergence on             energy=1.00D-06.
 No special actions if energy rises.
 Integral accuracy reduced to 1.0D-05 until final iterations.
 Initial convergence to 1.0D-05 achieved.  Increase integral accuracy.
 SCF Done:  E(RB3LYP) =  -1366.28910675     A.U. after   13 cycles
             Convg  =    0.4278D-08             -V/T =  2.0060
 Calling FoFJK, ICntrl=      2127 FMM=F ISym2X=0 I1Cent= 0 IOpClX= 0 NMat=1 NMatS=1 NMatT=0.
 ***** Axes restored to original set *****
 -------------------------------------------------------------------
 Center     Atomic                   Forces (Hartrees/Bohr)
 Number     Number              X              Y              Z
 -------------------------------------------------------------------
      1        6           0.001020931    0.002096636    0.000205050
      2        6           0.001590684    0.000370694    0.003799067
      3        6           0.000319170   -0.003752435    0.000937933
      4        6          -0.002423171   -0.001903607   -0.002510154
      5        7           0.000167949    0.002686459   -0.000583497
      6        7           0.007809602    0.008586020    0.005333420
      7        8           0.000071864    0.002391494   -0.005382533
      8        8          -0.003274098    0.004715127    0.003992377
      9        8           0.006304348    0.000184529   -0.003376600
     10        8           0.002400229    0.000727920    0.003316895
     11       16          -0.001033119   -0.008093438   -0.000654667
     12       16          -0.010194493   -0.003381901   -0.001554250
     13        1          -0.000159328   -0.000676138    0.000187206
     14        1          -0.000958252   -0.001412656   -0.000201912
     15        1          -0.000581537   -0.001597896    0.000196254
     16        1           0.000407481   -0.000461195   -0.000551252
     17        1           0.000263094   -0.000426388   -0.000899372
     18        1          -0.000546962   -0.000808441   -0.000005841
     19        1          -0.000004400    0.000471090   -0.000613740
     20        1           0.000009878    0.000133669    0.000011107
     21        1           0.000235751    0.000491346   -0.000145739
     22        1          -0.001032735    0.000130254   -0.000759472
     23        1           0.000586252   -0.000046787    0.001513377
     24        1          -0.000979141   -0.000424355   -0.002253657
 -------------------------------------------------------------------
 Cartesian Forces:  Max     0.010194493 RMS     0.002842064

 GradGradGradGradGradGradGradGradGradGradGradGradGradGradGradGradGradGrad
 Berny optimization.
 Using GEDIIS/GDIIS optimizer.
 Internal  Forces:  Max     0.009314161 RMS     0.002013019
 Search for a local minimum.
 Step number   2 out of a maximum of  126
 All quantities printed in internal units (Hartrees-Bohrs-Radians)
 Mixed Optimization -- RFO/linear search
 Update second derivatives using D2CorX and points    1    2
 DE= -1.14D-02 DEPred=-1.24D-02 R= 9.21D-01
 SS=  1.41D+00  RLast= 3.84D-01 DXNew= 5.0454D-01 1.1533D+00
 Trust test= 9.21D-01 RLast= 3.84D-01 DXMaxT set to 5.05D-01
 ITU=  1  0
 Use linear search instead of GDIIS.
     Eigenvalues ---    0.00230   0.00234   0.00437   0.00652   0.00806
     Eigenvalues ---    0.01467   0.01584   0.02123   0.02279   0.03849
     Eigenvalues ---    0.04374   0.05529   0.05707   0.06029   0.06137
     Eigenvalues ---    0.06311   0.07085   0.07677   0.08828   0.08876
     Eigenvalues ---    0.09436   0.09579   0.11707   0.11970   0.12782
     Eigenvalues ---    0.13690   0.15385   0.16000   0.16000   0.16000
     Eigenvalues ---    0.16000   0.16000   0.16000   0.16000   0.16064
     Eigenvalues ---    0.16454   0.17103   0.17499   0.17835   0.21819
     Eigenvalues ---    0.22825   0.23084   0.24956   0.27017   0.27741
     Eigenvalues ---    0.29705   0.30296   0.34167   0.34224   0.34372
     Eigenvalues ---    0.34400   0.34423   0.34471   0.34573   0.34580
     Eigenvalues ---    0.34640   0.34643   0.36128   0.37761   0.38348
     Eigenvalues ---    0.43228   0.43660   0.91484   0.93640   0.94792
     Eigenvalues ---    0.95574
 RFO step:  Lambda=-3.08920590D-03 EMin= 2.29919263D-03
 Quartic linear search produced a step of  0.04894.
 Iteration  1 RMS(Cart)=  0.10913314 RMS(Int)=  0.00272823
 Iteration  2 RMS(Cart)=  0.00639548 RMS(Int)=  0.00016735
 Iteration  3 RMS(Cart)=  0.00001041 RMS(Int)=  0.00016726
 Iteration  4 RMS(Cart)=  0.00000000 RMS(Int)=  0.00016726
 Variable       Old X    -DE/DX   Delta X   Delta X   Delta X     New X
                                 (Linear)    (Quad)   (Total)
    R1        2.89023  -0.00148   0.00043  -0.00454  -0.00412   2.88611
    R2        2.07020  -0.00021   0.00003  -0.00059  -0.00056   2.06964
    R3        2.06492   0.00093  -0.00009   0.00268   0.00259   2.06751
    R4        2.06914  -0.00131   0.00014  -0.00374  -0.00360   2.06554
    R5        2.77742  -0.00065   0.00026  -0.00152  -0.00126   2.77616
    R6        2.05834   0.00050  -0.00029   0.00113   0.00083   2.05917
    R7        2.07125   0.00004   0.00025   0.00043   0.00069   2.07194
    R8        2.06879  -0.00050   0.00008  -0.00138  -0.00130   2.06749
    R9        3.38640   0.00271   0.00123   0.01154   0.01277   3.39917
   R10        2.06483   0.00002   0.00005   0.00013   0.00018   2.06501
   R11        2.06381  -0.00004   0.00006  -0.00003   0.00003   2.06384
   R12        2.06140  -0.00023  -0.00006  -0.00076  -0.00082   2.06058
   R13        2.77789  -0.00465  -0.00457  -0.02152  -0.02610   2.75179
   R14        3.48766   0.00177  -0.00167   0.00629   0.00461   3.49228
   R15        2.06200   0.00032  -0.00043   0.00043   0.00001   2.06201
   R16        3.17773   0.00237  -0.00044   0.00593   0.00549   3.18323
   R17        1.91800   0.00146  -0.00103   0.00214   0.00111   1.91912
   R18        3.19875   0.00500   0.00135   0.01507   0.01643   3.21518
   R19        1.92724   0.00084  -0.00069   0.00112   0.00043   1.92768
   R20        2.76430   0.00579   0.00113   0.00776   0.00889   2.77319
   R21        2.75747   0.00621   0.00074   0.00772   0.00847   2.76594
   R22        2.76581   0.00707   0.00087   0.00892   0.00979   2.77560
   R23        2.76410   0.00152   0.00064   0.00253   0.00318   2.76728
    A1        1.93501  -0.00029  -0.00029  -0.00139  -0.00172   1.93330
    A2        1.91800  -0.00179  -0.00149  -0.01525  -0.01681   1.90119
    A3        1.94435  -0.00081   0.00004  -0.00387  -0.00385   1.94049
    A4        1.88821   0.00080   0.00034   0.00309   0.00336   1.89156
    A5        1.89465   0.00103   0.00050   0.01095   0.01145   1.90611
    A6        1.88191   0.00118   0.00100   0.00717   0.00812   1.89003
    A7        1.91536  -0.00025  -0.00165  -0.00490  -0.00656   1.90880
    A8        1.97518   0.00033   0.00255   0.00494   0.00750   1.98268
    A9        1.88389  -0.00095  -0.00067  -0.00536  -0.00607   1.87782
   A10        1.89843  -0.00052  -0.00109  -0.00728  -0.00834   1.89009
   A11        1.88844   0.00060   0.00016   0.00439   0.00450   1.89294
   A12        1.90067   0.00082   0.00069   0.00847   0.00914   1.90981
   A13        1.86628  -0.00065  -0.00087  -0.00494  -0.00581   1.86047
   A14        1.91171  -0.00008   0.00053  -0.00067  -0.00014   1.91157
   A15        1.90040  -0.00042   0.00000  -0.00214  -0.00214   1.89825
   A16        1.91843   0.00018   0.00000  -0.00008  -0.00009   1.91834
   A17        1.92797   0.00073   0.00045   0.00692   0.00736   1.93533
   A18        1.93756   0.00020  -0.00013   0.00063   0.00050   1.93805
   A19        1.99863   0.00066   0.00368   0.00364   0.00761   2.00624
   A20        1.94840   0.00390   0.00162   0.02331   0.02492   1.97332
   A21        1.95749  -0.00154   0.00099  -0.00150  -0.00083   1.95666
   A22        1.85007  -0.00462  -0.00597  -0.03773  -0.04369   1.80639
   A23        1.87897   0.00093  -0.00116  -0.00095  -0.00224   1.87674
   A24        1.81815   0.00044   0.00037   0.01170   0.01162   1.82977
   A25        2.08831  -0.00001   0.00131  -0.00491  -0.00398   2.08433
   A26        2.01085  -0.00116   0.00013  -0.02048  -0.02081   1.99004
   A27        1.89422   0.00028  -0.00210  -0.01311  -0.01575   1.87848
   A28        2.03256   0.00082  -0.00002   0.00575   0.00568   2.03824
   A29        1.93910   0.00159   0.00103   0.01929   0.02033   1.95943
   A30        1.94082  -0.00183  -0.00022  -0.00993  -0.01029   1.93053
   A31        1.74350   0.00174  -0.00133   0.00722   0.00593   1.74943
   A32        1.88311   0.00059  -0.00118   0.00806   0.00686   1.88997
   A33        1.89843   0.00202  -0.00022   0.01692   0.01669   1.91512
   A34        1.93657  -0.00111   0.00360  -0.00568  -0.00218   1.93440
   A35        1.86202  -0.00226  -0.00097  -0.01876  -0.01983   1.84219
   A36        2.10571  -0.00048  -0.00010  -0.00492  -0.00531   2.10040
   A37        1.75929   0.00931  -0.00333   0.04185   0.03848   1.79777
   A38        1.86262  -0.00114  -0.00300   0.00219  -0.00070   1.86192
   A39        1.87825   0.00100  -0.00092   0.01457   0.01394   1.89219
   A40        1.92322  -0.00266   0.00172  -0.01233  -0.01113   1.91209
   A41        1.87039  -0.00465   0.00217  -0.02575  -0.02419   1.84620
   A42        2.13344   0.00032   0.00250  -0.00848  -0.00650   2.12694
    D1       -1.03623   0.00121   0.00222  -0.00505  -0.00285  -1.03908
    D2        1.06604  -0.00143  -0.00171  -0.03438  -0.03607   1.02997
    D3        3.09902   0.00068   0.00035  -0.00541  -0.00513   3.09389
    D4        1.05030   0.00086   0.00146  -0.01190  -0.01043   1.03987
    D5       -3.13062  -0.00178  -0.00246  -0.04123  -0.04365   3.10892
    D6       -1.09763   0.00033  -0.00041  -0.01226  -0.01271  -1.11034
    D7        3.13491   0.00065   0.00176  -0.01539  -0.01360   3.12130
    D8       -1.04602  -0.00199  -0.00216  -0.04471  -0.04682  -1.09284
    D9        0.98697   0.00012  -0.00011  -0.01575  -0.01588   0.97109
   D10        0.88397   0.00030   0.00123   0.02714   0.02825   0.91222
   D11       -3.09117  -0.00064  -0.00051  -0.02438  -0.02483  -3.11600
   D12       -1.24011   0.00092   0.00202   0.03666   0.03860  -1.20151
   D13        1.06794  -0.00002   0.00027  -0.01486  -0.01448   1.05346
   D14        2.93837   0.00034   0.00006   0.02660   0.02657   2.96495
   D15       -1.03676  -0.00060  -0.00169  -0.02493  -0.02651  -1.06327
   D16        3.11936  -0.00006  -0.00139   0.00541   0.00401   3.12337
   D17       -1.13982  -0.00031   0.00159   0.00515   0.00671  -1.13310
   D18        1.17265   0.00103   0.00036   0.01755   0.01793   1.19058
   D19       -1.08571  -0.00026  -0.00160   0.00211   0.00051  -1.08519
   D20        0.93830  -0.00051   0.00138   0.00185   0.00321   0.94152
   D21       -3.03242   0.00083   0.00015   0.01425   0.01443  -3.01799
   D22        1.03604  -0.00033  -0.00143   0.00113  -0.00030   1.03573
   D23        3.06004  -0.00058   0.00155   0.00087   0.00240   3.06244
   D24       -0.91068   0.00076   0.00032   0.01327   0.01362  -0.89706
   D25       -1.33750   0.00066  -0.00351  -0.08289  -0.08644  -1.42393
   D26        0.90847   0.00030  -0.00287  -0.07370  -0.07647   0.83199
   D27        2.78975  -0.00133  -0.00381  -0.08715  -0.09087   2.69887
   D28       -1.24747  -0.00170  -0.00317  -0.07796  -0.08091  -1.32838
   D29        0.85219  -0.00015  -0.00060  -0.08299  -0.08383   0.76836
   D30        3.09816  -0.00051   0.00004  -0.07380  -0.07387   3.02429
   D31        1.00544   0.00050  -0.00023  -0.01204  -0.01212   0.99332
   D32       -1.00345  -0.00009   0.00065  -0.01685  -0.01609  -1.01955
   D33        2.96150  -0.00038   0.00037  -0.01794  -0.01724   2.94426
   D34       -3.09058   0.00061   0.00138  -0.01875  -0.01750  -3.10808
   D35        1.18372   0.00002   0.00226  -0.02356  -0.02147   1.16225
   D36       -1.13451  -0.00027   0.00198  -0.02466  -0.02262  -1.15713
   D37       -1.11059  -0.00001  -0.00243  -0.02995  -0.03254  -1.14313
   D38       -3.11947  -0.00060  -0.00155  -0.03476  -0.03651   3.12720
   D39        0.84548  -0.00089  -0.00183  -0.03586  -0.03766   0.80781
   D40       -1.82707  -0.00125  -0.00057  -0.07584  -0.07649  -1.90356
   D41        0.13593   0.00095  -0.00491  -0.05783  -0.06301   0.07292
   D42        2.49403  -0.00464   0.00101  -0.10053  -0.09908   2.39494
   D43        2.09894   0.00024   0.00024  -0.02390  -0.02380   2.07514
   D44       -2.22125   0.00245  -0.00409  -0.00590  -0.01032  -2.23156
   D45        0.13685  -0.00314   0.00182  -0.04859  -0.04639   0.09046
   D46       -2.68958   0.00118   0.00285   0.05840   0.06120  -2.62838
   D47        1.61041   0.00005   0.00349   0.04777   0.05130   1.66171
   D48       -0.71456   0.00336   0.00172   0.07379   0.07536  -0.63920
   D49        1.34847  -0.00011   0.00160   0.03506   0.03671   1.38518
   D50       -0.63472  -0.00124   0.00223   0.02443   0.02681  -0.60792
   D51       -2.95969   0.00207   0.00046   0.05045   0.05087  -2.90882
         Item               Value     Threshold  Converged?
 Maximum Force            0.009314     0.000450     NO 
 RMS     Force            0.002013     0.000300     NO 
 Maximum Displacement     0.308457     0.001800     NO 
 RMS     Displacement     0.111046     0.001200     NO 
 Predicted change in Energy=-1.728229D-03
 GradGradGradGradGradGradGradGradGradGradGradGradGradGradGradGradGradGrad

                          Input orientation:                          
 ---------------------------------------------------------------------
 Center     Atomic      Atomic             Coordinates (Angstroms)
 Number     Number       Type             X           Y           Z
 ---------------------------------------------------------------------
      1          6           0       -0.184863    1.464490   -1.739116
      2          6           0        2.188705    2.781584    0.782613
      3          6           0       -1.354829   -3.405259   -1.802521
      4          6           0       -0.194494    0.281694   -0.772969
      5          7           0        1.196785    1.749988    1.114423
      6          7           0       -0.165246   -1.029140   -1.406482
      7          8           0       -1.823742   -1.338652   -3.400944
      8          8           0       -2.650252   -1.206900   -0.999756
      9          8           0        2.461895    0.199970   -0.512842
     10          8           0        1.034839   -0.743540    1.396598
     11         16           0       -1.648251   -1.639014   -1.975263
     12         16           0        1.273663    0.251410    0.349006
     13          1           0        0.712965    1.446553   -2.366057
     14          1           0       -1.061622    1.398119   -2.390193
     15          1           0       -0.228606    2.414671   -1.200626
     16          1           0        2.219849    2.918660   -0.297947
     17          1           0        3.201586    2.544075    1.128739
     18          1           0        1.857772    3.718165    1.241186
     19          1           0       -2.269193   -3.906936   -2.128669
     20          1           0       -0.520102   -3.700835   -2.441758
     21          1           0       -1.143150   -3.624882   -0.755640
     22          1           0       -1.056619    0.304479   -0.104489
     23          1           0        1.092833    1.581608    2.110510
     24          1           0        0.550530   -1.092655   -2.130497
 ---------------------------------------------------------------------
                    Distance matrix (angstroms):
                    1          2          3          4          5
     1  C    0.000000
     2  C    3.705088   0.000000
     3  C    5.008722   7.583969   0.000000
     4  C    1.527265   3.787998   3.999998   0.000000
     5  N    3.183260   1.469079   6.449487   2.766549   0.000000
     6  N    2.515794   4.985463   2.686615   1.456186   3.991697
     7  O    3.647630   7.111838   2.654373   3.490877   6.249146
     8  O    3.709598   6.519230   2.674946   2.880641   5.292697
     9  O    3.179321   2.901305   5.406324   2.670346   2.578963
    10  O    4.024397   3.759640   4.798919   2.696180   2.514664
    11  S    3.439332   6.470688   1.798766   2.692219   5.396826
    12  S    2.821190   2.725271   4.990919   1.848034   1.684491
    13  H    1.095204   3.724815   5.304096   2.172167   3.527024
    14  H    1.094082   4.748190   4.848069   2.147960   4.184083
    15  H    1.093036   3.148215   5.958376   2.175694   2.798749
    16  H    3.158199   1.089665   7.418492   3.606701   2.099344
    17  H    4.567071   1.096422   8.046601   4.502024   2.156387
    18  H    4.258357   1.094070   8.386187   4.480842   2.080070
    19  H    5.774807   8.548961   1.092755   4.866921   7.384541
    20  H    5.223664   7.730198   1.092134   4.330290   6.730943
    21  H    5.271361   7.383109   1.090414   4.020148   6.153183
    22  H    2.185770   4.177934   4.090770   1.091167   2.941611
    23  H    4.057812   2.098616   6.794976   3.414884   1.015552
    24  H    2.689418   5.116596   3.014316   2.070453   4.362083
                    6          7          8          9         10
     6  N    0.000000
     7  O    2.612334   0.000000
     8  O    2.524337   2.542869   0.000000
     9  O    3.034992   5.392141   5.324511   0.000000
    10  O    3.062520   5.616232   4.420081   2.563721   0.000000
    11  S    1.701400   1.467508   1.463674   4.734326   4.401169
    12  S    2.606148   5.117064   4.398061   1.468783   1.464381
    13  H    2.796623   3.906820   4.496535   2.836747   4.365512
    14  H    2.768170   3.015354   3.353085   4.168355   4.829249
    15  H    3.450539   4.633928   4.361249   3.552005   4.279739
    16  H    4.743697   6.641079   6.421112   2.737890   4.205645
    17  H    5.525466   7.800483   7.269410   2.955801   3.946512
    18  H    5.799970   7.789372   7.042753   3.977345   4.539624
    19  H    3.637287   2.900550   2.951245   6.469990   5.775050
    20  H    2.887157   2.863464   3.582823   5.275349   5.088852
    21  H    2.849170   3.561978   2.859649   5.261634   4.204509
    22  H    2.065979   3.762309   2.371800   3.543673   2.779533
    23  H    4.557192   6.885525   5.608941   3.265766   2.432971
    24  H    1.020082   2.704020   3.396562   2.817978   3.577266
                   11         12         13         14         15
    11  S    0.000000
    12  S    4.184915   0.000000
    13  H    3.904970   3.018993   0.000000
    14  H    3.120974   3.777792   1.775412   0.000000
    15  H    4.364380   3.055793   1.783827   1.772671   0.000000
    16  H    6.208702   2.903109   2.952097   4.178229   2.657775
    17  H    7.117161   3.095349   4.428475   5.645445   4.148362
    18  H    7.164992   3.627059   4.413956   5.205035   3.466196
    19  H    2.356390   5.998545   6.132656   5.447039   6.707307
    20  H    2.396131   5.160058   5.293561   5.127888   6.246982
    21  H    2.384592   4.699667   5.635430   5.282892   6.124590
    22  H    2.761700   2.374593   3.090381   2.533874   2.517942
    23  H    5.880432   2.214728   4.494685   4.993163   3.661122
    24  H    2.270957   2.911591   2.555279   2.978327   3.711205
                   16         17         18         19         20
    16  H    0.000000
    17  H    1.771879   0.000000
    18  H    1.771790   1.788007   0.000000
    19  H    8.372085   9.063977   9.302146   0.000000
    20  H    7.478033   8.099279   8.617419   1.788804   0.000000
    21  H    7.371377   7.777124   8.180048   1.797981   1.799153
    22  H    4.196024   4.966785   4.685912   4.827386   4.668320
    23  H    2.976330   2.517351   2.430171   7.707008   7.157437
    24  H    4.715455   5.556665   6.018398   3.983845   2.836501
                   21         22         23         24
    21  H    0.000000
    22  H    3.983888   0.000000
    23  H    6.349958   3.340273   0.000000
    24  H    3.342298   2.939323   5.043006   0.000000
 Stoichiometry    C4H12N2O4S2
 Framework group  C1[X(C4H12N2O4S2)]
 Deg. of freedom    66
 Full point group                 C1      NOp   1
 Largest Abelian subgroup         C1      NOp   1
 Largest concise Abelian subgroup C1      NOp   1
                         Standard orientation:                         
 ---------------------------------------------------------------------
 Center     Atomic      Atomic             Coordinates (Angstroms)
 Number     Number       Type             X           Y           Z
 ---------------------------------------------------------------------
      1          6           0        0.468517    1.943449   -0.111388
      2          6           0        3.985553    0.794556    0.084018
      3          6           0       -3.262430   -1.386546   -0.391507
      4          6           0        0.214287    0.482765    0.255094
      5          7           0        2.901303    0.099153    0.790425
      6          7           0       -0.877934   -0.151257   -0.469853
      7          8           0       -3.076617    1.251464   -0.619708
      8          8           0       -2.333717    0.183335    1.565098
      9          8           0        1.945242   -0.487552   -1.531810
     10          8           0        1.417178   -1.914298    0.531733
     11         16           0       -2.451900    0.139967    0.106848
     12         16           0        1.659507   -0.613979   -0.096646
     13          1           0        0.709088    2.040695   -1.175409
     14          1           0       -0.436796    2.523161    0.091976
     15          1           0        1.285059    2.363110    0.481800
     16          1           0        3.558960    1.521439   -0.606655
     17          1           0        4.640681    0.123450   -0.483930
     18          1           0        4.575879    1.332348    0.831872
     19          1           0       -4.297525   -1.316805   -0.048247
     20          1           0       -3.236584   -1.475105   -1.479738
     21          1           0       -2.751585   -2.225586    0.081833
     22          1           0        0.019256    0.354761    1.321031
     23          1           0        3.222074   -0.581414    1.472541
     24          1           0       -0.826065    0.019921   -1.474131
 ---------------------------------------------------------------------
 Rotational constants (GHZ):      1.5666778      0.3941339      0.3670154
 Standard basis: 6-31G(d) (6D, 7F)
 There are   212 symmetry adapted basis functions of A   symmetry.
 Integral buffers will be    131072 words long.
 Raffenetti 2 integral format.
 Two-electron integral symmetry is turned on.
   212 basis functions,   432 primitive gaussians,   212 cartesian basis functions
    57 alpha electrons       57 beta electrons
       nuclear repulsion energy      1091.9148597469 Hartrees.
 NAtoms=   24 NActive=   24 NUniq=   24 SFac= 1.00D+00 NAtFMM=   60 NAOKFM=F Big=F
 One-electron integrals computed using PRISM.
 NBasis=   212 RedAO= T  NBF=   212
 NBsUse=   212 1.00D-06 NBFU=   212
 Initial guess read from the read-write file.
 B after Tr=     0.000000    0.000000    0.000000
         Rot=    1.000000    0.000000    0.000000    0.000000 Ang=   0.00 deg.
 Initial guess orbital symmetries:
       Occupied  (A) (A) (A) (A) (A) (A) (A) (A) (A) (A) (A) (A)
                 (A) (A) (A) (A) (A) (A) (A) (A) (A) (A) (A) (A)
                 (A) (A) (A) (A) (A) (A) (A) (A) (A) (A) (A) (A)
                 (A) (A) (A) (A) (A) (A) (A) (A) (A) (A) (A) (A)
                 (A) (A) (A) (A) (A) (A) (A) (A) (A)
       Virtual   (A) (A) (A) (A) (A) (A) (A) (A) (A) (A) (A) (A)
                 (A) (A) (A) (A) (A) (A) (A) (A) (A) (A) (A) (A)
                 (A) (A) (A) (A) (A) (A) (A) (A) (A) (A) (A) (A)
                 (A) (A) (A) (A) (A) (A) (A) (A) (A) (A) (A) (A)
                 (A) (A) (A) (A) (A) (A) (A) (A) (A) (A) (A) (A)
                 (A) (A) (A) (A) (A) (A) (A) (A) (A) (A) (A) (A)
                 (A) (A) (A) (A) (A) (A) (A) (A) (A) (A) (A) (A)
                 (A) (A) (A) (A) (A) (A) (A) (A) (A) (A) (A) (A)
                 (A) (A) (A) (A) (A) (A) (A) (A) (A) (A) (A) (A)
                 (A) (A) (A) (A) (A) (A) (A) (A) (A) (A) (A) (A)
                 (A) (A) (A) (A) (A) (A) (A) (A) (A) (A) (A) (A)
                 (A) (A) (A) (A) (A) (A) (A) (A) (A) (A) (A) (A)
                 (A) (A) (A) (A) (A) (A) (A) (A) (A) (A) (A)
 Harris functional with IExCor=  402 diagonalized for initial guess.
 ExpMin= 1.17D-01 ExpMax= 2.19D+04 ExpMxC= 3.30D+03 IAcc=3 IRadAn=         5 AccDes= 0.00D+00
 HarFok:  IExCor=  402 AccDes= 0.00D+00 IRadAn=         5 IDoV= 1
 ScaDFX=  1.000000  1.000000  1.000000  1.000000
 FoFCou: FMM=F IPFlag=           0 FMFlag=      100000 FMFlg1=           0
         NFxFlg=           0 DoJE=T BraDBF=F KetDBF=T FulRan=T
         Omega=  0.000000  0.000000  1.000000  0.000000  0.000000 ICntrl=     500 IOpCl=  0
         NMat0=    1 NMatS0=    1 NMatT0=    0 NMatD0=    1 NMtDS0=    0 NMtDT0=    0
         I1Cent=           4 NGrid=           0.
 Petite list used in FoFCou.
 Requested convergence on RMS density matrix=1.00D-08 within 128 cycles.
 Requested convergence on MAX density matrix=1.00D-06.
 Requested convergence on             energy=1.00D-06.
 No special actions if energy rises.
 Integral accuracy reduced to 1.0D-05 until final iterations.
 Initial convergence to 1.0D-05 achieved.  Increase integral accuracy.
 SCF Done:  E(RB3LYP) =  -1366.29065168     A.U. after   12 cycles
             Convg  =    0.6664D-08             -V/T =  2.0060
 Calling FoFJK, ICntrl=      2127 FMM=F ISym2X=0 I1Cent= 0 IOpClX= 0 NMat=1 NMatS=1 NMatT=0.
 ***** Axes restored to original set *****
 -------------------------------------------------------------------
 Center     Atomic                   Forces (Hartrees/Bohr)
 Number     Number              X              Y              Z
 -------------------------------------------------------------------
      1        6           0.000999915   -0.000304358    0.000757341
      2        6           0.000381704   -0.000020149    0.000257387
      3        6          -0.001080496   -0.000929839    0.000404868
      4        6          -0.000384070   -0.000421676    0.001743791
      5        7          -0.001017077    0.003752866   -0.000855636
      6        7           0.002512093   -0.000493806   -0.003939597
      7        8           0.001257478   -0.001004707   -0.000002984
      8        8          -0.001715916   -0.000407950    0.000370597
      9        8           0.000634101   -0.000093165   -0.002162165
     10        8          -0.000483400   -0.001495267   -0.000079225
     11       16          -0.001293175   -0.000143457    0.000383975
     12       16           0.000936687    0.000141992    0.002971660
     13        1           0.000002307    0.000195090    0.000133548
     14        1          -0.000265871   -0.000297456   -0.000055201
     15        1           0.000400860    0.000122877    0.000394995
     16        1           0.000058589    0.000363121   -0.000770554
     17        1          -0.000293325   -0.000443345    0.000072356
     18        1           0.000224070   -0.000130480   -0.000116778
     19        1           0.000100812   -0.000013743   -0.000134726
[...]
 43,-0.00014297,0.00039117,-0.00994274,-0.01250611,0.02686636,0.0000330
 0,0.00022522,-0.00009978,0.00000565,0.00002945,-0.00001888,0.00000412,
 0.00003399,-0.00003376,-0.00025089,0.00017841,-0.00043255,-0.00006826,
 -0.00040301,-0.00071339,-0.00006731,-0.00010564,0.00007589,0.00076719,
 -0.00007389,0.00238097,0.00000323,-0.00002127,-0.00008159,0.00004572,0
 .00021901,0.00004761,-0.00035145,0.00017937,0.00006188,0.06581486,0.00
 005389,-0.00005608,0.00009762,-0.01524633,-0.08729829,0.09182000,0.000
 01901,0.00001225,-0.00000393,-0.00000548,-0.00002879,-0.00027931,-0.01
 000208,-0.01246815,0.01949594,0.00015471,0.00012861,-0.00000075,0.0000
 5186,0.00005696,0.00002846,0.00007372,0.00003829,-0.00004228,0.0016114
 1,0.00131842,-0.00135327,0.00045084,-0.00024313,-0.00124888,-0.0002060
 9,-0.00019374,0.00005539,-0.00316459,-0.00062058,0.00541037,-0.0000383
 4,-0.00003157,-0.00019899,0.00007330,0.00005468,0.00002477,-0.00014189
 ,0.00011312,0.00002581,0.02637587,0.09515513,-0.00004119,0.00006668,0.
 00003289,0.04264366,0.09944083,-0.28230467,0.00001402,0.00000658,-0.00
 000327,-0.00022639,0.00003787,-0.00004439,0.00039692,-0.00112310,0.007
 56488,0.00004364,0.00015374,0.00015495,0.00002822,0.00003366,0.0000321
 9,0.00003494,0.00001622,-0.00000173,-0.00089083,-0.00135091,-0.0004560
 2,-0.00001629,0.00028786,0.00024944,-0.00012307,-0.00011702,-0.0000021
 0,0.00090431,-0.00170819,-0.00094880,-0.00007591,-0.00004697,-0.000081
 48,0.00000209,-0.00003477,-0.00002174,0.00002376,0.00001824,0.00005213
 ,-0.04521071,-0.10446063,0.29946765,-0.00003232,-0.00007740,-0.0000552
 4,-0.22582086,0.09749994,-0.07357037,-0.00004742,-0.00004483,0.0000151
 2,0.00075270,-0.00057971,0.00023691,-0.02599446,-0.00667797,-0.0106255
 3,-0.00039854,-0.00041256,-0.00056884,-0.00011815,-0.00017904,-0.00013
 857,-0.00012496,-0.00012863,0.00000035,0.00189225,0.00011493,-0.000796
 20,0.00002597,-0.00093865,-0.00023965,0.00043137,0.00056329,0.00000152
 ,-0.00351353,0.00582640,0.00531035,0.00000198,-0.00002335,-0.00007169,
 0.00000898,0.00005218,-0.00004133,-0.00006821,-0.00009054,0.00011938,0
 .00670567,-0.00173363,0.00182136,0.25212987,0.00002369,-0.00010876,-0.
 00005966,0.10011813,-0.10564747,0.04204626,-0.00000553,-0.00000644,-0.
 00000063,0.00045995,-0.00070390,-0.00005104,-0.02851337,0.00468102,-0.
 01202949,-0.00020889,-0.00020328,-0.00047311,-0.00005570,-0.00008613,-
 0.00004600,-0.00004256,-0.00004630,0.00000567,0.00081424,-0.00030364,-
 0.00015662,0.00032716,0.00010803,0.00034515,0.00014466,0.00024024,-0.0
 0005989,-0.00398492,0.00471143,0.00172312,0.00000321,-0.00000509,-0.00
 006827,0.00002050,0.00006158,-0.00000799,-0.00011674,-0.00005478,0.000
 05123,0.01023111,-0.00502461,0.00269035,-0.09860794,0.11094738,-0.0000
 1115,0.00011552,0.00009990,-0.07246096,0.04047944,-0.08614359,-0.00000
 729,-0.00000755,0.00000380,0.00025964,-0.00016464,-0.00028412,-0.00261
 969,-0.00304121,0.00193264,-0.00007102,-0.00013534,-0.00009446,-0.0000
 1274,-0.00003458,-0.00001757,-0.00000041,-0.00002385,-0.00000454,0.001
 55172,0.00038044,0.00037545,0.00026157,-0.00007217,-0.00035449,0.00003
 664,0.00008590,-0.00001325,-0.00321280,0.00127937,0.00139282,-0.000019
 15,0.00004518,0.00002828,-0.00002772,-0.00007690,-0.00002702,0.0001576
 8,-0.00006096,0.00001155,-0.02533402,0.01436740,-0.00904163,0.08248557
 ,-0.04320915,0.08298134,-0.00022718,-0.00010832,-0.00011838,-0.0758152
 5,0.06533024,0.05394485,-0.00005023,-0.00002808,0.00003737,0.00086596,
 -0.00016954,-0.00000930,0.00294035,-0.02475348,-0.02205390,-0.00031992
 ,-0.00030242,-0.00030975,-0.00008183,-0.00007501,-0.00008455,-0.000099
 33,0.00000094,0.00003734,0.00197864,0.00130535,-0.00022795,-0.00001744
 ,-0.00253168,-0.00056170,0.00031618,0.00019729,-0.00002190,-0.00501318
 ,-0.00241235,0.00258273,0.00000406,0.00000641,-0.00001708,0.00001938,0
 .00009313,-0.00005864,-0.00000660,0.00002617,-0.00000480,-0.00194061,0
 .00415533,0.00192098,-0.00602804,0.01850392,0.01785287,0.08248317,-0.0
 0019155,-0.00004624,-0.00010292,0.06202182,-0.19027223,-0.11814623,-0.
 00005798,-0.00003724,0.00003221,0.00058934,0.00001799,0.00025593,-0.00
 276265,-0.01986826,-0.01699472,-0.00027294,-0.00030765,-0.00024794,-0.
 00009529,-0.00008678,-0.00009752,-0.00013121,-0.00002787,0.00003861,0.
 00061483,0.00067896,-0.00047520,-0.00015744,-0.00201597,-0.00035046,0.
 00040022,0.00027803,0.00000490,-0.00243420,0.00015703,0.00351764,0.000
 01389,-0.00001052,-0.00001607,0.00001656,0.00007153,-0.00006197,-0.000
 00445,-0.00001155,0.00003600,-0.00369362,0.01239702,0.00769597,0.00524
 715,-0.00950017,-0.00906308,-0.05955775,0.20876959,-0.00013097,0.00000
 084,-0.00016050,0.04846583,-0.12041319,-0.15310869,-0.00002347,-0.0000
 1209,0.00000870,0.00013470,-0.00003469,0.00019882,-0.00020863,-0.00114
 061,-0.00062914,-0.00017555,-0.00009340,-0.00013204,-0.00005608,-0.000
 05075,-0.00006378,-0.00007806,-0.00002130,0.00000998,-0.00074748,-0.00
 110425,0.00003150,-0.00015889,-0.00008996,0.00023893,0.00021526,0.0001
 5802,0.00002176,0.00096118,0.00178412,0.00060726,0.00002080,0.00003401
 ,0.00009289,-0.00003785,-0.00001109,-0.00004006,0.00006225,-0.00012135
 ,-0.00005976,0.00847643,-0.02255649,-0.01569669,-0.00317364,0.00987792
 ,0.00872279,-0.05327180,0.13384540,0.15975401,0.00012580,0.00021520,0.
 00030918,0.00003030,-0.00001398,-0.00000717,-0.20103284,-0.13624567,0.
 03327939,-0.00013391,0.00002863,-0.00097720,0.00004248,-0.00016876,0.0
 0009528,0.00158682,0.00292141,-0.00098178,-0.00064800,-0.00050255,0.00
 040653,-0.00032668,-0.00088748,-0.00020560,0.00010319,-0.00015289,0.00
 009597,-0.00016616,-0.00085170,0.00006301,0.00911036,0.00888123,-0.001
 88022,-0.00022779,0.00081204,-0.00054827,-0.00001433,-0.00002176,-0.00
 000761,0.00000581,-0.00004553,0.00002187,0.00001439,0.00012393,-0.0000
 4983,-0.00000981,-0.00000129,-0.00000072,0.00000135,0.00000533,0.00000
 434,-0.00000926,-0.00001020,-0.00000306,0.21263746,-0.00009318,-0.0003
 8653,-0.00055456,0.00005347,0.00003420,-0.00002756,-0.13603529,-0.1678
 1079,0.02835210,0.00034203,0.00009997,0.00164301,-0.00009004,-0.000112
 64,-0.00018856,-0.00070554,-0.00382371,0.00201411,0.00192563,0.0017132
 0,0.00005298,0.00231584,0.00234625,-0.00103506,-0.00020390,0.00004267,
 -0.00006911,-0.00014696,0.00016136,-0.00026232,-0.02010260,-0.01619653
 ,0.00283356,0.00042578,-0.00007739,0.00049398,0.00002271,0.00005266,0.
 00000017,-0.00000984,0.00005626,-0.00000612,-0.00004267,-0.00019338,0.
 00008503,0.00000877,0.00000855,0.00000448,-0.00001998,-0.00000596,-0.0
 0000443,-0.00001322,-0.00001605,-0.00000648,0.14659102,0.17841469,0.00
 013831,0.00025723,0.00041316,0.00004869,-0.00001819,-0.00001548,0.0333
 6194,0.02837506,-0.05577409,-0.00042553,0.00004464,-0.00133092,0.00002
 788,-0.00027274,0.00012178,0.00022452,0.00297458,0.00049250,-0.0017719
 2,-0.00146042,-0.00055437,-0.00045894,-0.00131241,-0.00017646,0.000057
 63,-0.00015475,0.00018334,-0.00052832,-0.00129514,-0.00000236,0.011466
 26,0.00937263,-0.00281171,-0.00001271,0.00107104,-0.00083599,-0.000010
 99,-0.00002559,-0.00000843,0.00000148,-0.00005227,0.00002649,0.0000228
 9,0.00013394,-0.00007658,-0.00000986,-0.00000218,-0.00000048,-0.000001
 43,0.00000589,0.00000341,-0.00001858,-0.00001678,-0.00000280,-0.035432
 09,-0.03313125,0.05341965,0.00000037,-0.00003711,-0.00006967,0.0000025
 0,0.00000103,-0.00000098,-0.18486931,0.07422283,0.11947413,0.00010923,
 0.00000478,0.00025392,-0.00000620,-0.00000226,0.00001559,0.00049990,-0
 .00054920,-0.00106622,0.00173498,-0.00157386,-0.00120201,-0.00007350,0
 .00285086,-0.00104852,-0.00007881,0.00003131,0.00010225,-0.00023923,-0
 .00003614,0.00011465,-0.01007873,0.00386604,0.00902045,0.00016626,0.00
 001961,-0.00022412,0.00000295,0.00000108,0.00000261,-0.00000676,-0.000
 00107,0.00001020,-0.00001050,-0.00001575,0.00001835,0.00000055,-0.0000
 0225,0.00000038,-0.00000148,-0.00000159,-0.00000251,-0.00000216,0.0000
 0072,0.00000092,-0.01347828,0.01014670,0.01215895,0.19444551,-0.000006
 28,0.00012233,0.00013121,-0.00003188,-0.00000762,0.00001281,0.07420741
 ,-0.08873790,-0.06668521,-0.00011198,0.00003154,-0.00044623,-0.0000305
 0,0.00014294,0.00007263,-0.00212292,0.00154052,0.00187584,-0.00296184,
 0.00149937,0.00092028,0.00457376,-0.00512947,0.00213535,-0.00010669,0.
 00014520,0.00010315,-0.00019522,0.00028399,0.00015081,0.01819094,-0.01
 002561,-0.01831979,0.00028254,-0.00056083,-0.00013119,-0.00000501,-0.0
 0003165,0.00000971,0.00000715,0.00000750,-0.00002233,0.00002673,0.0000
 3977,-0.00002570,0.00000325,-0.00000679,-0.00000173,0.00000354,-0.0000
 0174,-0.00000396,0.00000884,0.00001243,0.00000713,-0.01519646,0.011563
 79,0.01358039,-0.08264700,0.09282774,-0.00000310,-0.00005084,-0.000058
 26,0.00000481,0.00000652,0.00001017,0.12174620,-0.06860634,-0.15320860
 ,-0.00000539,-0.00028520,0.00003745,0.00001973,-0.00000381,0.00004975,
 -0.00005593,-0.00050075,-0.00085471,0.00107147,-0.00025884,-0.00021382
 ,-0.00319706,0.00465182,0.00050109,-0.00005902,0.00001097,0.00011536,-
 0.00047924,-0.00016062,0.00020997,-0.01176775,0.00598493,0.00858557,0.
 00010383,0.00003762,-0.00035135,0.00000405,0.00000222,0.00000499,-0.00
 000481,-0.00000464,0.00001207,-0.00000619,-0.00001525,0.00001351,-0.00
 000196,-0.00000341,-0.00000008,-0.00000238,-0.00000098,-0.00000261,-0.
 00000063,0.00000268,0.00000096,0.00157979,-0.00205218,-0.00262357,-0.1
 2979451,0.07050615,0.16025517,-0.00023565,-0.00007462,-0.00015403,-0.0
 0020125,-0.00000524,0.00005928,-0.09629490,-0.03703624,-0.09892828,0.0
 0055336,0.00043361,0.00034105,-0.00000799,0.00070781,-0.00019345,-0.00
 076255,-0.00031313,0.00096600,0.00050461,0.00129991,-0.00140779,0.0007
 4129,-0.00000255,0.00184990,-0.00000832,0.00038562,-0.00023583,-0.0007
 2569,0.00127057,-0.00123881,-0.00573996,-0.00267210,-0.01099667,-0.000
 22980,-0.00257844,0.00161096,0.00002003,-0.00001638,0.00003129,-0.0000
 0068,0.00007327,-0.00005756,0.00001253,-0.00005162,0.00002023,0.000014
 90,-0.00000732,-0.00000698,0.00002230,-0.00001163,-0.00000939,0.000055
 66,0.00005686,0.00001681,-0.00753799,-0.00453911,-0.01896579,0.0118405
 2,0.00590115,0.02076491,0.09781659,-0.00020445,-0.00010009,-0.00021748
 ,-0.00025151,-0.00012133,0.00003772,-0.03705209,-0.07687486,-0.0808979
 0,0.00008683,0.00024343,0.00064664,-0.00005849,0.00087228,-0.00018767,
 -0.00094798,-0.00079360,-0.00238692,0.00341357,-0.00516449,0.00659057,
 -0.00146895,-0.00141567,-0.00231466,0.00024420,0.00063883,-0.00057608,
 0.00083357,0.00181997,-0.00150049,0.01098591,0.01195190,0.02397811,-0.
 00088801,-0.00447801,0.00232121,0.00002500,0.00001493,0.00000758,-0.00
 000756,0.00011600,-0.00007166,0.00001824,-0.00005641,0.00002848,0.0000
 2469,-0.00000537,-0.00000950,0.00005922,0.00000254,-0.00000168,0.00005
 950,0.00006043,0.00002405,-0.00630574,-0.00449157,-0.01846982,-0.00639
 660,-0.00314186,-0.00939131,0.03740832,0.08064446,-0.00007277,-0.00004
 795,-0.00008055,0.00003958,-0.00001565,-0.00004004,-0.09775557,-0.0782
 5959,-0.25926358,0.00026375,0.00073222,0.00026325,-0.00005804,-0.00021
 898,-0.00012964,0.00069349,-0.00035241,0.00165849,-0.00170699,0.002142
 13,-0.00064860,0.00121822,-0.00016141,0.00185108,0.00006905,0.00004573
 ,-0.00024798,-0.00095400,-0.00107809,-0.00165984,-0.00497477,-0.003326
 14,-0.01424358,0.00013956,0.00038505,0.00056225,0.00000887,0.00000333,
 0.00000414,-0.00000228,0.00002150,-0.00001343,-0.00001265,-0.00003543,
 0.00000529,0.00000470,0.00000777,0.00000104,-0.00000868,0.00000006,0.0
 0000101,-0.00001652,-0.00001697,-0.00000463,0.00416877,0.00202224,0.00
 935252,-0.00767255,-0.00404881,-0.01256128,0.10674174,0.08259040,0.275
 26846,0.00138472,-0.00078499,-0.00072013,0.00001918,-0.00058473,0.0002
 4712,-0.00061124,0.00001243,0.00023396,-0.22016305,0.00780526,0.138067
 35,0.00247269,0.00063407,-0.00136265,0.00738743,0.00140675,-0.00188949
 ,-0.00044065,0.00013638,0.00006871,-0.00274905,-0.00054120,0.00038074,
 -0.00491017,0.00067065,-0.00249819,0.00318333,0.00008145,-0.00143221,0
 .00264827,-0.00188035,-0.00178179,-0.02386365,-0.00024698,0.01248514,0
 .00093906,0.00067663,-0.00054954,0.00062428,-0.00012886,-0.00002802,-0
 .00003698,-0.00017838,0.00013173,-0.00001823,0.00010412,-0.00000732,0.
 00025043,0.00021325,0.00011070,0.00002546,0.00001558,-0.00000522,0.000
 03611,-0.00012452,0.00003622,-0.00007806,0.00017171,-0.00012339,0.0000
 0480,0.00017613,-0.00001102,0.23482909,-0.02328306,0.00077176,0.017428
 41,-0.00012931,-0.00004515,0.00003675,-0.00045132,-0.00012456,0.000166
 11,0.00165188,-0.04851218,-0.00185663,0.00012254,-0.00057793,0.0003963
 9,0.01700058,-0.00493588,-0.02223469,-0.00073458,0.00002574,0.00105452
 ,-0.00144243,0.00122555,0.00262000,0.00190145,0.00039065,0.00030707,-0
 .00092942,-0.00040174,0.00052022,0.00491037,-0.00108727,-0.00648854,0.
 00622536,0.00111209,-0.00216339,-0.00017926,-0.00481076,0.00297353,0.0
 0043623,0.00117019,-0.00053051,-0.00003941,0.00096113,-0.00069244,0.00
 003903,0.00001030,0.00000772,0.00004397,0.00002336,-0.00002564,-0.0000
 2667,0.00001026,-0.00001327,-0.00001219,-0.00009262,0.00004532,-0.0000
 4808,0.00020248,-0.00004259,0.00011856,-0.00003355,-0.00001131,-0.0060
 3640,0.05925710,0.01222664,0.00098412,-0.00860939,0.00024050,0.0001046
 3,0.00025585,-0.00038848,-0.00009201,0.00012986,0.12874253,-0.00448393
 ,-0.14663007,0.00144182,0.00047015,-0.00105823,0.01347793,-0.00760235,
 -0.01904739,-0.00062535,-0.00041307,0.00050853,-0.00022137,0.00266285,
 0.00140702,-0.00682593,0.00027575,-0.00171739,0.00150781,0.00000458,-0
 .00140079,0.00512616,0.00090965,-0.00332653,-0.01533379,0.00021510,0.0
 1235261,-0.00027703,0.00271115,-0.00055756,-0.00001569,-0.00067665,0.0
 0023967,-0.00041493,-0.00002982,0.00067473,-0.00003049,0.00009177,-0.0
 0000835,0.00006232,0.00012556,0.00010280,0.00001057,-0.00002150,-0.000
 02755,0.00003152,-0.00010291,0.00008717,-0.00006950,0.00010221,-0.0000
 5702,-0.00007611,-0.00002548,0.00002274,-0.13954547,0.00908524,0.16705
 624,-0.00037399,0.00019843,-0.00010951,-0.00801951,-0.01155625,0.02440
 542,-0.00018305,-0.00004246,0.00005569,0.00187449,-0.00120816,-0.00037
 575,-0.04017464,-0.05145957,0.05984763,-0.00150432,-0.00102629,-0.0008
 0085,-0.00030242,-0.00022353,-0.00005000,-0.00038275,0.00009909,0.0004
 2353,-0.00105753,0.00245278,0.00267068,-0.00170150,-0.00232433,-0.0020
 0729,0.00121242,0.00049704,-0.00065660,-0.00302115,0.00544469,0.009741
 57,-0.00003822,-0.00006239,-0.00000481,0.00000037,-0.00002007,-0.00018
 454,0.00013779,-0.00034214,-0.00003266,-0.00313679,-0.00254316,-0.0012
 7368,0.00002307,0.00075509,0.00111408,0.00099710,0.00044743,-0.0002832
 3,-0.00000493,-0.00004673,-0.00002171,-0.00000139,0.00003453,0.0000147
 9,0.00014875,0.00006548,-0.00004400,-0.00035871,-0.00005563,-0.0003694
 5,0.05601666,0.00034365,-0.00022238,0.00024822,-0.00211908,-0.00798854
 ,0.02185191,-0.00000603,-0.00002159,-0.00002827,0.00003639,-0.00189010
 ,0.00085116,-0.06546183,-0.10623499,0.14100275,-0.00074709,-0.00093302
 ,-0.00071135,-0.00009832,-0.00026900,0.00001313,-0.00006614,-0.0001864
 1,0.00015863,0.00437392,-0.00455860,-0.00459250,-0.00079178,0.00014020
 ,0.00421111,0.00029575,0.00090023,-0.00052583,0.00747965,0.01046041,-0
 .03093166,0.00002801,-0.00000855,-0.00000046,-0.00002561,0.00004156,0.
 00011179,-0.00013229,0.00015368,0.00003588,-0.00422280,-0.00331394,-0.
 00162071,0.00018039,0.00100039,-0.00084618,0.00031975,-0.00022593,-0.0
 0004184,0.00002745,-0.00002051,0.00003791,0.00000651,-0.00000430,0.000
 01436,-0.00007627,-0.00010404,-0.00003693,-0.00022774,0.00018697,-0.00
 033378,0.06091686,0.11317278,0.00027034,0.00000805,0.00033406,-0.00539
 444,-0.00259078,0.00762097,0.00001574,0.00003492,-0.00003082,0.0012071
 2,-0.00212069,0.00006240,0.09701549,0.12392915,-0.34958957,-0.00062787
 ,-0.00084018,-0.00053663,-0.00008135,-0.00015745,0.00007246,-0.0000265
 8,-0.00000096,0.00017475,0.00008416,-0.00165127,0.00060072,-0.00028198
 ,0.00268501,0.00473078,0.00016927,0.00039005,-0.00058140,0.00212437,0.
 01103232,-0.02403993,-0.00002018,-0.00003354,-0.00001191,-0.00001050,-
 0.00000437,0.00008226,-0.00001960,0.00009984,-0.00014337,-0.00136405,-
 0.00125377,0.00105717,-0.00074101,-0.00067045,0.00034716,0.00038556,0.
 00016748,0.00022610,0.00003040,-0.00000556,0.00004743,-0.00000012,-0.0
 0000472,0.00000549,-0.00010618,-0.00015565,0.00001050,-0.00045850,0.00
 004807,-0.00022233,-0.09204744,-0.12888589,0.35979297,0.00120799,-0.00
 084590,-0.00164294,0.00015920,0.00012273,-0.00030803,0.00022049,-0.000
 10620,-0.00137046,-0.00128673,0.00328665,-0.00131736,-0.00127585,-0.00
 063463,-0.00089950,-0.05208612,-0.03706877,0.11383355,0.00268409,0.003
 60005,-0.00375310,-0.00679787,-0.00217510,0.00126089,-0.00155149,0.000
 53305,0.00178614,-0.00095402,0.00063829,-0.00028771,-0.00988757,-0.004
 29402,0.02727060,0.00416501,-0.00195861,-0.00339050,-0.00040858,-0.000
 37066,0.00027711,-0.00040224,0.00076234,0.00001579,-0.00060862,-0.0005
 9330,0.00013867,0.00003479,-0.00003159,0.00003881,-0.00009800,-0.00007
 138,-0.00004595,-0.00007496,-0.00005512,-0.00000027,-0.00010407,0.0003
 4160,0.00011309,0.00012163,0.00000424,0.00019181,0.00000945,0.00018069
 ,-0.00005788,-0.00057506,0.00091779,0.00132580,-0.00014973,-0.00003337
 ,-0.00012266,0.06765827,0.00139715,0.00238082,-0.00076599,0.00005763,0
 .00026291,-0.00016805,-0.00347333,-0.00253703,-0.00064329,0.01343123,0
 .00243445,-0.02897518,-0.00036708,-0.00038331,-0.00037786,-0.04906010,
 -0.04869391,0.04282666,0.00249562,-0.00003258,-0.00265432,-0.00196789,
 0.00056518,-0.00056060,-0.00034896,-0.00037490,-0.00008850,0.00018969,
 0.00020445,-0.00010117,-0.00012820,-0.00030202,0.02274811,0.00155383,-
 0.00044057,0.00140071,-0.00119415,-0.00032617,0.00028110,0.00052831,-0
 .00069189,0.00006608,-0.00012594,0.00031224,0.00049279,-0.00006126,-0.
 00000228,0.00001334,-0.00007680,-0.00007770,0.00001807,-0.00002834,-0.
 00002682,-0.00002074,0.00080996,-0.00126592,0.00031293,0.00015941,-0.0
 0077183,0.00015951,-0.00027103,0.00041611,-0.00034075,-0.00137027,-0.0
 0472592,-0.00396126,-0.00000071,-0.00007432,-0.00001963,0.03785123,0.0
 5415102,-0.00044251,0.00127499,0.00173299,-0.00010027,0.00003642,-0.00
 007604,0.00013733,-0.00045312,-0.00024681,0.00302700,0.00391086,-0.011
 90127,-0.00033765,-0.00004573,0.00011371,0.13534501,0.02654459,-0.4011
 9364,-0.00080655,-0.00130236,-0.00126990,-0.00393635,-0.00039121,0.001
 79528,-0.00004673,0.00036107,0.00087816,-0.00021640,0.00030706,0.00021
 519,-0.00004970,0.00220076,0.00272348,0.00199281,-0.00142248,-0.002157
 05,0.00007146,-0.00095571,0.00044466,-0.00011122,-0.00027237,0.0002663
 1,-0.00005896,0.00049779,-0.00009819,0.00000382,-0.00002140,-0.0000008
 9,-0.00001831,-0.00003794,-0.00001970,0.00000321,0.00001455,0.00001192
 ,0.00000749,-0.00005556,0.00006576,-0.00002170,0.00008201,0.00012975,-
 0.00002530,-0.00001844,-0.00010762,-0.00134872,-0.00063035,-0.00017461
 ,-0.00001184,0.00001855,-0.00000924,-0.13305590,-0.02964198,0.40887776
 \\-0.00000122,-0.00000547,0.00000470,-0.00000666,0.00000147,0.00000352
 ,-0.00000784,0.00000629,-0.00000490,0.00001702,0.00003171,0.00001703,-
 0.00000100,0.00000048,-0.00000208,0.00001071,-0.00003471,0.00000378,-0
 .00000043,-0.00000066,0.00001336,-0.00000788,0.00000170,0.00000312,-0.
 00000971,0.00000258,0.00000801,0.00000240,0.00001675,-0.00000236,0.000
 01240,-0.00000519,-0.00001440,-0.00001062,-0.00002158,-0.00001256,0.00
 000032,0.00000064,-0.00000239,-0.00000345,-0.00000204,-0.00000180,0.00
 000164,-0.00000161,-0.00000137,0.00000298,-0.00000121,-0.00000239,0.00
 000148,0.00000176,-0.00000046,0.00000039,0.00000119,-0.00000379,-0.000
 00161,0.00000034,0.00000051,0.00000369,-0.00000133,0.00000393,0.000002
 78,0.00000080,-0.00000102,-0.00000369,0.00000201,-0.00000435,0.0000040
 9,-0.00000532,-0.00000097,-0.00000579,0.00001141,-0.00000313\\\@


 THE SECRET OF SUCCESS IN LIFE IS TO EAT WHAT YOU LIKE, AND LET THE FOOD
 FIGHT IT OUT INSIDE YOU. -- FROM A FORTUNE COOKIE
 Job cpu time:  0 days  1 hours  7 minutes 20.9 seconds.
 File lengths (MBytes):  RWF=    158 Int=      0 D2E=      0 Chk=      5 Scr=      1
 Normal termination of Gaussian 09 at Mon Feb 26 22:36:06 2018.
