 Entering Gaussian System, Link 0=g09
 Initial command:
 /home/fb_chem/chemsoft/lx24-amd64/Gaussian_09_C.01_NBO_3.1_64_istanbul-64/g09/l1.exe /local/2400104.1.parallel_long/Gau-28848.inp -scrdir=/local/2400104.1.parallel_long/
 Entering Link 1 = /home/fb_chem/chemsoft/lx24-amd64/Gaussian_09_C.01_NBO_3.1_64_istanbul-64/g09/l1.exe PID=     28849.
  
 Copyright (c) 1988,1990,1992,1993,1995,1998,2003,2009,2011,
            Gaussian, Inc.  All Rights Reserved.
  
 This is part of the Gaussian(R) 09 program.  It is based on
 the Gaussian(R) 03 system (copyright 2003, Gaussian, Inc.),
 the Gaussian(R) 98 system (copyright 1998, Gaussian, Inc.),
 the Gaussian(R) 94 system (copyright 1995, Gaussian, Inc.),
 the Gaussian 92(TM) system (copyright 1992, Gaussian, Inc.),
 the Gaussian 90(TM) system (copyright 1990, Gaussian, Inc.),
 the Gaussian 88(TM) system (copyright 1988, Gaussian, Inc.),
 the Gaussian 86(TM) system (copyright 1986, Carnegie Mellon
 University), and the Gaussian 82(TM) system (copyright 1983,
 Carnegie Mellon University). Gaussian is a federally registered
 trademark of Gaussian, Inc.
  
 This software contains proprietary and confidential information,
 including trade secrets, belonging to Gaussian, Inc.
  
 This software is provided under written license and may be
 used, copied, transmitted, or stored only in accord with that
 written license.
  
 The following legend is applicable only to US Government
 contracts under FAR:
  
                    RESTRICTED RIGHTS LEGEND
  
 Use, reproduction and disclosure by the US Government is
 subject to restrictions as set forth in subparagraphs (a)
 and (c) of the Commercial Computer Software - Restricted
 Rights clause in FAR 52.227-19.
  
 Gaussian, Inc.
 340 Quinnipiac St., Bldg. 40, Wallingford CT 06492
  
  
 ---------------------------------------------------------------
 Warning -- This program may not be used in any manner that
 competes with the business of Gaussian, Inc. or will provide
 assistance to any competitor of Gaussian, Inc.  The licensee
 of this program is prohibited from giving any competitor of
 Gaussian, Inc. access to this program.  By using this program,
 the user acknowledges that Gaussian, Inc. is engaged in the
 business of creating and licensing software in the field of
 computational chemistry and represents and warrants to the
 licensee that it is not a competitor of Gaussian, Inc. and that
 it will not use this program in any manner prohibited above.
 ---------------------------------------------------------------
  

 Cite this work as:
 Gaussian 09, Revision C.01,
 M. J. Frisch, G. W. Trucks, H. B. Schlegel, G. E. Scuseria, 
 M. A. Robb, J. R. Cheeseman, G. Scalmani, V. Barone, B. Mennucci, 
 G. A. Petersson, H. Nakatsuji, M. Caricato, X. Li, H. P. Hratchian, 
 A. F. Izmaylov, J. Bloino, G. Zheng, J. L. Sonnenberg, M. Hada, 
 M. Ehara, K. Toyota, R. Fukuda, J. Hasegawa, M. Ishida, T. Nakajima, 
 Y. Honda, O. Kitao, H. Nakai, T. Vreven, J. A. Montgomery, Jr., 
 J. E. Peralta, F. Ogliaro, M. Bearpark, J. J. Heyd, E. Brothers, 
 K. N. Kudin, V. N. Staroverov, T. Keith, R. Kobayashi, J. Normand, 
 K. Raghavachari, A. Rendell, J. C. Burant, S. S. Iyengar, J. Tomasi, 
 M. Cossi, N. Rega, J. M. Millam, M. Klene, J. E. Knox, J. B. Cross, 
 V. Bakken, C. Adamo, J. Jaramillo, R. Gomperts, R. E. Stratmann, 
 O. Yazyev, A. J. Austin, R. Cammi, C. Pomelli, J. W. Ochterski, 
 R. L. Martin, K. Morokuma, V. G. Zakrzewski, G. A. Voth, 
 P. Salvador, J. J. Dannenberg, S. Dapprich, A. D. Daniels, 
 O. Farkas, J. B. Foresman, J. V. Ortiz, J. Cioslowski, 
 and D. J. Fox, Gaussian, Inc., Wallingford CT, 2010.
 
 ******************************************
 Gaussian 09:  AM64L-G09RevC.01 23-Sep-2011
                17-Feb-2018 
 ******************************************
 %nprocs=2
 Will use up to    2 processors via shared memory.
 %chk=frag54-conf2.chk
 ----------------------------------------------------------------------
 #HF/6-31G* Geom=AllCheck Guess=Read Pop=(MK,ReadRadii) Integral=(Grid=
 UltraFine) iop(6/33=2)
 ----------------------------------------------------------------------
 1/29=7,38=1/1;
 2/12=2,40=1/2;
 3/5=1,6=6,7=1,11=9,14=-4,16=1,25=1,30=1,75=-5,116=-2/1,2,3;
 4/5=1/1;
 5/5=2,38=6/2;
 6/7=2,8=2,9=2,10=2,15=8,20=101,28=1,33=2/1,2;
 99/5=1,9=1/99;
 Structure from the checkpoint file:  frag54-conf2.chk
 -----------------------------
 Optimization for frag54-conf2
 -----------------------------
 Charge =  0 Multiplicity = 1
 Redundant internal coordinates found in file.
 C,0,1.710259919,-1.5196685989,0.0861626617
 C,0,0.6718558428,-0.8558433812,0.7508829741
 C,0,2.904619342,-1.7930378957,0.7386069252
 C,0,2.0432712897,-0.733711571,2.7450425826
 C,0,0.8360503127,-0.4635837559,2.0794570678
 C,0,3.0744759997,-1.3976570662,2.0761076795
 C,0,-0.5240000487,-0.5830471309,5.1526952336
 C,0,-1.2390524782,-1.5738356708,6.0602232807
 C,0,4.518137684,-1.3164721775,3.9777190131
 C,0,-0.2802624303,0.2420025621,2.82820304
 N,0,-0.9256531468,-0.5878188745,3.845534412
 O,0,0.3436888871,0.1724866538,5.5799717363
 O,0,4.2831643246,-1.7036084756,2.6317606859
 H,0,1.5840599918,-1.8236335407,-0.9497414445
 H,0,-0.2591110449,-0.6412794766,0.2313140071
 H,0,3.7220883578,-2.3045186339,0.2400648731
 H,0,2.1489694625,-0.4161111189,3.7762028828
 H,0,-0.5118087714,-2.3034145498,6.4315051524
 H,0,-1.6303153607,-1.0338093369,6.927164817
 H,0,-2.0601781663,-2.108538842,5.5725148408
 H,0,5.5292490074,-1.6540425549,4.2129272087
 H,0,3.8062084297,-1.7911443503,4.6652735812
 H,0,4.4598670269,-0.2272782698,4.1003594217
 H,0,0.1056671685,1.1167803485,3.3574872906
 H,0,-1.0494651375,0.5808853979,2.1258152476
 H,0,-1.5289171042,-1.3341022381,3.5292503207
 Recover connectivity data from disk.
                          Input orientation:                          
 ---------------------------------------------------------------------
 Center     Atomic      Atomic             Coordinates (Angstroms)
 Number     Number       Type             X           Y           Z
 ---------------------------------------------------------------------
      1          6           0        1.710260   -1.519669    0.086163
      2          6           0        0.671856   -0.855843    0.750883
      3          6           0        2.904619   -1.793038    0.738607
      4          6           0        2.043271   -0.733712    2.745043
      5          6           0        0.836050   -0.463584    2.079457
      6          6           0        3.074476   -1.397657    2.076108
      7          6           0       -0.524000   -0.583047    5.152695
      8          6           0       -1.239052   -1.573836    6.060223
      9          6           0        4.518138   -1.316472    3.977719
     10          6           0       -0.280262    0.242003    2.828203
     11          7           0       -0.925653   -0.587819    3.845534
     12          8           0        0.343689    0.172487    5.579972
     13          8           0        4.283164   -1.703608    2.631761
     14          1           0        1.584060   -1.823634   -0.949741
     15          1           0       -0.259111   -0.641279    0.231314
     16          1           0        3.722088   -2.304519    0.240065
     17          1           0        2.148969   -0.416111    3.776203
     18          1           0       -0.511809   -2.303415    6.431505
     19          1           0       -1.630315   -1.033809    6.927165
     20          1           0       -2.060178   -2.108539    5.572515
     21          1           0        5.529249   -1.654043    4.212927
     22          1           0        3.806208   -1.791144    4.665274
     23          1           0        4.459867   -0.227278    4.100359
     24          1           0        0.105667    1.116780    3.357487
     25          1           0       -1.049465    0.580885    2.125815
     26          1           0       -1.528917   -1.334102    3.529250
 ---------------------------------------------------------------------
                    Distance matrix (angstroms):
                    1          2          3          4          5
     1  C    0.000000
     2  C    1.400286   0.000000
     3  C    1.388131   2.421511   0.000000
     4  C    2.792538   2.423297   2.426907   0.000000
     5  C    2.419252   1.394968   2.800769   1.404762   0.000000
     6  C    2.415751   2.796849   1.405022   1.397026   2.425501
     7  C    5.615953   4.569512   5.718714   3.522836   3.362856
     8  C    6.662640   5.688249   6.748160   4.740241   4.624415
     9  C    4.803090   5.041680   3.649987   2.825609   4.229490
    10  C    3.818959   2.535163   4.318712   2.521456   1.518100
    11  N    4.685003   3.492956   5.077060   3.169681   2.497611
    12  O    5.908709   4.948258   5.818975   3.427331   3.591742
    13  O    3.624050   4.159081   2.343590   2.443492   3.704767
    14  H    1.086931   2.158902   2.143673   3.879463   3.403718
    15  H    2.161263   1.087515   3.404862   3.410035   2.155594
    16  H    2.164978   3.415189   1.085547   3.400114   3.886080
    17  H    3.876429   3.395260   3.419638   1.084128   2.145916
    18  H    6.768694   5.980468   6.658946   4.752095   4.913453
    19  H    7.628552   6.593794   7.709754   5.574535   5.468856
    20  H    6.683041   5.681671   6.936528   5.169434   4.826538
    21  H    5.624315   6.018068   4.356478   3.892780   5.291030
    22  H    5.043308   5.101118   4.028843   2.813076   4.155804
    23  H    5.034321   5.095401   4.021415   2.816610   4.155952
    24  H    4.497460   3.317559   4.812454   2.748403   2.159716
    25  H    4.023505   2.630128   4.816082   3.417108   2.155976
    26  H    4.730915   3.576515   5.258760   3.706208   2.907365
                    6          7          8          9         10
     6  C    0.000000
     7  C    4.803958   0.000000
     8  C    5.874585   1.522028   0.000000
     9  C    2.388907   5.228923   6.127667   0.000000
    10  C    3.808990   2.478584   3.829165   5.174444   0.000000
    11  N    4.448341   1.367486   2.444442   5.493930   1.462907
    12  O    4.711647   1.227306   2.405276   4.712774   2.822477
    13  O    1.365022   5.542526   6.501236   1.420102   4.964761
    14  H    3.399788   6.574398   7.561215   5.757247   4.692059
    15  H    3.884350   4.928849   5.983822   6.108481   2.743076
    16  H    2.147755   6.717639   7.682517   3.947149   5.403891
    17  H    2.170327   3.011207   4.246854   2.542482   2.689421
    18  H    5.714134   2.143634   1.094997   5.682911   4.417754
    19  H    6.767585   2.139127   1.093756   6.825145   4.500203
    20  H    6.252591   2.205270   1.094538   6.815056   4.027951
    21  H    3.264604   6.218683   7.016327   1.091615   6.266009
    22  H    2.719199   4.521923   5.239061   1.097674   4.920138
    23  H    2.717847   5.106164   6.175109   1.097624   4.930257
    24  H    4.096115   2.551209   4.043818   5.076938   1.092849
    25  H    4.574275   3.285248   4.489803   6.166662   1.095383
    26  H    4.827721   2.051710   2.558773   6.063688   2.129486
                   11         12         13         14         15
    11  N    0.000000
    12  O    2.279817   0.000000
    13  O    5.463516   5.266037   0.000000
    14  H    5.551628   6.939753   4.486282   0.000000
    15  H    3.675558   5.443686   5.246232   2.487998   0.000000
    16  H    6.127640   6.787028   2.529053   2.493603   4.314671
    17  H    3.080194   2.618982   2.742660   4.963345   4.291362
    18  H    3.130780   2.754464   6.147324   7.688020   6.424089
    19  H    3.192476   2.677083   7.339507   8.544102   6.846072
    20  H    2.565579   3.313866   7.003570   7.476729   5.824527
    21  H    6.552677   5.665250   2.013770   6.499725   7.098172
    22  H    4.950806   4.084307   2.090532   6.038824   6.124460
    23  H    5.403587   4.392264   2.089870   6.026785   6.116344
    24  H    2.051212   2.426475   5.092421   5.420692   3.605107
    25  H    2.082939   3.746847   5.823386   4.709163   2.389034
    26  H    1.010397   3.159418   5.892564   5.476462   3.601221
                   16         17         18         19         20
    16  H    0.000000
    17  H    4.306397   0.000000
    18  H    7.500655   4.206220   0.000000
    19  H    8.659113   4.959144   1.763132   0.000000
    20  H    7.868166   4.879341   1.781373   1.781825   0.000000
    21  H    4.412775   3.626223   6.468242   7.681871   7.723629
    22  H    4.455682   2.329722   4.693322   5.936792   5.944604
    23  H    4.445348   2.341150   5.870447   6.762517   6.943873
    24  H    5.873850   2.588467   4.639892   4.514562   4.472127
    25  H    5.886368   3.734671   5.210300   5.098783   4.487124
    26  H    6.271643   3.798755   3.224463   3.412665   2.248760
                   21         22         23         24         25
    21  H    0.000000
    22  H    1.786696   0.000000
    23  H    1.786591   1.786638   0.000000
    24  H    6.150161   4.884704   4.617078   0.000000
    25  H    7.254683   5.971008   5.908019   1.771590   0.000000
    26  H    7.098414   5.473847   6.116924   2.950965   2.422123
                   26
    26  H    0.000000
 Stoichiometry    C10H13NO2
 Framework group  C1[X(C10H13NO2)]
 Deg. of freedom    72
 Full point group                 C1      NOp   1
 Largest Abelian subgroup         C1      NOp   1
 Largest concise Abelian subgroup C1      NOp   1
                         Standard orientation:                         
 ---------------------------------------------------------------------
 Center     Atomic      Atomic             Coordinates (Angstroms)
 Number     Number       Type             X           Y           Z
 ---------------------------------------------------------------------
      1          6           0        2.330527   -1.961843    0.418409
      2          6           0        1.024165   -2.194079   -0.029120
      3          6           0        2.832639   -0.669679    0.489861
      4          6           0        0.720873    0.189739   -0.341838
      5          6           0        0.218299   -1.120367   -0.408144
      6          6           0        2.024666    0.414146    0.106992
      7          6           0       -2.778215    0.339263    0.038156
      8          6           0       -3.748423    0.660820    1.165927
      9          6           0        1.841681    2.778559   -0.181003
     10          6           0       -1.207132   -1.343388   -0.880409
     11          7           0       -2.222133   -0.909368    0.079536
     12          8           0       -2.529877    1.149755   -0.849374
     13          8           0        2.605605    1.645461    0.205259
     14          1           0        2.959933   -2.798033    0.711757
     15          1           0        0.639742   -3.209760   -0.086571
     16          1           0        3.843188   -0.469198    0.831927
     17          1           0        0.077258    1.007766   -0.645029
     18          1           0       -3.339002    1.482759    1.762425
     19          1           0       -4.687712    1.011811    0.729071
     20          1           0       -3.956783   -0.186839    1.826287
     21          1           0        2.490114    3.642711   -0.024799
     22          1           0        0.937899    2.885356    0.432725
     23          1           0        1.550669    2.727731   -1.238126
     24          1           0       -1.401085   -0.778514   -1.795625
     25          1           0       -1.371375   -2.405070   -1.094226
     26          1           0       -2.348213   -1.465902    0.913367
 ---------------------------------------------------------------------
 Rotational constants (GHZ):      1.1309439      0.5134519      0.3868526
 Standard basis: 6-31G(d) (6D, 7F)
 There are   221 symmetry adapted basis functions of A   symmetry.
 Integral buffers will be    131072 words long.
 Raffenetti 1 integral format.
 Two-electron integral symmetry is turned on.
   221 basis functions,   416 primitive gaussians,   221 cartesian basis functions
    48 alpha electrons       48 beta electrons
       nuclear repulsion energy       771.0150591897 Hartrees.
 NAtoms=   26 NActive=   26 NUniq=   26 SFac= 1.00D+00 NAtFMM=   60 NAOKFM=F Big=F
 One-electron integrals computed using PRISM.
 NBasis=   221 RedAO= T  NBF=   221
 NBsUse=   221 1.00D-06 NBFU=   221
 Initial guess read from the checkpoint file:  frag54-conf2.chk
 B after Tr=     0.000000    0.000000    0.000000
         Rot=    1.000000    0.000000    0.000000    0.000000 Ang=   0.00 deg.
 Initial guess orbital symmetries:
       Occupied  (A) (A) (A) (A) (A) (A) (A) (A) (A) (A) (A) (A)
                 (A) (A) (A) (A) (A) (A) (A) (A) (A) (A) (A) (A)
                 (A) (A) (A) (A) (A) (A) (A) (A) (A) (A) (A) (A)
                 (A) (A) (A) (A) (A) (A) (A) (A) (A) (A) (A) (A)
       Virtual   (A) (A) (A) (A) (A) (A) (A) (A) (A) (A) (A) (A)
                 (A) (A) (A) (A) (A) (A) (A) (A) (A) (A) (A) (A)
                 (A) (A) (A) (A) (A) (A) (A) (A) (A) (A) (A) (A)
                 (A) (A) (A) (A) (A) (A) (A) (A) (A) (A) (A) (A)
                 (A) (A) (A) (A) (A) (A) (A) (A) (A) (A) (A) (A)
                 (A) (A) (A) (A) (A) (A) (A) (A) (A) (A) (A) (A)
                 (A) (A) (A) (A) (A) (A) (A) (A) (A) (A) (A) (A)
                 (A) (A) (A) (A) (A) (A) (A) (A) (A) (A) (A) (A)
                 (A) (A) (A) (A) (A) (A) (A) (A) (A) (A) (A) (A)
                 (A) (A) (A) (A) (A) (A) (A) (A) (A) (A) (A) (A)
                 (A) (A) (A) (A) (A) (A) (A) (A) (A) (A) (A) (A)
                 (A) (A) (A) (A) (A) (A) (A) (A) (A) (A) (A) (A)
                 (A) (A) (A) (A) (A) (A) (A) (A) (A) (A) (A) (A)
                 (A) (A) (A) (A) (A) (A) (A) (A) (A) (A) (A) (A)
                 (A) (A) (A) (A) (A)
 Requested convergence on RMS density matrix=1.00D-08 within 128 cycles.
 Requested convergence on MAX density matrix=1.00D-06.
 Requested convergence on             energy=1.00D-06.
 No special actions if energy rises.
 SCF Done:  E(RHF) =  -590.431548106     A.U. after   14 cycles
             Convg  =    0.4499D-08             -V/T =  2.0024

 **********************************************************************

            Population analysis using the SCF density.

 **********************************************************************

 Orbital symmetries:
 BldTbl:  Degeneracy threshold= 1.00D-02
       Occupied  (A) (A) (A) (A) (A) (A) (A) (A) (A) (A) (A) (A)
                 (A) (A) (A) (A) (A) (A) (A) (A) (A) (A) (A) (A)
                 (A) (A) (A) (A) (A) (A) (A) (A) (A) (A) (A) (A)
                 (A) (A) (A) (A) (A) (A) (A) (A) (A) (A) (A) (A)
       Virtual   (A) (A) (A) (A) (A) (A) (A) (A) (A) (A) (A) (A)
                 (A) (A) (A) (A) (A) (A) (A) (A) (A) (A) (A) (A)
                 (A) (A) (A) (A) (A) (A) (A) (A) (A) (A) (A) (A)
                 (A) (A) (A) (A) (A) (A) (A) (A) (A) (A) (A) (A)
                 (A) (A) (A) (A) (A) (A) (A) (A) (A) (A) (A) (A)
                 (A) (A) (A) (A) (A) (A) (A) (A) (A) (A) (A) (A)
                 (A) (A) (A) (A) (A) (A) (A) (A) (A) (A) (A) (A)
                 (A) (A) (A) (A) (A) (A) (A) (A) (A) (A) (A) (A)
                 (A) (A) (A) (A) (A) (A) (A) (A) (A) (A) (A) (A)
                 (A) (A) (A) (A) (A) (A) (A) (A) (A) (A) (A) (A)
                 (A) (A) (A) (A) (A) (A) (A) (A) (A) (A) (A) (A)
                 (A) (A) (A) (A) (A) (A) (A) (A) (A) (A) (A) (A)
                 (A) (A) (A) (A) (A) (A) (A) (A) (A) (A) (A) (A)
                 (A) (A) (A) (A) (A) (A) (A) (A) (A) (A) (A) (A)
                 (A) (A) (A) (A) (A)
 The electronic state is 1-A.
 Alpha  occ. eigenvalues --  -20.58456 -20.52326 -15.59255 -11.35722 -11.29737
 Alpha  occ. eigenvalues --  -11.27990 -11.27125 -11.24374 -11.24153 -11.23803
 Alpha  occ. eigenvalues --  -11.22668 -11.22514 -11.22326  -1.40051  -1.37443
 Alpha  occ. eigenvalues --   -1.23024  -1.14255  -1.04462  -1.00853  -1.00226
 Alpha  occ. eigenvalues --   -0.94367  -0.91640  -0.81445  -0.80437  -0.78192
 Alpha  occ. eigenvalues --   -0.70834  -0.69019  -0.66064  -0.65532  -0.64874
 Alpha  occ. eigenvalues --   -0.64407  -0.62049  -0.60749  -0.58532  -0.57799
 Alpha  occ. eigenvalues --   -0.57097  -0.55847  -0.54138  -0.52492  -0.51515
 Alpha  occ. eigenvalues --   -0.50598  -0.49852  -0.47825  -0.45748  -0.42048
 Alpha  occ. eigenvalues --   -0.39022  -0.32882  -0.30491
 Alpha virt. eigenvalues --    0.13617   0.16050   0.19395   0.21519   0.24702
 Alpha virt. eigenvalues --    0.25569   0.26799   0.28504   0.29951   0.31208
 Alpha virt. eigenvalues --    0.31342   0.32131   0.32382   0.32787   0.33660
 Alpha virt. eigenvalues --    0.34033   0.36296   0.36705   0.39666   0.42743
 Alpha virt. eigenvalues --    0.43905   0.47161   0.48205   0.49071   0.53308
 Alpha virt. eigenvalues --    0.53858   0.59136   0.61220   0.63652   0.71306
 Alpha virt. eigenvalues --    0.73230   0.73671   0.74781   0.74904   0.76124
 Alpha virt. eigenvalues --    0.76751   0.77115   0.77982   0.80649   0.82461
 Alpha virt. eigenvalues --    0.83433   0.84023   0.84784   0.85661   0.85987
 Alpha virt. eigenvalues --    0.88609   0.89060   0.90719   0.93098   0.95148
 Alpha virt. eigenvalues --    0.96560   0.98121   0.99633   1.00829   1.03097
 Alpha virt. eigenvalues --    1.07155   1.07607   1.09294   1.10768   1.11533
 Alpha virt. eigenvalues --    1.12510   1.13314   1.14764   1.14921   1.16241
 Alpha virt. eigenvalues --    1.17216   1.18062   1.18500   1.19139   1.19734
 Alpha virt. eigenvalues --    1.20497   1.21472   1.23027   1.23637   1.28588
 Alpha virt. eigenvalues --    1.31532   1.34158   1.34482   1.38001   1.38253
 Alpha virt. eigenvalues --    1.41386   1.43852   1.47549   1.48611   1.50661
 Alpha virt. eigenvalues --    1.52270   1.55659   1.58278   1.60741   1.63170
 Alpha virt. eigenvalues --    1.64555   1.66863   1.69056   1.72307   1.73639
 Alpha virt. eigenvalues --    1.75881   1.77054   1.79534   1.80697   1.81837
 Alpha virt. eigenvalues --    1.87073   1.93991   1.97553   2.03326   2.04402
 Alpha virt. eigenvalues --    2.09477   2.11472   2.11659   2.13196   2.14422
 Alpha virt. eigenvalues --    2.16735   2.18599   2.19675   2.22684   2.24693
 Alpha virt. eigenvalues --    2.26944   2.27881   2.29459   2.31453   2.34498
 Alpha virt. eigenvalues --    2.37064   2.39274   2.41545   2.42931   2.44515
 Alpha virt. eigenvalues --    2.46695   2.49866   2.50584   2.54052   2.54566
 Alpha virt. eigenvalues --    2.57032   2.59087   2.62140   2.62868   2.65356
 Alpha virt. eigenvalues --    2.66216   2.69313   2.72304   2.74508   2.76966
 Alpha virt. eigenvalues --    2.78770   2.87785   2.89378   2.92184   2.96382
 Alpha virt. eigenvalues --    2.99916   3.01255   3.02890   3.04288   3.05497
 Alpha virt. eigenvalues --    3.13967   3.14903   3.21245   3.25423   3.30743
 Alpha virt. eigenvalues --    3.34976   3.36969   3.50095   3.56897   3.80766
 Alpha virt. eigenvalues --    4.37489   4.47556   4.47911   4.52916   4.57192
 Alpha virt. eigenvalues --    4.60828   4.64378   4.74871   4.76653   4.84020
 Alpha virt. eigenvalues --    4.89818   4.93680   5.20480
          Condensed to atoms (all electrons):
              1          2          3          4          5          6
     1  C    4.881910   0.531145   0.553930  -0.033342  -0.041476  -0.038012
     2  C    0.531145   4.960058  -0.052483  -0.052842   0.578839  -0.028490
     3  C    0.553930  -0.052483   4.958905  -0.054713  -0.028867   0.570408
     4  C   -0.033342  -0.052842  -0.054713   5.157824   0.506334   0.526794
     5  C   -0.041476   0.578839  -0.028867   0.506334   4.864118  -0.025121
     6  C   -0.038012  -0.028490   0.570408   0.526794  -0.025121   4.395953
     7  C   -0.000003  -0.000068   0.000000   0.002198  -0.002125   0.000086
     8  C    0.000000  -0.000007   0.000000  -0.000010  -0.000407   0.000002
     9  C   -0.000074   0.000002   0.002567  -0.007688  -0.000432  -0.043287
    10  C    0.002842  -0.035078   0.000349  -0.041991   0.330167   0.000347
    11  N   -0.000009  -0.001477  -0.000002   0.000621  -0.072990   0.000007
    12  O    0.000000  -0.000031   0.000001  -0.003029  -0.002725   0.000137
    13  O    0.001880   0.000218  -0.049785  -0.050932   0.003407   0.251117
    14  H    0.380626  -0.029752  -0.028133   0.000127   0.002241   0.002017
    15  H   -0.028789   0.379939   0.002183   0.003067  -0.032865   0.000265
    16  H   -0.028656   0.002522   0.376026   0.003865  -0.000106  -0.029511
    17  H    0.000097   0.002163   0.001922   0.366275  -0.024594  -0.025329
    18  H    0.000000   0.000000   0.000000   0.000016   0.000046   0.000000
    19  H    0.000000   0.000000   0.000000   0.000001  -0.000004   0.000000
    20  H    0.000000   0.000001   0.000000  -0.000005   0.000011   0.000000
    21  H    0.000002   0.000000  -0.000025   0.000488   0.000019   0.002162
    22  H   -0.000001  -0.000007   0.000002   0.000504  -0.000289  -0.001182
    23  H   -0.000002  -0.000006   0.000021   0.000437  -0.000257  -0.001031
    24  H   -0.000056   0.001515   0.000000  -0.002505  -0.040114  -0.000005
    25  H    0.000208  -0.001131  -0.000022   0.003271  -0.058321   0.000048
    26  H    0.000001   0.000846  -0.000006   0.000288   0.001511  -0.000005
              7          8          9         10         11         12
     1  C   -0.000003   0.000000  -0.000074   0.002842  -0.000009   0.000000
     2  C   -0.000068  -0.000007   0.000002  -0.035078  -0.001477  -0.000031
     3  C    0.000000   0.000000   0.002567   0.000349  -0.000002   0.000001
     4  C    0.002198  -0.000010  -0.007688  -0.041991   0.000621  -0.003029
     5  C   -0.002125  -0.000407  -0.000432   0.330167  -0.072990  -0.002725
     6  C    0.000086   0.000002  -0.043287   0.000347   0.000007   0.000137
     7  C    4.158093   0.360570  -0.000008  -0.025513   0.283319   0.566209
     8  C    0.360570   5.244453   0.000000   0.004459  -0.101855  -0.067691
     9  C   -0.000008   0.000000   4.858972  -0.000008   0.000003  -0.000037
    10  C   -0.025513   0.004459  -0.000008   4.939676   0.189127   0.003364
    11  N    0.283319  -0.101855   0.000003   0.189127   7.346426  -0.094533
    12  O    0.566209  -0.067691  -0.000037   0.003364  -0.094533   8.210227
    13  O    0.000000   0.000000   0.199181  -0.000037   0.000000   0.000000
    14  H    0.000000   0.000000   0.000002  -0.000107   0.000002   0.000000
    15  H    0.000000   0.000000   0.000000  -0.002788   0.000106   0.000000
    16  H    0.000000   0.000000  -0.000107   0.000006   0.000000   0.000000
    17  H    0.000896   0.000184   0.001205  -0.000023  -0.002220   0.010924
    18  H   -0.027570   0.379451   0.000000  -0.000105   0.001139   0.000361
    19  H   -0.027618   0.381076   0.000000  -0.000114   0.001932   0.001055
    20  H   -0.038974   0.374857   0.000000   0.000034   0.005454   0.002484
    21  H    0.000000   0.000000   0.401199   0.000000   0.000000   0.000000
    22  H    0.000038  -0.000002   0.388432   0.000004  -0.000004   0.000046
    23  H   -0.000005   0.000000   0.389207  -0.000001   0.000000  -0.000002
    24  H   -0.000850   0.000331  -0.000002   0.408228  -0.042269   0.006949
    25  H    0.002463  -0.000036   0.000000   0.416351  -0.041511   0.000360
    26  H   -0.015903   0.000256   0.000000  -0.021787   0.317206   0.002171
             13         14         15         16         17         18
     1  C    0.001880   0.380626  -0.028789  -0.028656   0.000097   0.000000
     2  C    0.000218  -0.029752   0.379939   0.002522   0.002163   0.000000
     3  C   -0.049785  -0.028133   0.002183   0.376026   0.001922   0.000000
     4  C   -0.050932   0.000127   0.003067   0.003865   0.366275   0.000016
     5  C    0.003407   0.002241  -0.032865  -0.000106  -0.024594   0.000046
     6  C    0.251117   0.002017   0.000265  -0.029511  -0.025329   0.000000
     7  C    0.000000   0.000000   0.000000   0.000000   0.000896  -0.027570
     8  C    0.000000   0.000000   0.000000   0.000000   0.000184   0.379451
     9  C    0.199181   0.000002   0.000000  -0.000107   0.001205   0.000000
    10  C   -0.000037  -0.000107  -0.002788   0.000006  -0.000023  -0.000105
    11  N    0.000000   0.000002   0.000106   0.000000  -0.002220   0.001139
    12  O    0.000000   0.000000   0.000000   0.000000   0.010924   0.000361
    13  O    8.417393  -0.000046   0.000001   0.000995  -0.003992   0.000000
    14  H   -0.000046   0.472501  -0.001304  -0.001859   0.000008   0.000000
    15  H    0.000001  -0.001304   0.486213  -0.000092  -0.000102   0.000000
    16  H    0.000995  -0.001859  -0.000092   0.460756  -0.000078   0.000000
    17  H   -0.003992   0.000008  -0.000102  -0.000078   0.415237  -0.000015
    18  H    0.000000   0.000000   0.000000   0.000000  -0.000015   0.484095
    19  H    0.000000   0.000000   0.000000   0.000000  -0.000001  -0.019709
    20  H    0.000000   0.000000   0.000000   0.000000  -0.000008  -0.023085
    21  H   -0.032419   0.000000   0.000000  -0.000018   0.000054   0.000000
    22  H   -0.036799   0.000000   0.000000   0.000015  -0.000133   0.000003
    23  H   -0.036679   0.000000   0.000000   0.000015   0.000099   0.000000
    24  H    0.000000   0.000002   0.000026   0.000000   0.000522  -0.000009
    25  H    0.000000  -0.000004   0.002664   0.000000  -0.000063  -0.000001
    26  H    0.000000   0.000000   0.000039   0.000000  -0.000049  -0.000087
             19         20         21         22         23         24
     1  C    0.000000   0.000000   0.000002  -0.000001  -0.000002  -0.000056
     2  C    0.000000   0.000001   0.000000  -0.000007  -0.000006   0.001515
     3  C    0.000000   0.000000  -0.000025   0.000002   0.000021   0.000000
     4  C    0.000001  -0.000005   0.000488   0.000504   0.000437  -0.002505
     5  C   -0.000004   0.000011   0.000019  -0.000289  -0.000257  -0.040114
     6  C    0.000000   0.000000   0.002162  -0.001182  -0.001031  -0.000005
     7  C   -0.027618  -0.038974   0.000000   0.000038  -0.000005  -0.000850
     8  C    0.381076   0.374857   0.000000  -0.000002   0.000000   0.000331
     9  C    0.000000   0.000000   0.401199   0.388432   0.389207  -0.000002
    10  C   -0.000114   0.000034   0.000000   0.000004  -0.000001   0.408228
    11  N    0.001932   0.005454   0.000000  -0.000004   0.000000  -0.042269
    12  O    0.001055   0.002484   0.000000   0.000046  -0.000002   0.006949
    13  O    0.000000   0.000000  -0.032419  -0.036799  -0.036679   0.000000
    14  H    0.000000   0.000000   0.000000   0.000000   0.000000   0.000002
    15  H    0.000000   0.000000   0.000000   0.000000   0.000000   0.000026
    16  H    0.000000   0.000000  -0.000018   0.000015   0.000015   0.000000
    17  H   -0.000001  -0.000008   0.000054  -0.000133   0.000099   0.000522
    18  H   -0.019709  -0.023085   0.000000   0.000003   0.000000  -0.000009
    19  H    0.474874  -0.022709   0.000000   0.000000   0.000000   0.000006
    20  H   -0.022709   0.531740   0.000000   0.000000   0.000000  -0.000022
    21  H    0.000000   0.000000   0.495201  -0.028036  -0.027790   0.000000
    22  H    0.000000   0.000000  -0.028036   0.552455  -0.041935  -0.000004
    23  H    0.000000   0.000000  -0.027790  -0.041935   0.548190   0.000006
    24  H    0.000006  -0.000022   0.000000  -0.000004   0.000006   0.452117
    25  H    0.000006  -0.000024   0.000000   0.000000   0.000000  -0.020184
    26  H    0.000083   0.001122   0.000000   0.000000   0.000000   0.002983
             25         26
     1  C    0.000208   0.000001
     2  C   -0.001131   0.000846
     3  C   -0.000022  -0.000006
     4  C    0.003271   0.000288
     5  C   -0.058321   0.001511
     6  C    0.000048  -0.000005
     7  C    0.002463  -0.015903
     8  C   -0.000036   0.000256
     9  C    0.000000   0.000000
    10  C    0.416351  -0.021787
    11  N   -0.041511   0.317206
    12  O    0.000360   0.002171
    13  O    0.000000   0.000000
    14  H   -0.000004   0.000000
    15  H    0.002664   0.000039
    16  H    0.000000   0.000000
    17  H   -0.000063  -0.000049
    18  H   -0.000001  -0.000087
    19  H    0.000006   0.000083
    20  H   -0.000024   0.001122
    21  H    0.000000   0.000000
    22  H    0.000000   0.000000
    23  H    0.000000   0.000000
    24  H   -0.020184   0.002983
    25  H    0.510424  -0.001848
    26  H   -0.001848   0.329312
 Mulliken atomic charges:
              1
     1  C   -0.182220
     2  C   -0.255878
     3  C   -0.252278
     4  C   -0.325054
     5  C    0.043999
     6  C    0.442631
     7  C    0.764764
     8  C   -0.575633
     9  C   -0.189129
    10  C   -0.167401
    11  N   -0.788473
    12  O   -0.636241
    13  O   -0.663502
    14  H    0.203681
    15  H    0.191437
    16  H    0.216228
    17  H    0.257022
    18  H    0.205469
    19  H    0.211122
    20  H    0.169122
    21  H    0.189161
    22  H    0.166893
    23  H    0.169733
    24  H    0.233334
    25  H    0.187348
    26  H    0.383866
 Sum of Mulliken atomic charges =   0.00000
 Mulliken charges with hydrogens summed into heavy atoms:
              1
     1  C    0.021460
     2  C   -0.064441
     3  C   -0.036051
     4  C   -0.068032
     5  C    0.043999
     6  C    0.442631
     7  C    0.764764
     8  C    0.010081
     9  C    0.336659
    10  C    0.253281
    11  N   -0.404607
    12  O   -0.636241
    13  O   -0.663502
 Sum of Mulliken charges with hydrogens summed into heavy atoms =   0.00000
 DipInt: DoE/N= T F RetVal/Mat= T F Init=T NMatP=  1 IDeriv=0 Min/MaxMlt=  0  4
 Entering OneElI...
 OneElI was handed    33426601 working-precision words.
 Multipole integrals L=0 to 4 MinM= 0 MaxM= 0.
 Requested accuracy = 0.1000D-12
 PrsmSu:  NPrtUS=   1 ThrOK=F IAlg=1 NPAlg=1 LenDen=           0.
 Prism:   IPart=     0 DynPar=F LinDyn=F Incr=          26.
 PRISM was handed    33194939 working-precision words and  2669 shell-pairs
 IPart=  0 NShTot=        2669 NBatch=          58 AvBLen=        46.0
 PrSmSu:  NxtVal=             27.
 Electronic moments (au):
        -96.00000000         -0.53684044         -0.74839207          0.86853252
      -1865.08329946       -844.90863894       -197.93053050          3.44271654
         -5.46577299          0.41670854       2176.92197649       -423.73035262
        -38.81914801      -1530.69722681      -1062.39757705      -1154.42176324
        458.84330452        -23.68442439        102.61157178        282.20209393
     -62285.18548247     -18076.25486624      -1407.93753830       4592.71239688
       4137.68033443      -2961.40490759        436.93172089        642.28522053
       -164.04880770     -12974.26705272      -5170.54930401      -1433.26198682
        -14.13775224       -496.58905826        535.62078624
 Electronic spatial extent (au):  <R**2>=           2907.9225
 DipInt: DoE/N= F T RetVal/Mat= T F Init=T NMatP=  1 IDeriv=0 Min/MaxMlt=  0  4
 Nuclear    moments (au):
         96.00000000          0.00000000          0.00000000          0.00000000
       1808.32497421        793.23621338        139.27748042          0.00000000
          0.00000000          0.00000000      -2221.58000644        442.48107364
         37.25450806       1546.70290075       1040.21511143       1194.59588036
       -470.39178434         27.88185102        -96.57717239       -299.33787700
      56026.89644071      15407.14898570        720.90033419      -4662.65897792
      -4231.89417407       3114.07411230       -460.83626227       -651.74429423
        161.47584583      11418.57383229       3950.04572573        813.74325403
          0.05809136        465.14847388       -485.61036723
 Total      moments (au):
          0.00000000         -0.53684044         -0.74839207          0.86853252
        -56.75832525        -51.67242556        -58.65305007          3.44271654
         -5.46577299          0.41670854        -44.65802995         18.75072102
         -1.56463994         16.00567394        -22.18246562         40.17411712
        -11.54847982          4.19742662          6.03439939        -17.13578306
      -6258.28904176      -2669.10588054       -687.03720410        -69.94658104
        -94.21383964        152.66920470        -23.90454138         -9.45907371
         -2.57296187      -1555.69322043      -1220.50357827       -619.51873279
        -14.07966088        -31.44058438         50.01041902
 Traceless Quadrup. (au):
         -1.06372495          4.02217474         -2.95844978          3.44271654
         -5.46577299          0.41670854
 Charge=              0.0000 electrons
 Dipole moment (field-independent basis, Debye):
    X=             -1.3645    Y=             -1.9022    Z=              2.2076  Tot=              3.2177
 Quadrupole moment (field-independent basis, Debye-Ang):
   XX=            -76.3419   YY=            -69.5012   ZZ=            -78.8904
   XY=              4.6306   XZ=             -7.3517   YZ=              0.5605
 Traceless Quadrupole moment (field-independent basis, Debye-Ang):
   XX=             -1.4307   YY=              5.4100   ZZ=             -3.9792
   XY=              4.6306   XZ=             -7.3517   YZ=              0.5605
 Octapole moment (field-independent basis, Debye-Ang**2):
  XXX=            -31.7859  YYY=             13.3460  ZZZ=             -1.1137  XYY=             11.3922
  XXY=            -15.7886  XXZ=             28.5944  XZZ=             -8.2198  YZZ=              2.9876
  YYZ=              4.2951  XYZ=            -12.1966
 Hexadecapole moment (field-independent basis, Debye-Ang**3):
 XXXX=          -2357.1716 YYYY=          -1005.3132 ZZZZ=           -258.7711 XXXY=            -26.3452
 XXXZ=            -35.4854 YYYX=             57.5025 YYYZ=             -9.0036 ZZZX=             -3.5627
 ZZZY=             -0.9691 XXYY=           -585.9486 XXZZ=           -459.7001 YYZZ=           -233.3404
 XXYZ=             -5.3031 YYXZ=            -11.8420 ZZXY=             18.8363
 N-N= 7.710150591897D+02 E-N=-2.923372114189D+03  KE= 5.890040320360D+02
 Entering OneElI...
 OneElI was handed    33328048 working-precision words.
 Calculate electrostatic properties
    NBasis =   221  MinDer = 0  MaxDer = 0
    NGrid  =    26  NMatD  =   1
 Requested accuracy = 0.1000D-12
 PrsmSu:  NPrtUS=   2 ThrOK=T IAlg=1 NPAlg=1 LenDen=           0.
 Prism:   IPart=     0 DynPar=F LinDyn=F Incr=         320.
 PRISM was handed    16519246 working-precision words and  2463 shell-pairs
 PRISM was handed    16519246 working-precision words and  2463 shell-pairs
 IPart=  0 NShTot=       32344 NBatch=        1244 AvBLen=        26.0
 IPart=  1 NShTot=       31694 NBatch=        1219 AvBLen=        26.0
 PrSmSu:  NxtVal=            641.
 --------------------------------------------------------
       Center         ----      EFG at Nuclei      ----
                      3XX-RR        3YY-RR        3ZZ-RR
 --------------------------------------------------------
     1   Atom        0.127736      0.172960     -0.300695
     2   Atom        0.108535      0.087962     -0.196497
     3   Atom        0.057389      0.147985     -0.205375
     4   Atom        0.058246      0.124162     -0.182408
     5   Atom        0.087218      0.213565     -0.300782
     6   Atom        0.255054     -0.057092     -0.197962
     7   Atom       -0.190407      0.084253      0.106154
     8   Atom       -0.001470      0.024123     -0.022652
     9   Atom        0.056297     -0.210859      0.154562
    10   Atom       -0.089786      0.119302     -0.029515
    11   Atom        0.346117     -0.203379     -0.142737
    12   Atom        0.284086      0.129011     -0.413097
    13   Atom        0.383071     -1.835413      1.452342
    14   Atom       -0.004959     -0.123696      0.128655
    15   Atom        0.085968     -0.250747      0.164779
    16   Atom       -0.248272      0.129035      0.119237
    17   Atom       -0.007863     -0.121816      0.129679
    18   Atom        0.083192     -0.097830      0.014637
    19   Atom       -0.182321      0.108095      0.074226
    20   Atom        0.133504     -0.123561     -0.009943
    21   Atom       -0.008427     -0.138267      0.146694
    22   Atom       -0.142920      0.129670      0.013250
    23   Atom        0.118284      0.131510     -0.249794
    24   Atom        0.124430      0.042171     -0.166601
    25   Atom        0.129778     -0.262137      0.132359
    26   Atom        0.196864      0.006859     -0.203723
 --------------------------------------------------------
                        XY            XZ            YZ
 --------------------------------------------------------
     1   Atom        0.047055      0.172639     -0.028296
     2   Atom       -0.015871      0.124642     -0.028643
     3   Atom        0.033130      0.105054     -0.022044
     4   Atom        0.007949      0.101446     -0.025914
     5   Atom       -0.012775      0.146468     -0.051225
     6   Atom       -0.171796      0.205069     -0.080544
     7   Atom       -0.188330     -0.388154     -0.201819
     8   Atom        0.003574      0.052919     -0.004763
     9   Atom        0.255017     -0.073127      0.131673
    10   Atom        0.058618      0.183582     -0.137081
    11   Atom        0.494771      0.553715      0.315586
    12   Atom       -1.004010     -0.555285      0.772615
    13   Atom        0.050279     -0.475346      0.345664
    14   Atom        0.200642     -0.076863      0.095414
    15   Atom       -0.149900     -0.017696     -0.020011
    16   Atom       -0.075555     -0.141463     -0.023577
    17   Atom        0.192539     -0.080813      0.095417
    18   Atom       -0.125891     -0.086188     -0.184152
    19   Atom        0.124068     -0.149707      0.055195
    20   Atom       -0.057374      0.056249      0.206540
    21   Atom       -0.201589     -0.041906     -0.046074
    22   Atom        0.038743      0.197823     -0.016365
    23   Atom        0.001614     -0.110774     -0.018972
    24   Atom        0.037613     -0.055483      0.182748
    25   Atom       -0.061278     -0.006271     -0.083290
    26   Atom       -0.009428      0.087662      0.269448
 --------------------------------------------------------


 ---------------------------------------------------------------------------------
              Nuclear Quadrupole in Principal Axis System
 ---------------------------------------------------------------------------------

       Atom             a.u.   MegaHertz   Gauss  10(-4) cm-1        Axes

              Baa    -0.3649   -48.973   -17.475   -16.336 -0.3364  0.0788  0.9384
     1 C(13)  Bbb     0.1471    19.737     7.042     6.583 -0.5846  0.7637 -0.2737
              Bcc     0.2179    29.236    10.432     9.752  0.7383  0.6407  0.2108
 
              Baa    -0.2424   -32.524   -11.606   -10.849 -0.3313  0.0657  0.9412
     2 C(13)  Bbb     0.0810    10.873     3.880     3.627  0.3251  0.9444  0.0485
              Bcc     0.1613    21.651     7.726     7.222  0.8857 -0.3220  0.3343
 
              Baa    -0.2448   -32.849   -11.721   -10.957 -0.3352  0.0810  0.9387
     3 C(13)  Bbb     0.0855    11.469     4.092     3.826  0.8749 -0.3430  0.3420
              Bcc     0.1593    21.380     7.629     7.132  0.3497  0.9358  0.0442
 
              Baa    -0.2216   -29.735   -10.610    -9.918 -0.3417  0.0781  0.9365
     4 C(13)  Bbb     0.0952    12.780     4.560     4.263  0.9397  0.0455  0.3391
              Bcc     0.1263    16.954     6.050     5.655 -0.0162  0.9959 -0.0889
 
              Baa    -0.3534   -47.419   -16.920   -15.817 -0.3124  0.0785  0.9467
     5 C(13)  Bbb     0.1274    17.093     6.099     5.702  0.9131  0.2997  0.2765
              Bcc     0.2260    30.326    10.821    10.116 -0.2620  0.9508 -0.1653
 
              Baa    -0.2781   -37.319   -13.316   -12.448 -0.3347  0.0820  0.9388
     6 C(13)  Bbb    -0.1326   -17.795    -6.350    -5.936  0.3801  0.9233  0.0549
              Bcc     0.4107    55.114    19.666    18.384  0.8623 -0.3752  0.3402
 
              Baa    -0.5694   -76.414   -27.266   -25.489  0.7469  0.3830  0.5435
     7 C(13)  Bbb     0.1800    24.149     8.617     8.055 -0.4631  0.8863  0.0118
              Bcc     0.3895    52.265    18.649    17.434 -0.4772 -0.2605  0.8393
 
              Baa    -0.0664    -8.913    -3.180    -2.973 -0.6325  0.0656  0.7718
     8 C(13)  Bbb     0.0245     3.289     1.174     1.097  0.0529  0.9977 -0.0414
              Bcc     0.0419     5.624     2.007     1.876  0.7728 -0.0146  0.6345
 
              Baa    -0.4056   -54.429   -19.422   -18.156 -0.4979  0.8275 -0.2595
     9 C(13)  Bbb     0.1933    25.941     9.256     8.653 -0.3840  0.0580  0.9215
              Bcc     0.2123    28.488    10.165     9.503  0.7776  0.5585  0.2889
 
              Baa    -0.2903   -38.956   -13.900   -12.994  0.6892 -0.3167 -0.6517
    10 C(13)  Bbb     0.0795    10.672     3.808     3.560  0.6903  0.5603  0.4577
              Bcc     0.2108    28.283    10.092     9.434 -0.2202  0.7653 -0.6048
 
              Baa    -0.5054   -19.492    -6.955    -6.502 -0.6365  0.3004  0.7104
    11 N(14)  Bbb    -0.4890   -18.861    -6.730    -6.291 -0.1657  0.8463 -0.5063
              Bcc     0.9944    38.354    13.686    12.793  0.7533  0.4400  0.4889
 
              Baa    -0.9935    71.887    25.651    23.979  0.2443  0.6885 -0.6828
    12 O(17)  Bbb    -0.6465    46.783    16.693    15.605  0.7241  0.3389  0.6007
              Bcc     1.6400  -118.670   -42.344   -39.584  0.6450 -0.6412 -0.4157
 
              Baa    -1.8758   135.735    48.434    45.276 -0.0452  0.9930 -0.1096
    13 O(17)  Bbb     0.2159   -15.625    -5.575    -5.212  0.9377  0.0800  0.3381
              Bcc     1.6599  -120.110   -42.858   -40.064 -0.3445  0.0875  0.9347
 
              Baa    -0.3079  -164.287   -58.622   -54.800 -0.5783  0.7698 -0.2701
    14 H(1)   Bbb     0.1439    76.800    27.404    25.618  0.7442  0.6335  0.2119
              Bcc     0.1640    87.488    31.218    29.183 -0.3342  0.0784  0.9392
 
              Baa    -0.3091  -164.937   -58.853   -55.017  0.3563  0.9329  0.0527
    15 H(1)   Bbb     0.1397    74.528    26.593    24.860  0.8738 -0.3526  0.3349
              Bcc     0.1694    90.409    32.260    30.157 -0.3310  0.0733  0.9408
 
              Baa    -0.3107  -165.751   -59.144   -55.289  0.9320  0.1771  0.3164
    16 H(1)   Bbb     0.1431    76.357    27.246    25.470 -0.1408  0.9809 -0.1343
              Bcc     0.1675    89.395    31.898    29.819 -0.3341  0.0806  0.9391
 
              Baa    -0.3017  -160.998   -57.448   -53.703 -0.5787  0.7667 -0.2780
    17 H(1)   Bbb     0.1343    71.631    25.560    23.894  0.7398  0.6370  0.2166
              Bcc     0.1675    89.367    31.888    29.810 -0.3431  0.0803  0.9359
 
              Baa    -0.2955  -157.682   -56.265   -52.597  0.3735  0.7484  0.5481
    18 H(1)   Bbb     0.1416    75.576    26.968    25.210  0.8084  0.0272 -0.5880
              Bcc     0.1539    82.105    29.297    27.387 -0.4550  0.6627 -0.5948
 
              Baa    -0.2967  -158.324   -56.494   -52.811  0.8618 -0.3180  0.3951
    19 H(1)   Bbb     0.1429    76.221    27.197    25.424 -0.3693  0.1405  0.9186
              Bcc     0.1539    82.103    29.296    27.387  0.3476  0.9376 -0.0037
 
              Baa    -0.2958  -157.813   -56.311   -52.641  0.1827  0.7795 -0.5992
    20 H(1)   Bbb     0.1381    73.675    26.289    24.575  0.6795 -0.5406 -0.4960
              Bcc     0.1577    84.137    30.022    28.065  0.7106  0.3165  0.6284
 
              Baa    -0.2938  -156.777   -55.942   -52.295  0.5849  0.7991  0.1392
    21 H(1)   Bbb     0.1361    72.631    25.917    24.227  0.7357 -0.5949  0.3239
              Bcc     0.1577    84.146    30.025    28.068 -0.3416  0.0870  0.9358
 
              Baa    -0.2816  -150.274   -53.621   -50.126  0.8237 -0.0998 -0.5581
    22 H(1)   Bbb     0.1300    69.369    24.752    23.139 -0.1600  0.9035 -0.3976
              Bcc     0.1516    80.905    28.869    26.987  0.5439  0.4168  0.7283
 
              Baa    -0.2813  -150.105   -53.561   -50.070  0.2667  0.0432  0.9628
    23 H(1)   Bbb     0.1300    69.351    24.746    23.133 -0.3272  0.9437  0.0483
              Bcc     0.1514    80.754    28.815    26.937  0.9065  0.3279 -0.2658
 
              Baa    -0.2836  -151.333   -53.999   -50.479  0.1617 -0.4969  0.8526
    24 H(1)   Bbb     0.1339    71.443    25.493    23.831  0.9393 -0.1874 -0.2874
              Bcc     0.1497    79.890    28.507    26.648  0.3026  0.8473  0.4364
 
              Baa    -0.2880  -153.662   -54.831   -51.256  0.1452  0.9701  0.1944
    25 H(1)   Bbb     0.1361    72.606    25.908    24.219  0.9012 -0.0486 -0.4306
              Bcc     0.1519    81.057    28.923    27.038  0.4083 -0.2377  0.8814
 
              Baa    -0.3979  -212.314   -75.759   -70.820 -0.1302 -0.5515  0.8240
    26 H(1)   Bbb     0.1569    83.708    29.869    27.922 -0.6295  0.6880  0.3611
              Bcc     0.2410   128.606    45.890    42.898  0.7660  0.4717  0.4367
 

 ---------------------------------------------------------------------------------

 No NMR shielding tensors so no spin-rotation constants.
 Leave Link  601 at Sat Feb 17 21:07:30 2018, MaxMem=   33554432 cpu:       0.6
 Merz-Kollman atomic radii used.
 Read replacement radii for each type of atom:
 Atom Element Radius
    1     6    1.50
    2     6    1.50
    3     6    1.50
    4     6    1.50
    5     6    1.50
    6     6    1.50
    7     6    1.50
    8     6    1.50
    9     6    1.50
   10     6    1.50
   11     7    1.50
   12     8    1.40
   13     8    1.40
   14     1    1.20
   15     1    1.20
   16     1    1.20
   17     1    1.20
   18     1    1.20
   19     1    1.20
   20     1    1.20
   21     1    1.20
   22     1    1.20
   23     1    1.20
   24     1    1.20
   25     1    1.20
   26     1    1.20
 Generate VDW surfaces: Layer= 4 Dens= 1 Start= 1.400 Inc= 0.200

 **********************************************************************

            Electrostatic Properties Using The SCF Density

 **********************************************************************

       Atomic Center    1 is at   2.330527 -1.961843  0.418409
       Atomic Center    2 is at   1.024165 -2.194079 -0.029120
       Atomic Center    3 is at   2.832639 -0.669679  0.489861
       Atomic Center    4 is at   0.720873  0.189739 -0.341838
       Atomic Center    5 is at   0.218299 -1.120367 -0.408144
       Atomic Center    6 is at   2.024666  0.414146  0.106992
       Atomic Center    7 is at  -2.778215  0.339263  0.038156
       Atomic Center    8 is at  -3.748423  0.660820  1.165927
       Atomic Center    9 is at   1.841681  2.778559 -0.181003
       Atomic Center   10 is at  -1.207132 -1.343388 -0.880409
       Atomic Center   11 is at  -2.222133 -0.909368  0.079536
       Atomic Center   12 is at  -2.529877  1.149755 -0.849374
       Atomic Center   13 is at   2.605605  1.645461  0.205259
       Atomic Center   14 is at   2.959933 -2.798033  0.711757
       Atomic Center   15 is at   0.639742 -3.209760 -0.086571
       Atomic Center   16 is at   3.843188 -0.469198  0.831927
       Atomic Center   17 is at   0.077258  1.007766 -0.645029
       Atomic Center   18 is at  -3.339002  1.482759  1.762425
       Atomic Center   19 is at  -4.687712  1.011811  0.729071
       Atomic Center   20 is at  -3.956783 -0.186839  1.826287
       Atomic Center   21 is at   2.490114  3.642711 -0.024799
       Atomic Center   22 is at   0.937899  2.885356  0.432725
       Atomic Center   23 is at   1.550669  2.727731 -1.238126
       Atomic Center   24 is at  -1.401085 -0.778514 -1.795625
       Atomic Center   25 is at  -1.371375 -2.405070 -1.094226
       Atomic Center   26 is at  -2.348213 -1.465902  0.913367
      ESP Fit Center   27 is at   2.330527 -1.961843  2.518409
      ESP Fit Center   28 is at   3.380527 -1.961843  2.237063
      ESP Fit Center   29 is at   1.280527 -1.961843  2.237063
      ESP Fit Center   30 is at   1.805527 -2.871169  2.237063
      ESP Fit Center   31 is at   4.149181 -1.961843 -0.631591
      ESP Fit Center   32 is at   3.380527 -1.961843 -1.400244
      ESP Fit Center   33 is at   2.855527 -2.871169 -1.400244
      ESP Fit Center   34 is at   2.330527 -1.961843 -1.681591
      ESP Fit Center   35 is at   1.024165 -2.194079  2.070880
      ESP Fit Center   36 is at   0.499165 -1.284753  1.789533
      ESP Fit Center   37 is at  -0.025835 -2.194079  1.789533
      ESP Fit Center   38 is at   0.499165 -3.103406  1.789533
      ESP Fit Center   39 is at  -0.720821 -2.706453  1.020880
      ESP Fit Center   40 is at   2.074165 -2.194079 -1.847774
      ESP Fit Center   41 is at   0.499165 -3.103406 -1.847774
      ESP Fit Center   42 is at   1.549165 -3.103406 -1.847774
      ESP Fit Center   43 is at   1.024165 -2.194079 -2.129120
      ESP Fit Center   44 is at   2.832639 -0.669679  2.589861
      ESP Fit Center   45 is at   3.357639  0.239648  2.308515
      ESP Fit Center   46 is at   2.307639  0.239648  2.308515
      ESP Fit Center   47 is at   1.782639 -0.669679  2.308515
      ESP Fit Center   48 is at   3.357639 -1.579006  2.308515
      ESP Fit Center   49 is at   4.362587 -1.652917 -0.560139
      ESP Fit Center   50 is at   3.882639 -0.669679 -1.328792
      ESP Fit Center   51 is at   2.832639 -0.669679 -1.610139
      ESP Fit Center   52 is at   0.720873  0.189739  1.758162
      ESP Fit Center   53 is at   0.195873  1.099066  1.476816
      ESP Fit Center   54 is at  -0.329127  0.189739  1.476816
      ESP Fit Center   55 is at   1.770873  0.189739 -2.160491
      ESP Fit Center   56 is at   1.245873  1.099066 -2.160491
      ESP Fit Center   57 is at   0.720873  0.189739 -2.441838
      ESP Fit Center   58 is at   0.218299 -1.120367  1.691856
      ESP Fit Center   59 is at   1.268299 -1.120367 -2.226797
      ESP Fit Center   60 is at   0.743299 -2.029693 -2.226797
      ESP Fit Center   61 is at   0.218299 -1.120367 -2.508144
      ESP Fit Center   62 is at   2.024666  0.414146  2.206992
      ESP Fit Center   63 is at   1.499666  1.323472  1.925645
      ESP Fit Center   64 is at   0.974666  0.414146  1.925645
      ESP Fit Center   65 is at   3.074666  0.414146 -1.711661
      ESP Fit Center   66 is at   2.549666 -0.495181 -1.711661
      ESP Fit Center   67 is at   2.024666  0.414146 -1.993008
      ESP Fit Center   68 is at  -1.728215  0.339263  1.856810
      ESP Fit Center   69 is at  -1.248267  1.322501  1.088156
      ESP Fit Center   70 is at  -4.350088 -1.053295  0.038156
      ESP Fit Center   71 is at  -4.523200  0.851637 -1.011844
      ESP Fit Center   72 is at  -4.523200 -0.173111 -1.011844
      ESP Fit Center   73 is at  -3.303215 -0.570064 -1.780497
      ESP Fit Center   74 is at  -3.748423  0.660820  3.265927
      ESP Fit Center   75 is at  -1.929770  0.660820  2.215927
      ESP Fit Center   76 is at  -4.939388  2.035266  2.215927
      ESP Fit Center   77 is at  -5.493408  1.173194  2.215927
      ESP Fit Center   78 is at  -2.218474 -0.322419  2.215927
      ESP Fit Center   79 is at  -4.493093  2.624354  1.165927
      ESP Fit Center   80 is at  -4.007244  2.460962  0.115927
      ESP Fit Center   81 is at  -4.939388 -0.713627  0.115927
      ESP Fit Center   82 is at   1.841681  2.778559  1.918997
      ESP Fit Center   83 is at   1.097010  4.742093 -0.181003
      ESP Fit Center   84 is at   3.660334  2.778559 -1.231003
      ESP Fit Center   85 is at   1.582859  4.578701 -1.231003
      ESP Fit Center   86 is at   0.650716  4.153006 -1.231003
      ESP Fit Center   87 is at  -2.952117 -1.855762 -1.930409
      ESP Fit Center   88 is at  -0.682132 -2.252714 -2.699063
      ESP Fit Center   89 is at  -1.697133 -0.000041  1.898189
      ESP Fit Center   90 is at  -4.261111 -1.411930  0.079536
      ESP Fit Center   91 is at  -3.794006 -2.301925  0.079536
      ESP Fit Center   92 is at  -2.966804 -2.872902  0.079536
      ESP Fit Center   93 is at  -3.967118 -1.421741 -0.970464
      ESP Fit Center   94 is at  -3.413098 -2.283814 -0.970464
      ESP Fit Center   95 is at  -3.272133 -0.909368 -1.739118
      ESP Fit Center   96 is at  -1.156643  2.147468  0.130626
      ESP Fit Center   97 is at  -2.005348  2.764088  0.130626
      ESP Fit Center   98 is at  -3.054405  2.764088  0.130626
      ESP Fit Center   99 is at  -1.549877  2.847165 -0.849374
      ESP Fit Center  100 is at  -2.529877  3.109755 -0.849374
      ESP Fit Center  101 is at  -3.509877  2.847165 -0.849374
      ESP Fit Center  102 is at  -4.227286  2.129755 -0.849374
      ESP Fit Center  103 is at  -1.156643  2.147468 -1.829374
      ESP Fit Center  104 is at  -2.005348  2.764088 -1.829374
      ESP Fit Center  105 is at  -3.054405  2.764088 -1.829374
      ESP Fit Center  106 is at  -3.903110  2.147468 -1.829374
      ESP Fit Center  107 is at  -4.227286  1.149755 -1.829374
      ESP Fit Center  108 is at  -3.903110  0.152043 -1.829374
      ESP Fit Center  109 is at  -1.549877  1.149755 -2.546784
      ESP Fit Center  110 is at  -2.039877  1.998460 -2.546784
      ESP Fit Center  111 is at  -3.019877  1.998460 -2.546784
      ESP Fit Center  112 is at  -3.509877  1.149755 -2.546784
      ESP Fit Center  113 is at  -3.019877  0.301050 -2.546784
      ESP Fit Center  114 is at  -2.529877  1.149755 -2.809374
      ESP Fit Center  115 is at   2.605605  1.645461  2.165259
      ESP Fit Center  116 is at   3.585605  1.645461  1.902669
      ESP Fit Center  117 is at   3.095605  2.494166  1.902669
      ESP Fit Center  118 is at   2.115605  2.494166  1.902669
      ESP Fit Center  119 is at   1.625605  1.645461  1.902669
      ESP Fit Center  120 is at   4.303015  1.645461  1.185259
      ESP Fit Center  121 is at   3.978838  2.643173  1.185259
      ESP Fit Center  122 is at   4.565605  1.645461  0.205259
      ESP Fit Center  123 is at   4.303015  2.625461  0.205259
      ESP Fit Center  124 is at   4.303015  1.645461 -0.774741
      ESP Fit Center  125 is at   3.978838  2.643173 -0.774741
      ESP Fit Center  126 is at   3.978838  0.647748 -0.774741
      ESP Fit Center  127 is at   3.585605  1.645461 -1.492151
      ESP Fit Center  128 is at   2.959933 -2.798033  2.391757
      ESP Fit Center  129 is at   3.947412 -2.798033  2.070906
      ESP Fit Center  130 is at   2.161045 -3.378459  2.070906
      ESP Fit Center  131 is at   3.265080 -3.737182  2.070906
      ESP Fit Center  132 is at   4.557708 -2.798033  1.230906
      ESP Fit Center  133 is at   2.161045 -4.181747  1.230906
      ESP Fit Center  134 is at   3.237383 -4.371534  1.230906
      ESP Fit Center  135 is at   4.183899 -3.825063  1.230906
      ESP Fit Center  136 is at   4.557708 -2.798033  0.192609
      ESP Fit Center  137 is at   2.161045 -4.181747  0.192609
      ESP Fit Center  138 is at   3.237383 -4.371534  0.192609
      ESP Fit Center  139 is at   4.183899 -3.825063  0.192609
      ESP Fit Center  140 is at   3.947412 -2.798033 -0.647391
      ESP Fit Center  141 is at   3.265080 -3.737182 -0.647391
      ESP Fit Center  142 is at  -0.159146 -3.790186  1.272577
      ESP Fit Center  143 is at   0.944890 -4.148909  1.272577
      ESP Fit Center  144 is at  -0.861676 -3.756231  0.432577
      ESP Fit Center  145 is at  -0.159146 -4.593474  0.432577
      ESP Fit Center  146 is at   0.917192 -4.783261  0.432577
      ESP Fit Center  147 is at   1.863708 -4.236790  0.432577
      ESP Fit Center  148 is at  -0.159146 -4.593474 -0.605720
      ESP Fit Center  149 is at   0.917192 -4.783261 -0.605720
      ESP Fit Center  150 is at   1.863708 -4.236790 -0.605720
      ESP Fit Center  151 is at  -0.159146 -3.790186 -1.445720
      ESP Fit Center  152 is at   0.944890 -4.148909 -1.445720
      ESP Fit Center  153 is at   3.843188 -0.469198  2.511927
      ESP Fit Center  154 is at   4.830668 -0.469198  2.191076
      ESP Fit Center  155 is at   4.148336  0.469951  2.191076
      ESP Fit Center  156 is at   4.148336 -1.408347  2.191076
      ESP Fit Center  157 is at   5.440963 -0.469198  1.351076
      ESP Fit Center  158 is at   5.067155  0.557832  1.351076
      ESP Fit Center  159 is at   4.120639  1.104303  1.351076
      ESP Fit Center  160 is at   5.067155 -1.496228  1.351076
      ESP Fit Center  161 is at   5.440963 -0.469198  0.312779
      ESP Fit Center  162 is at   5.067155  0.557832  0.312779
      ESP Fit Center  163 is at   5.067155 -1.496228  0.312779
      ESP Fit Center  164 is at   4.830668 -0.469198 -0.527221
      ESP Fit Center  165 is at  -0.721630  1.588192  0.714119
      ESP Fit Center  166 is at  -0.721630  2.391480 -0.125881
      ESP Fit Center  167 is at  -0.721630  2.391480 -1.164178
      ESP Fit Center  168 is at  -0.721630  1.588192 -2.004178
      ESP Fit Center  169 is at   0.077258  1.007766 -2.325029
      ESP Fit Center  170 is at  -3.339002  1.482759  3.442425
      ESP Fit Center  171 is at  -2.351523  1.482759  3.121574
      ESP Fit Center  172 is at  -3.033854  2.421907  3.121574
      ESP Fit Center  173 is at  -4.137889  2.063184  3.121574
      ESP Fit Center  174 is at  -1.741227  1.482759  2.281574
      ESP Fit Center  175 is at  -2.115035  2.509788  2.281574
      ESP Fit Center  176 is at  -3.061551  3.056260  2.281574
      ESP Fit Center  177 is at  -4.137889  2.866472  2.281574
      ESP Fit Center  178 is at  -2.115035  2.509788  1.243277
      ESP Fit Center  179 is at  -3.061551  3.056260  1.243277
      ESP Fit Center  180 is at  -4.137889  2.866472  1.243277
      ESP Fit Center  181 is at  -5.486600  1.592237  2.088219
      ESP Fit Center  182 is at  -5.486600  2.395525  1.248219
      ESP Fit Center  183 is at  -6.189130  1.558282  1.248219
      ESP Fit Center  184 is at  -6.189130  0.465340  1.248219
      ESP Fit Center  185 is at  -4.410262  2.585312  0.209922
      ESP Fit Center  186 is at  -5.486600  2.395525  0.209922
      ESP Fit Center  187 is at  -6.189130  1.558282  0.209922
      ESP Fit Center  188 is at  -6.189130  0.465340  0.209922
      ESP Fit Center  189 is at  -5.486600 -0.371903  0.209922
      ESP Fit Center  190 is at  -4.382564  1.950959 -0.630078
      ESP Fit Center  191 is at  -5.486600  1.592237 -0.630078
      ESP Fit Center  192 is at  -5.486600  0.431385 -0.630078
      ESP Fit Center  193 is at  -4.687712  1.011811 -0.950929
      ESP Fit Center  194 is at  -3.956783 -0.186839  3.506287
      ESP Fit Center  195 is at  -2.969304 -0.186839  3.185435
      ESP Fit Center  196 is at  -4.755671  0.393587  3.185435
      ESP Fit Center  197 is at  -4.755671 -0.767265  3.185435
      ESP Fit Center  198 is at  -3.651635 -1.125988  3.185435
      ESP Fit Center  199 is at  -5.458201 -0.733310  2.345435
      ESP Fit Center  200 is at  -4.755671 -1.570553  2.345435
      ESP Fit Center  201 is at  -3.679333 -1.760340  2.345435
      ESP Fit Center  202 is at  -5.458201 -0.733310  1.307138
      ESP Fit Center  203 is at  -4.755671 -1.570553  1.307138
      ESP Fit Center  204 is at   2.490114  3.642711  1.655201
      ESP Fit Center  205 is at   3.477593  3.642711  1.334350
      ESP Fit Center  206 is at   2.795261  4.581859  1.334350
      ESP Fit Center  207 is at   4.087889  3.642711  0.494350
      ESP Fit Center  208 is at   3.714080  4.669741  0.494350
      ESP Fit Center  209 is at   2.767564  5.216212  0.494350
      ESP Fit Center  210 is at   1.691226  5.026424  0.494350
      ESP Fit Center  211 is at   4.087889  3.642711 -0.543947
      ESP Fit Center  212 is at   3.714080  4.669741 -0.543947
      ESP Fit Center  213 is at   2.767564  5.216212 -0.543947
      ESP Fit Center  214 is at   1.691226  5.026424 -0.543947
      ESP Fit Center  215 is at   3.477593  3.642711 -1.383947
      ESP Fit Center  216 is at   2.795261  4.581859 -1.383947
      ESP Fit Center  217 is at   0.937899  2.885356  2.112725
      ESP Fit Center  218 is at   1.243047  3.824505  1.791874
      ESP Fit Center  219 is at   0.139012  3.465782  1.791874
      ESP Fit Center  220 is at   0.139012  2.304931  1.791874
      ESP Fit Center  221 is at   1.243047  1.946208  1.791874
      ESP Fit Center  222 is at   1.215350  4.458857  0.951874
      ESP Fit Center  223 is at   0.139012  4.269070  0.951874
      ESP Fit Center  224 is at  -0.563518  3.431827  0.951874
      ESP Fit Center  225 is at  -0.563518  2.338885  0.951874
      ESP Fit Center  226 is at   0.139012  4.269070 -0.086423
      ESP Fit Center  227 is at  -0.563518  3.431827 -0.086423
      ESP Fit Center  228 is at   1.828120  4.301232 -1.757274
      ESP Fit Center  229 is at   0.751781  4.111445 -1.757274
      ESP Fit Center  230 is at   0.049252  3.274202 -1.757274
      ESP Fit Center  231 is at   2.774636  1.700701 -1.757274
      ESP Fit Center  232 is at   2.538148  2.727731 -2.597274
      ESP Fit Center  233 is at   1.855817  3.666879 -2.597274
      ESP Fit Center  234 is at   0.751781  3.308157 -2.597274
      ESP Fit Center  235 is at   0.751781  2.147305 -2.597274
      ESP Fit Center  236 is at   1.855817  1.788582 -2.597274
      ESP Fit Center  237 is at   1.550669  2.727731 -2.918126
      ESP Fit Center  238 is at  -0.177118  0.248516 -2.314773
      ESP Fit Center  239 is at  -1.123634  0.794987 -2.314773
      ESP Fit Center  240 is at  -2.902502 -0.232043 -2.314773
      ESP Fit Center  241 is at  -2.902502 -1.324985 -2.314773
      ESP Fit Center  242 is at  -0.413606 -0.778514 -3.154773
      ESP Fit Center  243 is at  -1.095937  0.160635 -3.154773
      ESP Fit Center  244 is at  -2.199973 -0.198088 -3.154773
      ESP Fit Center  245 is at  -2.199973 -1.358940 -3.154773
      ESP Fit Center  246 is at  -1.095937 -1.717662 -3.154773
      ESP Fit Center  247 is at  -1.401085 -0.778514 -3.475625
      ESP Fit Center  248 is at  -1.066227 -3.344219  0.264923
      ESP Fit Center  249 is at  -2.872792 -2.951542 -0.575077
      ESP Fit Center  250 is at  -2.170262 -3.788784 -0.575077
      ESP Fit Center  251 is at  -1.093924 -3.978572 -0.575077
      ESP Fit Center  252 is at  -2.872792 -2.951542 -1.613374
      ESP Fit Center  253 is at  -2.170262 -3.788784 -1.613374
      ESP Fit Center  254 is at  -1.093924 -3.978572 -1.613374
      ESP Fit Center  255 is at  -0.147408 -3.432100 -1.613374
      ESP Fit Center  256 is at  -2.170262 -2.985496 -2.453374
      ESP Fit Center  257 is at  -1.066227 -3.344219 -2.453374
      ESP Fit Center  258 is at  -1.371375 -2.405070 -2.774226
      ESP Fit Center  259 is at  -2.348213 -1.465902  2.593367
      ESP Fit Center  260 is at  -1.360734 -1.465902  2.272516
      ESP Fit Center  261 is at  -2.043066 -0.526753  2.272516
      ESP Fit Center  262 is at  -3.147101 -2.046328  2.272516
      ESP Fit Center  263 is at  -2.043066 -2.405050  2.272516
      ESP Fit Center  264 is at  -3.849631 -2.012373  1.432516
      ESP Fit Center  265 is at  -3.147101 -2.849615  1.432516
      ESP Fit Center  266 is at  -2.070763 -3.039403  1.432516
      ESP Fit Center  267 is at  -1.124247 -2.492932  1.432516
      ESP Fit Center  268 is at  -3.147101 -2.849615  0.394219
      ESP Fit Center  269 is at  -2.070763 -3.039403  0.394219
      ESP Fit Center  270 is at   2.330527 -1.961843  2.818409
      ESP Fit Center  271 is at   3.371848 -1.961843  2.580735
      ESP Fit Center  272 is at   1.289206 -1.961843  2.580735
      ESP Fit Center  273 is at   1.809867 -2.863653  2.580735
      ESP Fit Center  274 is at   4.206923 -1.961843 -1.077966
      ESP Fit Center  275 is at   3.110010 -3.668672 -1.077966
      ESP Fit Center  276 is at   3.909052 -2.976299 -1.077966
      ESP Fit Center  277 is at   3.371848 -1.961843 -1.743916
      ESP Fit Center  278 is at   2.851188 -2.863653 -1.743916
      ESP Fit Center  279 is at   0.503504 -1.292269  2.133205
      ESP Fit Center  280 is at  -0.017156 -2.194079  2.133205
      ESP Fit Center  281 is at   0.503504 -3.095890  2.133205
      ESP Fit Center  282 is at  -0.776224 -2.722721  1.467255
      ESP Fit Center  283 is at   1.803647 -3.900909 -1.525496
      ESP Fit Center  284 is at   2.065486 -2.194079 -2.191445
      ESP Fit Center  285 is at   0.503504 -3.095890 -2.191445
      ESP Fit Center  286 is at   1.544825 -3.095890 -2.191445
      ESP Fit Center  287 is at   1.024165 -2.194079 -2.429120
      ESP Fit Center  288 is at   2.832639 -0.669679  2.889861
      ESP Fit Center  289 is at   3.353299  0.232131  2.652187
      ESP Fit Center  290 is at   2.311978  0.232131  2.652187
      ESP Fit Center  291 is at   1.791318 -0.669679  2.652187
      ESP Fit Center  292 is at   3.353299 -1.571489  2.652187
      ESP Fit Center  293 is at   4.709034 -0.669679 -1.006514
      ESP Fit Center  294 is at   4.411163  0.344777 -1.006514
      ESP Fit Center  295 is at   4.411163 -1.684135 -1.006514
      ESP Fit Center  296 is at   3.873960 -0.669679 -1.672464
      ESP Fit Center  297 is at   2.832639 -0.669679 -1.910139
      ESP Fit Center  298 is at   0.200213  1.091550  1.820488
      ESP Fit Center  299 is at  -0.320448  0.189739  1.820488
      ESP Fit Center  300 is at  -0.507905  1.607825  1.154538
      ESP Fit Center  301 is at   1.762194  0.189739 -2.504163
      ESP Fit Center  302 is at   1.241534  1.091550 -2.504163
      ESP Fit Center  303 is at   0.720873  0.189739 -2.741838
      ESP Fit Center  304 is at   0.218299 -1.120367  1.991856
      ESP Fit Center  305 is at   2.094695 -1.120367 -1.904520
      ESP Fit Center  306 is at   1.259620 -1.120367 -2.570469
      ESP Fit Center  307 is at   0.738960 -2.022177 -2.570469
      ESP Fit Center  308 is at   0.218299 -1.120367 -2.808144
      ESP Fit Center  309 is at   2.024666  0.414146  2.506992
      ESP Fit Center  310 is at   1.504005  1.315956  2.269317
      ESP Fit Center  311 is at   0.983345  0.414146  2.269317
      ESP Fit Center  312 is at   3.901061  0.414146 -1.389384
      ESP Fit Center  313 is at   3.065987  0.414146 -2.055333
      ESP Fit Center  314 is at   2.545326 -0.487665 -2.055333
      ESP Fit Center  315 is at  -1.199691  1.353719  1.534532
      ESP Fit Center  316 is at  -4.886327 -0.675950 -0.495894
      ESP Fit Center  317 is at  -4.578604 -0.189379 -1.458219
      ESP Fit Center  318 is at  -3.298876 -0.562548 -2.124169
      ESP Fit Center  319 is at  -3.748423  0.660820  3.565927
      ESP Fit Center  320 is at  -4.977201  2.078905  2.662303
      ESP Fit Center  321 is at  -5.548811  1.189461  2.662303
      ESP Fit Center  322 is at  -2.169899 -0.353636  2.662303
      ESP Fit Center  323 is at  -4.269083  2.941982  0.631877
      ESP Fit Center  324 is at  -5.207281 -1.168531  0.631877
      ESP Fit Center  325 is at  -4.977201 -0.757265 -0.330448
      ESP Fit Center  326 is at   1.841681  2.778559  2.218997
      ESP Fit Center  327 is at   2.362341  3.680370  1.981322
      ESP Fit Center  328 is at   1.321020  5.059722 -0.715053
      ESP Fit Center  329 is at   0.382822  4.607910 -0.715053
      ESP Fit Center  330 is at   3.718076  2.778559 -1.677378
      ESP Fit Center  331 is at   1.574642  4.635856 -1.677378
      ESP Fit Center  332 is at  -3.007520 -1.872029 -2.376785
      ESP Fit Center  333 is at  -1.727792 -2.245198 -3.042735
      ESP Fit Center  334 is at  -0.686471 -2.245198 -3.042735
      ESP Fit Center  335 is at  -1.701473 -0.007557  2.241861
      ESP Fit Center  336 is at  -4.330245 -1.924580  0.613586
      ESP Fit Center  337 is at  -4.330245 -1.924580 -0.454515
      ESP Fit Center  338 is at  -3.680992 -2.738718 -0.454515
      ESP Fit Center  339 is at  -4.022522 -1.438009 -1.416840
      ESP Fit Center  340 is at  -3.450911 -2.327453 -1.416840
      ESP Fit Center  341 is at  -1.113043  2.179145  0.547243
      ESP Fit Center  342 is at  -1.988694  2.815343  0.547243
      ESP Fit Center  343 is at  -1.289315  2.947019 -0.350927
      ESP Fit Center  344 is at  -2.266644  3.317671 -0.350927
      ESP Fit Center  345 is at  -3.304276  3.191680 -0.350927
      ESP Fit Center  346 is at  -4.164503  2.597908 -0.350927
      ESP Fit Center  347 is at  -1.289315  2.947019 -1.347821
      ESP Fit Center  348 is at  -2.266644  3.317671 -1.347821
      ESP Fit Center  349 is at  -3.304276  3.191680 -1.347821
      ESP Fit Center  350 is at  -4.164503  2.597908 -1.347821
      ESP Fit Center  351 is at  -4.650257  1.672382 -1.347821
      ESP Fit Center  352 is at  -1.113043  2.179145 -2.245991
      ESP Fit Center  353 is at  -1.988694  2.815343 -2.245991
      ESP Fit Center  354 is at  -3.071059  2.815343 -2.245991
      ESP Fit Center  355 is at  -3.946710  2.179145 -2.245991
      ESP Fit Center  356 is at  -4.281179  1.149755 -2.245991
      ESP Fit Center  357 is at  -3.946710  0.120365 -2.245991
      ESP Fit Center  358 is at  -1.557977  1.149755 -2.867545
      ESP Fit Center  359 is at  -2.043927  1.991445 -2.867545
      ESP Fit Center  360 is at  -3.015826  1.991445 -2.867545
      ESP Fit Center  361 is at  -3.501776  1.149755 -2.867545
      ESP Fit Center  362 is at  -3.015826  0.308065 -2.867545
      ESP Fit Center  363 is at  -2.529877  1.149755 -3.089374
      ESP Fit Center  364 is at   2.605605  1.645461  2.445259
      ESP Fit Center  365 is at   3.577505  1.645461  2.223429
      ESP Fit Center  366 is at   3.091555  2.487151  2.223429
      ESP Fit Center  367 is at   2.119655  2.487151  2.223429
      ESP Fit Center  368 is at   1.633706  1.645461  2.223429
      ESP Fit Center  369 is at   4.356908  1.645461  1.601876
      ESP Fit Center  370 is at   4.022439  2.674851  1.601876
      ESP Fit Center  371 is at   4.789444  1.645461  0.703706
      ESP Fit Center  372 is at   4.539298  2.660341  0.703706
      ESP Fit Center  373 is at   4.789444  1.645461 -0.293188
      ESP Fit Center  374 is at   4.539298  2.660341 -0.293188
      ESP Fit Center  375 is at   4.356908  1.645461 -1.191358
      ESP Fit Center  376 is at   4.022439  2.674851 -1.191358
      ESP Fit Center  377 is at   3.577505  1.645461 -1.812911
      ESP Fit Center  378 is at   2.959933 -2.798033  2.631757
      ESP Fit Center  379 is at   3.919933 -2.798033  2.374526
      ESP Fit Center  380 is at   2.479933 -3.629418  2.374526
      ESP Fit Center  381 is at   3.439933 -3.629418  2.374526
      ESP Fit Center  382 is at   4.622701 -2.798033  1.671757
      ESP Fit Center  383 is at   2.446109 -4.379420  1.671757
      ESP Fit Center  384 is at   3.473756 -4.379420  1.671757
      ESP Fit Center  385 is at   4.305141 -3.775384  1.671757
      ESP Fit Center  386 is at   4.879933 -2.798033  0.711757
      ESP Fit Center  387 is at   1.999933 -4.460802  0.711757
      ESP Fit Center  388 is at   2.959933 -4.718033  0.711757
      ESP Fit Center  389 is at   3.919933 -4.460802  0.711757
      ESP Fit Center  390 is at   4.622701 -3.758033  0.711757
      ESP Fit Center  391 is at   4.622701 -2.798033 -0.248243
      ESP Fit Center  392 is at   2.446109 -4.379420 -0.248243
      ESP Fit Center  393 is at   3.473756 -4.379420 -0.248243
      ESP Fit Center  394 is at   4.305141 -3.775384 -0.248243
      ESP Fit Center  395 is at   3.439933 -3.629418 -0.951012
      ESP Fit Center  396 is at   0.159742 -4.041144  1.576198
      ESP Fit Center  397 is at   1.119742 -4.041144  1.576198
      ESP Fit Center  398 is at  -1.023027 -3.209760  0.873429
      ESP Fit Center  399 is at  -0.705466 -4.187111  0.873429
      ESP Fit Center  400 is at   0.125918 -4.791147  0.873429
      ESP Fit Center  401 is at   1.153566 -4.791147  0.873429
      ESP Fit Center  402 is at  -1.023027 -4.169760 -0.086571
      ESP Fit Center  403 is at  -0.320258 -4.872529 -0.086571
      ESP Fit Center  404 is at   0.639742 -5.129760 -0.086571
      ESP Fit Center  405 is at   1.599742 -4.872529 -0.086571
      ESP Fit Center  406 is at   0.125918 -4.791147 -1.046571
      ESP Fit Center  407 is at   1.153566 -4.791147 -1.046571
      ESP Fit Center  408 is at   1.984950 -4.187111 -1.046571
      ESP Fit Center  409 is at   0.159742 -4.041144 -1.749340
      ESP Fit Center  410 is at   1.119742 -4.041144 -1.749340
      ESP Fit Center  411 is at   3.843188 -0.469198  2.751927
      ESP Fit Center  412 is at   4.803188 -0.469198  2.494696
      ESP Fit Center  413 is at   4.323188  0.362186  2.494696
      ESP Fit Center  414 is at   4.323188 -1.300582  2.494696
      ESP Fit Center  415 is at   5.505957 -0.469198  1.791927
      ESP Fit Center  416 is at   5.188397  0.508153  1.791927
      ESP Fit Center  417 is at   4.357012  1.112189  1.791927
      ESP Fit Center  418 is at   5.188397 -1.446549  1.791927
      ESP Fit Center  419 is at   5.763188 -0.469198  0.831927
      ESP Fit Center  420 is at   5.505957  0.490802  0.831927
      ESP Fit Center  421 is at   4.803188  1.193571  0.831927
      ESP Fit Center  422 is at   4.803188 -2.131967  0.831927
      ESP Fit Center  423 is at   5.505957 -1.429198  0.831927
      ESP Fit Center  424 is at   5.505957 -0.469198 -0.128073
      ESP Fit Center  425 is at   5.188397  0.508153 -0.128073
      ESP Fit Center  426 is at   5.188397 -1.446549 -0.128073
      ESP Fit Center  427 is at  -0.882742  2.670535 -0.645029
      ESP Fit Center  428 is at  -0.436566  2.589153 -1.605029
      ESP Fit Center  429 is at  -0.402742  1.839150 -2.307798
      ESP Fit Center  430 is at   0.077258  1.007766 -2.565029
      ESP Fit Center  431 is at  -3.339002  1.482759  3.682425
      ESP Fit Center  432 is at  -2.379002  1.482759  3.425194
      ESP Fit Center  433 is at  -2.859002  2.314143  3.425194
      ESP Fit Center  434 is at  -3.819002  2.314143  3.425194
      ESP Fit Center  435 is at  -4.299002  1.482759  3.425194
      ESP Fit Center  436 is at  -2.859002  0.651374  3.425194
      ESP Fit Center  437 is at  -1.676233  1.482759  2.722425
      ESP Fit Center  438 is at  -1.993794  2.460109  2.722425
      ESP Fit Center  439 is at  -2.825178  3.064146  2.722425
      ESP Fit Center  440 is at  -3.852826  3.064146  2.722425
      ESP Fit Center  441 is at  -4.684210  2.460109  2.722425
      ESP Fit Center  442 is at  -1.419002  1.482759  1.762425
      ESP Fit Center  443 is at  -1.676233  2.442759  1.762425
      ESP Fit Center  444 is at  -2.379002  3.145527  1.762425
      ESP Fit Center  445 is at  -3.339002  3.402759  1.762425
      ESP Fit Center  446 is at  -4.299002  3.145527  1.762425
      ESP Fit Center  447 is at  -2.825178  3.064146  0.802425
      ESP Fit Center  448 is at  -3.852826  3.064146  0.802425
      ESP Fit Center  449 is at  -5.201536  2.593198  1.689071
      ESP Fit Center  450 is at  -6.032920  1.989162  1.689071
      ESP Fit Center  451 is at  -6.350481  1.011811  1.689071
      ESP Fit Center  452 is at  -6.032920  0.034460  1.689071
      ESP Fit Center  453 is at  -4.687712  2.931811  0.729071
      ESP Fit Center  454 is at  -5.647712  2.674580  0.729071
      ESP Fit Center  455 is at  -6.350481  1.971811  0.729071
      ESP Fit Center  456 is at  -6.607712  1.011811  0.729071
      ESP Fit Center  457 is at  -6.350481  0.051811  0.729071
      ESP Fit Center  458 is at  -4.173888  2.593198 -0.230929
      ESP Fit Center  459 is at  -5.201536  2.593198 -0.230929
      ESP Fit Center  460 is at  -6.032920  1.989162 -0.230929
      ESP Fit Center  461 is at  -6.350481  1.011811 -0.230929
      ESP Fit Center  462 is at  -6.032920  0.034460 -0.230929
      ESP Fit Center  463 is at  -5.167712  1.843195 -0.933698
      ESP Fit Center  464 is at  -5.647712  1.011811 -0.933698
      ESP Fit Center  465 is at  -5.167712  0.180426 -0.933698
      ESP Fit Center  466 is at  -3.956783 -0.186839  3.746287
      ESP Fit Center  467 is at  -2.996783 -0.186839  3.489056
      ESP Fit Center  468 is at  -4.436783  0.644545  3.489056
      ESP Fit Center  469 is at  -4.916783 -0.186839  3.489056
      ESP Fit Center  470 is at  -4.436783 -1.018224  3.489056
      ESP Fit Center  471 is at  -3.476783 -1.018224  3.489056
      ESP Fit Center  472 is at  -5.619552 -0.186839  2.786287
      ESP Fit Center  473 is at  -5.301992 -1.164190  2.786287
      ESP Fit Center  474 is at  -4.470607 -1.768226  2.786287
[...]
  480 Fit       0.019996
  481 Fit      -0.006636
  482 Fit       0.002224
  483 Fit       0.003937
  484 Fit      -0.007129
  485 Fit       0.003004
  486 Fit       0.006857
  487 Fit       0.007562
  488 Fit      -0.005962
  489 Fit       0.003250
  490 Fit       0.007431
  491 Fit       0.008791
  492 Fit       0.009198
  493 Fit      -0.003863
  494 Fit       0.003908
  495 Fit       0.007366
  496 Fit       0.008666
  497 Fit       0.004581
  498 Fit       0.000273
  499 Fit       0.001449
  500 Fit       0.004782
  501 Fit       0.004648
  502 Fit      -0.000723
  503 Fit      -0.009119
  504 Fit       0.006205
  505 Fit       0.005289
  506 Fit       0.003751
  507 Fit       0.000933
  508 Fit       0.005668
  509 Fit       0.000370
  510 Fit      -0.007171
  511 Fit      -0.000622
  512 Fit      -0.012398
  513 Fit       0.000116
  514 Fit      -0.005072
  515 Fit       0.001413
  516 Fit       0.005136
  517 Fit       0.004847
  518 Fit      -0.000010
  519 Fit      -0.006670
  520 Fit      -0.010616
  521 Fit      -0.010059
  522 Fit      -0.000745
  523 Fit       0.002659
  524 Fit       0.002399
  525 Fit      -0.001309
  526 Fit      -0.003054
  527 Fit      -0.003301
  528 Fit       0.000714
  529 Fit      -0.010029
  530 Fit      -0.020655
  531 Fit      -0.010159
  532 Fit      -0.000071
  533 Fit      -0.002410
  534 Fit      -0.007603
  535 Fit      -0.012632
  536 Fit      -0.005235
  537 Fit       0.001078
  538 Fit       0.001460
  539 Fit      -0.002098
  540 Fit       0.019979
  541 Fit       0.021160
  542 Fit       0.011421
  543 Fit       0.015927
  544 Fit       0.017646
  545 Fit       0.002849
  546 Fit       0.009451
  547 Fit       0.012821
  548 Fit       0.012593
  549 Fit       0.006896
  550 Fit       0.004196
  551 Fit       0.008068
  552 Fit       0.007538
  553 Fit       0.033331
  554 Fit       0.023063
  555 Fit       0.024823
  556 Fit       0.036599
  557 Fit       0.031468
  558 Fit       0.006290
  559 Fit       0.034674
  560 Fit       0.034378
  561 Fit       0.031958
  562 Fit       0.021270
  563 Fit       0.023439
  564 Fit       0.027239
  565 Fit       0.030844
  566 Fit       0.029861
  567 Fit      -0.009490
  568 Fit      -0.005065
  569 Fit      -0.011218
  570 Fit      -0.004874
  571 Fit      -0.001686
  572 Fit      -0.014282
  573 Fit      -0.005554
  574 Fit      -0.008515
  575 Fit      -0.018667
  576 Fit      -0.014440
  577 Fit      -0.013335
  578 Fit      -0.002290
  579 Fit      -0.001693
  580 Fit       0.015092
  581 Fit       0.008129
  582 Fit      -0.004157
  583 Fit      -0.018134
  584 Fit      -0.002512
  585 Fit      -0.010050
  586 Fit      -0.012470
  587 Fit      -0.006647
  588 Fit      -0.012534
  589 Fit      -0.015715
  590 Fit      -0.016138
  591 Fit      -0.007298
  592 Fit      -0.005576
  593 Fit      -0.014414
  594 Fit      -0.018940
  595 Fit      -0.013996
  596 Fit      -0.019441
  597 Fit      -0.007639
  598 Fit      -0.006907
  599 Fit      -0.000508
  600 Fit      -0.016938
  601 Fit      -0.010423
  602 Fit      -0.012018
  603 Fit      -0.013326
  604 Fit      -0.024242
  605 Fit      -0.016047
  606 Fit      -0.009080
  607 Fit      -0.012775
  608 Fit      -0.013755
  609 Fit      -0.019916
  610 Fit      -0.017454
  611 Fit      -0.022028
  612 Fit       0.006554
  613 Fit      -0.002803
  614 Fit       0.002486
  615 Fit      -0.010586
  616 Fit       0.013702
  617 Fit       0.013868
  618 Fit       0.012953
  619 Fit       0.009828
  620 Fit       0.010617
  621 Fit       0.019735
  622 Fit       0.007324
  623 Fit       0.011142
  624 Fit       0.000922
  625 Fit      -0.013402
  626 Fit       0.009807
  627 Fit      -0.007456
  628 Fit      -0.003840
  629 Fit       0.003841
  630 Fit       0.006518
  631 Fit       0.006366
  632 Fit       0.006201
  633 Fit       0.003230
  634 Fit      -0.004341
  635 Fit      -0.008151
  636 Fit      -0.000909
  637 Fit       0.003498
  638 Fit       0.000881
  639 Fit      -0.001034
  640 Fit       0.002425
  641 Fit       0.001482
  642 Fit       0.008664
  643 Fit       0.010738
  644 Fit       0.016829
  645 Fit       0.000016
  646 Fit       0.004200
  647 Fit      -0.005465
  648 Fit      -0.012387
  649 Fit      -0.026063
  650 Fit      -0.028591
  651 Fit      -0.024162
  652 Fit      -0.023691
  653 Fit      -0.032439
  654 Fit      -0.035553
  655 Fit      -0.033389
  656 Fit      -0.025731
  657 Fit      -0.015139
  658 Fit      -0.026782
  659 Fit      -0.033833
  660 Fit      -0.037517
  661 Fit      -0.036607
  662 Fit      -0.031311
  663 Fit      -0.024192
  664 Fit      -0.017972
  665 Fit      -0.028617
  666 Fit      -0.035044
  667 Fit      -0.036754
  668 Fit      -0.032591
  669 Fit      -0.025362
  670 Fit      -0.032537
  671 Fit      -0.018188
  672 Fit      -0.020554
  673 Fit      -0.017260
  674 Fit      -0.012004
  675 Fit      -0.020200
  676 Fit      -0.019337
  677 Fit      -0.020537
  678 Fit      -0.019464
  679 Fit      -0.021848
  680 Fit      -0.018208
  681 Fit      -0.020989
  682 Fit      -0.016294
  683 Fit       0.003284
  684 Fit       0.002882
  685 Fit       0.005372
  686 Fit       0.006080
  687 Fit       0.006386
  688 Fit       0.008305
  689 Fit       0.008495
  690 Fit       0.007573
  691 Fit       0.004847
  692 Fit       0.010241
  693 Fit       0.008930
  694 Fit       0.008037
  695 Fit       0.006562
  696 Fit      -0.000752
  697 Fit       0.006339
  698 Fit       0.004947
  699 Fit       0.002912
  700 Fit       0.008506
  701 Fit       0.020571
  702 Fit       0.014722
  703 Fit       0.011777
  704 Fit       0.010197
  705 Fit       0.017404
  706 Fit       0.013697
  707 Fit       0.011064
  708 Fit       0.009176
  709 Fit       0.014621
  710 Fit       0.010305
  711 Fit       0.006214
  712 Fit       0.007609
  713 Fit       0.000446
  714 Fit      -0.007363
  715 Fit      -0.001172
  716 Fit      -0.007688
  717 Fit      -0.000784
  718 Fit       0.001207
  719 Fit      -0.003915
  720 Fit      -0.015014
  721 Fit       0.003418
  722 Fit       0.000080
  723 Fit      -0.004926
  724 Fit      -0.017290
  725 Fit       0.005013
  726 Fit       0.002310
  727 Fit      -0.004556
  728 Fit      -0.010709
  729 Fit      -0.003004
  730 Fit      -0.018083
  731 Fit       0.012240
  732 Fit       0.011605
  733 Fit       0.011050
  734 Fit       0.010827
  735 Fit       0.009393
  736 Fit       0.009065
  737 Fit       0.008662
  738 Fit       0.008265
  739 Fit       0.008461
  740 Fit       0.004485
  741 Fit       0.002828
  742 Fit       0.002265
  743 Fit       0.002951
  744 Fit      -0.014820
  745 Fit      -0.010180
  746 Fit       0.007449
  747 Fit       0.009480
  748 Fit       0.010906
  749 Fit       0.001370
  750 Fit       0.005699
  751 Fit       0.008307
  752 Fit       0.009560
  753 Fit       0.010402
  754 Fit      -0.010508
  755 Fit      -0.000332
  756 Fit       0.004581
  757 Fit       0.006590
  758 Fit       0.007309
  759 Fit      -0.012407
  760 Fit      -0.001784
  761 Fit      -0.000218
  762 Fit       0.015678
  763 Fit       0.016895
  764 Fit       0.014589
  765 Fit       0.018202
  766 Fit       0.020715
  767 Fit       0.014522
  768 Fit       0.018173
  769 Fit       0.023908
  770 Fit       0.031577
  771 Fit       0.012929
  772 Fit       0.015869
  773 Fit       0.021796
  774 Fit       0.013873
  775 Fit      -0.007640
  776 Fit       0.000834
  777 Fit       0.002823
  778 Fit      -0.008231
  779 Fit       0.000686
  780 Fit       0.004508
  781 Fit       0.005730
  782 Fit      -0.007149
  783 Fit       0.000970
  784 Fit       0.004896
  785 Fit       0.006510
  786 Fit       0.006982
  787 Fit      -0.005057
  788 Fit       0.001731
  789 Fit       0.005026
  790 Fit       0.006355
  791 Fit       0.003132
  792 Fit      -0.000783
  793 Fit       0.000508
  794 Fit       0.003504
  795 Fit       0.003544
  796 Fit      -0.001871
  797 Fit       0.004885
  798 Fit       0.004115
  799 Fit       0.002868
  800 Fit       0.002454
  801 Fit       0.005011
  802 Fit       0.000484
  803 Fit      -0.007281
  804 Fit      -0.012264
  805 Fit       0.003418
  806 Fit       0.003565
  807 Fit      -0.000064
  808 Fit      -0.007610
  809 Fit      -0.011369
  810 Fit      -0.002221
  811 Fit       0.001014
  812 Fit       0.000289
  813 Fit      -0.003917
  814 Fit      -0.005275
  815 Fit      -0.005072
  816 Fit      -0.001257
  817 Fit      -0.017622
  818 Fit      -0.019461
  819 Fit      -0.005210
  820 Fit      -0.004078
  821 Fit      -0.009025
  822 Fit      -0.013871
  823 Fit      -0.006478
  824 Fit      -0.000045
  825 Fit       0.000086
  826 Fit      -0.003643
  827 Fit       0.019229
  828 Fit       0.019330
  829 Fit       0.011992
  830 Fit       0.014458
  831 Fit       0.015712
  832 Fit       0.004721
  833 Fit       0.009216
  834 Fit       0.010952
  835 Fit       0.009894
  836 Fit       0.006355
  837 Fit       0.005652
  838 Fit       0.027797
  839 Fit       0.017985
  840 Fit       0.020387
  841 Fit       0.030740
  842 Fit       0.025737
  843 Fit       0.029096
  844 Fit       0.028639
  845 Fit       0.025260
  846 Fit       0.013918
  847 Fit       0.021111
  848 Fit       0.024284
  849 Fit       0.026629
  850 Fit      -0.007272
  851 Fit      -0.004488
  852 Fit      -0.007972
  853 Fit      -0.003531
  854 Fit      -0.001714
  855 Fit      -0.000602
  856 Fit       0.002287
  857 Fit       0.000963
  858 Fit      -0.004007
  859 Fit      -0.013090
  860 Fit      -0.006059
  861 Fit      -0.008544
  862 Fit      -0.016071
  863 Fit      -0.012621
  864 Fit      -0.009456
  865 Fit      -0.000357
  866 Fit      -0.000387
  867 Fit       0.013836
  868 Fit       0.007529
  869 Fit       0.004472
  870 Fit       0.005885
  871 Fit       0.001484
  872 Fit      -0.004103
  873 Fit      -0.010308
  874 Fit      -0.014696
  875 Fit      -0.002462
  876 Fit      -0.008290
  877 Fit      -0.009973
  878 Fit      -0.006231
  879 Fit      -0.010576
  880 Fit      -0.012621
  881 Fit      -0.012297
  882 Fit      -0.006149
  883 Fit      -0.015155
  884 Fit      -0.008740
  885 Fit      -0.013334
  886 Fit      -0.007227
  887 Fit      -0.013538
  888 Fit      -0.016841
  889 Fit      -0.012994
  890 Fit      -0.017002
  891 Fit      -0.005867
  892 Fit      -0.004011
  893 Fit       0.000829
  894 Fit      -0.020084
  895 Fit      -0.014169
  896 Fit      -0.009774
  897 Fit      -0.011516
  898 Fit      -0.011575
  899 Fit      -0.019501
  900 Fit      -0.013034
  901 Fit      -0.007558
  902 Fit      -0.010849
  903 Fit      -0.011009
  904 Fit      -0.016924
  905 Fit      -0.015234
  906 Fit      -0.018701
  907 Fit      -0.002345
  908 Fit      -0.001316
  909 Fit      -0.012192
  910 Fit       0.012359
  911 Fit       0.012325
  912 Fit       0.010778
  913 Fit       0.011791
  914 Fit       0.011048
  915 Fit       0.009101
  916 Fit       0.009851
  917 Fit       0.016342
  918 Fit       0.007047
  919 Fit       0.006935
  920 Fit       0.007825
  921 Fit       0.009282
  922 Fit       0.010945
  923 Fit       0.011685
  924 Fit      -0.010567
  925 Fit      -0.005134
  926 Fit       0.009594
  927 Fit       0.011500
  928 Fit       0.006746
  929 Fit      -0.006732
  930 Fit      -0.004105
  931 Fit       0.002259
  932 Fit       0.005159
  933 Fit       0.003471
  934 Fit       0.004722
  935 Fit       0.001980
  936 Fit      -0.004185
  937 Fit      -0.011182
  938 Fit       0.004127
  939 Fit       0.002127
  940 Fit      -0.003207
  941 Fit      -0.006806
  942 Fit      -0.001509
  943 Fit       0.001866
  944 Fit      -0.011584
  945 Fit      -0.002754
  946 Fit      -0.001560
  947 Fit      -0.004171
  948 Fit       0.001055
  949 Fit       0.000164
  950 Fit      -0.000862
  951 Fit       0.013567
  952 Fit       0.016310
  953 Fit       0.020278
  954 Fit       0.005495
  955 Fit       0.008714
  956 Fit      -0.001158
  957 Fit       0.000824
  958 Fit      -0.005222
  959 Fit      -0.015202
  960 Fit      -0.018306
  961 Fit      -0.018722
  962 Fit      -0.024612
  963 Fit      -0.026071
  964 Fit      -0.023567
  965 Fit      -0.018624
  966 Fit      -0.026179
  967 Fit      -0.029622
  968 Fit      -0.029452
  969 Fit      -0.025835
  970 Fit      -0.019673
  971 Fit      -0.013415
  972 Fit      -0.022407
  973 Fit      -0.027274
  974 Fit      -0.030543
  975 Fit      -0.030913
  976 Fit      -0.028348
  977 Fit      -0.023868
  978 Fit      -0.019092
  979 Fit      -0.023438
  980 Fit      -0.028634
  981 Fit      -0.030057
  982 Fit      -0.026787
  983 Fit      -0.021039
  984 Fit      -0.026428
  985 Fit      -0.014604
  986 Fit      -0.016216
  987 Fit      -0.013782
  988 Fit      -0.015859
  989 Fit      -0.015755
  990 Fit      -0.010601
  991 Fit      -0.015620
  992 Fit      -0.015926
  993 Fit      -0.016703
  994 Fit      -0.015884
  995 Fit      -0.017587
  996 Fit      -0.014533
  997 Fit      -0.016543
  998 Fit      -0.013132
  999 Fit       0.001862
 1000 Fit       0.001924
 1001 Fit       0.003741
 1002 Fit       0.004389
 1003 Fit       0.006438
 1004 Fit       0.006573
 1005 Fit       0.005762
 1006 Fit       0.004644
 1007 Fit       0.008345
 1008 Fit       0.007633
 1009 Fit       0.006858
 1010 Fit       0.005714
 1011 Fit       0.001859
 1012 Fit       0.008121
 1013 Fit       0.006528
 1014 Fit       0.005366
 1015 Fit       0.003800
 1016 Fit       0.002394
 1017 Fit       0.000378
 1018 Fit       0.018780
 1019 Fit       0.012821
 1020 Fit       0.009950
 1021 Fit       0.008566
 1022 Fit       0.014253
 1023 Fit       0.011442
 1024 Fit       0.009624
 1025 Fit       0.009297
 1026 Fit       0.013903
 1027 Fit       0.010790
 1028 Fit       0.008345
 1029 Fit       0.006150
 1030 Fit       0.011978
 1031 Fit       0.007932
 1032 Fit       0.004061
 1033 Fit       0.005591
 1034 Fit      -0.002321
 1035 Fit      -0.007427
 1036 Fit      -0.001843
 1037 Fit      -0.000112
 1038 Fit      -0.004361
 1039 Fit      -0.012444
 1040 Fit       0.001917
 1041 Fit      -0.000111
 1042 Fit      -0.004091
 1043 Fit      -0.012346
 1044 Fit       0.004445
 1045 Fit       0.002050
 1046 Fit      -0.002296
 1047 Fit      -0.006585
 1048 Fit      -0.000279
 1049 Fit      -0.006728
 1050 Fit      -0.012035
 1051 Fit      -0.017052
 1052 Fit       0.010961
 1053 Fit       0.010254
 1054 Fit       0.009584
 1055 Fit       0.009638
 1056 Fit       0.008325
 1057 Fit       0.008032
 1058 Fit       0.007835
 1059 Fit       0.007658
 1060 Fit       0.008019
 1061 Fit       0.005089
 1062 Fit       0.005617
 1063 Fit       0.004854
 1064 Fit       0.004118
 1065 Fit       0.004190
 1066 Fit       0.005210
 1067 Fit      -0.003386
 1068 Fit      -0.003853
 1069 Fit      -0.002440
 1070 Fit       0.008655
 1071 Fit       0.001775
 1072 Fit       0.004566
 1073 Fit       0.006810
 1074 Fit       0.008315
 1075 Fit       0.009497
 1076 Fit      -0.004358
 1077 Fit       0.001150
 1078 Fit       0.004535
 1079 Fit       0.006461
 1080 Fit       0.007533
 1081 Fit      -0.014723
 1082 Fit      -0.003835
 1083 Fit       0.001287
 1084 Fit       0.003555
 1085 Fit       0.004391
 1086 Fit      -0.015352
 1087 Fit      -0.005048
 1088 Fit       0.014073
 1089 Fit       0.014945
 1090 Fit       0.013223
 1091 Fit       0.015936
 1092 Fit       0.017649
 1093 Fit       0.013283
 1094 Fit       0.016166
 1095 Fit       0.020327
 1096 Fit       0.024650
 1097 Fit       0.023070
 1098 Fit       0.013123
 1099 Fit       0.016286
 1100 Fit       0.021947
 1101 Fit       0.014634
 1102 Fit      -0.000576
 1103 Fit      -0.008587
 1104 Fit      -0.000930
 1105 Fit       0.002558
 1106 Fit       0.003888
 1107 Fit      -0.008152
 1108 Fit      -0.000875
 1109 Fit       0.002829
 1110 Fit       0.004575
 1111 Fit       0.005197
 1112 Fit      -0.006883
 1113 Fit      -0.000388
 1114 Fit       0.003043
 1115 Fit       0.004699
 1116 Fit       0.005321
 1117 Fit       0.000476
 1118 Fit       0.003295
 1119 Fit       0.004568
 1120 Fit      -0.001329
 1121 Fit       0.002368
 1122 Fit       0.002586
 1123 Fit      -0.002061
 1124 Fit       0.003486
 1125 Fit       0.003340
 1126 Fit       0.003291
 1127 Fit       0.003724
 1128 Fit       0.004345
 1129 Fit       0.001986
 1130 Fit      -0.001592
 1131 Fit      -0.000134
 1132 Fit      -0.009157
 1133 Fit      -0.008970
 1134 Fit      -0.005378
 1135 Fit      -0.000945
 1136 Fit       0.001625
 1137 Fit       0.001458
 1138 Fit      -0.001923
 1139 Fit      -0.008573
 1140 Fit      -0.013048
 1141 Fit      -0.009342
 1142 Fit      -0.002885
 1143 Fit      -0.000394
 1144 Fit      -0.001319
 1145 Fit      -0.004990
 1146 Fit      -0.005979
 1147 Fit      -0.005426
 1148 Fit      -0.002564
 1149 Fit      -0.010330
 1150 Fit      -0.015311
 1151 Fit      -0.016013
 1152 Fit      -0.005226
 1153 Fit      -0.004729
 1154 Fit      -0.008844
 1155 Fit      -0.012173
 1156 Fit      -0.006560
 1157 Fit      -0.001221
 1158 Fit      -0.001183
 1159 Fit      -0.004525
 1160 Fit       0.019123
 1161 Fit       0.013840
 1162 Fit       0.014914
 1163 Fit       0.006639
 1164 Fit       0.010024
 1165 Fit       0.011477
 1166 Fit       0.011851
 1167 Fit       0.003452
 1168 Fit       0.006928
 1169 Fit       0.008210
 1170 Fit       0.006999
 1171 Fit       0.004610
 1172 Fit       0.003916
 1173 Fit       0.023588
 1174 Fit       0.015912
 1175 Fit       0.026163
 1176 Fit       0.021741
 1177 Fit       0.026040
 1178 Fit       0.024793
 1179 Fit       0.021296
 1180 Fit       0.012287
 1181 Fit       0.022190
 1182 Fit       0.023262
 1183 Fit       0.023034
 -----------------------------------------------------------------
 Leave Link  602 at Sat Feb 17 21:07:31 2018, MaxMem=   33554432 cpu:       0.5

 Test job not archived.
 1\1\GINC-NODE039\SP\RHF\6-31G(d)\C10H13N1O2\WULSDORT\17-Feb-2018\0\\#H
 F/6-31G* Geom=AllCheck Guess=Read Pop=(MK,ReadRadii) Integral=(Grid=Ul
 traFine) iop(6/33=2)\\Optimization for frag54-conf2\\0,1\C,0,1.7102599
 19,-1.5196685989,0.0861626617\C,0,0.6718558428,-0.8558433812,0.7508829
 741\C,0,2.904619342,-1.7930378957,0.7386069252\C,0,2.0432712897,-0.733
 711571,2.7450425826\C,0,0.8360503127,-0.4635837559,2.0794570678\C,0,3.
 0744759997,-1.3976570662,2.0761076795\C,0,-0.5240000487,-0.5830471309,
 5.1526952336\C,0,-1.2390524782,-1.5738356708,6.0602232807\C,0,4.518137
 684,-1.3164721775,3.9777190131\C,0,-0.2802624303,0.2420025621,2.828203
 04\N,0,-0.9256531468,-0.5878188745,3.845534412\O,0,0.3436888871,0.1724
 866538,5.5799717363\O,0,4.2831643246,-1.7036084756,2.6317606859\H,0,1.
 5840599918,-1.8236335407,-0.9497414445\H,0,-0.2591110449,-0.6412794766
 ,0.2313140071\H,0,3.7220883578,-2.3045186339,0.2400648731\H,0,2.148969
 4625,-0.4161111189,3.7762028828\H,0,-0.5118087714,-2.3034145498,6.4315
 051524\H,0,-1.6303153607,-1.0338093369,6.927164817\H,0,-2.0601781663,-
 2.108538842,5.5725148408\H,0,5.5292490074,-1.6540425549,4.2129272087\H
 ,0,3.8062084297,-1.7911443503,4.6652735812\H,0,4.4598670269,-0.2272782
 698,4.1003594217\H,0,0.1056671685,1.1167803485,3.3574872906\H,0,-1.049
 4651375,0.5808853979,2.1258152476\H,0,-1.5289171042,-1.3341022381,3.52
 92503207\\Version=AM64L-G09RevC.01\State=1-A\HF=-590.4315481\RMSD=4.49
 9e-09\Dipole=-1.0381412,-0.69847,-0.1924565\Quadrupole=5.6605786,-4.31
 96364,-1.3409422,2.3307754,2.1754452,-4.3031021\PG=C01 [X(C10H13N1O2)]
 \\@


 THE SCIENTIFIC THEORIST IS NOT TO BE ENVIED. FOR NATURE, OR MORE
 PRECISELY EXPERIMENT, IS AN INEXORABLE AND NOT VERY FRIENDLY JUDGE OF HIS
 WORK.  IT NEVER SAYS "YES" TO A THEORY. IN THE MOST FAVORABLE CASES
 IT SAYS "MAYBE", AND IN THE GREAT MAJORITY OF CASES SIMPLY "NO"...
 PROBABLY EVERY THEORY WILL SOME DAY EXPERIENCE ITS "NO" - MOST
 THEORIES, SOON AFTER CONCEPTION.  -- A.EINSTEIN, NOV 11, 1922.
 Job cpu time:  0 days  0 hours  2 minutes 35.3 seconds.
 File lengths (MBytes):  RWF=     31 Int=      0 D2E=      0 Chk=      4 Scr=      1
 Normal termination of Gaussian 09 at Sat Feb 17 21:07:31 2018.
