 Entering Gaussian System, Link 0=g09
 Initial command:
 /home/fb_chem/chemsoft/lx24-amd64/Gaussian_09_C.01_NBO_3.1_64_istanbul-64/g09/l1.exe /local/2400042.1.parallel/Gau-20303.inp -scrdir=/local/2400042.1.parallel/
 Entering Link 1 = /home/fb_chem/chemsoft/lx24-amd64/Gaussian_09_C.01_NBO_3.1_64_istanbul-64/g09/l1.exe PID=     20304.
  
 Copyright (c) 1988,1990,1992,1993,1995,1998,2003,2009,2011,
            Gaussian, Inc.  All Rights Reserved.
  
 This is part of the Gaussian(R) 09 program.  It is based on
 the Gaussian(R) 03 system (copyright 2003, Gaussian, Inc.),
 the Gaussian(R) 98 system (copyright 1998, Gaussian, Inc.),
 the Gaussian(R) 94 system (copyright 1995, Gaussian, Inc.),
 the Gaussian 92(TM) system (copyright 1992, Gaussian, Inc.),
 the Gaussian 90(TM) system (copyright 1990, Gaussian, Inc.),
 the Gaussian 88(TM) system (copyright 1988, Gaussian, Inc.),
 the Gaussian 86(TM) system (copyright 1986, Carnegie Mellon
 University), and the Gaussian 82(TM) system (copyright 1983,
 Carnegie Mellon University). Gaussian is a federally registered
 trademark of Gaussian, Inc.
  
 This software contains proprietary and confidential information,
 including trade secrets, belonging to Gaussian, Inc.
  
 This software is provided under written license and may be
 used, copied, transmitted, or stored only in accord with that
 written license.
  
 The following legend is applicable only to US Government
 contracts under FAR:
  
                    RESTRICTED RIGHTS LEGEND
  
 Use, reproduction and disclosure by the US Government is
 subject to restrictions as set forth in subparagraphs (a)
 and (c) of the Commercial Computer Software - Restricted
 Rights clause in FAR 52.227-19.
  
 Gaussian, Inc.
 340 Quinnipiac St., Bldg. 40, Wallingford CT 06492
  
  
 ---------------------------------------------------------------
 Warning -- This program may not be used in any manner that
 competes with the business of Gaussian, Inc. or will provide
 assistance to any competitor of Gaussian, Inc.  The licensee
 of this program is prohibited from giving any competitor of
 Gaussian, Inc. access to this program.  By using this program,
 the user acknowledges that Gaussian, Inc. is engaged in the
 business of creating and licensing software in the field of
 computational chemistry and represents and warrants to the
 licensee that it is not a competitor of Gaussian, Inc. and that
 it will not use this program in any manner prohibited above.
 ---------------------------------------------------------------
  

 Cite this work as:
 Gaussian 09, Revision C.01,
 M. J. Frisch, G. W. Trucks, H. B. Schlegel, G. E. Scuseria, 
 M. A. Robb, J. R. Cheeseman, G. Scalmani, V. Barone, B. Mennucci, 
 G. A. Petersson, H. Nakatsuji, M. Caricato, X. Li, H. P. Hratchian, 
 A. F. Izmaylov, J. Bloino, G. Zheng, J. L. Sonnenberg, M. Hada, 
 M. Ehara, K. Toyota, R. Fukuda, J. Hasegawa, M. Ishida, T. Nakajima, 
 Y. Honda, O. Kitao, H. Nakai, T. Vreven, J. A. Montgomery, Jr., 
 J. E. Peralta, F. Ogliaro, M. Bearpark, J. J. Heyd, E. Brothers, 
 K. N. Kudin, V. N. Staroverov, T. Keith, R. Kobayashi, J. Normand, 
 K. Raghavachari, A. Rendell, J. C. Burant, S. S. Iyengar, J. Tomasi, 
 M. Cossi, N. Rega, J. M. Millam, M. Klene, J. E. Knox, J. B. Cross, 
 V. Bakken, C. Adamo, J. Jaramillo, R. Gomperts, R. E. Stratmann, 
 O. Yazyev, A. J. Austin, R. Cammi, C. Pomelli, J. W. Ochterski, 
 R. L. Martin, K. Morokuma, V. G. Zakrzewski, G. A. Voth, 
 P. Salvador, J. J. Dannenberg, S. Dapprich, A. D. Daniels, 
 O. Farkas, J. B. Foresman, J. V. Ortiz, J. Cioslowski, 
 and D. J. Fox, Gaussian, Inc., Wallingford CT, 2010.
 
 ******************************************
 Gaussian 09:  AM64L-G09RevC.01 23-Sep-2011
                17-Feb-2018 
 ******************************************
 %nprocs=2
 Will use up to    2 processors via shared memory.
 %chk=frag29-conf0.chk
 ----------------------------------------------------------------------
 #HF/6-31G* Geom=AllCheck Guess=Read Pop=(MK,ReadRadii) Integral=(Grid=
 UltraFine) iop(6/33=2)
 ----------------------------------------------------------------------
 1/29=7,38=1/1;
 2/12=2,40=1/2;
 3/5=1,6=6,7=1,11=9,14=-4,16=1,25=1,30=1,75=-5,116=-2/1,2,3;
 4/5=1/1;
 5/5=2,38=6/2;
 6/7=2,8=2,9=2,10=2,15=8,20=101,28=1,33=2/1,2;
 99/5=1,9=1/99;
 Structure from the checkpoint file:  frag29-conf0.chk
 -----------------------------
 Optimization for frag29-conf0
 -----------------------------
 Charge =  0 Multiplicity = 1
 Redundant internal coordinates found in file.
 C,0,-2.7880548872,-2.1990059641,4.8307388718
 C,0,-1.2713532865,-0.4241096044,5.4379399818
 C,0,-1.9596885065,-2.4434564945,3.7400695337
 C,0,-2.4207125223,-1.1619366163,5.6892282588
 C,0,-0.5084668324,-0.7551610059,4.3096549777
 C,0,2.5457959772,0.0855093229,2.3412678719
 C,0,3.1105709101,-0.533588113,1.0709387036
 C,0,0.7537381345,0.0271301665,4.0005333177
 N,0,-0.8463492346,-1.7463469156,3.4761613439
 N,0,1.3906302084,-0.4681296056,2.8030705377
 O,0,3.0932611738,1.0225657164,2.9138542862
 Cl,0,-3.4104535045,-0.7910384217,7.0846077765
 H,0,-3.6803846002,-2.7886228806,5.0061667067
 H,0,-0.9723355215,0.3852187206,6.0958488302
 H,0,-2.2023440159,-3.2411198094,3.0410259659
 H,0,3.1896421469,0.2432825352,0.3041182632
 H,0,4.1235963911,-0.8946786941,1.2739027582
 H,0,2.5094926118,-1.3603253911,0.6795920455
 H,0,0.5126192482,1.0941445886,3.8905746956
 H,0,1.4463239189,-0.0316139761,4.8523148707
 H,0,0.9297491305,-1.2426180874,2.3422117083
 Recover connectivity data from disk.
                          Input orientation:                          
 ---------------------------------------------------------------------
 Center     Atomic      Atomic             Coordinates (Angstroms)
 Number     Number       Type             X           Y           Z
 ---------------------------------------------------------------------
      1          6           0       -2.788055   -2.199006    4.830739
      2          6           0       -1.271353   -0.424110    5.437940
      3          6           0       -1.959689   -2.443456    3.740070
      4          6           0       -2.420713   -1.161937    5.689228
      5          6           0       -0.508467   -0.755161    4.309655
      6          6           0        2.545796    0.085509    2.341268
      7          6           0        3.110571   -0.533588    1.070939
      8          6           0        0.753738    0.027130    4.000533
      9          7           0       -0.846349   -1.746347    3.476161
     10          7           0        1.390630   -0.468130    2.803071
     11          8           0        3.093261    1.022566    2.913854
     12         17           0       -3.410454   -0.791038    7.084608
     13          1           0       -3.680385   -2.788623    5.006167
     14          1           0       -0.972336    0.385219    6.095849
     15          1           0       -2.202344   -3.241120    3.041026
     16          1           0        3.189642    0.243283    0.304118
     17          1           0        4.123596   -0.894679    1.273903
     18          1           0        2.509493   -1.360325    0.679592
     19          1           0        0.512619    1.094145    3.890575
     20          1           0        1.446324   -0.031614    4.852315
     21          1           0        0.929749   -1.242618    2.342212
 ---------------------------------------------------------------------
                    Distance matrix (angstroms):
                    1          2          3          4          5
     1  C    0.000000
     2  C    2.412330   0.000000
     3  C    1.391225   2.726597   0.000000
     4  C    1.395513   1.388726   2.377826   0.000000
     5  C    2.748225   1.401648   2.298002   2.392775   0.000000
     6  C    6.313988   4.941631   5.352729   6.118102   3.729584
     7  C    7.190515   6.187402   6.039817   7.233154   4.861668
     8  C    4.264882   2.524035   3.678903   3.787177   1.516805
     9  N    2.410394   2.403646   1.339826   2.778097   1.338404
    10  N    4.956691   3.745748   4.000565   4.830901   2.441056
    11  O    6.974443   5.245354   6.182899   6.548180   4.252178
    12  Cl   2.729410   2.724317   4.002642   1.750496   4.015368
    13  H    1.083824   3.403055   2.164009   2.167823   3.831600
    14  H    3.402287   1.085020   3.811294   2.157968   2.169361
    15  H    2.152239   3.814117   1.088031   3.373968   3.264756
    16  H    7.885932   6.833887   6.748328   7.902539   5.542312
    17  H    7.881832   6.831261   6.744409   7.899019   5.539970
    18  H    6.782287   6.149241   5.523882   7.031553   4.759376
    19  H    4.756385   2.807489   4.318516   4.114546   2.153643
    20  H    4.756892   2.807629   4.319143   4.114854   2.153882
    21  H    4.574878   3.885658   3.427079   4.736520   2.485340
                    6          7          8          9         10
     6  C    0.000000
     7  C    1.521837   0.000000
     8  C    2.442957   3.801525   0.000000
     9  N    4.018747   4.786763   2.445499   0.000000
    10  N    1.361685   2.441877   1.443894   2.662887   0.000000
    11  O    1.227049   2.412105   2.764983   4.848051   2.265700
    12  Cl   7.664497   8.874359   5.246085   4.528590   6.440981
    13  H    7.357149   8.166289   5.348010   3.385116   5.996125
    14  H    5.154023   6.539423   2.738230   3.379676   4.141763
    15  H    5.839602   6.280051   4.510048   2.064561   4.544839
    16  H    2.142291   1.094438   4.432137   5.505425   3.160271
    17  H    2.142310   1.094441   4.431725   5.502331   3.160602
    18  H    2.202935   1.094505   4.004542   4.385372   2.560669
    19  H    2.748000   4.165239   1.099431   3.175992   2.096251
    20  H    2.743704   4.161791   1.099390   3.176548   2.095960
    21  H    2.091777   2.621992   2.096013   2.166589   1.012242
                   11         12         13         14         15
    11  O    0.000000
    12  Cl   7.936161   0.000000
    13  H    8.048926   2.895362   0.000000
    14  H    5.201959   2.881951   4.312100   0.000000
    15  H    6.799899   4.879855   2.500227   4.898489   0.000000
    16  H    2.725306   9.518725   8.859965   7.133467   6.978914
    17  H    2.725226   9.515090   8.855447   7.131467   6.974671
    18  H    3.318265   8.740370   7.685952   6.671273   5.595995
    19  H    2.760221   5.398728   5.822517   2.751527   5.185294
    20  H    2.753421   5.398902   5.823050   2.751371   5.185988
    21  H    3.184120   6.444502   5.544377   4.511936   3.780524
                   16         17         18         19         20
    16  H    0.000000
    17  H    1.762869   0.000000
    18  H    1.781893   1.781955   0.000000
    19  H    4.555556   4.882781   4.508030   0.000000
    20  H    4.878608   4.551670   4.506375   1.750452   0.000000
    21  H    3.386568   3.385706   2.296464   2.834058   2.834431
                   21
    21  H    0.000000
 Stoichiometry    C8H9ClN2O
 Framework group  C1[X(C8H9ClN2O)]
 Deg. of freedom    57
 Full point group                 C1      NOp   1
 Largest Abelian subgroup         C1      NOp   1
 Largest concise Abelian subgroup C1      NOp   1
                         Standard orientation:                         
 ---------------------------------------------------------------------
 Center     Atomic      Atomic             Coordinates (Angstroms)
 Number     Number       Type             X           Y           Z
 ---------------------------------------------------------------------
      1          6           0       -2.509408    1.358592   -0.001220
      2          6           0       -1.347008   -0.755208    0.001219
      3          6           0       -1.259730    1.969991   -0.000342
      4          6           0       -2.535399   -0.036679   -0.000376
      5          6           0       -0.142625   -0.038214    0.001831
      6          6           0        3.575890   -0.325328   -0.000795
      7          6           0        4.655105    0.747650   -0.002243
      8          6           0        1.176833   -0.786359    0.003780
      9          7           0       -0.099740    1.299503    0.001130
     10          7           0        2.292622    0.130072    0.003685
     11          8           0        3.841816   -1.523212   -0.003164
     12         17           0       -4.068381   -0.881783   -0.001325
     13          1           0       -3.423542    1.940858   -0.002468
     14          1           0       -1.350472   -1.840222    0.001931
     15          1           0       -1.185522    3.055488   -0.000938
     16          1           0        5.291583    0.609893    0.877366
     17          1           0        5.287011    0.612147   -0.885496
     18          1           0        4.260478    1.768534    0.000146
     19          1           0        1.227696   -1.448725    0.879814
     20          1           0        1.229623   -1.450639   -0.870636
     21          1           0        2.058977    1.114981    0.003302
 ---------------------------------------------------------------------
 Rotational constants (GHZ):      2.4278924      0.3136962      0.2787560
 Standard basis: 6-31G(d) (6D, 7F)
 There are   202 symmetry adapted basis functions of A   symmetry.
 Integral buffers will be    131072 words long.
 Raffenetti 1 integral format.
 Two-electron integral symmetry is turned on.
   202 basis functions,   396 primitive gaussians,   202 cartesian basis functions
    48 alpha electrons       48 beta electrons
       nuclear repulsion energy       722.9333643333 Hartrees.
 NAtoms=   21 NActive=   21 NUniq=   21 SFac= 1.00D+00 NAtFMM=   60 NAOKFM=F Big=F
 One-electron integrals computed using PRISM.
 NBasis=   202 RedAO= T  NBF=   202
 NBsUse=   202 1.00D-06 NBFU=   202
 Initial guess read from the checkpoint file:  frag29-conf0.chk
 B after Tr=     0.000000    0.000000    0.000000
         Rot=    1.000000    0.000000    0.000000    0.000000 Ang=   0.00 deg.
 Initial guess orbital symmetries:
       Occupied  (A) (A) (A) (A) (A) (A) (A) (A) (A) (A) (A) (A)
                 (A) (A) (A) (A) (A) (A) (A) (A) (A) (A) (A) (A)
                 (A) (A) (A) (A) (A) (A) (A) (A) (A) (A) (A) (A)
                 (A) (A) (A) (A) (A) (A) (A) (A) (A) (A) (A) (A)
       Virtual   (A) (A) (A) (A) (A) (A) (A) (A) (A) (A) (A) (A)
                 (A) (A) (A) (A) (A) (A) (A) (A) (A) (A) (A) (A)
                 (A) (A) (A) (A) (A) (A) (A) (A) (A) (A) (A) (A)
                 (A) (A) (A) (A) (A) (A) (A) (A) (A) (A) (A) (A)
                 (A) (A) (A) (A) (A) (A) (A) (A) (A) (A) (A) (A)
                 (A) (A) (A) (A) (A) (A) (A) (A) (A) (A) (A) (A)
                 (A) (A) (A) (A) (A) (A) (A) (A) (A) (A) (A) (A)
                 (A) (A) (A) (A) (A) (A) (A) (A) (A) (A) (A) (A)
                 (A) (A) (A) (A) (A) (A) (A) (A) (A) (A) (A) (A)
                 (A) (A) (A) (A) (A) (A) (A) (A) (A) (A) (A) (A)
                 (A) (A) (A) (A) (A) (A) (A) (A) (A) (A) (A) (A)
                 (A) (A) (A) (A) (A) (A) (A) (A) (A) (A) (A) (A)
                 (A) (A) (A) (A) (A) (A) (A) (A) (A) (A)
 Requested convergence on RMS density matrix=1.00D-08 within 128 cycles.
 Requested convergence on MAX density matrix=1.00D-06.
 Requested convergence on             energy=1.00D-06.
 No special actions if energy rises.
 SCF Done:  E(RHF) =  -951.447547619     A.U. after   14 cycles
             Convg  =    0.4177D-08             -V/T =  2.0015

 **********************************************************************

            Population analysis using the SCF density.

 **********************************************************************

 Orbital symmetries:
 BldTbl:  Degeneracy threshold= 1.00D-02
       Occupied  (A) (A) (A) (A) (A) (A) (A) (A) (A) (A) (A) (A)
                 (A) (A) (A) (A) (A) (A) (A) (A) (A) (A) (A) (A)
                 (A) (A) (A) (A) (A) (A) (A) (A) (A) (A) (A) (A)
                 (A) (A) (A) (A) (A) (A) (A) (A) (A) (A) (A) (A)
       Virtual   (A) (A) (A) (A) (A) (A) (A) (A) (A) (A) (A) (A)
                 (A) (A) (A) (A) (A) (A) (A) (A) (A) (A) (A) (A)
                 (A) (A) (A) (A) (A) (A) (A) (A) (A) (A) (A) (A)
                 (A) (A) (A) (A) (A) (A) (A) (A) (A) (A) (A) (A)
                 (A) (A) (A) (A) (A) (A) (A) (A) (A) (A) (A) (A)
                 (A) (A) (A) (A) (A) (A) (A) (A) (A) (A) (A) (A)
                 (A) (A) (A) (A) (A) (A) (A) (A) (A) (A) (A) (A)
                 (A) (A) (A) (A) (A) (A) (A) (A) (A) (A) (A) (A)
                 (A) (A) (A) (A) (A) (A) (A) (A) (A) (A) (A) (A)
                 (A) (A) (A) (A) (A) (A) (A) (A) (A) (A) (A) (A)
                 (A) (A) (A) (A) (A) (A) (A) (A) (A) (A) (A) (A)
                 (A) (A) (A) (A) (A) (A) (A) (A) (A) (A) (A) (A)
                 (A) (A) (A) (A) (A) (A) (A) (A) (A) (A)
 The electronic state is 1-A.
 Alpha  occ. eigenvalues -- -104.84859 -20.51397 -15.59238 -15.58206 -11.34759
 Alpha  occ. eigenvalues --  -11.34227 -11.31266 -11.30389 -11.27927 -11.26792
 Alpha  occ. eigenvalues --  -11.26749 -11.23438 -10.58173  -8.05111  -8.04771
 Alpha  occ. eigenvalues --   -8.04767  -1.36656  -1.29004  -1.22313  -1.18232
 Alpha  occ. eigenvalues --   -1.07670  -1.06442  -1.00793  -0.94710  -0.88085
 Alpha  occ. eigenvalues --   -0.83053  -0.78889  -0.71633  -0.70061  -0.68128
 Alpha  occ. eigenvalues --   -0.65194  -0.64444  -0.63992  -0.60084  -0.59369
 Alpha  occ. eigenvalues --   -0.58023  -0.56608  -0.56524  -0.55058  -0.53842
 Alpha  occ. eigenvalues --   -0.50692  -0.49255  -0.47264  -0.44353  -0.41120
 Alpha  occ. eigenvalues --   -0.39047  -0.38386  -0.35797
 Alpha virt. eigenvalues --    0.09608   0.11023   0.17779   0.20272   0.23713
 Alpha virt. eigenvalues --    0.25579   0.26333   0.28623   0.29086   0.29785
 Alpha virt. eigenvalues --    0.30305   0.32899   0.33756   0.36430   0.36980
 Alpha virt. eigenvalues --    0.39369   0.41093   0.43343   0.44583   0.47112
 Alpha virt. eigenvalues --    0.49876   0.52648   0.57471   0.58901   0.60243
 Alpha virt. eigenvalues --    0.61937   0.62043   0.65527   0.69829   0.72761
 Alpha virt. eigenvalues --    0.72992   0.74801   0.75739   0.77573   0.77861
 Alpha virt. eigenvalues --    0.77934   0.79949   0.81571   0.82736   0.83769
 Alpha virt. eigenvalues --    0.84983   0.86841   0.87449   0.90222   0.90844
 Alpha virt. eigenvalues --    0.93977   0.96878   0.99259   1.00322   1.01496
 Alpha virt. eigenvalues --    1.05085   1.05135   1.06588   1.08768   1.10084
 Alpha virt. eigenvalues --    1.10202   1.10779   1.12551   1.12978   1.13284
 Alpha virt. eigenvalues --    1.13476   1.17154   1.18238   1.18629   1.19057
 Alpha virt. eigenvalues --    1.19453   1.20746   1.21702   1.24371   1.27575
 Alpha virt. eigenvalues --    1.31380   1.35125   1.35534   1.36061   1.37933
 Alpha virt. eigenvalues --    1.41528   1.47513   1.49108   1.53252   1.53733
 Alpha virt. eigenvalues --    1.55162   1.57513   1.59529   1.61565   1.65576
 Alpha virt. eigenvalues --    1.71104   1.71200   1.71550   1.74874   1.75223
 Alpha virt. eigenvalues --    1.76270   1.81536   1.85075   1.93597   1.96572
 Alpha virt. eigenvalues --    2.04510   2.07488   2.08395   2.09160   2.12394
 Alpha virt. eigenvalues --    2.13985   2.15701   2.19137   2.21745   2.24140
 Alpha virt. eigenvalues --    2.24607   2.26275   2.33665   2.35534   2.35867
 Alpha virt. eigenvalues --    2.39005   2.45295   2.45530   2.49290   2.51729
 Alpha virt. eigenvalues --    2.52631   2.55090   2.56046   2.56274   2.61752
 Alpha virt. eigenvalues --    2.64122   2.64964   2.69940   2.72454   2.75042
 Alpha virt. eigenvalues --    2.79650   2.86098   2.91325   2.91712   2.97251
 Alpha virt. eigenvalues --    3.00219   3.03907   3.05876   3.07993   3.13118
 Alpha virt. eigenvalues --    3.17269   3.20810   3.27829   3.36267   3.44664
 Alpha virt. eigenvalues --    3.55084   3.73296   4.41007   4.42922   4.48152
 Alpha virt. eigenvalues --    4.50222   4.55372   4.59858   4.64125   4.68057
 Alpha virt. eigenvalues --    4.74139   4.83693   4.92574   5.02586
          Condensed to atoms (all electrons):
              1          2          3          4          5          6
     1  C    5.070811  -0.050486   0.528995   0.510410  -0.023666   0.000000
     2  C   -0.050486   5.089479  -0.025273   0.523261   0.517526  -0.000103
     3  C    0.528995  -0.025273   4.663923  -0.048011  -0.070983   0.000008
     4  C    0.510410   0.523261  -0.048011   4.977399  -0.041105   0.000001
     5  C   -0.023666   0.517526  -0.070983  -0.041105   4.644173   0.004700
     6  C    0.000000  -0.000103   0.000008   0.000001   0.004700   4.147135
     7  C    0.000000   0.000000   0.000000   0.000000   0.000067   0.364585
     8  C   -0.000125  -0.066007   0.003533   0.001701   0.337253  -0.031308
     9  N   -0.049487  -0.057576   0.468844  -0.025029   0.471658  -0.000211
    10  N   -0.000038   0.002091   0.000025  -0.000037  -0.030934   0.271174
    11  O    0.000000  -0.000008   0.000000   0.000000   0.000838   0.586519
    12  Cl  -0.063794  -0.066413   0.002426   0.229491   0.002421   0.000000
    13  H    0.376793   0.002029  -0.021003  -0.027352   0.000170   0.000000
    14  H    0.002228   0.377332  -0.000011  -0.026363  -0.024673   0.000002
    15  H   -0.049263  -0.000391   0.404318   0.002820   0.004001   0.000000
    16  H    0.000000   0.000000   0.000000   0.000000   0.000000  -0.027815
    17  H    0.000000   0.000000   0.000000   0.000000   0.000000  -0.027824
    18  H    0.000000   0.000000   0.000000   0.000000  -0.000038  -0.039131
    19  H    0.000025  -0.001514  -0.000095  -0.000039  -0.041778  -0.001626
    20  H    0.000025  -0.001525  -0.000095  -0.000037  -0.041688  -0.001607
    21  H    0.000088   0.000679  -0.000412  -0.000016  -0.010242  -0.012654
              7          8          9         10         11         12
     1  C    0.000000  -0.000125  -0.049487  -0.000038   0.000000  -0.063794
     2  C    0.000000  -0.066007  -0.057576   0.002091  -0.000008  -0.066413
     3  C    0.000000   0.003533   0.468844   0.000025   0.000000   0.002426
     4  C    0.000000   0.001701  -0.025029  -0.000037   0.000000   0.229491
     5  C    0.000067   0.337253   0.471658  -0.030934   0.000838   0.002421
     6  C    0.364585  -0.031308  -0.000211   0.271174   0.586519   0.000000
     7  C    5.241137   0.005213  -0.000073  -0.105111  -0.068264   0.000000
     8  C    0.005213   4.881195  -0.061883   0.208178   0.011753  -0.000079
     9  N   -0.000073  -0.061883   6.900665  -0.022338  -0.000009  -0.000090
    10  N   -0.105111   0.208178  -0.022338   7.399573  -0.102578   0.000001
    11  O   -0.068264   0.011753  -0.000009  -0.102578   8.194402   0.000000
    12  Cl   0.000000  -0.000079  -0.000090   0.000001   0.000000  16.868093
    13  H    0.000000   0.000008   0.002566   0.000000   0.000000   0.000226
    14  H    0.000000  -0.000238   0.002623   0.000021   0.000001  -0.000023
    15  H    0.000000  -0.000032  -0.042505   0.000030   0.000000  -0.000077
    16  H    0.380539  -0.000114   0.000000   0.001589   0.000747   0.000000
    17  H    0.380531  -0.000114   0.000000   0.001588   0.000751   0.000000
    18  H    0.375437   0.000086  -0.000030   0.006022   0.002446   0.000000
    19  H   -0.000025   0.409710   0.001018  -0.045275   0.002573   0.000000
    20  H   -0.000020   0.409718   0.001028  -0.045321   0.002643   0.000000
    21  H    0.000023  -0.023577   0.026243   0.303321   0.001766   0.000000
             13         14         15         16         17         18
     1  C    0.376793   0.002228  -0.049263   0.000000   0.000000   0.000000
     2  C    0.002029   0.377332  -0.000391   0.000000   0.000000   0.000000
     3  C   -0.021003  -0.000011   0.404318   0.000000   0.000000   0.000000
     4  C   -0.027352  -0.026363   0.002820   0.000000   0.000000   0.000000
     5  C    0.000170  -0.024673   0.004001   0.000000   0.000000  -0.000038
     6  C    0.000000   0.000002   0.000000  -0.027815  -0.027824  -0.039131
     7  C    0.000000   0.000000   0.000000   0.380539   0.380531   0.375437
     8  C    0.000008  -0.000238  -0.000032  -0.000114  -0.000114   0.000086
     9  N    0.002566   0.002623  -0.042505   0.000000   0.000000  -0.000030
    10  N    0.000000   0.000021   0.000030   0.001589   0.001588   0.006022
    11  O    0.000000   0.000001   0.000000   0.000747   0.000751   0.002446
    12  Cl   0.000226  -0.000023  -0.000077   0.000000   0.000000   0.000000
    13  H    0.424377  -0.000068  -0.000276   0.000000   0.000000   0.000000
    14  H   -0.000068   0.422613   0.000011   0.000000   0.000000   0.000000
    15  H   -0.000276   0.000011   0.461880   0.000000   0.000000   0.000000
    16  H    0.000000   0.000000   0.000000   0.482974  -0.020253  -0.023008
    17  H    0.000000   0.000000   0.000000  -0.020253   0.483023  -0.023004
    18  H    0.000000   0.000000   0.000000  -0.023008  -0.023004   0.529295
    19  H    0.000000   0.000433   0.000002   0.000029  -0.000010  -0.000006
    20  H    0.000000   0.000430   0.000002  -0.000010   0.000029  -0.000006
    21  H   -0.000001  -0.000016  -0.000107  -0.000008  -0.000009   0.001544
             19         20         21
     1  C    0.000025   0.000025   0.000088
     2  C   -0.001514  -0.001525   0.000679
     3  C   -0.000095  -0.000095  -0.000412
     4  C   -0.000039  -0.000037  -0.000016
     5  C   -0.041778  -0.041688  -0.010242
     6  C   -0.001626  -0.001607  -0.012654
     7  C   -0.000025  -0.000020   0.000023
     8  C    0.409710   0.409718  -0.023577
     9  N    0.001018   0.001028   0.026243
    10  N   -0.045275  -0.045321   0.303321
    11  O    0.002573   0.002643   0.001766
    12  Cl   0.000000   0.000000   0.000000
    13  H    0.000000   0.000000  -0.000001
    14  H    0.000433   0.000430  -0.000016
    15  H    0.000002   0.000002  -0.000107
    16  H    0.000029  -0.000010  -0.000008
    17  H   -0.000010   0.000029  -0.000009
    18  H   -0.000006  -0.000006   0.001544
    19  H    0.504371  -0.036293   0.002068
    20  H   -0.036293   0.503960   0.002070
    21  H    0.002068   0.002070   0.280673
 Mulliken atomic charges:
              1
     1  C   -0.252517
     2  C   -0.243102
     3  C    0.093810
     4  C   -0.077095
     5  C    0.302300
     6  C    0.768154
     7  C   -0.574041
     8  C   -0.084872
     9  N   -0.615416
    10  N   -0.841983
    11  O   -0.633582
    12  Cl   0.027817
    13  H    0.242531
    14  H    0.245699
    15  H    0.219588
    16  H    0.205330
    17  H    0.205292
    18  H    0.170393
    19  H    0.206431
    20  H    0.206698
    21  H    0.428565
 Sum of Mulliken atomic charges =   0.00000
 Mulliken charges with hydrogens summed into heavy atoms:
              1
     1  C   -0.009986
     2  C    0.002597
     3  C    0.313398
     4  C   -0.077095
     5  C    0.302300
     6  C    0.768154
     7  C    0.006973
     8  C    0.328257
     9  N   -0.615416
    10  N   -0.413418
    11  O   -0.633582
    12  Cl   0.027817
 Sum of Mulliken charges with hydrogens summed into heavy atoms =   0.00000
 DipInt: DoE/N= T F RetVal/Mat= T F Init=T NMatP=  1 IDeriv=0 Min/MaxMlt=  0  4
 Entering OneElI...
 OneElI was handed    33447241 working-precision words.
 Multipole integrals L=0 to 4 MinM= 0 MaxM= 0.
 Requested accuracy = 0.1000D-12
 PrsmSu:  NPrtUS=   1 ThrOK=F IAlg=1 NPAlg=1 LenDen=           0.
 Prism:   IPart=     0 DynPar=F LinDyn=F Incr=          19.
 PRISM was handed    33262680 working-precision words and  1947 shell-pairs
 IPart=  0 NShTot=        1947 NBatch=          59 AvBLen=        33.0
 PrSmSu:  NxtVal=             20.
 Electronic moments (au):
        -96.00000000         -0.86127511          1.39836514          0.00130063
      -3079.29299921       -467.09237765        -69.56158265          7.09905801
          0.01207003         -0.01808436      -2741.36135388       -411.90890494
         -0.04511515        134.22880743       1492.08156327          7.94527026
        -55.22612276          1.60252474          0.50541107         -0.30585720
    -176334.52349015      -5629.67504855       -273.34662381      -9543.58050496
         23.07184041       2289.74571112         -0.06979784          0.70683592
          0.54084911     -12976.08842487      -2396.50451141       -370.97453953
         -5.65800971          1.68103343        -32.17069582
 Electronic spatial extent (au):  <R**2>=           3615.9470
 DipInt: DoE/N= F T RetVal/Mat= T F Init=T NMatP=  1 IDeriv=0 Min/MaxMlt=  0  4
 Nuclear    moments (au):
         96.00000000          0.00000000          0.00000000          0.00000000
       3015.99845857        410.76839664         11.02154829          0.00000000
          0.00000000          0.00000000       2731.68107222        432.23191551
          0.01445769       -178.28191495      -1394.24026209         -7.87953317
         68.17079980         -8.58179900         -0.48410032          0.24377683
     165582.83252613       4126.22791177         30.36533325      10083.88712876
        -22.02250585      -2248.79388980         -0.05518550         -0.92421160
         -0.54088059      10777.10680842        583.91000826         48.46295571
          4.94417985         -1.35276620         29.23874397
 Total      moments (au):
          0.00000000         -0.86127511          1.39836514          0.00130063
        -63.29454064        -56.32398101        -58.54003436          7.09905801
          0.01207003         -0.01808436         -9.68028166         20.32301057
         -0.03065746        -44.05310752         97.84130118          0.06573709
         12.94467703         -6.97927426          0.02131074         -0.06208037
     -10751.69096402      -1503.44713678       -242.98129056        540.30662380
          1.04933456         40.95182132         -0.12498334         -0.21737568
         -0.00003148      -2198.98161645      -1812.59450315       -322.51158382
         -0.71382986          0.32826723         -2.93195185
 Traceless Quadrup. (au):
         -3.90835530          3.06220433          0.84615098          7.09905801
          0.01207003         -0.01808436
 Charge=              0.0000 electrons
 Dipole moment (field-independent basis, Debye):
    X=             -2.1891    Y=              3.5543    Z=              0.0033  Tot=              4.1744
 Quadrupole moment (field-independent basis, Debye-Ang):
   XX=            -85.1333   YY=            -75.7577   ZZ=            -78.7383
   XY=              9.5485   XZ=              0.0162   YZ=             -0.0243
 Traceless Quadrupole moment (field-independent basis, Debye-Ang):
   XX=             -5.2569   YY=              4.1188   ZZ=              1.1381
   XY=              9.5485   XZ=              0.0162   YZ=             -0.0243
 Octapole moment (field-independent basis, Debye-Ang**2):
  XXX=             -6.8901  YYY=             14.4651  ZZZ=             -0.0218  XYY=            -31.3553
  XXY=             69.6397  XXZ=              0.0468  XZZ=              9.2135  YZZ=             -4.9676
  YYZ=              0.0152  XYZ=             -0.0442
 Hexadecapole moment (field-independent basis, Debye-Ang**3):
 XXXX=          -4049.6021 YYYY=           -566.2702 ZZZZ=            -91.5184 XXXY=            203.5054
 XXXZ=              0.3952 YYYX=             15.4244 YYYZ=             -0.0471 ZZZX=             -0.0819
 ZZZY=              0.0000 XXYY=           -828.2419 XXZZ=           -682.7100 YYZZ=           -121.4733
 XXYZ=             -0.2689 YYXZ=              0.1236 ZZXY=             -1.1043
 N-N= 7.229333643333D+02 E-N=-3.689206453256D+03  KE= 9.499803681843D+02
 Entering OneElI...
 OneElI was handed    33364906 working-precision words.
 Calculate electrostatic properties
    NBasis =   202  MinDer = 0  MaxDer = 0
    NGrid  =    21  NMatD  =   1
 Requested accuracy = 0.1000D-12
 PrsmSu:  NPrtUS=   2 ThrOK=T IAlg=1 NPAlg=1 LenDen=           0.
 Prism:   IPart=     0 DynPar=F LinDyn=F Incr=         185.
 PRISM was handed    16567109 working-precision words and  1769 shell-pairs
 PRISM was handed    16567109 working-precision words and  1769 shell-pairs
 IPart=  1 NShTot=       18312 NBatch=         872 AvBLen=        21.0
 IPart=  0 NShTot=       18837 NBatch=         897 AvBLen=        21.0
 PrSmSu:  NxtVal=            371.
 --------------------------------------------------------
       Center         ----      EFG at Nuclei      ----
                      3XX-RR        3YY-RR        3ZZ-RR
 --------------------------------------------------------
     1   Atom        0.154566      0.079368     -0.233934
     2   Atom        0.105477      0.113905     -0.219382
     3   Atom        0.172884      0.226192     -0.399075
     4   Atom       -0.060317      0.294958     -0.234641
     5   Atom        0.264564      0.153263     -0.417827
     6   Atom        0.185685      0.368914     -0.554598
     7   Atom       -0.006315     -0.030923      0.037238
     8   Atom       -0.160937     -0.001205      0.162142
     9   Atom        0.701487     -0.054410     -0.647078
    10   Atom       -0.543929     -0.431831      0.975760
    11   Atom        1.530328     -0.851111     -0.679217
    12   Atom       -2.400869      0.655907      1.744962
    13   Atom       -0.177937      0.008736      0.169201
    14   Atom        0.137670     -0.306205      0.168535
    15   Atom        0.138089     -0.296577      0.158488
    16   Atom       -0.002005      0.140606     -0.138601
    17   Atom        0.000158      0.140841     -0.140999
    18   Atom        0.079644     -0.236923      0.157279
    19   Atom        0.131440     -0.007622     -0.123818
    20   Atom        0.131423     -0.008544     -0.122879
    21   Atom        0.131003     -0.358728      0.227725
 --------------------------------------------------------
                        XY            XZ            YZ
 --------------------------------------------------------
     1   Atom        0.012653      0.000363     -0.000184
     2   Atom        0.027235      0.000317     -0.000178
     3   Atom        0.063248      0.000513     -0.000305
     4   Atom       -0.285729      0.000354     -0.000611
     5   Atom        0.003812      0.000614     -0.000329
     6   Atom        0.054928     -0.001732      0.000988
     7   Atom       -0.042912      0.000057      0.000025
     8   Atom       -0.128996     -0.000269      0.000270
     9   Atom        0.602445      0.000960      0.000174
    10   Atom       -0.075717      0.003110     -0.000525
    11   Atom        0.564016     -0.005545     -0.002060
    12   Atom       -2.413162     -0.002499     -0.001629
    13   Atom        0.204823     -0.000464      0.000297
    14   Atom        0.000430     -0.000029      0.000314
    15   Atom       -0.026923     -0.000004      0.000251
    16   Atom        0.026609     -0.208790      0.046287
    17   Atom        0.025834      0.208131     -0.045701
    18   Atom        0.148708      0.000390     -0.000909
    19   Atom        0.002476     -0.014527      0.204682
    20   Atom        0.002862      0.015046     -0.204924
    21   Atom        0.097700      0.000119      0.000228
 --------------------------------------------------------


 ---------------------------------------------------------------------------------
              Nuclear Quadrupole in Principal Axis System
 ---------------------------------------------------------------------------------

       Atom             a.u.   MegaHertz   Gauss  10(-4) cm-1        Axes

              Baa    -0.2339   -31.392   -11.201   -10.471 -0.0010  0.0006  1.0000
     1 C(13)  Bbb     0.0773    10.372     3.701     3.460 -0.1616  0.9869 -0.0008
              Bcc     0.1566    21.019     7.500     7.011  0.9869  0.1616  0.0008
 
              Baa    -0.2194   -29.439   -10.505    -9.820 -0.0010  0.0006  1.0000
     2 C(13)  Bbb     0.0821    11.021     3.933     3.676  0.7592 -0.6508  0.0012
              Bcc     0.1373    18.418     6.572     6.143  0.6508  0.7592  0.0002
 
              Baa    -0.3991   -53.552   -19.109   -17.863 -0.0010  0.0006  1.0000
     3 C(13)  Bbb     0.1309    17.566     6.268     5.859  0.8332 -0.5530  0.0011
              Bcc     0.2682    35.986    12.841    12.004  0.5530  0.8332  0.0000
 
              Baa    -0.2346   -31.487   -11.235   -10.503 -0.0012  0.0005  1.0000
     4 C(13)  Bbb    -0.2191   -29.405   -10.492    -9.808  0.8741  0.4858  0.0008
              Bcc     0.4538    60.891    21.728    20.311 -0.4858  0.8741 -0.0010
 
              Baa    -0.4178   -56.068   -20.007   -18.702 -0.0009  0.0006  1.0000
     5 C(13)  Bbb     0.1531    20.549     7.332     6.854 -0.0342  0.9994 -0.0006
              Bcc     0.2647    35.520    12.674    11.848  0.9994  0.0342  0.0009
 
              Baa    -0.5546   -74.423   -26.556   -24.825  0.0024 -0.0012  1.0000
     6 C(13)  Bbb     0.1705    22.877     8.163     7.631  0.9638 -0.2668 -0.0027
              Bcc     0.3841    51.545    18.393    17.194  0.2668  0.9638  0.0005
 
              Baa    -0.0633    -8.489    -3.029    -2.832  0.6018  0.7986 -0.0005
     7 C(13)  Bbb     0.0260     3.492     1.246     1.165  0.7986 -0.6018 -0.0027
              Bcc     0.0372     4.997     1.783     1.667  0.0025 -0.0012  1.0000
 
              Baa    -0.2328   -31.238   -11.147   -10.420  0.8736  0.4866  0.0003
     8 C(13)  Bbb     0.0706     9.480     3.383     3.162 -0.4866  0.8736 -0.0040
              Bcc     0.1621    21.758     7.764     7.258 -0.0022  0.0034  1.0000
 
              Baa    -0.6471   -24.956    -8.905    -8.325 -0.0011  0.0008  1.0000
     9 N(14)  Bbb    -0.3876   -14.951    -5.335    -4.987 -0.4840  0.8751 -0.0012
              Bcc     1.0347    39.907    14.240    13.312  0.8751  0.4840  0.0005
 
              Baa    -0.5821   -22.450    -8.011    -7.488  0.8930  0.4500 -0.0016
    10 N(14)  Bbb    -0.3937   -15.183    -5.418    -5.065 -0.4500  0.8930  0.0014
              Bcc     0.9758    37.633    13.428    12.553  0.0021 -0.0005  1.0000
 
              Baa    -0.9779    70.763    25.250    23.604 -0.2194  0.9756  0.0027
    11 O(17)  Bbb    -0.6792    49.149    17.537    16.394  0.0030 -0.0020  1.0000
              Bcc     1.6572  -119.912   -42.787   -39.998  0.9756  0.2194 -0.0025
 
              Baa    -3.7289  -195.164   -69.639   -65.100  0.8761  0.4821  0.0005
    12 Cl(35) Bbb     1.7450    91.327    32.588    30.464 -0.0009  0.0006  1.0000
              Bcc     1.9840   103.836    37.051    34.636 -0.4821  0.8761 -0.0009
 
              Baa    -0.3097  -165.235   -58.960   -55.116  0.8410 -0.5410  0.0012
    13 H(1)   Bbb     0.1405    74.957    26.746    25.003  0.5410  0.8410  0.0000
              Bcc     0.1692    90.278    32.213    30.113 -0.0010  0.0006  1.0000
 
              Baa    -0.3062  -163.377   -58.297   -54.497 -0.0010  1.0000 -0.0007
    14 H(1)   Bbb     0.1377    73.454    26.210    24.502  1.0000  0.0010  0.0009
              Bcc     0.1685    89.922    32.086    29.995 -0.0009  0.0007  1.0000
 
              Baa    -0.2982  -159.126   -56.780   -53.079  0.0616  0.9981 -0.0005
    15 H(1)   Bbb     0.1398    74.564    26.606    24.872  0.9981 -0.0616  0.0010
              Bcc     0.1585    84.562    30.174    28.207 -0.0010  0.0006  1.0000
 
              Baa    -0.2964  -158.161   -56.436   -52.757  0.5815 -0.1206  0.8046
    16 H(1)   Bbb     0.1425    76.037    27.132    25.363  0.5665  0.7699 -0.2940
              Bcc     0.1539    82.124    29.304    27.394 -0.5840  0.6267  0.5160
 
              Baa    -0.2964  -158.158   -56.435   -52.756 -0.5773  0.1185  0.8079
    17 H(1)   Bbb     0.1425    76.035    27.131    25.363  0.5681  0.7690  0.2931
              Bcc     0.1539    82.122    29.303    27.393 -0.5865  0.6281 -0.5113
 
              Baa    -0.2958  -157.837   -56.320   -52.649 -0.3682  0.9297  0.0022
    18 H(1)   Bbb     0.1385    73.919    26.376    24.657  0.9297  0.3682 -0.0015
              Bcc     0.1573    83.918    29.944    27.992  0.0022 -0.0015  1.0000
 
              Baa    -0.2789  -148.810   -53.099   -49.638  0.0319 -0.6022  0.7977
    19 H(1)   Bbb     0.1293    68.973    24.611    23.007  0.9339  0.3024  0.1909
              Bcc     0.1496    79.837    28.488    26.631 -0.3562  0.7389  0.5720
 
              Baa    -0.2789  -148.817   -53.102   -49.640 -0.0334  0.6039  0.7963
    20 H(1)   Bbb     0.1293    68.971    24.611    23.006  0.9332  0.3042 -0.1915
              Bcc     0.1497    79.846    28.491    26.634 -0.3579  0.7367 -0.5737
 
              Baa    -0.3775  -201.416   -71.870   -67.185 -0.1887  0.9820 -0.0003
    21 H(1)   Bbb     0.1498    79.913    28.515    26.656  0.9820  0.1887 -0.0021
              Bcc     0.2277   121.503    43.355    40.529  0.0020  0.0007  1.0000
 

 ---------------------------------------------------------------------------------

 No NMR shielding tensors so no spin-rotation constants.
 Leave Link  601 at Sat Feb 17 21:01:06 2018, MaxMem=   33554432 cpu:       0.6
 Merz-Kollman atomic radii used.
 Read replacement radii for each type of atom:
 Atom Element Radius
    1     6    1.50
    2     6    1.50
    3     6    1.50
    4     6    1.50
    5     6    1.50
    6     6    1.50
    7     6    1.50
    8     6    1.50
    9     7    1.50
   10     7    1.50
   11     8    1.40
   12    17    1.70
   13     1    1.20
   14     1    1.20
   15     1    1.20
   16     1    1.20
   17     1    1.20
   18     1    1.20
   19     1    1.20
   20     1    1.20
   21     1    1.20
 Generate VDW surfaces: Layer= 4 Dens= 1 Start= 1.400 Inc= 0.200

 **********************************************************************

            Electrostatic Properties Using The SCF Density

 **********************************************************************

       Atomic Center    1 is at  -2.509408  1.358592 -0.001220
       Atomic Center    2 is at  -1.347008 -0.755208  0.001219
       Atomic Center    3 is at  -1.259730  1.969991 -0.000342
       Atomic Center    4 is at  -2.535399 -0.036679 -0.000376
       Atomic Center    5 is at  -0.142625 -0.038214  0.001831
       Atomic Center    6 is at   3.575890 -0.325328 -0.000795
       Atomic Center    7 is at   4.655105  0.747650 -0.002243
       Atomic Center    8 is at   1.176833 -0.786359  0.003780
       Atomic Center    9 is at  -0.099740  1.299503  0.001130
       Atomic Center   10 is at   2.292622  0.130072  0.003685
       Atomic Center   11 is at   3.841816 -1.523212 -0.003164
       Atomic Center   12 is at  -4.068381 -0.881783 -0.001325
       Atomic Center   13 is at  -3.423542  1.940858 -0.002468
       Atomic Center   14 is at  -1.350472 -1.840222  0.001931
       Atomic Center   15 is at  -1.185522  3.055488 -0.000938
       Atomic Center   16 is at   5.291583  0.609893  0.877366
       Atomic Center   17 is at   5.287011  0.612147 -0.885496
       Atomic Center   18 is at   4.260478  1.768534  0.000146
       Atomic Center   19 is at   1.227696 -1.448725  0.879814
       Atomic Center   20 is at   1.229623 -1.450639 -0.870636
       Atomic Center   21 is at   2.058977  1.114981  0.003302
      ESP Fit Center   22 is at  -2.509408  1.358592  2.098780
      ESP Fit Center   23 is at  -3.034408  2.267919  1.817433
      ESP Fit Center   24 is at  -3.559408  1.358592  1.817433
      ESP Fit Center   25 is at  -2.768230  3.158734  1.048780
      ESP Fit Center   26 is at  -2.768230  3.158734 -1.051220
      ESP Fit Center   27 is at  -3.034408  2.267919 -1.819873
      ESP Fit Center   28 is at  -3.559408  1.358592 -1.819873
      ESP Fit Center   29 is at  -2.509408  1.358592 -2.101220
      ESP Fit Center   30 is at  -1.347008 -0.755208  2.101219
      ESP Fit Center   31 is at  -1.872008 -1.664535  1.819872
      ESP Fit Center   32 is at  -0.822008 -1.664535  1.819872
      ESP Fit Center   33 is at  -1.872008 -1.664535 -1.817435
      ESP Fit Center   34 is at  -0.822008 -1.664535 -1.817435
      ESP Fit Center   35 is at  -1.347008 -0.755208 -2.098781
      ESP Fit Center   36 is at  -1.259730  1.969991  2.099658
      ESP Fit Center   37 is at  -0.734730  2.879318  1.818311
      ESP Fit Center   38 is at  -1.784730  2.879318  1.818311
      ESP Fit Center   39 is at  -0.734730  2.879318 -1.818995
      ESP Fit Center   40 is at  -1.784730  2.879318 -1.818995
      ESP Fit Center   41 is at  -1.259730  1.969991 -2.100342
      ESP Fit Center   42 is at  -2.535399 -0.036679  2.099624
      ESP Fit Center   43 is at  -2.535399 -0.036679 -2.100376
      ESP Fit Center   44 is at  -0.142625 -0.038214  2.101831
      ESP Fit Center   45 is at  -0.142625 -0.038214 -2.098169
      ESP Fit Center   46 is at   3.575890 -0.325328  2.099205
      ESP Fit Center   47 is at   3.050890 -1.234655  1.817858
      ESP Fit Center   48 is at   3.050890 -1.234655 -1.819449
      ESP Fit Center   49 is at   3.575890 -0.325328 -2.100795
      ESP Fit Center   50 is at   4.130105  1.656976  1.816410
      ESP Fit Center   51 is at   3.605105  0.747650  1.816410
      ESP Fit Center   52 is at   6.755105  0.747650 -0.002243
      ESP Fit Center   53 is at   6.514562  1.723568 -0.002243
      ESP Fit Center   54 is at   5.848041  2.475916 -0.002243
      ESP Fit Center   55 is at   5.848041 -0.980617 -0.002243
      ESP Fit Center   56 is at   6.514562 -0.228269 -0.002243
      ESP Fit Center   57 is at   5.410601  2.401955 -1.052243
      ESP Fit Center   58 is at   4.130105  1.656976 -1.820897
      ESP Fit Center   59 is at   3.605105  0.747650 -1.820897
      ESP Fit Center   60 is at   0.432163 -2.749893  0.003780
      ESP Fit Center   61 is at  -0.099740  1.299503  2.101130
      ESP Fit Center   62 is at   0.950260  1.299503  1.819783
      ESP Fit Center   63 is at   0.425260  2.208830  1.819783
      ESP Fit Center   64 is at   1.430209  2.282741  1.051130
      ESP Fit Center   65 is at   0.655756  2.953808  1.051130
      ESP Fit Center   66 is at   1.093196  3.027769  0.001130
      ESP Fit Center   67 is at   1.430209  2.282741 -1.048870
      ESP Fit Center   68 is at   0.655756  2.953808 -1.048870
      ESP Fit Center   69 is at   0.950260  1.299503 -1.817524
      ESP Fit Center   70 is at   0.425260  2.208830 -1.817524
      ESP Fit Center   71 is at  -0.099740  1.299503 -2.098870
      ESP Fit Center   72 is at   2.292622  0.130072  2.103685
      ESP Fit Center   73 is at   2.817622  1.039399  1.822338
      ESP Fit Center   74 is at   1.767622  1.039399  1.822338
      ESP Fit Center   75 is at   2.817622  1.039399 -1.814969
      ESP Fit Center   76 is at   1.767622  1.039399 -1.814969
      ESP Fit Center   77 is at   2.292622  0.130072 -2.096315
      ESP Fit Center   78 is at   3.841816 -1.523212  1.956836
      ESP Fit Center   79 is at   4.821816 -1.523212  1.694246
      ESP Fit Center   80 is at   2.861816 -1.523212  1.694246
      ESP Fit Center   81 is at   3.351816 -2.371917  1.694246
      ESP Fit Center   82 is at   4.331816 -2.371917  1.694246
      ESP Fit Center   83 is at   5.539226 -1.523212  0.976836
      ESP Fit Center   84 is at   3.317287 -3.137545  0.976836
      ESP Fit Center   85 is at   4.366344 -3.137545  0.976836
      ESP Fit Center   86 is at   5.215049 -2.520924  0.976836
      ESP Fit Center   87 is at   5.801816 -1.523212 -0.003164
      ESP Fit Center   88 is at   2.861816 -3.220622 -0.003164
      ESP Fit Center   89 is at   3.841816 -3.483212 -0.003164
      ESP Fit Center   90 is at   4.821816 -3.220622 -0.003164
      ESP Fit Center   91 is at   5.539226 -2.503212 -0.003164
      ESP Fit Center   92 is at   5.539226 -1.523212 -0.983164
      ESP Fit Center   93 is at   3.317287 -3.137545 -0.983164
      ESP Fit Center   94 is at   4.366344 -3.137545 -0.983164
      ESP Fit Center   95 is at   5.215049 -2.520924 -0.983164
      ESP Fit Center   96 is at   4.821816 -1.523212 -1.700574
      ESP Fit Center   97 is at   2.861816 -1.523212 -1.700574
      ESP Fit Center   98 is at   3.351816 -2.371917 -1.700574
      ESP Fit Center   99 is at   4.331816 -2.371917 -1.700574
      ESP Fit Center  100 is at   3.841816 -1.523212 -1.963164
      ESP Fit Center  101 is at  -4.068381 -0.881783  2.378675
      ESP Fit Center  102 is at  -3.035738 -0.881783  2.142981
      ESP Fit Center  103 is at  -3.552059  0.012512  2.142981
      ESP Fit Center  104 is at  -4.584703  0.012512  2.142981
      ESP Fit Center  105 is at  -5.101024 -0.881783  2.142981
      ESP Fit Center  106 is at  -4.584703 -1.776079  2.142981
      ESP Fit Center  107 is at  -3.552059 -1.776079  2.142981
      ESP Fit Center  108 is at  -4.643387  0.887904  1.482580
      ESP Fit Center  109 is at  -5.573767  0.211943  1.482580
      ESP Fit Center  110 is at  -5.929140 -0.881783  1.482580
      ESP Fit Center  111 is at  -5.573767 -1.975510  1.482580
      ESP Fit Center  112 is at  -4.643387 -2.651470  1.482580
      ESP Fit Center  113 is at  -3.493375 -2.651470  1.482580
      ESP Fit Center  114 is at  -2.562996 -1.975510  1.482580
      ESP Fit Center  115 is at  -4.891181  1.287762  0.528275
      ESP Fit Center  116 is at  -5.805172  0.656879  0.528275
      ESP Fit Center  117 is at  -6.321285 -0.326492  0.528275
      ESP Fit Center  118 is at  -6.321285 -1.437074  0.528275
      ESP Fit Center  119 is at  -5.805172 -2.420446  0.528275
      ESP Fit Center  120 is at  -4.891181 -3.051328  0.528275
      ESP Fit Center  121 is at  -3.788696 -3.185194  0.528275
      ESP Fit Center  122 is at  -2.750284 -2.791376  0.528275
      ESP Fit Center  123 is at  -4.891181  1.287762 -0.530925
      ESP Fit Center  124 is at  -5.805172  0.656879 -0.530925
      ESP Fit Center  125 is at  -6.321285 -0.326492 -0.530925
      ESP Fit Center  126 is at  -6.321285 -1.437074 -0.530925
      ESP Fit Center  127 is at  -5.805172 -2.420446 -0.530925
      ESP Fit Center  128 is at  -4.891181 -3.051328 -0.530925
      ESP Fit Center  129 is at  -3.788696 -3.185194 -0.530925
      ESP Fit Center  130 is at  -2.750284 -2.791376 -0.530925
      ESP Fit Center  131 is at  -4.643387  0.887904 -1.485231
      ESP Fit Center  132 is at  -5.573767  0.211943 -1.485231
      ESP Fit Center  133 is at  -5.929140 -0.881783 -1.485231
      ESP Fit Center  134 is at  -5.573767 -1.975510 -1.485231
      ESP Fit Center  135 is at  -4.643387 -2.651470 -1.485231
      ESP Fit Center  136 is at  -3.493375 -2.651470 -1.485231
      ESP Fit Center  137 is at  -2.562996 -1.975510 -1.485231
      ESP Fit Center  138 is at  -3.035738 -0.881783 -2.145631
      ESP Fit Center  139 is at  -3.552059  0.012512 -2.145631
      ESP Fit Center  140 is at  -4.584703  0.012512 -2.145631
      ESP Fit Center  141 is at  -5.101024 -0.881783 -2.145631
      ESP Fit Center  142 is at  -4.584703 -1.776079 -2.145631
      ESP Fit Center  143 is at  -3.552059 -1.776079 -2.145631
      ESP Fit Center  144 is at  -4.068381 -0.881783 -2.381325
      ESP Fit Center  145 is at  -3.118394  2.880007  1.356680
      ESP Fit Center  146 is at  -4.222429  2.521284  1.356680
      ESP Fit Center  147 is at  -4.222429  1.360433  1.356680
      ESP Fit Center  148 is at  -3.146091  3.514359  0.516680
      ESP Fit Center  149 is at  -4.222429  3.324572  0.516680
      ESP Fit Center  150 is at  -4.924959  2.487330  0.516680
      ESP Fit Center  151 is at  -4.924959  1.394387  0.516680
      ESP Fit Center  152 is at  -3.146091  3.514359 -0.521617
      ESP Fit Center  153 is at  -4.222429  3.324572 -0.521617
      ESP Fit Center  154 is at  -4.924959  2.487330 -0.521617
      ESP Fit Center  155 is at  -4.924959  1.394387 -0.521617
      ESP Fit Center  156 is at  -3.118394  2.880007 -1.361617
      ESP Fit Center  157 is at  -4.222429  2.521284 -1.361617
      ESP Fit Center  158 is at  -4.222429  1.360433 -1.361617
      ESP Fit Center  159 is at  -2.149360 -2.420648  1.361079
      ESP Fit Center  160 is at  -1.045324 -2.779371  1.361079
      ESP Fit Center  161 is at  -2.149360 -3.223936  0.521079
      ESP Fit Center  162 is at  -1.073022 -3.413723  0.521079
      ESP Fit Center  163 is at  -0.126506 -2.867252  0.521079
      ESP Fit Center  164 is at  -2.149360 -3.223936 -0.517218
      ESP Fit Center  165 is at  -1.073022 -3.413723 -0.517218
      ESP Fit Center  166 is at  -0.126506 -2.867252 -0.517218
      ESP Fit Center  167 is at  -2.149360 -2.420648 -1.357218
      ESP Fit Center  168 is at  -1.045324 -2.779371 -1.357218
      ESP Fit Center  169 is at  -0.880374  3.994636  1.358210
      ESP Fit Center  170 is at  -1.984409  3.635914  1.358210
      ESP Fit Center  171 is at   0.038445  4.082518  0.518210
      ESP Fit Center  172 is at  -0.908071  4.628989  0.518210
      ESP Fit Center  173 is at  -1.984409  4.439202  0.518210
      ESP Fit Center  174 is at  -2.686939  3.601959  0.518210
      ESP Fit Center  175 is at   0.038445  4.082518 -0.520087
      ESP Fit Center  176 is at  -0.908071  4.628989 -0.520087
      ESP Fit Center  177 is at  -1.984409  4.439202 -0.520087
      ESP Fit Center  178 is at  -2.686939  3.601959 -0.520087
      ESP Fit Center  179 is at  -0.880374  3.994636 -1.360087
      ESP Fit Center  180 is at  -1.984409  3.635914 -1.360087
      ESP Fit Center  181 is at   5.291583  0.609893  2.557366
      ESP Fit Center  182 is at   6.279062  0.609893  2.236515
      ESP Fit Center  183 is at   5.596731  1.549041  2.236515
      ESP Fit Center  184 is at   4.492695  1.190319  2.236515
      ESP Fit Center  185 is at   4.492695  0.029467  2.236515
      ESP Fit Center  186 is at   5.596731 -0.329256  2.236515
      ESP Fit Center  187 is at   6.889358  0.609893  1.396515
      ESP Fit Center  188 is at   6.515549  1.636923  1.396515
      ESP Fit Center  189 is at   5.569034  2.183394  1.396515
      ESP Fit Center  190 is at   5.569034 -0.963608  1.396515
      ESP Fit Center  191 is at   6.515549 -0.417137  1.396515
      ESP Fit Center  192 is at   6.889358  0.609893  0.358218
      ESP Fit Center  193 is at   6.515549 -0.417137  0.358218
      ESP Fit Center  194 is at   6.884786  0.612147 -0.366347
      ESP Fit Center  195 is at   6.510977 -0.414883 -0.366347
      ESP Fit Center  196 is at   6.884786  0.612147 -1.404644
      ESP Fit Center  197 is at   6.510977  1.639177 -1.404644
      ESP Fit Center  198 is at   5.564461  2.185648 -1.404644
      ESP Fit Center  199 is at   5.564461 -0.961354 -1.404644
      ESP Fit Center  200 is at   6.510977 -0.414883 -1.404644
      ESP Fit Center  201 is at   6.274490  0.612147 -2.244644
      ESP Fit Center  202 is at   5.592159  1.551296 -2.244644
      ESP Fit Center  203 is at   4.488123  1.192573 -2.244644
      ESP Fit Center  204 is at   4.488123  0.031722 -2.244644
      ESP Fit Center  205 is at   5.592159 -0.327001 -2.244644
      ESP Fit Center  206 is at   5.287011  0.612147 -2.565496
      ESP Fit Center  207 is at   4.565626  2.707683  1.359295
      ESP Fit Center  208 is at   3.461590  2.348960  1.359295
      ESP Fit Center  209 is at   5.484444  2.795564  0.519295
      ESP Fit Center  210 is at   4.537929  3.342036  0.519295
      ESP Fit Center  211 is at   3.461590  3.152248  0.519295
      ESP Fit Center  212 is at   5.484444  2.795564 -0.519002
      ESP Fit Center  213 is at   4.537929  3.342036 -0.519002
      ESP Fit Center  214 is at   3.461590  3.152248 -0.519002
      ESP Fit Center  215 is at   4.565626  2.707683 -1.359002
      ESP Fit Center  216 is at   3.461590  2.348960 -1.359002
      ESP Fit Center  217 is at   1.227696 -1.448725  2.559814
      ESP Fit Center  218 is at   2.215175 -1.448725  2.238962
      ESP Fit Center  219 is at   1.532844 -0.509576  2.238962
      ESP Fit Center  220 is at   0.428809 -0.868299  2.238962
      ESP Fit Center  221 is at   0.428809 -2.029150  2.238962
      ESP Fit Center  222 is at   1.532844 -2.387873  2.238962
      ESP Fit Center  223 is at  -0.273721 -1.995196  1.398962
      ESP Fit Center  224 is at   0.428809 -2.832438  1.398962
      ESP Fit Center  225 is at   1.505147 -3.022226  1.398962
      ESP Fit Center  226 is at   2.451663 -2.475755  1.398962
      ESP Fit Center  227 is at   0.428809 -2.832438  0.360665
      ESP Fit Center  228 is at   1.505147 -3.022226  0.360665
      ESP Fit Center  229 is at   0.430735 -2.834352 -0.351487
      ESP Fit Center  230 is at   1.507074 -3.024140 -0.351487
      ESP Fit Center  231 is at  -0.271794 -1.997110 -1.389785
      ESP Fit Center  232 is at   0.430735 -2.834352 -1.389785
      ESP Fit Center  233 is at   1.507074 -3.024140 -1.389785
      ESP Fit Center  234 is at   2.453590 -2.477668 -1.389785
      ESP Fit Center  235 is at   2.217102 -1.450639 -2.229785
      ESP Fit Center  236 is at   1.534771 -0.511490 -2.229785
      ESP Fit Center  237 is at   0.430735 -0.870213 -2.229785
      ESP Fit Center  238 is at   0.430735 -2.031064 -2.229785
      ESP Fit Center  239 is at   1.534771 -2.389787 -2.229785
      ESP Fit Center  240 is at   1.229623 -1.450639 -2.550636
      ESP Fit Center  241 is at   2.364125  2.054129  1.362451
      ESP Fit Center  242 is at   2.336428  2.688482  0.522451
      ESP Fit Center  243 is at   2.336428  2.688482 -0.515846
      ESP Fit Center  244 is at   2.364125  2.054129 -1.355846
      ESP Fit Center  245 is at  -2.509408  1.358592  2.398780
      ESP Fit Center  246 is at  -3.030069  2.260403  2.161105
      ESP Fit Center  247 is at  -3.550729  1.358592  2.161105
      ESP Fit Center  248 is at  -2.776447  3.215889  1.495156
      ESP Fit Center  249 is at  -2.776447  3.215889 -1.497595
      ESP Fit Center  250 is at  -3.030069  2.260403 -2.163545
      ESP Fit Center  251 is at  -3.550729  1.358592 -2.163545
      ESP Fit Center  252 is at  -2.509408  1.358592 -2.401220
      ESP Fit Center  253 is at  -1.347008 -0.755208  2.401219
      ESP Fit Center  254 is at  -1.867668 -1.657019  2.163544
      ESP Fit Center  255 is at  -0.826347 -1.657019  2.163544
      ESP Fit Center  256 is at  -1.867668 -1.657019 -2.161106
      ESP Fit Center  257 is at  -0.826347 -1.657019 -2.161106
      ESP Fit Center  258 is at  -1.347008 -0.755208 -2.398781
      ESP Fit Center  259 is at  -1.259730  1.969991  2.399658
      ESP Fit Center  260 is at  -0.739069  2.871802  2.161983
      ESP Fit Center  261 is at  -1.780390  2.871802  2.161983
      ESP Fit Center  262 is at  -2.488507  3.388076  1.496033
      ESP Fit Center  263 is at  -2.488507  3.388076 -1.496718
      ESP Fit Center  264 is at  -0.739069  2.871802 -2.162667
      ESP Fit Center  265 is at  -1.780390  2.871802 -2.162667
      ESP Fit Center  266 is at  -1.259730  1.969991 -2.400342
      ESP Fit Center  267 is at  -2.535399 -0.036679  2.399624
      ESP Fit Center  268 is at  -2.535399 -0.036679 -2.400376
      ESP Fit Center  269 is at  -0.142625 -0.038214  2.401831
      ESP Fit Center  270 is at  -0.142625 -0.038214 -2.398169
      ESP Fit Center  271 is at   3.575890 -0.325328  2.399205
      ESP Fit Center  272 is at   3.055229 -1.227139  2.161530
      ESP Fit Center  273 is at   3.055229 -1.227139 -2.163120
      ESP Fit Center  274 is at   3.575890 -0.325328 -2.400795
      ESP Fit Center  275 is at   4.134444  1.649460  2.160082
      ESP Fit Center  276 is at   3.613784  0.747650  2.160082
      ESP Fit Center  277 is at   5.434588  2.454479  1.494132
      ESP Fit Center  278 is at   6.113963  2.577000  0.531807
      ESP Fit Center  279 is at   6.113963  2.577000 -0.536293
      ESP Fit Center  280 is at   5.434588  2.454479 -1.498619
      ESP Fit Center  281 is at   4.134444  1.649460 -2.164568
      ESP Fit Center  282 is at   3.613784  0.747650 -2.164568
      ESP Fit Center  283 is at  -0.099740  1.299503  2.401130
      ESP Fit Center  284 is at   0.941581  1.299503  2.163455
      ESP Fit Center  285 is at   0.420921  2.201313  2.163455
      ESP Fit Center  286 is at   1.478785  2.313959  1.497505
      ESP Fit Center  287 is at   0.679743  3.006332  1.497505
      ESP Fit Center  288 is at   1.359119  3.128853  0.535180
      ESP Fit Center  289 is at   1.359119  3.128853 -0.532921
      ESP Fit Center  290 is at   1.478785  2.313959 -1.495246
      ESP Fit Center  291 is at   0.679743  3.006332 -1.495246
      ESP Fit Center  292 is at   0.941581  1.299503 -2.161196
      ESP Fit Center  293 is at   0.420921  2.201313 -2.161196
      ESP Fit Center  294 is at  -0.099740  1.299503 -2.398870
      ESP Fit Center  295 is at   2.292622  0.130072  2.403685
      ESP Fit Center  296 is at   2.813282  1.031883  2.166010
      ESP Fit Center  297 is at   1.771961  1.031883  2.166010
      ESP Fit Center  298 is at   2.813282  1.031883 -2.158641
      ESP Fit Center  299 is at   1.771961  1.031883 -2.158641
      ESP Fit Center  300 is at   2.292622  0.130072 -2.396315
      ESP Fit Center  301 is at   3.841816 -1.523212  2.236836
      ESP Fit Center  302 is at   4.813715 -1.523212  2.015007
      ESP Fit Center  303 is at   2.869916 -1.523212  2.015007
      ESP Fit Center  304 is at   3.355866 -2.364902  2.015007
      ESP Fit Center  305 is at   4.327766 -2.364902  2.015007
      ESP Fit Center  306 is at   5.593118 -1.523212  1.393453
      ESP Fit Center  307 is at   3.300634 -3.188800  1.393453
      ESP Fit Center  308 is at   4.382998 -3.188800  1.393453
      ESP Fit Center  309 is at   5.258649 -2.552602  1.393453
      ESP Fit Center  310 is at   6.025654 -1.523212  0.495283
      ESP Fit Center  311 is at   3.067416 -3.565137  0.495283
      ESP Fit Center  312 is at   4.105048 -3.691128  0.495283
      ESP Fit Center  313 is at   5.082377 -3.320476  0.495283
      ESP Fit Center  314 is at   5.775509 -2.538092  0.495283
      ESP Fit Center  315 is at   6.025654 -1.523212 -0.501611
      ESP Fit Center  316 is at   3.067416 -3.565137 -0.501611
      ESP Fit Center  317 is at   4.105048 -3.691128 -0.501611
      ESP Fit Center  318 is at   5.082377 -3.320476 -0.501611
      ESP Fit Center  319 is at   5.775509 -2.538092 -0.501611
      ESP Fit Center  320 is at   5.593118 -1.523212 -1.399781
      ESP Fit Center  321 is at   3.300634 -3.188800 -1.399781
      ESP Fit Center  322 is at   4.382998 -3.188800 -1.399781
      ESP Fit Center  323 is at   5.258649 -2.552602 -1.399781
      ESP Fit Center  324 is at   4.813715 -1.523212 -2.021334
      ESP Fit Center  325 is at   2.869916 -1.523212 -2.021334
      ESP Fit Center  326 is at   3.355866 -2.364902 -2.021334
      ESP Fit Center  327 is at   4.327766 -2.364902 -2.021334
      ESP Fit Center  328 is at   3.841816 -1.523212 -2.243164
      ESP Fit Center  329 is at  -4.068381 -0.881783  2.718675
      ESP Fit Center  330 is at  -3.027482 -0.881783  2.511627
      ESP Fit Center  331 is at  -3.547932  0.019662  2.511627
      ESP Fit Center  332 is at  -4.588831  0.019662  2.511627
      ESP Fit Center  333 is at  -5.109280 -0.881783  2.511627
      ESP Fit Center  334 is at  -4.588831 -1.783228  2.511627
      ESP Fit Center  335 is at  -3.547932 -1.783228  2.511627
      ESP Fit Center  336 is at  -4.068381  1.041547  1.922005
      ESP Fit Center  337 is at  -5.030046  0.783870  1.922005
      ESP Fit Center  338 is at  -5.734034  0.079882  1.922005
      ESP Fit Center  339 is at  -5.991712 -0.881783  1.922005
      ESP Fit Center  340 is at  -5.734034 -1.843448  1.922005
      ESP Fit Center  341 is at  -5.030046 -2.547436  1.922005
      ESP Fit Center  342 is at  -4.068381 -2.805114  1.922005
      ESP Fit Center  343 is at  -3.106716 -2.547436  1.922005
      ESP Fit Center  344 is at  -2.402728 -1.843448  1.922005
      ESP Fit Center  345 is at  -5.324857  1.294497  1.039574
      ESP Fit Center  346 is at  -6.101402  0.595293  1.039574
      ESP Fit Center  347 is at  -6.526419 -0.359311  1.039574
      ESP Fit Center  348 is at  -6.526419 -1.404255  1.039574
      ESP Fit Center  349 is at  -6.101402 -2.358859  1.039574
      ESP Fit Center  350 is at  -5.324857 -3.058064  1.039574
      ESP Fit Center  351 is at  -4.331056 -3.380969  1.039574
      ESP Fit Center  352 is at  -3.291836 -3.271743  1.039574
      ESP Fit Center  353 is at  -5.707547  1.288824 -0.001325
      ESP Fit Center  354 is at  -6.380972  0.550112 -0.001325
      ESP Fit Center  355 is at  -6.742068 -0.381984 -0.001325
      ESP Fit Center  356 is at  -6.742068 -1.381582 -0.001325
      ESP Fit Center  357 is at  -6.380972 -2.313679 -0.001325
      ESP Fit Center  358 is at  -5.707547 -3.052390 -0.001325
      ESP Fit Center  359 is at  -4.812744 -3.497949 -0.001325
      ESP Fit Center  360 is at  -3.817411 -3.590180 -0.001325
      ESP Fit Center  361 is at  -2.855973 -3.316627 -0.001325
      ESP Fit Center  362 is at  -5.324857  1.294497 -1.042224
      ESP Fit Center  363 is at  -6.101402  0.595293 -1.042224
      ESP Fit Center  364 is at  -6.526419 -0.359311 -1.042224
      ESP Fit Center  365 is at  -6.526419 -1.404255 -1.042224
      ESP Fit Center  366 is at  -6.101402 -2.358859 -1.042224
      ESP Fit Center  367 is at  -5.324857 -3.058064 -1.042224
      ESP Fit Center  368 is at  -4.331056 -3.380969 -1.042224
      ESP Fit Center  369 is at  -3.291836 -3.271743 -1.042224
      ESP Fit Center  370 is at  -4.068381  1.041547 -1.924656
      ESP Fit Center  371 is at  -5.030046  0.783870 -1.924656
      ESP Fit Center  372 is at  -5.734034  0.079882 -1.924656
      ESP Fit Center  373 is at  -5.991712 -0.881783 -1.924656
      ESP Fit Center  374 is at  -5.734034 -1.843448 -1.924656
      ESP Fit Center  375 is at  -5.030046 -2.547436 -1.924656
      ESP Fit Center  376 is at  -4.068381 -2.805114 -1.924656
      ESP Fit Center  377 is at  -3.106716 -2.547436 -1.924656
      ESP Fit Center  378 is at  -2.402728 -1.843448 -1.924656
      ESP Fit Center  379 is at  -3.027482 -0.881783 -2.514278
      ESP Fit Center  380 is at  -3.547932  0.019662 -2.514278
      ESP Fit Center  381 is at  -4.588831  0.019662 -2.514278
      ESP Fit Center  382 is at  -5.109280 -0.881783 -2.514278
      ESP Fit Center  383 is at  -4.588831 -1.783228 -2.514278
      ESP Fit Center  384 is at  -3.547932 -1.783228 -2.514278
      ESP Fit Center  385 is at  -4.068381 -0.881783 -2.721325
      ESP Fit Center  386 is at  -3.903542  2.772243  1.660300
      ESP Fit Center  387 is at  -4.383542  1.940858  1.660300
      ESP Fit Center  388 is at  -2.909718  3.522245  0.957532
      ESP Fit Center  389 is at  -3.937366  3.522245  0.957532
      ESP Fit Center  390 is at  -4.768750  2.918209  0.957532
      ESP Fit Center  391 is at  -5.086311  1.940858  0.957532
      ESP Fit Center  392 is at  -3.423542  3.860858 -0.002468
      ESP Fit Center  393 is at  -4.383542  3.603627 -0.002468
      ESP Fit Center  394 is at  -5.086311  2.900858 -0.002468
      ESP Fit Center  395 is at  -5.343542  1.940858 -0.002468
      ESP Fit Center  396 is at  -2.909718  3.522245 -0.962468
      ESP Fit Center  397 is at  -3.937366  3.522245 -0.962468
      ESP Fit Center  398 is at  -4.768750  2.918209 -0.962468
      ESP Fit Center  399 is at  -5.086311  1.940858 -0.962468
      ESP Fit Center  400 is at  -3.903542  2.772243 -1.665237
      ESP Fit Center  401 is at  -4.383542  1.940858 -1.665237
      ESP Fit Center  402 is at  -1.830472 -2.671607  1.664700
      ESP Fit Center  403 is at  -0.870472 -2.671607  1.664700
      ESP Fit Center  404 is at  -1.864296 -3.421609  0.961931
      ESP Fit Center  405 is at  -0.836648 -3.421609  0.961931
      ESP Fit Center  406 is at  -2.310472 -3.502991  0.001931
      ESP Fit Center  407 is at  -1.350472 -3.760222  0.001931
      ESP Fit Center  408 is at  -0.390472 -3.502991  0.001931
      ESP Fit Center  409 is at  -1.864296 -3.421609 -0.958069
      ESP Fit Center  410 is at  -0.836648 -3.421609 -0.958069
      ESP Fit Center  411 is at  -1.830472 -2.671607 -1.660838
      ESP Fit Center  412 is at  -0.870472 -2.671607 -1.660838
      ESP Fit Center  413 is at  -0.705522  3.886872  1.661830
      ESP Fit Center  414 is at  -1.665522  3.886872  1.661830
      ESP Fit Center  415 is at   0.159686  4.032839  0.959062
      ESP Fit Center  416 is at  -0.671698  4.636875  0.959062
      ESP Fit Center  417 is at  -1.699346  4.636875  0.959062
      ESP Fit Center  418 is at  -2.530730  4.032839  0.959062
      ESP Fit Center  419 is at   0.477247  4.015488 -0.000938
      ESP Fit Center  420 is at  -0.225522  4.718257 -0.000938
      ESP Fit Center  421 is at  -1.185522  4.975488 -0.000938
      ESP Fit Center  422 is at  -2.145522  4.718257 -0.000938
      ESP Fit Center  423 is at  -2.848291  4.015488 -0.000938
      ESP Fit Center  424 is at   0.159686  4.032839 -0.960938
      ESP Fit Center  425 is at  -0.671698  4.636875 -0.960938
      ESP Fit Center  426 is at  -1.699346  4.636875 -0.960938
      ESP Fit Center  427 is at  -2.530730  4.032839 -0.960938
      ESP Fit Center  428 is at  -0.705522  3.886872 -1.663707
      ESP Fit Center  429 is at  -1.665522  3.886872 -1.663707
      ESP Fit Center  430 is at   5.291583  0.609893  2.797366
      ESP Fit Center  431 is at   6.251583  0.609893  2.540135
      ESP Fit Center  432 is at   5.771583  1.441277  2.540135
      ESP Fit Center  433 is at   4.811583  1.441277  2.540135
      ESP Fit Center  434 is at   4.331583  0.609893  2.540135
      ESP Fit Center  435 is at   4.811583 -0.221492  2.540135
      ESP Fit Center  436 is at   5.771583 -0.221492  2.540135
      ESP Fit Center  437 is at   6.954352  0.609893  1.837366
      ESP Fit Center  438 is at   6.636791  1.587244  1.837366
      ESP Fit Center  439 is at   5.805407  2.191280  1.837366
      ESP Fit Center  440 is at   5.805407 -0.971494  1.837366
      ESP Fit Center  441 is at   6.636791 -0.367458  1.837366
      ESP Fit Center  442 is at   7.211583  0.609893  0.877366
      ESP Fit Center  443 is at   6.954352  1.569893  0.877366
      ESP Fit Center  444 is at   6.251583 -1.052876  0.877366
      ESP Fit Center  445 is at   6.954352 -0.350107  0.877366
      ESP Fit Center  446 is at   7.207011  0.612147 -0.885496
      ESP Fit Center  447 is at   6.949779  1.572147 -0.885496
      ESP Fit Center  448 is at   6.247011 -1.050622 -0.885496
      ESP Fit Center  449 is at   6.949779 -0.347853 -0.885496
      ESP Fit Center  450 is at   6.949779  0.612147 -1.845496
      ESP Fit Center  451 is at   6.632219  1.589498 -1.845496
      ESP Fit Center  452 is at   5.800835  2.193534 -1.845496
      ESP Fit Center  453 is at   5.800835 -0.969240 -1.845496
      ESP Fit Center  454 is at   6.632219 -0.365204 -1.845496
      ESP Fit Center  455 is at   6.247011  0.612147 -2.548265
      ESP Fit Center  456 is at   5.767011  1.443532 -2.548265
      ESP Fit Center  457 is at   4.807011  1.443532 -2.548265
      ESP Fit Center  458 is at   4.327011  0.612147 -2.548265
      ESP Fit Center  459 is at   4.807011 -0.219237 -2.548265
      ESP Fit Center  460 is at   5.767011 -0.219237 -2.548265
      ESP Fit Center  461 is at   5.287011  0.612147 -2.805496
      ESP Fit Center  462 is at   4.740478  2.599919  1.662915
      ESP Fit Center  463 is at   3.780478  2.599919  1.662915
      ESP Fit Center  464 is at   5.605686  2.745885  0.960146
      ESP Fit Center  465 is at   4.774302  3.349921  0.960146
      ESP Fit Center  466 is at   3.746654  3.349921  0.960146
      ESP Fit Center  467 is at   2.915270  2.745885  0.960146
      ESP Fit Center  468 is at   5.220478  3.431303  0.000146
      ESP Fit Center  469 is at   4.260478  3.688534  0.000146
      ESP Fit Center  470 is at   3.300478  3.431303  0.000146
      ESP Fit Center  471 is at   5.605686  2.745885 -0.959854
      ESP Fit Center  472 is at   4.774302  3.349921 -0.959854
      ESP Fit Center  473 is at   3.746654  3.349921 -0.959854
      ESP Fit Center  474 is at   2.915270  2.745885 -0.959854
      ESP Fit Center  475 is at   4.740478  2.599919 -1.662622
      ESP Fit Center  476 is at   3.780478  2.599919 -1.662622
      ESP Fit Center  477 is at   1.227696 -1.448725  2.799814
      ESP Fit Center  478 is at   2.187696 -1.448725  2.542582
      ESP Fit Center  479 is at   1.707696 -0.617340  2.542582
      ESP Fit Center  480 is at   0.747696 -0.617340  2.542582
      ESP Fit Center  481 is at   0.267696 -1.448725  2.542582
      ESP Fit Center  482 is at   0.747696 -2.280109  2.542582
      ESP Fit Center  483 is at   1.707696 -2.280109  2.542582
      ESP Fit Center  484 is at  -0.117512 -2.426076  1.839814
      ESP Fit Center  485 is at   0.713872 -3.030112  1.839814
      ESP Fit Center  486 is at   1.741520 -3.030112  1.839814
      ESP Fit Center  487 is at   2.572904 -2.426076  1.839814
      ESP Fit Center  488 is at   0.267696 -3.111494  0.879814
      ESP Fit Center  489 is at   1.227696 -3.368725  0.879814
      ESP Fit Center  490 is at   2.187696 -3.111494  0.879814
      ESP Fit Center  491 is at   0.269623 -3.113407 -0.870636
      ESP Fit Center  492 is at   1.229623 -3.370639 -0.870636
      ESP Fit Center  493 is at   2.189623 -3.113407 -0.870636
      ESP Fit Center  494 is at  -0.115585 -2.427989 -1.830636
      ESP Fit Center  495 is at   0.715799 -3.032026 -1.830636
      ESP Fit Center  496 is at   1.743447 -3.032026 -1.830636
      ESP Fit Center  497 is at   2.574831 -2.427989 -1.830636
      ESP Fit Center  498 is at   2.189623 -1.450639 -2.533405
      ESP Fit Center  499 is at   1.709623 -0.619254 -2.533405
      ESP Fit Center  500 is at   0.749623 -0.619254 -2.533405
      ESP Fit Center  501 is at   0.269623 -1.450639 -2.533405
      ESP Fit Center  502 is at   0.749623 -2.282023 -2.533405
      ESP Fit Center  503 is at   1.709623 -2.282023 -2.533405
      ESP Fit Center  504 is at   1.229623 -1.450639 -2.790636
      ESP Fit Center  505 is at   2.538977  1.946365  1.666071
      ESP Fit Center  506 is at   1.578977  1.946365  1.666071
      ESP Fit Center  507 is at   2.572801  2.696368  0.963302
      ESP Fit Center  508 is at   2.058977  3.034981  0.003302
      ESP Fit Center  509 is at   2.572801  2.696368 -0.956698
      ESP Fit Center  510 is at   2.538977  1.946365 -1.659466
      ESP Fit Center  511 is at   1.578977  1.946365 -1.659466
      ESP Fit Center  512 is at  -2.509408  1.358592  2.698780
      ESP Fit Center  513 is at  -3.026031  2.253409  2.493255
      ESP Fit Center  514 is at  -3.542654  1.358592  2.493255
      ESP Fit Center  515 is at  -2.781114  3.248348  1.907968
      ESP Fit Center  516 is at  -2.781114  3.248348 -1.910408
      ESP Fit Center  517 is at  -3.026031  2.253409 -2.495695
      ESP Fit Center  518 is at  -3.542654  1.358592 -2.495695
      ESP Fit Center  519 is at  -2.509408  1.358592 -2.701220
      ESP Fit Center  520 is at  -1.347008 -0.755208  2.701219
      ESP Fit Center  521 is at  -1.863630 -1.650025  2.495694
      ESP Fit Center  522 is at  -0.830385 -1.650025  2.495694
      ESP Fit Center  523 is at  -0.553902 -2.491867  1.910407
      ESP Fit Center  524 is at  -0.553902 -2.491867 -1.907969
      ESP Fit Center  525 is at  -1.863630 -1.650025 -2.493256
      ESP Fit Center  526 is at  -0.830385 -1.650025 -2.493256
      ESP Fit Center  527 is at  -1.347008 -0.755208 -2.698781
      ESP Fit Center  528 is at  -1.259730  1.969991  2.699658
      ESP Fit Center  529 is at  -0.743107  2.864808  2.494133
      ESP Fit Center  530 is at  -1.776352  2.864808  2.494133
      ESP Fit Center  531 is at  -2.509982  3.412859  1.908846
      ESP Fit Center  532 is at  -2.509982  3.412859 -1.909530
      ESP Fit Center  533 is at  -0.743107  2.864808 -2.494817
      ESP Fit Center  534 is at  -1.776352  2.864808 -2.494817
      ESP Fit Center  535 is at  -1.259730  1.969991 -2.700342
      ESP Fit Center  536 is at  -2.535399 -0.036679  2.699624
      ESP Fit Center  537 is at  -2.535399 -0.036679 -2.700376
      ESP Fit Center  538 is at  -0.142625 -0.038214  2.701831
      ESP Fit Center  539 is at  -0.142625 -0.038214 -2.698169
      ESP Fit Center  540 is at   3.575890 -0.325328  2.699205
      ESP Fit Center  541 is at   3.059267 -1.220145  2.493680
      ESP Fit Center  542 is at   4.092512 -1.220145  2.493680
      ESP Fit Center  543 is at   3.059267 -1.220145 -2.495270
      ESP Fit Center  544 is at   4.092512 -1.220145 -2.495270
      ESP Fit Center  545 is at   3.575890 -0.325328 -2.700795
      ESP Fit Center  546 is at   4.138482  1.642466  2.492232
      ESP Fit Center  547 is at   3.621859  0.747650  2.492232
      ESP Fit Center  548 is at   6.210384  2.697908  1.031002
      ESP Fit Center  549 is at   7.355105  0.747650 -0.002243
      ESP Fit Center  550 is at   7.149579  1.780895 -0.002243
      ESP Fit Center  551 is at   6.564293  2.656838 -0.002243
      ESP Fit Center  552 is at   6.564293 -1.161539 -0.002243
      ESP Fit Center  553 is at   7.149579 -0.285596 -0.002243
      ESP Fit Center  554 is at   6.210384  2.697908 -1.035488
      ESP Fit Center  555 is at   4.138482  1.642466 -2.496718
      ESP Fit Center  556 is at   3.621859  0.747650 -2.496718
      ESP Fit Center  557 is at   1.176833 -3.486359  0.003780
      ESP Fit Center  558 is at  -0.099740  1.299503  2.701130
      ESP Fit Center  559 is at   0.933506  1.299503  2.495604
      ESP Fit Center  560 is at   0.416883  2.194320  2.495604
      ESP Fit Center  561 is at   1.506372  2.331688  1.910318
      ESP Fit Center  562 is at   0.693366  3.036162  1.910318
      ESP Fit Center  563 is at   1.455540  3.249762  1.034375
      ESP Fit Center  564 is at   0.933506  3.793978  0.001130
      ESP Fit Center  565 is at   1.455540  3.249762 -1.032116
      ESP Fit Center  566 is at   1.506372  2.331688 -1.908059
      ESP Fit Center  567 is at   0.693366  3.036162 -1.908059
      ESP Fit Center  568 is at   0.933506  1.299503 -2.493345
      ESP Fit Center  569 is at   0.416883  2.194320 -2.493345
      ESP Fit Center  570 is at  -0.099740  1.299503 -2.698870
      ESP Fit Center  571 is at   2.292622  0.130072  2.703685
      ESP Fit Center  572 is at   2.809245  1.024889  2.498159
      ESP Fit Center  573 is at   1.775999  1.024889  2.498159
      ESP Fit Center  574 is at   3.085727  1.866731  1.912873
      ESP Fit Center  575 is at   3.085727  1.866731 -1.905504
      ESP Fit Center  576 is at   2.809245  1.024889 -2.490790
      ESP Fit Center  577 is at   1.775999  1.024889 -2.490790
      ESP Fit Center  578 is at   2.292622  0.130072 -2.696315
      ESP Fit Center  579 is at   3.841816 -1.523212  2.516836
      ESP Fit Center  580 is at   4.935203 -1.523212  2.267278
      ESP Fit Center  581 is at   3.295122 -2.470113  2.267278
      ESP Fit Center  582 is at   4.388509 -2.470113  2.267278
      ESP Fit Center  583 is at   5.812031 -1.523212  1.568031
      ESP Fit Center  584 is at   2.551599 -3.012201  1.568031
      ESP Fit Center  585 is at   3.561425 -3.473373  1.568031
      ESP Fit Center  586 is at   4.660273 -3.315383  1.568031
      ESP Fit Center  587 is at   5.499266 -2.588391  1.568031
      ESP Fit Center  588 is at   6.298634 -1.523212  0.557589
      ESP Fit Center  589 is at   2.310015 -3.444030  0.557589
      ESP Fit Center  590 is at   3.295122 -3.918433  0.557589
      ESP Fit Center  591 is at   4.388509 -3.918433  0.557589
      ESP Fit Center  592 is at   5.373617 -3.444030  0.557589
      ESP Fit Center  593 is at   6.055333 -2.589186  0.557589
      ESP Fit Center  594 is at   6.298634 -1.523212 -0.563916
      ESP Fit Center  595 is at   2.310015 -3.444030 -0.563916
      ESP Fit Center  596 is at   3.295122 -3.918433 -0.563916
      ESP Fit Center  597 is at   4.388509 -3.918433 -0.563916
      ESP Fit Center  598 is at   5.373617 -3.444030 -0.563916
      ESP Fit Center  599 is at   6.055333 -2.589186 -0.563916
      ESP Fit Center  600 is at   5.812031 -1.523212 -1.574358
      ESP Fit Center  601 is at   2.551599 -3.012201 -1.574358
      ESP Fit Center  602 is at   3.561425 -3.473373 -1.574358
      ESP Fit Center  603 is at   4.660273 -3.315383 -1.574358
      ESP Fit Center  604 is at   5.499266 -2.588391 -1.574358
      ESP Fit Center  605 is at   4.935203 -1.523212 -2.273605
      ESP Fit Center  606 is at   3.295122 -2.470113 -2.273605
      ESP Fit Center  607 is at   4.388509 -2.470113 -2.273605
[...]
  390 Fit       0.020690
  391 Fit       0.015443
  392 Fit       0.027776
  393 Fit       0.024342
  394 Fit       0.021501
  395 Fit       0.015929
  396 Fit       0.026993
  397 Fit       0.023257
  398 Fit       0.020702
  399 Fit       0.015454
  400 Fit       0.017195
  401 Fit       0.013626
  402 Fit       0.012175
  403 Fit       0.015670
  404 Fit       0.015317
  405 Fit       0.017922
  406 Fit       0.014031
  407 Fit       0.017867
  408 Fit       0.018943
  409 Fit       0.015298
  410 Fit       0.017899
  411 Fit       0.012142
  412 Fit       0.015623
  413 Fit       0.015405
  414 Fit       0.018513
  415 Fit       0.014038
  416 Fit       0.019981
  417 Fit       0.022664
  418 Fit       0.024995
  419 Fit       0.012991
  420 Fit       0.019738
  421 Fit       0.022966
  422 Fit       0.025042
  423 Fit       0.029383
  424 Fit       0.014055
  425 Fit       0.019992
  426 Fit       0.022677
  427 Fit       0.025020
  428 Fit       0.015428
  429 Fit       0.018538
  430 Fit       0.005649
  431 Fit       0.006112
  432 Fit       0.008255
  433 Fit       0.007792
  434 Fit       0.005506
  435 Fit      -0.000878
  436 Fit       0.000380
  437 Fit       0.005190
  438 Fit       0.007960
  439 Fit       0.008746
  440 Fit      -0.013492
  441 Fit      -0.001472
  442 Fit       0.002995
  443 Fit       0.006343
  444 Fit      -0.019922
  445 Fit      -0.004239
  446 Fit       0.002973
  447 Fit       0.006336
  448 Fit      -0.020006
  449 Fit      -0.004279
  450 Fit       0.005168
  451 Fit       0.007956
  452 Fit       0.008755
  453 Fit      -0.013558
  454 Fit      -0.001514
  455 Fit       0.006104
  456 Fit       0.008267
  457 Fit       0.007815
  458 Fit       0.005521
  459 Fit      -0.000895
  460 Fit       0.000359
  461 Fit       0.005658
  462 Fit       0.010187
  463 Fit       0.012739
  464 Fit       0.009552
  465 Fit       0.012410
  466 Fit       0.015756
  467 Fit       0.020709
  468 Fit       0.011806
  469 Fit       0.015108
  470 Fit       0.018745
  471 Fit       0.009551
  472 Fit       0.012401
  473 Fit       0.015740
  474 Fit       0.020661
  475 Fit       0.010186
  476 Fit       0.012726
  477 Fit       0.004382
  478 Fit      -0.004439
  479 Fit       0.000444
  480 Fit       0.006509
  481 Fit       0.009596
  482 Fit       0.007445
  483 Fit      -0.000953
  484 Fit       0.015316
  485 Fit       0.007425
  486 Fit      -0.005851
  487 Fit      -0.023724
  488 Fit       0.015221
  489 Fit      -0.001041
  490 Fit      -0.025518
  491 Fit       0.015185
  492 Fit      -0.001121
  493 Fit      -0.025752
  494 Fit       0.015306
  495 Fit       0.007366
  496 Fit      -0.006014
  497 Fit      -0.024170
  498 Fit      -0.004582
  499 Fit       0.000442
  500 Fit       0.006505
  501 Fit       0.009572
  502 Fit       0.007389
  503 Fit      -0.001090
  504 Fit       0.004327
  505 Fit       0.010984
  506 Fit      -0.000360
  507 Fit       0.019854
  508 Fit       0.015381
  509 Fit       0.019886
  510 Fit       0.011075
  511 Fit      -0.000381
  512 Fit       0.002559
  513 Fit       0.007012
  514 Fit       0.004703
  515 Fit       0.014668
  516 Fit       0.014701
  517 Fit       0.007040
  518 Fit       0.004723
  519 Fit       0.002569
  520 Fit       0.002628
  521 Fit       0.004077
  522 Fit       0.006945
  523 Fit       0.013421
  524 Fit       0.013348
  525 Fit       0.004041
  526 Fit       0.006882
  527 Fit       0.002596
  528 Fit       0.002963
  529 Fit       0.005562
  530 Fit       0.008079
  531 Fit       0.015033
  532 Fit       0.015078
  533 Fit       0.005594
  534 Fit       0.008106
  535 Fit       0.002979
  536 Fit       0.001698
  537 Fit       0.001690
  538 Fit       0.003487
  539 Fit       0.003454
  540 Fit      -0.004282
  541 Fit      -0.013614
  542 Fit      -0.018795
  543 Fit      -0.013714
  544 Fit      -0.018955
  545 Fit      -0.004271
  546 Fit       0.006886
  547 Fit       0.003901
  548 Fit       0.007407
  549 Fit       0.001522
  550 Fit       0.004680
  551 Fit       0.006591
  552 Fit      -0.021299
  553 Fit      -0.005543
  554 Fit       0.007402
  555 Fit       0.006918
  556 Fit       0.003983
  557 Fit      -0.002155
  558 Fit      -0.000898
  559 Fit      -0.002609
  560 Fit      -0.001823
  561 Fit       0.000239
  562 Fit       0.000774
  563 Fit       0.003859
  564 Fit       0.007067
  565 Fit       0.003859
  566 Fit       0.000238
  567 Fit       0.000802
  568 Fit      -0.002599
  569 Fit      -0.001801
  570 Fit      -0.000894
  571 Fit      -0.003129
  572 Fit       0.001032
  573 Fit      -0.001718
  574 Fit       0.009672
  575 Fit       0.009785
  576 Fit       0.001168
  577 Fit      -0.001665
  578 Fit      -0.003049
  579 Fit      -0.022236
  580 Fit      -0.025294
  581 Fit      -0.028971
  582 Fit      -0.034000
  583 Fit      -0.027633
  584 Fit      -0.027020
  585 Fit      -0.037871
  586 Fit      -0.041001
  587 Fit      -0.038665
  588 Fit      -0.030318
  589 Fit      -0.029192
  590 Fit      -0.039422
  591 Fit      -0.043395
  592 Fit      -0.044103
  593 Fit      -0.040794
  594 Fit      -0.030359
  595 Fit      -0.029189
  596 Fit      -0.039429
  597 Fit      -0.043404
  598 Fit      -0.044117
  599 Fit      -0.040815
  600 Fit      -0.027720
  601 Fit      -0.027063
  602 Fit      -0.037901
  603 Fit      -0.041036
  604 Fit      -0.038718
  605 Fit      -0.025385
  606 Fit      -0.029041
  607 Fit      -0.034064
  608 Fit      -0.022320
  609 Fit      -0.002623
  610 Fit       0.000108
  611 Fit       0.000405
  612 Fit      -0.001618
  613 Fit      -0.003574
  614 Fit      -0.003871
  615 Fit      -0.002189
  616 Fit       0.004229
  617 Fit       0.000975
  618 Fit      -0.002001
  619 Fit      -0.002499
  620 Fit      -0.002455
  621 Fit      -0.003089
  622 Fit      -0.002947
  623 Fit      -0.000018
  624 Fit       0.003344
  625 Fit       0.008151
  626 Fit       0.001270
  627 Fit      -0.000966
  628 Fit      -0.000424
  629 Fit       0.000313
  630 Fit      -0.000275
  631 Fit      -0.001746
  632 Fit      -0.001931
  633 Fit       0.001878
  634 Fit       0.009961
  635 Fit       0.001698
  636 Fit       0.000024
  637 Fit       0.001147
  638 Fit       0.002324
  639 Fit       0.001964
  640 Fit       0.000156
  641 Fit      -0.001356
  642 Fit       0.000317
  643 Fit       0.009971
  644 Fit       0.001702
  645 Fit       0.000027
  646 Fit       0.001151
  647 Fit       0.002328
  648 Fit       0.001967
  649 Fit       0.000157
  650 Fit      -0.001358
  651 Fit       0.000308
  652 Fit       0.008175
  653 Fit       0.001280
  654 Fit      -0.000959
  655 Fit      -0.000416
  656 Fit       0.000320
  657 Fit      -0.000270
  658 Fit      -0.001747
  659 Fit      -0.001944
  660 Fit       0.001839
  661 Fit       0.004244
  662 Fit       0.000983
  663 Fit      -0.001995
  664 Fit      -0.002492
  665 Fit      -0.002450
  666 Fit      -0.003091
  667 Fit      -0.002964
  668 Fit      -0.000057
  669 Fit       0.003291
  670 Fit       0.000086
  671 Fit       0.000396
  672 Fit      -0.001620
  673 Fit      -0.003575
  674 Fit      -0.003879
  675 Fit      -0.002213
  676 Fit      -0.002636
  677 Fit       0.014652
  678 Fit       0.010951
  679 Fit       0.020839
  680 Fit       0.018382
  681 Fit       0.014933
  682 Fit       0.026200
  683 Fit       0.021606
  684 Fit       0.019069
  685 Fit       0.015385
  686 Fit       0.020845
  687 Fit       0.018391
  688 Fit       0.014942
  689 Fit       0.014670
  690 Fit       0.010968
  691 Fit       0.009306
  692 Fit       0.012618
  693 Fit       0.012581
  694 Fit       0.014120
  695 Fit       0.011859
  696 Fit       0.014023
  697 Fit       0.014301
  698 Fit       0.012562
  699 Fit       0.014097
  700 Fit       0.009273
  701 Fit       0.012572
  702 Fit       0.012952
  703 Fit       0.015891
  704 Fit       0.011015
  705 Fit       0.016264
  706 Fit       0.018876
  707 Fit       0.020841
  708 Fit       0.010351
  709 Fit       0.016077
  710 Fit       0.019011
  711 Fit       0.020950
  712 Fit       0.023761
  713 Fit       0.011031
  714 Fit       0.016275
  715 Fit       0.018887
  716 Fit       0.020858
  717 Fit       0.012973
  718 Fit       0.015914
  719 Fit       0.003678
  720 Fit       0.003959
  721 Fit       0.006471
  722 Fit       0.006427
  723 Fit       0.003665
  724 Fit      -0.003140
  725 Fit      -0.001812
  726 Fit       0.003224
  727 Fit       0.006082
  728 Fit       0.007405
  729 Fit      -0.013227
  730 Fit      -0.002666
  731 Fit       0.001620
  732 Fit       0.004947
  733 Fit      -0.018592
  734 Fit      -0.004928
  735 Fit       0.001607
  736 Fit       0.004944
  737 Fit      -0.018664
  738 Fit      -0.004959
  739 Fit       0.003206
  740 Fit       0.006077
  741 Fit       0.007409
  742 Fit      -0.013287
  743 Fit      -0.002701
  744 Fit       0.003951
  745 Fit       0.006478
  746 Fit       0.006443
  747 Fit       0.003682
  748 Fit      -0.003156
  749 Fit      -0.001834
  750 Fit       0.003682
  751 Fit       0.009047
  752 Fit       0.010910
  753 Fit       0.010232
  754 Fit       0.012734
  755 Fit       0.015473
  756 Fit       0.009790
  757 Fit       0.012299
  758 Fit       0.014951
  759 Fit       0.019214
  760 Fit       0.010227
  761 Fit       0.012724
  762 Fit       0.015450
  763 Fit       0.009053
  764 Fit       0.010906
  765 Fit       0.002575
  766 Fit      -0.005874
  767 Fit      -0.000619
  768 Fit       0.004711
  769 Fit       0.007410
  770 Fit       0.005227
  771 Fit      -0.002919
  772 Fit       0.010896
  773 Fit       0.002192
  774 Fit      -0.010881
  775 Fit       0.008447
  776 Fit      -0.007247
  777 Fit       0.008402
  778 Fit      -0.007337
  779 Fit       0.010872
  780 Fit       0.002116
  781 Fit      -0.011070
  782 Fit      -0.006015
  783 Fit      -0.000622
  784 Fit       0.004703
  785 Fit       0.007386
  786 Fit       0.005172
  787 Fit      -0.003052
  788 Fit       0.002521
  789 Fit       0.007196
  790 Fit       0.015831
  791 Fit       0.007193
  792 Fit       0.002862
  793 Fit       0.006196
  794 Fit       0.004079
  795 Fit       0.011654
  796 Fit       0.011039
  797 Fit       0.008038
  798 Fit       0.011680
  799 Fit       0.011071
  800 Fit       0.008066
  801 Fit       0.006217
  802 Fit       0.004093
  803 Fit       0.002870
  804 Fit       0.002590
  805 Fit       0.003272
  806 Fit       0.005426
  807 Fit       0.007169
  808 Fit       0.009508
  809 Fit       0.007123
  810 Fit       0.009441
  811 Fit       0.003238
  812 Fit       0.005371
  813 Fit       0.002560
  814 Fit       0.003023
  815 Fit       0.004914
  816 Fit       0.006880
  817 Fit       0.008744
  818 Fit       0.011928
  819 Fit       0.011912
  820 Fit       0.008773
  821 Fit       0.011957
  822 Fit       0.011947
  823 Fit       0.004939
  824 Fit       0.006903
  825 Fit       0.003037
  826 Fit       0.001544
  827 Fit       0.001534
  828 Fit       0.002802
  829 Fit       0.002774
  830 Fit      -0.004302
  831 Fit      -0.010915
  832 Fit      -0.014651
  833 Fit      -0.010992
  834 Fit      -0.014763
  835 Fit      -0.004299
  836 Fit       0.005497
  837 Fit       0.002409
  838 Fit       0.007952
  839 Fit       0.007933
  840 Fit       0.006534
  841 Fit       0.008128
  842 Fit       0.004026
  843 Fit       0.005720
  844 Fit       0.007802
  845 Fit      -0.017486
  846 Fit       0.004014
  847 Fit       0.005716
  848 Fit       0.007797
  849 Fit      -0.017523
  850 Fit       0.006531
  851 Fit       0.008118
  852 Fit       0.007945
  853 Fit       0.007930
  854 Fit       0.005526
  855 Fit       0.002468
  856 Fit       0.000200
  857 Fit      -0.001046
  858 Fit      -0.000065
  859 Fit       0.001085
  860 Fit       0.002074
  861 Fit       0.005129
  862 Fit       0.006423
  863 Fit       0.007445
  864 Fit       0.007452
  865 Fit       0.005130
  866 Fit       0.006451
  867 Fit       0.001097
  868 Fit       0.002098
  869 Fit      -0.001034
  870 Fit      -0.000047
  871 Fit       0.000203
  872 Fit      -0.002114
  873 Fit       0.000959
  874 Fit      -0.000748
  875 Fit       0.006740
  876 Fit       0.002985
  877 Fit       0.003024
  878 Fit       0.001054
  879 Fit      -0.000707
  880 Fit      -0.002066
  881 Fit      -0.017679
  882 Fit      -0.019943
  883 Fit      -0.022635
  884 Fit      -0.026774
  885 Fit      -0.021394
  886 Fit      -0.024788
  887 Fit      -0.031290
  888 Fit      -0.032920
  889 Fit      -0.030197
  890 Fit      -0.023359
  891 Fit      -0.026074
  892 Fit      -0.033204
  893 Fit      -0.036021
  894 Fit      -0.035958
  895 Fit      -0.032406
  896 Fit      -0.024629
  897 Fit      -0.023023
  898 Fit      -0.031773
  899 Fit      -0.035888
  900 Fit      -0.037399
  901 Fit      -0.036691
  902 Fit      -0.032917
  903 Fit      -0.023415
  904 Fit      -0.026090
  905 Fit      -0.033220
  906 Fit      -0.036038
  907 Fit      -0.035981
  908 Fit      -0.032438
  909 Fit      -0.021469
  910 Fit      -0.024835
  911 Fit      -0.031325
  912 Fit      -0.032959
  913 Fit      -0.030248
  914 Fit      -0.020015
  915 Fit      -0.022700
  916 Fit      -0.026832
  917 Fit      -0.017744
  918 Fit      -0.001457
  919 Fit       0.000281
  920 Fit       0.000603
  921 Fit      -0.000612
  922 Fit      -0.002181
  923 Fit      -0.002481
  924 Fit      -0.001233
  925 Fit       0.003453
  926 Fit       0.001394
  927 Fit      -0.000897
  928 Fit      -0.001719
  929 Fit      -0.001959
  930 Fit      -0.002280
  931 Fit      -0.001875
  932 Fit       0.000238
  933 Fit       0.002433
  934 Fit       0.006507
  935 Fit       0.001820
  936 Fit      -0.000291
  937 Fit      -0.000512
  938 Fit      -0.000362
  939 Fit      -0.000778
  940 Fit      -0.001494
  941 Fit      -0.001191
  942 Fit       0.001662
  943 Fit       0.004122
  944 Fit       0.000907
  945 Fit       0.000446
  946 Fit       0.000962
  947 Fit       0.001148
  948 Fit       0.000485
  949 Fit      -0.000580
  950 Fit      -0.000779
  951 Fit       0.001696
  952 Fit       0.003635
  953 Fit       0.001059
  954 Fit       0.000874
  955 Fit       0.001499
  956 Fit       0.001812
  957 Fit       0.001302
  958 Fit       0.000191
  959 Fit      -0.000623
  960 Fit       0.000280
  961 Fit       0.004968
  962 Fit       0.004130
  963 Fit       0.000911
  964 Fit       0.000450
  965 Fit       0.000966
  966 Fit       0.001151
  967 Fit       0.000487
  968 Fit      -0.000581
  969 Fit      -0.000785
  970 Fit       0.001677
  971 Fit       0.006526
  972 Fit       0.001829
  973 Fit      -0.000285
  974 Fit      -0.000507
  975 Fit      -0.000357
  976 Fit      -0.000776
  977 Fit      -0.001498
  978 Fit      -0.001205
  979 Fit       0.001627
  980 Fit       0.003463
  981 Fit       0.001400
  982 Fit      -0.000893
  983 Fit      -0.001715
  984 Fit      -0.001958
  985 Fit      -0.002285
  986 Fit      -0.001892
  987 Fit       0.000204
  988 Fit       0.002390
  989 Fit       0.000261
  990 Fit       0.000595
  991 Fit      -0.000614
  992 Fit      -0.002184
  993 Fit      -0.002490
  994 Fit      -0.001254
  995 Fit      -0.001468
  996 Fit       0.017188
  997 Fit       0.015072
  998 Fit       0.011999
  999 Fit       0.019485
 1000 Fit       0.017015
 1001 Fit       0.014366
 1002 Fit       0.019487
 1003 Fit       0.017018
 1004 Fit       0.014369
 1005 Fit       0.017195
 1006 Fit       0.015081
 1007 Fit       0.012009
 1008 Fit       0.009511
 1009 Fit       0.010839
 1010 Fit       0.009830
 1011 Fit       0.010827
 1012 Fit       0.010557
 1013 Fit       0.009822
 1014 Fit       0.010818
 1015 Fit       0.010547
 1016 Fit       0.009488
 1017 Fit       0.010810
 1018 Fit       0.009274
 1019 Fit       0.013519
 1020 Fit       0.015762
 1021 Fit       0.017373
 1022 Fit       0.008768
 1023 Fit       0.013326
 1024 Fit       0.015865
 1025 Fit       0.017601
 1026 Fit       0.019533
 1027 Fit       0.008775
 1028 Fit       0.013330
 1029 Fit       0.015869
 1030 Fit       0.017605
 1031 Fit       0.019540
 1032 Fit       0.009292
 1033 Fit       0.013531
 1034 Fit       0.015774
 1035 Fit       0.017391
 1036 Fit       0.002335
 1037 Fit       0.002513
 1038 Fit       0.004958
 1039 Fit       0.005066
 1040 Fit       0.002275
 1041 Fit      -0.003176
 1042 Fit      -0.002212
 1043 Fit       0.002162
 1044 Fit       0.004855
 1045 Fit       0.006273
 1046 Fit      -0.010890
 1047 Fit      -0.002846
 1048 Fit       0.001223
 1049 Fit       0.004151
 1050 Fit       0.005964
 1051 Fit      -0.013775
 1052 Fit      -0.004037
 1053 Fit       0.001209
 1054 Fit       0.004146
 1055 Fit       0.005965
 1056 Fit      -0.013833
 1057 Fit      -0.004066
 1058 Fit       0.002148
 1059 Fit       0.004852
 1060 Fit       0.006276
 1061 Fit      -0.010935
 1062 Fit      -0.002874
 1063 Fit       0.002506
 1064 Fit       0.004962
 1065 Fit       0.005077
 1066 Fit       0.002290
 1067 Fit      -0.003186
 1068 Fit      -0.002229
 1069 Fit       0.002337
 1070 Fit       0.009023
 1071 Fit       0.008843
 1072 Fit       0.010637
 1073 Fit       0.012199
 1074 Fit       0.008348
 1075 Fit       0.010213
 1076 Fit       0.012212
 1077 Fit       0.014359
 1078 Fit       0.008346
 1079 Fit       0.010210
 1080 Fit       0.012208
 1081 Fit       0.014349
 1082 Fit       0.008841
 1083 Fit       0.010630
 1084 Fit       0.012185
 1085 Fit       0.009029
 1086 Fit       0.001388
 1087 Fit      -0.005070
 1088 Fit      -0.000673
 1089 Fit       0.003321
 1090 Fit       0.005324
 1091 Fit       0.003325
 1092 Fit      -0.003051
 1093 Fit       0.007521
 1094 Fit       0.000862
 1095 Fit      -0.009119
 1096 Fit       0.002517
 1097 Fit      -0.010186
 1098 Fit       0.003538
 1099 Fit      -0.013870
 1100 Fit       0.003493
 1101 Fit      -0.013933
 1102 Fit       0.002462
 1103 Fit      -0.010304
 1104 Fit       0.007490
 1105 Fit       0.000788
 1106 Fit      -0.009284
 1107 Fit      -0.005187
 1108 Fit      -0.000689
 1109 Fit       0.003307
 1110 Fit       0.005297
 1111 Fit       0.003270
 1112 Fit      -0.003167
 1113 Fit       0.001336
 1114 Fit       0.015114
 -----------------------------------------------------------------
 Leave Link  602 at Sat Feb 17 21:01:06 2018, MaxMem=   33554432 cpu:       0.5

 Test job not archived.
 1\1\GINC-NODE009\SP\RHF\6-31G(d)\C8H9Cl1N2O1\WULSDORT\17-Feb-2018\0\\#
 HF/6-31G* Geom=AllCheck Guess=Read Pop=(MK,ReadRadii) Integral=(Grid=U
 ltraFine) iop(6/33=2)\\Optimization for frag29-conf0\\0,1\C,0,-2.78805
 48872,-2.1990059641,4.8307388718\C,0,-1.2713532865,-0.4241096044,5.437
 9399818\C,0,-1.9596885065,-2.4434564945,3.7400695337\C,0,-2.4207125223
 ,-1.1619366163,5.6892282588\C,0,-0.5084668324,-0.7551610059,4.30965497
 77\C,0,2.5457959772,0.0855093229,2.3412678719\C,0,3.1105709101,-0.5335
 88113,1.0709387036\C,0,0.7537381345,0.0271301665,4.0005333177\N,0,-0.8
 463492346,-1.7463469156,3.4761613439\N,0,1.3906302084,-0.4681296056,2.
 8030705377\O,0,3.0932611738,1.0225657164,2.9138542862\Cl,0,-3.41045350
 45,-0.7910384217,7.0846077765\H,0,-3.6803846002,-2.7886228806,5.006166
 7067\H,0,-0.9723355215,0.3852187206,6.0958488302\H,0,-2.2023440159,-3.
 2411198094,3.0410259659\H,0,3.1896421469,0.2432825352,0.3041182632\H,0
 ,4.1235963911,-0.8946786941,1.2739027582\H,0,2.5094926118,-1.360325391
 1,0.6795920455\H,0,0.5126192482,1.0941445886,3.8905746956\H,0,1.446323
 9189,-0.0316139761,4.8523148707\H,0,0.9297491305,-1.2426180874,2.34221
 17083\\Version=AM64L-G09RevC.01\State=1-A\HF=-951.4475476\RMSD=4.177e-
 09\Dipole=-1.0787031,-1.1878814,-0.350084\Quadrupole=-5.1978101,0.1745
 149,5.0232952,-4.7486805,0.2608339,3.7845291\PG=C01 [X(C8H9Cl1N2O1)]\\
 @


 A MAN THINKING OR WORKING IS ALWAYS ALONE, 
 LET HIM BE WHERE HE WILL.

                                    -- THOREAU
 Job cpu time:  0 days  0 hours  2 minutes  2.6 seconds.
 File lengths (MBytes):  RWF=     26 Int=      0 D2E=      0 Chk=      4 Scr=      1
 Normal termination of Gaussian 09 at Sat Feb 17 21:01:06 2018.
