 Entering Gaussian System, Link 0=g09
 Initial command:
 /home/fb_chem/chemsoft/lx24-amd64/Gaussian_09_C.01_NBO_3.1_64_istanbul-64/g09/l1.exe /local/2400032.1.parallel_long/Gau-29127.inp -scrdir=/local/2400032.1.parallel_long/
 Entering Link 1 = /home/fb_chem/chemsoft/lx24-amd64/Gaussian_09_C.01_NBO_3.1_64_istanbul-64/g09/l1.exe PID=     29128.
  
 Copyright (c) 1988,1990,1992,1993,1995,1998,2003,2009,2011,
            Gaussian, Inc.  All Rights Reserved.
  
 This is part of the Gaussian(R) 09 program.  It is based on
 the Gaussian(R) 03 system (copyright 2003, Gaussian, Inc.),
 the Gaussian(R) 98 system (copyright 1998, Gaussian, Inc.),
 the Gaussian(R) 94 system (copyright 1995, Gaussian, Inc.),
 the Gaussian 92(TM) system (copyright 1992, Gaussian, Inc.),
 the Gaussian 90(TM) system (copyright 1990, Gaussian, Inc.),
 the Gaussian 88(TM) system (copyright 1988, Gaussian, Inc.),
 the Gaussian 86(TM) system (copyright 1986, Carnegie Mellon
 University), and the Gaussian 82(TM) system (copyright 1983,
 Carnegie Mellon University). Gaussian is a federally registered
 trademark of Gaussian, Inc.
  
 This software contains proprietary and confidential information,
 including trade secrets, belonging to Gaussian, Inc.
  
 This software is provided under written license and may be
 used, copied, transmitted, or stored only in accord with that
 written license.
  
 The following legend is applicable only to US Government
 contracts under FAR:
  
                    RESTRICTED RIGHTS LEGEND
  
 Use, reproduction and disclosure by the US Government is
 subject to restrictions as set forth in subparagraphs (a)
 and (c) of the Commercial Computer Software - Restricted
 Rights clause in FAR 52.227-19.
  
 Gaussian, Inc.
 340 Quinnipiac St., Bldg. 40, Wallingford CT 06492
  
  
 ---------------------------------------------------------------
 Warning -- This program may not be used in any manner that
 competes with the business of Gaussian, Inc. or will provide
 assistance to any competitor of Gaussian, Inc.  The licensee
 of this program is prohibited from giving any competitor of
 Gaussian, Inc. access to this program.  By using this program,
 the user acknowledges that Gaussian, Inc. is engaged in the
 business of creating and licensing software in the field of
 computational chemistry and represents and warrants to the
 licensee that it is not a competitor of Gaussian, Inc. and that
 it will not use this program in any manner prohibited above.
 ---------------------------------------------------------------
  

 Cite this work as:
 Gaussian 09, Revision C.01,
 M. J. Frisch, G. W. Trucks, H. B. Schlegel, G. E. Scuseria, 
 M. A. Robb, J. R. Cheeseman, G. Scalmani, V. Barone, B. Mennucci, 
 G. A. Petersson, H. Nakatsuji, M. Caricato, X. Li, H. P. Hratchian, 
 A. F. Izmaylov, J. Bloino, G. Zheng, J. L. Sonnenberg, M. Hada, 
 M. Ehara, K. Toyota, R. Fukuda, J. Hasegawa, M. Ishida, T. Nakajima, 
 Y. Honda, O. Kitao, H. Nakai, T. Vreven, J. A. Montgomery, Jr., 
 J. E. Peralta, F. Ogliaro, M. Bearpark, J. J. Heyd, E. Brothers, 
 K. N. Kudin, V. N. Staroverov, T. Keith, R. Kobayashi, J. Normand, 
 K. Raghavachari, A. Rendell, J. C. Burant, S. S. Iyengar, J. Tomasi, 
 M. Cossi, N. Rega, J. M. Millam, M. Klene, J. E. Knox, J. B. Cross, 
 V. Bakken, C. Adamo, J. Jaramillo, R. Gomperts, R. E. Stratmann, 
 O. Yazyev, A. J. Austin, R. Cammi, C. Pomelli, J. W. Ochterski, 
 R. L. Martin, K. Morokuma, V. G. Zakrzewski, G. A. Voth, 
 P. Salvador, J. J. Dannenberg, S. Dapprich, A. D. Daniels, 
 O. Farkas, J. B. Foresman, J. V. Ortiz, J. Cioslowski, 
 and D. J. Fox, Gaussian, Inc., Wallingford CT, 2010.
 
 ******************************************
 Gaussian 09:  AM64L-G09RevC.01 23-Sep-2011
                17-Feb-2018 
 ******************************************
 %nprocs=2
 Will use up to    2 processors via shared memory.
 %chk=frag25-conf2.chk
 ----------------------------------------------------------------------
 #HF/6-31G* Geom=AllCheck Guess=Read Pop=(MK,ReadRadii) Integral=(Grid=
 UltraFine) iop(6/33=2)
 ----------------------------------------------------------------------
 1/29=7,38=1/1;
 2/12=2,40=1/2;
 3/5=1,6=6,7=1,11=9,14=-4,16=1,25=1,30=1,75=-5,116=-2/1,2,3;
 4/5=1/1;
 5/5=2,38=6/2;
 6/7=2,8=2,9=2,10=2,15=8,20=101,28=1,33=2/1,2;
 99/5=1,9=1/99;
 Structure from the checkpoint file:  frag25-conf2.chk
 -----------------------------
 Optimization for frag25-conf2
 -----------------------------
 Charge =  0 Multiplicity = 1
 Redundant internal coordinates found in file.
 C,0,1.1218402968,-4.4462970146,-1.1620822736
 C,0,-0.5417885892,-2.0795030076,-1.8823748315
 C,0,0.5478989248,-0.7607428751,-0.0220135892
 C,0,1.0499781863,-6.1774987314,-2.8624610072
 C,0,2.3571262078,-4.1077633797,-3.3120502895
 C,0,4.3251398756,-1.8880615968,1.6561629848
 C,0,1.4967338068,-3.0278304575,-0.6839506922
 C,0,0.2162385018,-2.1624612988,-0.5479764462
 N,0,2.1485387296,-3.1638355022,0.6382502437
 N,0,1.4993440015,-4.8668873771,-2.4014881594
 O,0,0.4697112689,-5.1457262051,-0.3821098309
 O,0,4.3771836702,-3.1476001995,-0.6628306871
 O,0,4.1466840581,-4.5233207367,1.4830331322
 S,0,3.8352757189,-3.3290807803,0.6929662216
 H,0,0.0752701107,-1.6127945627,-2.6616262714
 H,0,-0.8562498067,-3.0654718694,-2.2396470834
 H,0,-1.4429601131,-1.4671046722,-1.7683736935
 H,0,1.1782321058,-0.2107422433,-0.7339316826
 H,0,1.0742342894,-0.8094885196,0.9351931076
 H,0,-0.36984676,-0.1793539685,0.1227026459
 H,0,0.4929786924,-6.0798184326,-3.8026112672
 H,0,0.406774088,-6.60987047,-2.0976924826
 H,0,1.9084184133,-6.8391304988,-3.031362776
 H,0,3.1850992529,-3.6401090087,-2.7761001325
 H,0,1.7966691227,-3.346903837,-3.8711203387
 H,0,2.7857306425,-4.8073341727,-4.0342328371
 H,0,5.4141015647,-1.9131283562,1.7399197814
 H,0,4.0017423373,-0.9867941864,1.1331128393
 H,0,3.8637321661,-1.9528824066,2.642730158
 H,0,2.1986538554,-2.5225892111,-1.3462477322
 H,0,-0.4285858515,-2.6725456655,0.1791817195
 H,0,1.7312735881,-3.9480818406,1.1454463968
 Recover connectivity data from disk.
                          Input orientation:                          
 ---------------------------------------------------------------------
 Center     Atomic      Atomic             Coordinates (Angstroms)
 Number     Number       Type             X           Y           Z
 ---------------------------------------------------------------------
      1          6           0        1.121840   -4.446297   -1.162082
      2          6           0       -0.541789   -2.079503   -1.882375
      3          6           0        0.547899   -0.760743   -0.022014
      4          6           0        1.049978   -6.177499   -2.862461
      5          6           0        2.357126   -4.107763   -3.312050
      6          6           0        4.325140   -1.888062    1.656163
      7          6           0        1.496734   -3.027830   -0.683951
      8          6           0        0.216239   -2.162461   -0.547976
      9          7           0        2.148539   -3.163836    0.638250
     10          7           0        1.499344   -4.866887   -2.401488
     11          8           0        0.469711   -5.145726   -0.382110
     12          8           0        4.377184   -3.147600   -0.662831
     13          8           0        4.146684   -4.523321    1.483033
     14         16           0        3.835276   -3.329081    0.692966
     15          1           0        0.075270   -1.612795   -2.661626
     16          1           0       -0.856250   -3.065472   -2.239647
     17          1           0       -1.442960   -1.467105   -1.768374
     18          1           0        1.178232   -0.210742   -0.733932
     19          1           0        1.074234   -0.809489    0.935193
     20          1           0       -0.369847   -0.179354    0.122703
     21          1           0        0.492979   -6.079818   -3.802611
     22          1           0        0.406774   -6.609870   -2.097692
     23          1           0        1.908418   -6.839130   -3.031363
     24          1           0        3.185099   -3.640109   -2.776100
     25          1           0        1.796669   -3.346904   -3.871120
     26          1           0        2.785731   -4.807334   -4.034233
     27          1           0        5.414102   -1.913128    1.739920
     28          1           0        4.001742   -0.986794    1.133113
     29          1           0        3.863732   -1.952882    2.642730
     30          1           0        2.198654   -2.522589   -1.346248
     31          1           0       -0.428586   -2.672546    0.179182
     32          1           0        1.731274   -3.948082    1.145446
 ---------------------------------------------------------------------
                    Distance matrix (angstroms):
                    1          2          3          4          5
     1  C    0.000000
     2  C    2.981308   0.000000
     3  C    3.900317   2.527349   0.000000
     4  C    2.427656   4.504205   6.136894   0.000000
     5  C    2.502578   3.815956   5.029930   2.488889   0.000000
     6  C    4.974757   6.020373   4.284235   7.038744   5.786475
     7  C    1.543114   2.547767   2.545218   3.855633   2.968743
     8  C    2.532419   1.536915   1.533444   4.708767   4.000963
     9  N    2.437214   3.842810   2.961900   4.748050   4.066864
    10  N    1.362179   3.493596   4.840203   1.460181   1.463278
    11  O    1.234030   3.560288   4.400439   2.748346   3.636517
    12  O    3.540216   5.179228   4.557538   5.008888   3.467118
    13  O    4.018986   6.267375   5.419724   5.586521   5.134981
    14  S    3.471615   5.229963   4.232541   5.339703   4.339520
    15  H    3.372340   1.098094   2.813703   4.671928   3.443078
    16  H    2.642095   1.094835   3.493037   3.702204   3.544320
    17  H    3.977610   1.095508   2.740847   5.440550   4.878183
    18  H    4.257513   2.787411   1.098475   6.336345   4.819052
    19  H    4.198477   3.487572   1.093458   6.575584   5.528427
    20  H    4.699213   2.767755   1.095999   6.848711   5.887810
    21  H    3.168004   4.556377   6.525987   1.097120   2.757662
    22  H    2.463278   4.633612   6.208112   1.088819   3.396922
    23  H    3.136649   5.475193   6.917658   1.096907   2.782174
    24  H    2.740808   4.138107   4.778134   3.317310   1.091551
    25  H    3.000491   3.321114   4.802424   3.096322   1.097988
    26  H    3.338881   4.810815   6.122148   2.502646   1.093000
    27  H    5.767327   6.972899   5.302106   7.642796   6.299518
    28  H    5.052714   5.561551   3.648897   7.184771   5.674917
    29  H    5.311467   6.316741   4.417783   7.488106   6.509438
    30  H    2.212260   2.827328   2.753669   4.120282   2.530271
    31  H    2.710905   2.148146   2.156152   4.870569   4.691348
    32  H    2.438097   4.222097   3.594783   4.636570   4.504050
                    6          7          8          9         10
     6  C    0.000000
     7  C    3.843837   0.000000
     8  C    4.670824   1.551458   0.000000
     9  N    2.720540   1.480393   2.478642   0.000000
    10  N    5.772613   2.516361   3.520765   3.544270   0.000000
    11  O    5.443461   2.373050   2.998605   2.790607   2.283809
    12  O    2.639484   2.883016   4.277517   2.580685   3.776353
    13  O    2.646963   3.735578   5.014684   2.560165   4.713380
    14  S    1.801180   2.730463   3.999796   1.695695   4.170980
    15  H    6.064690   2.816751   2.188497   4.194443   3.561570
    16  H    6.588659   2.821018   2.197137   4.161817   2.969867
    17  H    6.721282   3.500520   2.173897   4.644308   4.540541
    18  H    4.292899   2.835477   2.183854   3.397814   4.956162
    19  H    3.500215   2.778700   2.183228   2.604852   5.270355
    20  H    5.226288   3.499804   2.173941   3.938932   5.642551
    21  H    7.877468   4.477521   5.100482   5.564628   2.108819
    22  H    7.193087   4.002210   4.713531   4.732260   2.079421
    23  H    7.233707   4.495090   5.558949   5.199184   2.110409
    24  H    4.900441   2.757273   3.995261   3.599873   2.118275
    25  H    6.250780   3.217114   3.865741   4.526781   2.135081
    26  H    6.578187   4.006562   5.074606   4.993916   2.079469
    27  H    1.092466   4.739565   5.684577   3.666312   6.418822
    28  H    1.091078   3.707104   4.305612   2.901510   5.814682
    29  H    1.091061   4.221966   4.850643   2.902798   6.286962
    30  H    3.733502   1.089311   2.167233   2.086131   2.664264
    31  H    5.039325   2.139645   1.097608   2.663396   3.897680
    32  H    3.351516   2.061205   2.889888   1.022937   3.671340
                   11         12         13         14         15
    11  O    0.000000
    12  O    4.397687   0.000000
    13  O    4.169685   2.559388   0.000000
    14  S    3.972784   1.471321   1.465398   0.000000
    15  H    4.222959   4.985707   6.498136   5.323211   0.000000
    16  H    3.088054   5.466436   6.404141   5.538964   1.776532
    17  H    4.371761   6.157951   7.152358   6.114321   1.767526
    18  H    4.997984   4.343211   5.685506   4.338197   2.626458
    19  H    4.572056   4.350853   4.851044   3.745713   3.818421
    20  H    5.062069   5.653481   6.412456   5.284793   3.163126
    21  H    3.545828   5.791647   6.611375   6.240811   4.629323
    22  H    2.256303   5.459881   5.582312   5.505087   5.039711
    23  H    3.457750   5.033105   5.545501   5.468442   5.550831
    24  H    3.920638   2.475790   4.454764   3.543147   3.714047
    25  H    4.143643   4.122123   5.964351   4.998712   2.726394
    26  H    4.337794   4.080906   5.689735   5.062923   4.408597
    27  H    6.276918   2.893498   2.912978   2.365106   6.925816
    28  H    5.662849   2.834687   3.556750   2.389089   5.496281
    29  H    5.555474   3.552142   2.834098   2.386695   6.527197
    30  H    3.286282   2.367211   3.975246   2.736303   2.658328
    31  H    2.690466   4.902049   5.104752   4.344598   3.073619
    32  H    2.315020   3.303252   2.505808   2.239358   4.763372
                   16         17         18         19         20
    16  H    0.000000
    17  H    1.766665   0.000000
    18  H    3.815203   3.085314   0.000000
    19  H    4.346935   3.752066   1.776314   0.000000
    20  H    3.761245   2.527062   1.769564   1.772732   0.000000
    21  H    3.653705   5.400288   6.658260   7.110628   7.139190
    22  H    3.765387   5.475218   6.588159   6.579387   6.847250
    23  H    4.744545   6.456434   7.053148   7.265398   7.713057
    24  H    4.117098   5.211180   4.467496   5.122681   5.746088
    25  H    3.127121   4.295391   4.478831   5.482795   5.538753
    26  H    4.417991   5.845774   5.882576   6.603574   6.975384
    27  H    7.515461   7.715332   5.192365   4.549731   6.251034
    28  H    6.268692   6.188223   3.472797   2.939543   4.558912
    29  H    6.881402   6.917716   4.652828   3.464727   5.236328
    30  H    3.228826   3.814917   2.600159   3.066595   3.774356
    31  H    2.487573   2.504998   3.078330   2.510180   2.494523
    32  H    4.351222   4.972057   4.219671   3.213514   4.434413
                   21         22         23         24         25
    21  H    0.000000
    22  H    1.787494   0.000000
    23  H    1.781810   1.783041   0.000000
    24  H    3.775370   4.122961   3.453811   0.000000
    25  H    3.028717   3.965325   3.593512   1.792422   0.000000
    26  H    2.632409   3.557915   2.429737   1.762046   1.771357
    27  H    8.502847   7.865112   7.701977   5.324035   6.828272
    28  H    7.912755   7.414910   7.481624   4.794677   5.956074
    29  H    8.362775   7.490641   7.739122   5.715855   6.974690
    30  H    4.647250   4.525635   4.642885   2.065527   2.686274
    31  H    5.321040   4.624339   5.755833   4.767451   4.670275
    32  H    5.528196   4.399701   5.082841   4.193684   5.052884
                   26         27         28         29         30
    26  H    0.000000
    27  H    6.973206   0.000000
    28  H    6.540388   1.794733   0.000000
    29  H    7.341105   1.794517   1.797587   0.000000
    30  H    3.576309   4.498330   3.428852   4.359931   0.000000
    31  H    5.713319   6.095048   4.835240   5.001098   3.041679
    32  H    5.355303   4.249430   3.731542   3.281777   2.908438
                   31         32
    31  H    0.000000
    32  H    2.688057   0.000000
 Stoichiometry    C8H18N2O3S
 Framework group  C1[X(C8H18N2O3S)]
 Deg. of freedom    90
 Full point group                 C1      NOp   1
 Largest Abelian subgroup         C1      NOp   1
 Largest concise Abelian subgroup C1      NOp   1
                         Standard orientation:                         
 ---------------------------------------------------------------------
 Center     Atomic      Atomic             Coordinates (Angstroms)
 Number     Number       Type             X           Y           Z
 ---------------------------------------------------------------------
      1          6           0        1.326393   -0.385474   -0.588254
      2          6           0        2.212500    2.321579    0.292015
      3          6           0       -0.182117    3.124349    0.197884
      4          6           0        3.060849   -2.060970   -0.309171
      5          6           0        1.882756   -1.205908    1.709625
      6          6           0       -3.497584    0.414070    0.327267
      7          6           0        0.324215    0.639241   -0.016589
      8          6           0        0.819241    2.080006   -0.310130
      9          7           0       -0.974403    0.412018   -0.690029
     10          7           0        2.053493   -1.168219    0.256831
     11          8           0        1.432674   -0.439141   -1.816527
     12          8           0       -1.562011   -1.065773    1.342404
     13          8           0       -2.469782   -1.645809   -0.979229
     14         16           0       -2.079477   -0.655262    0.027681
     15          1           0        2.198782    2.207142    1.384043
     16          1           0        2.961901    1.634797   -0.114668
     17          1           0        2.547301    3.341697    0.074285
     18          1           0       -0.275847    3.082320    1.291546
     19          1           0       -1.173238    2.969501   -0.237261
     20          1           0        0.151878    4.134458   -0.065441
     21          1           0        4.045884   -1.846263    0.123586
     22          1           0        3.091522   -1.906889   -1.386597
     23          1           0        2.806813   -3.107187   -0.099172
     24          1           0        0.826124   -1.191542    1.983130
     25          1           0        2.409454   -0.382593    2.209945
     26          1           0        2.304628   -2.145688    2.074983
     27          1           0       -4.268763   -0.200020    0.798073
     28          1           0       -3.194747    1.224782    0.991711
     29          1           0       -3.849876    0.804609   -0.628653
     30          1           0        0.162438    0.530294    1.055119
     31          1           0        0.900128    2.165221   -1.401432
     32          1           0       -0.810944    0.107379   -1.652774
 ---------------------------------------------------------------------
 Rotational constants (GHZ):      0.7548602      0.4768182      0.3665793
 Standard basis: 6-31G(d) (6D, 7F)
 There are   250 symmetry adapted basis functions of A   symmetry.
 Integral buffers will be    131072 words long.
 Raffenetti 1 integral format.
 Two-electron integral symmetry is turned on.
   250 basis functions,   488 primitive gaussians,   250 cartesian basis functions
    60 alpha electrons       60 beta electrons
       nuclear repulsion energy      1180.0395778559 Hartrees.
 NAtoms=   32 NActive=   32 NUniq=   32 SFac= 1.00D+00 NAtFMM=   60 NAOKFM=F Big=F
 One-electron integrals computed using PRISM.
 NBasis=   250 RedAO= T  NBF=   250
 NBsUse=   250 1.00D-06 NBFU=   250
 Initial guess read from the checkpoint file:  frag25-conf2.chk
 B after Tr=     0.000000    0.000000    0.000000
         Rot=    1.000000    0.000000    0.000000    0.000000 Ang=   0.00 deg.
 Initial guess orbital symmetries:
       Occupied  (A) (A) (A) (A) (A) (A) (A) (A) (A) (A) (A) (A)
                 (A) (A) (A) (A) (A) (A) (A) (A) (A) (A) (A) (A)
                 (A) (A) (A) (A) (A) (A) (A) (A) (A) (A) (A) (A)
                 (A) (A) (A) (A) (A) (A) (A) (A) (A) (A) (A) (A)
                 (A) (A) (A) (A) (A) (A) (A) (A) (A) (A) (A) (A)
       Virtual   (A) (A) (A) (A) (A) (A) (A) (A) (A) (A) (A) (A)
                 (A) (A) (A) (A) (A) (A) (A) (A) (A) (A) (A) (A)
                 (A) (A) (A) (A) (A) (A) (A) (A) (A) (A) (A) (A)
                 (A) (A) (A) (A) (A) (A) (A) (A) (A) (A) (A) (A)
                 (A) (A) (A) (A) (A) (A) (A) (A) (A) (A) (A) (A)
                 (A) (A) (A) (A) (A) (A) (A) (A) (A) (A) (A) (A)
                 (A) (A) (A) (A) (A) (A) (A) (A) (A) (A) (A) (A)
                 (A) (A) (A) (A) (A) (A) (A) (A) (A) (A) (A) (A)
                 (A) (A) (A) (A) (A) (A) (A) (A) (A) (A) (A) (A)
                 (A) (A) (A) (A) (A) (A) (A) (A) (A) (A) (A) (A)
                 (A) (A) (A) (A) (A) (A) (A) (A) (A) (A) (A) (A)
                 (A) (A) (A) (A) (A) (A) (A) (A) (A) (A) (A) (A)
                 (A) (A) (A) (A) (A) (A) (A) (A) (A) (A) (A) (A)
                 (A) (A) (A) (A) (A) (A) (A) (A) (A) (A) (A) (A)
                 (A) (A) (A) (A) (A) (A) (A) (A) (A) (A) (A) (A)
                 (A) (A) (A) (A) (A) (A) (A) (A) (A) (A)
 Requested convergence on RMS density matrix=1.00D-08 within 128 cycles.
 Requested convergence on MAX density matrix=1.00D-06.
 Requested convergence on             energy=1.00D-06.
 No special actions if energy rises.
 SCF Done:  E(RHF) =  -1044.34893152     A.U. after   13 cycles
             Convg  =    0.6744D-08             -V/T =  2.0022

 **********************************************************************

            Population analysis using the SCF density.

 **********************************************************************

 Orbital symmetries:
 BldTbl:  Degeneracy threshold= 1.00D-02
       Occupied  (A) (A) (A) (A) (A) (A) (A) (A) (A) (A) (A) (A)
                 (A) (A) (A) (A) (A) (A) (A) (A) (A) (A) (A) (A)
                 (A) (A) (A) (A) (A) (A) (A) (A) (A) (A) (A) (A)
                 (A) (A) (A) (A) (A) (A) (A) (A) (A) (A) (A) (A)
                 (A) (A) (A) (A) (A) (A) (A) (A) (A) (A) (A) (A)
       Virtual   (A) (A) (A) (A) (A) (A) (A) (A) (A) (A) (A) (A)
                 (A) (A) (A) (A) (A) (A) (A) (A) (A) (A) (A) (A)
                 (A) (A) (A) (A) (A) (A) (A) (A) (A) (A) (A) (A)
                 (A) (A) (A) (A) (A) (A) (A) (A) (A) (A) (A) (A)
                 (A) (A) (A) (A) (A) (A) (A) (A) (A) (A) (A) (A)
                 (A) (A) (A) (A) (A) (A) (A) (A) (A) (A) (A) (A)
                 (A) (A) (A) (A) (A) (A) (A) (A) (A) (A) (A) (A)
                 (A) (A) (A) (A) (A) (A) (A) (A) (A) (A) (A) (A)
                 (A) (A) (A) (A) (A) (A) (A) (A) (A) (A) (A) (A)
                 (A) (A) (A) (A) (A) (A) (A) (A) (A) (A) (A) (A)
                 (A) (A) (A) (A) (A) (A) (A) (A) (A) (A) (A) (A)
                 (A) (A) (A) (A) (A) (A) (A) (A) (A) (A) (A) (A)
                 (A) (A) (A) (A) (A) (A) (A) (A) (A) (A) (A) (A)
                 (A) (A) (A) (A) (A) (A) (A) (A) (A) (A) (A) (A)
                 (A) (A) (A) (A) (A) (A) (A) (A) (A) (A) (A) (A)
                 (A) (A) (A) (A) (A) (A) (A) (A) (A) (A)
 The electronic state is 1-A.
 Alpha  occ. eigenvalues --  -92.21429 -20.56396 -20.55942 -20.52757 -15.60843
 Alpha  occ. eigenvalues --  -15.60129 -11.35782 -11.29289 -11.27984 -11.26870
 Alpha  occ. eigenvalues --  -11.25851 -11.24744 -11.22837 -11.22514  -9.18570
 Alpha  occ. eigenvalues --   -6.87156  -6.87142  -6.87035  -1.45595  -1.38137
 Alpha  occ. eigenvalues --   -1.33900  -1.24636  -1.23579  -1.09328  -1.04000
 Alpha  occ. eigenvalues --   -0.98541  -0.96754  -0.94071  -0.92146  -0.83368
 Alpha  occ. eigenvalues --   -0.79983  -0.75262  -0.72619  -0.69573  -0.67740
 Alpha  occ. eigenvalues --   -0.67057  -0.65741  -0.64935  -0.63615  -0.61930
 Alpha  occ. eigenvalues --   -0.60396  -0.59854  -0.59450  -0.56840  -0.56608
 Alpha  occ. eigenvalues --   -0.56220  -0.55800  -0.54414  -0.53640  -0.53113
 Alpha  occ. eigenvalues --   -0.51793  -0.50009  -0.49058  -0.48628  -0.47929
 Alpha  occ. eigenvalues --   -0.46825  -0.46023  -0.44016  -0.40610  -0.37347
 Alpha virt. eigenvalues --    0.17430   0.20269   0.22461   0.23692   0.24327
 Alpha virt. eigenvalues --    0.24546   0.25874   0.26851   0.27519   0.27731
 Alpha virt. eigenvalues --    0.28490   0.28871   0.29312   0.30229   0.31473
 Alpha virt. eigenvalues --    0.31613   0.31850   0.32259   0.32601   0.33529
 Alpha virt. eigenvalues --    0.34086   0.34737   0.35141   0.39358   0.39571
 Alpha virt. eigenvalues --    0.40266   0.42449   0.43575   0.44265   0.45861
 Alpha virt. eigenvalues --    0.51619   0.54427   0.56740   0.62278   0.63652
 Alpha virt. eigenvalues --    0.66763   0.69311   0.71204   0.71316   0.72333
 Alpha virt. eigenvalues --    0.73005   0.73850   0.75876   0.76163   0.77000
 Alpha virt. eigenvalues --    0.80036   0.80638   0.84595   0.86595   0.90227
 Alpha virt. eigenvalues --    0.91147   0.92585   0.93658   0.94881   0.95545
 Alpha virt. eigenvalues --    0.96366   0.96853   0.98816   1.00216   1.03701
 Alpha virt. eigenvalues --    1.04994   1.05470   1.06193   1.08444   1.09974
 Alpha virt. eigenvalues --    1.10828   1.11636   1.11971   1.12177   1.13012
 Alpha virt. eigenvalues --    1.13266   1.13736   1.14691   1.15628   1.16922
 Alpha virt. eigenvalues --    1.17217   1.18105   1.18801   1.19210   1.21194
 Alpha virt. eigenvalues --    1.21483   1.23507   1.24285   1.24620   1.26265
 Alpha virt. eigenvalues --    1.26752   1.28482   1.31060   1.31608   1.33728
 Alpha virt. eigenvalues --    1.35339   1.36804   1.39492   1.40332   1.44153
 Alpha virt. eigenvalues --    1.46263   1.48254   1.48797   1.52219   1.52968
 Alpha virt. eigenvalues --    1.55200   1.58195   1.59761   1.65000   1.67661
 Alpha virt. eigenvalues --    1.69909   1.70996   1.73201   1.74497   1.78508
 Alpha virt. eigenvalues --    1.81507   1.84377   1.86054   1.90253   1.91205
 Alpha virt. eigenvalues --    1.94571   1.97487   2.01562   2.04533   2.04897
 Alpha virt. eigenvalues --    2.07717   2.10081   2.10859   2.11065   2.14564
 Alpha virt. eigenvalues --    2.15835   2.17000   2.18404   2.21058   2.23295
 Alpha virt. eigenvalues --    2.25760   2.26224   2.27263   2.30083   2.31863
 Alpha virt. eigenvalues --    2.32022   2.33573   2.36207   2.37932   2.39933
 Alpha virt. eigenvalues --    2.40440   2.41256   2.41750   2.43179   2.45633
 Alpha virt. eigenvalues --    2.50262   2.51128   2.52323   2.55378   2.56430
 Alpha virt. eigenvalues --    2.57626   2.58264   2.59451   2.62277   2.63720
 Alpha virt. eigenvalues --    2.64306   2.68520   2.70277   2.72581   2.74902
 Alpha virt. eigenvalues --    2.78168   2.78594   2.84866   2.86834   2.91394
 Alpha virt. eigenvalues --    2.96855   2.98963   3.06717   3.10003   3.11647
 Alpha virt. eigenvalues --    3.14626   3.18768   3.19781   3.30400   3.39275
 Alpha virt. eigenvalues --    3.55463   4.21396   4.28595   4.38728   4.42390
 Alpha virt. eigenvalues --    4.43439   4.60077   4.61975   4.65283   4.69798
 Alpha virt. eigenvalues --    4.72163   4.81288   4.83159   4.94847   5.17512
          Condensed to atoms (all electrons):
              1          2          3          4          5          6
     1  C    4.196727  -0.002282   0.004061  -0.030909  -0.024202  -0.000075
     2  C   -0.002282   5.154269  -0.063564  -0.000009  -0.000667   0.000000
     3  C    0.004061  -0.063564   5.139028   0.000002  -0.000006  -0.000006
     4  C   -0.030909  -0.000009   0.000002   4.967365  -0.038705   0.000000
     5  C   -0.024202  -0.000667  -0.000006  -0.038705   4.999140  -0.000006
     6  C   -0.000075   0.000000  -0.000006   0.000000  -0.000006   5.488288
     7  C    0.369381  -0.057549  -0.060850   0.003401  -0.003570   0.000740
     8  C   -0.053875   0.338722   0.342675  -0.000133   0.000382  -0.000123
     9  N   -0.054993   0.003086  -0.006367  -0.000128  -0.000015  -0.062773
    10  N    0.296435   0.001008  -0.000102   0.210716   0.198742   0.000004
    11  O    0.545400  -0.001585   0.000052  -0.007147   0.001649  -0.000002
    12  O    0.000201   0.000000  -0.000018  -0.000004  -0.003643  -0.060291
    13  O    0.000295   0.000000   0.000000   0.000001  -0.000002  -0.061756
    14  S   -0.000768  -0.000010  -0.000108  -0.000036  -0.000451   0.310338
    15  H   -0.000728   0.384704  -0.003159   0.000011  -0.000211   0.000000
    16  H    0.004419   0.391317   0.004259   0.000166  -0.000157   0.000000
    17  H   -0.000043   0.393417  -0.004018  -0.000003   0.000008   0.000000
    18  H   -0.000132  -0.003246   0.385447   0.000000  -0.000007  -0.000048
    19  H   -0.000029   0.004218   0.393692   0.000000   0.000000  -0.000217
    20  H   -0.000055  -0.003353   0.393884   0.000000   0.000000   0.000003
    21  H    0.001309   0.000000   0.000000   0.398800  -0.001174   0.000000
    22  H   -0.004020  -0.000006   0.000000   0.395775   0.002974   0.000000
    23  H    0.000951   0.000002   0.000000   0.400368  -0.002591   0.000000
    24  H   -0.000938   0.000049   0.000003   0.002438   0.396499   0.000030
    25  H   -0.000866  -0.000383   0.000000   0.001507   0.394210   0.000000
    26  H    0.001519   0.000016   0.000000  -0.004647   0.402036   0.000000
    27  H    0.000002   0.000000   0.000000   0.000000   0.000000   0.367928
    28  H    0.000000   0.000000   0.000274   0.000000   0.000000   0.355105
    29  H    0.000002   0.000000  -0.000007   0.000000   0.000000   0.357125
    30  H   -0.030841  -0.000865  -0.003158  -0.000068  -0.001522  -0.000192
    31  H   -0.004339  -0.037427  -0.038853   0.000001  -0.000027   0.000001
    32  H   -0.001633   0.000005  -0.000045   0.000000  -0.000032   0.000730
              7          8          9         10         11         12
     1  C    0.369381  -0.053875  -0.054993   0.296435   0.545400   0.000201
     2  C   -0.057549   0.338722   0.003086   0.001008  -0.001585   0.000000
     3  C   -0.060850   0.342675  -0.006367  -0.000102   0.000052  -0.000018
     4  C    0.003401  -0.000133  -0.000128   0.210716  -0.007147  -0.000004
     5  C   -0.003570   0.000382  -0.000015   0.198742   0.001649  -0.003643
     6  C    0.000740  -0.000123  -0.062773   0.000004  -0.000002  -0.060291
     7  C    5.136569   0.341197   0.220056  -0.087022  -0.084253   0.001197
     8  C    0.341197   5.086619  -0.062763  -0.000509   0.001271   0.000163
     9  N    0.220056  -0.062763   7.516610   0.002815  -0.009834  -0.053246
    10  N   -0.087022  -0.000509   0.002815   7.378918  -0.090790  -0.000145
    11  O   -0.084253   0.001271  -0.009834  -0.090790   8.267214   0.000003
    12  O    0.001197   0.000163  -0.053246  -0.000145   0.000003   8.391515
    13  O    0.000094  -0.000044  -0.051611  -0.000007  -0.000040  -0.035931
    14  S   -0.018330   0.000564   0.188370   0.001454  -0.000298   0.458050
    15  H   -0.003367  -0.039146  -0.000040  -0.000071   0.000032  -0.000003
    16  H   -0.005365  -0.033761  -0.000023  -0.000994   0.000621   0.000000
    17  H    0.004508  -0.034220  -0.000065   0.000057  -0.000020   0.000000
    18  H   -0.004396  -0.038820   0.000603   0.000003  -0.000002  -0.000005
    19  H   -0.005092  -0.033989   0.002605  -0.000002   0.000001  -0.000007
    20  H    0.004673  -0.036500   0.000035   0.000000   0.000000   0.000000
    21  H   -0.000059   0.000025  -0.000001  -0.048525   0.000454   0.000000
    22  H    0.000551  -0.000015  -0.000011  -0.031434   0.010675   0.000000
    23  H   -0.000099  -0.000004   0.000010  -0.046045   0.000395   0.000001
    24  H   -0.004174  -0.000004   0.000469  -0.036615   0.000031   0.007125
    25  H   -0.001248   0.000546  -0.000046  -0.049601  -0.000002   0.000061
    26  H    0.000169  -0.000020   0.000000  -0.036825  -0.000042   0.000018
    27  H   -0.000035   0.000000   0.002331   0.000000   0.000000   0.000428
    28  H    0.000019   0.000003   0.000058   0.000000   0.000000   0.000596
    29  H    0.000019  -0.000003   0.000819   0.000000   0.000000   0.001601
    30  H    0.393776  -0.035232  -0.033646   0.002967   0.002480   0.003549
    31  H   -0.044239   0.405766  -0.001459   0.000357   0.006267  -0.000004
    32  H   -0.032401  -0.000977   0.301163   0.000683   0.019159   0.000562
             13         14         15         16         17         18
     1  C    0.000295  -0.000768  -0.000728   0.004419  -0.000043  -0.000132
     2  C    0.000000  -0.000010   0.384704   0.391317   0.393417  -0.003246
     3  C    0.000000  -0.000108  -0.003159   0.004259  -0.004018   0.385447
     4  C    0.000001  -0.000036   0.000011   0.000166  -0.000003   0.000000
     5  C   -0.000002  -0.000451  -0.000211  -0.000157   0.000008  -0.000007
     6  C   -0.061756   0.310338   0.000000   0.000000   0.000000  -0.000048
     7  C    0.000094  -0.018330  -0.003367  -0.005365   0.004508  -0.004396
     8  C   -0.000044   0.000564  -0.039146  -0.033761  -0.034220  -0.038820
     9  N   -0.051611   0.188370  -0.000040  -0.000023  -0.000065   0.000603
    10  N   -0.000007   0.001454  -0.000071  -0.000994   0.000057   0.000003
    11  O   -0.000040  -0.000298   0.000032   0.000621  -0.000020  -0.000002
    12  O   -0.035931   0.458050  -0.000003   0.000000   0.000000  -0.000005
    13  O    8.325204   0.496302   0.000000   0.000000   0.000000   0.000000
    14  S    0.496302  13.014960  -0.000013  -0.000002   0.000001   0.000128
    15  H    0.000000  -0.000013   0.552245  -0.027322  -0.026995   0.002805
    16  H    0.000000  -0.000002  -0.027322   0.509717  -0.023933  -0.000058
    17  H    0.000000   0.000001  -0.026995  -0.023933   0.517230   0.000032
    18  H    0.000000   0.000128   0.002805  -0.000058   0.000032   0.554539
    19  H    0.000001  -0.000315  -0.000076  -0.000089  -0.000040  -0.027052
    20  H    0.000000  -0.000005   0.000071  -0.000063   0.002115  -0.027087
    21  H    0.000000   0.000001   0.000001   0.000037  -0.000001   0.000000
    22  H    0.000000  -0.000001   0.000001   0.000001   0.000000   0.000000
    23  H    0.000000  -0.000004   0.000000   0.000000   0.000000   0.000000
    24  H    0.000001  -0.000475  -0.000048   0.000010   0.000001  -0.000005
    25  H    0.000000   0.000039   0.000869   0.000000  -0.000016   0.000001
    26  H    0.000000  -0.000012   0.000006   0.000005   0.000000   0.000000
    27  H    0.000297  -0.019800   0.000000   0.000000   0.000000   0.000000
    28  H    0.001553  -0.010427   0.000000   0.000000   0.000000   0.000136
    29  H    0.000574  -0.012134   0.000000   0.000000   0.000000  -0.000001
    30  H    0.000058  -0.002530   0.002058   0.000134  -0.000083   0.002748
    31  H    0.000000  -0.000205   0.004057  -0.002001  -0.002807   0.003902
    32  H    0.002695  -0.007408  -0.000002   0.000004   0.000001   0.000001
             19         20         21         22         23         24
     1  C   -0.000029  -0.000055   0.001309  -0.004020   0.000951  -0.000938
     2  C    0.004218  -0.003353   0.000000  -0.000006   0.000002   0.000049
     3  C    0.393692   0.393884   0.000000   0.000000   0.000000   0.000003
     4  C    0.000000   0.000000   0.398800   0.395775   0.400368   0.002438
     5  C    0.000000   0.000000  -0.001174   0.002974  -0.002591   0.396499
     6  C   -0.000217   0.000003   0.000000   0.000000   0.000000   0.000030
     7  C   -0.005092   0.004673  -0.000059   0.000551  -0.000099  -0.004174
     8  C   -0.033989  -0.036500   0.000025  -0.000015  -0.000004  -0.000004
     9  N    0.002605   0.000035  -0.000001  -0.000011   0.000010   0.000469
    10  N   -0.000002   0.000000  -0.048525  -0.031434  -0.046045  -0.036615
    11  O    0.000001   0.000000   0.000454   0.010675   0.000395   0.000031
    12  O   -0.000007   0.000000   0.000000   0.000000   0.000001   0.007125
    13  O    0.000001   0.000000   0.000000   0.000000   0.000000   0.000001
    14  S   -0.000315  -0.000005   0.000001  -0.000001  -0.000004  -0.000475
    15  H   -0.000076   0.000071   0.000001   0.000001   0.000000  -0.000048
    16  H   -0.000089  -0.000063   0.000037   0.000001   0.000000   0.000010
    17  H   -0.000040   0.002115  -0.000001   0.000000   0.000000   0.000001
    18  H   -0.027052  -0.027087   0.000000   0.000000   0.000000  -0.000005
    19  H    0.509214  -0.024535   0.000000   0.000000   0.000000  -0.000001
    20  H   -0.024535   0.524314   0.000000   0.000000   0.000000   0.000000
    21  H    0.000000   0.000000   0.544847  -0.022195  -0.038834  -0.000074
    22  H    0.000000   0.000000  -0.022195   0.431504  -0.021711  -0.000092
    23  H    0.000000   0.000000  -0.038834  -0.021711   0.531036   0.000216
    24  H   -0.000001   0.000000  -0.000074  -0.000092   0.000216   0.449945
    25  H    0.000000   0.000000   0.001464  -0.000106  -0.000300  -0.030170
    26  H    0.000000   0.000000  -0.001604   0.000210   0.001864  -0.020664
    27  H    0.000011   0.000000   0.000000   0.000000   0.000000   0.000000
    28  H    0.000288  -0.000005   0.000000   0.000000   0.000000  -0.000002
    29  H    0.000079   0.000000   0.000000   0.000000   0.000000   0.000000
    30  H    0.000248  -0.000052  -0.000009  -0.000014   0.000000  -0.001992
    31  H   -0.001765  -0.002577   0.000000  -0.000002   0.000000  -0.000009
    32  H    0.000144   0.000001  -0.000001  -0.000009   0.000002  -0.000006
             25         26         27         28         29         30
     1  C   -0.000866   0.001519   0.000002   0.000000   0.000002  -0.030841
     2  C   -0.000383   0.000016   0.000000   0.000000   0.000000  -0.000865
     3  C    0.000000   0.000000   0.000000   0.000274  -0.000007  -0.003158
     4  C    0.001507  -0.004647   0.000000   0.000000   0.000000  -0.000068
     5  C    0.394210   0.402036   0.000000   0.000000   0.000000  -0.001522
     6  C    0.000000   0.000000   0.367928   0.355105   0.357125  -0.000192
     7  C   -0.001248   0.000169  -0.000035   0.000019   0.000019   0.393776
     8  C    0.000546  -0.000020   0.000000   0.000003  -0.000003  -0.035232
     9  N   -0.000046   0.000000   0.002331   0.000058   0.000819  -0.033646
    10  N   -0.049601  -0.036825   0.000000   0.000000   0.000000   0.002967
    11  O   -0.000002  -0.000042   0.000000   0.000000   0.000000   0.002480
    12  O    0.000061   0.000018   0.000428   0.000596   0.001601   0.003549
    13  O    0.000000   0.000000   0.000297   0.001553   0.000574   0.000058
    14  S    0.000039  -0.000012  -0.019800  -0.010427  -0.012134  -0.002530
    15  H    0.000869   0.000006   0.000000   0.000000   0.000000   0.002058
    16  H    0.000000   0.000005   0.000000   0.000000   0.000000   0.000134
    17  H   -0.000016   0.000000   0.000000   0.000000   0.000000  -0.000083
    18  H    0.000001   0.000000   0.000000   0.000136  -0.000001   0.002748
    19  H    0.000000   0.000000   0.000011   0.000288   0.000079   0.000248
    20  H    0.000000   0.000000   0.000000  -0.000005   0.000000  -0.000052
    21  H    0.001464  -0.001604   0.000000   0.000000   0.000000  -0.000009
    22  H   -0.000106   0.000210   0.000000   0.000000   0.000000  -0.000014
    23  H   -0.000300   0.001864   0.000000   0.000000   0.000000   0.000000
    24  H   -0.030170  -0.020664   0.000000  -0.000002   0.000000  -0.001992
    25  H    0.546569  -0.031874   0.000000   0.000000   0.000000  -0.000626
    26  H   -0.031874   0.500745   0.000000   0.000000   0.000000   0.000282
    27  H    0.000000   0.000000   0.449354  -0.016889  -0.016107   0.000003
    28  H    0.000000   0.000000  -0.016889   0.466505  -0.018949   0.000060
    29  H    0.000000   0.000000  -0.016107  -0.018949   0.459487  -0.000003
    30  H   -0.000626   0.000282   0.000003   0.000060  -0.000003   0.464435
    31  H    0.000008   0.000000   0.000000   0.000002   0.000000   0.003891
    32  H   -0.000003   0.000002  -0.000016  -0.000013  -0.000049   0.003146
             31         32
     1  C   -0.004339  -0.001633
     2  C   -0.037427   0.000005
     3  C   -0.038853  -0.000045
     4  C    0.000001   0.000000
     5  C   -0.000027  -0.000032
     6  C    0.000001   0.000730
     7  C   -0.044239  -0.032401
     8  C    0.405766  -0.000977
     9  N   -0.001459   0.301163
    10  N    0.000357   0.000683
    11  O    0.006267   0.019159
    12  O   -0.000004   0.000562
    13  O    0.000000   0.002695
    14  S   -0.000205  -0.007408
    15  H    0.004057  -0.000002
    16  H   -0.002001   0.000004
    17  H   -0.002807   0.000001
    18  H    0.003902   0.000001
    19  H   -0.001765   0.000144
    20  H   -0.002577   0.000001
    21  H    0.000000  -0.000001
    22  H   -0.000002  -0.000009
    23  H    0.000000   0.000002
    24  H   -0.000009  -0.000006
    25  H    0.000008  -0.000003
    26  H    0.000000   0.000002
    27  H    0.000000  -0.000016
    28  H    0.000002  -0.000013
    29  H    0.000000  -0.000049
    30  H    0.003891   0.003146
    31  H    0.514203   0.001529
    32  H    0.001529   0.278532
 Mulliken atomic charges:
              1
     1  C    0.790025
     2  C   -0.499868
     3  C   -0.483117
     4  C   -0.298763
     5  C   -0.318653
     6  C   -0.694804
     7  C   -0.064303
     8  C   -0.147793
     9  N   -0.902012
    10  N   -0.665470
    11  O   -0.661690
    12  O   -0.711774
    13  O   -0.677686
    14  S    1.603126
    15  H    0.154323
    16  H    0.183081
    17  H    0.174874
    18  H    0.150517
    19  H    0.182708
    20  H    0.169136
    21  H    0.165538
    22  H    0.237924
    23  H    0.174745
    24  H    0.238453
    25  H    0.169968
    26  H    0.188816
    27  H    0.232494
    28  H    0.221688
    29  H    0.227546
    30  H    0.230999
    31  H    0.195733
    32  H    0.434237
 Sum of Mulliken atomic charges =   0.00000
 Mulliken charges with hydrogens summed into heavy atoms:
              1
     1  C    0.790025
     2  C    0.012410
     3  C    0.019244
     4  C    0.279444
     5  C    0.278584
     6  C   -0.013075
     7  C    0.166697
     8  C    0.047940
     9  N   -0.467775
    10  N   -0.665470
    11  O   -0.661690
    12  O   -0.711774
    13  O   -0.677686
    14  S    1.603126
 Sum of Mulliken charges with hydrogens summed into heavy atoms =   0.00000
 DipInt: DoE/N= T F RetVal/Mat= T F Init=T NMatP=  1 IDeriv=0 Min/MaxMlt=  0  4
 Entering OneElI...
 OneElI was handed    33391655 working-precision words.
 Multipole integrals L=0 to 4 MinM= 0 MaxM= 0.
 Requested accuracy = 0.1000D-12
 PrsmSu:  NPrtUS=   1 ThrOK=F IAlg=1 NPAlg=1 LenDen=           0.
 Prism:   IPart=     0 DynPar=F LinDyn=F Incr=          39.
 PRISM was handed    33068397 working-precision words and  3901 shell-pairs
 IPart=  0 NShTot=        3901 NBatch=          74 AvBLen=        52.7
 PrSmSu:  NxtVal=             40.
 Electronic moments (au):
       -120.00000000          0.30525868          1.34824474          1.16271994
      -1838.83135024      -1104.96247733       -435.76537734         -8.62749731
          2.55250415         -2.13908174        963.24746364      -2209.95258559
        -95.68309015      -1392.24751703       1601.88166654       -178.66363572
       -395.73156915        422.02822616       -186.66898489        118.57725676
     -53761.00656637     -27457.71548156      -4742.14400661       4220.98231273
        274.59770572       -485.28155225      -1058.83312295       -210.74164050
        535.71836171     -15057.10403592      -5640.02132142      -2822.39673888
      -1093.55504391       -847.95579972        462.22384186
 Electronic spatial extent (au):  <R**2>=           3379.5592
 DipInt: DoE/N= F T RetVal/Mat= T F Init=T NMatP=  1 IDeriv=0 Min/MaxMlt=  0  4
 Nuclear    moments (au):
        120.00000000          0.00000000          0.00000000          0.00000000
       1777.22498051       1033.89891580        360.69438387          0.00000000
          0.00000000          0.00000000      -1015.27285378       2198.91083337
        103.32874736       1426.62960001      -1596.79523466        201.99818106
        390.96709018       -417.65259345        189.30047220       -118.00890718
      47937.71028242      23565.25288229       3269.29035252      -4432.55968170
       -402.31310706        416.94522921       1009.60370401        292.35087525
       -553.32484194      13332.18856499       4290.07453163       1909.88854742
       1030.96942335        807.96766492       -510.74996742
 Total      moments (au):
          0.00000000          0.30525868          1.34824474          1.16271994
        -61.60636972        -71.06356153        -75.07099347         -8.62749731
          2.55250415         -2.13908174        -52.02539014        -11.04175222
          7.64565721         34.38208298          5.08643188         23.33454534
         -4.76447897          4.37563270          2.63148731          0.56834958
      -5823.29628394      -3892.46259928      -1472.85365409       -211.57736897
       -127.71540134        -68.33632303        -49.22941894         81.60923475
        -17.60648023      -1724.91547094      -1349.94678979       -912.50819146
        -62.58562056        -39.98813480        -48.52612557
 Traceless Quadrup. (au):
          7.64060519         -1.81658662         -5.82401856         -8.62749731
          2.55250415         -2.13908174
 Charge=              0.0000 electrons
 Dipole moment (field-independent basis, Debye):
    X=              0.7759    Y=              3.4269    Z=              2.9553  Tot=              4.5913
 Quadrupole moment (field-independent basis, Debye-Ang):
   XX=            -82.8627   YY=            -95.5829   ZZ=           -100.9731
   XY=            -11.6043   XZ=              3.4332   YZ=             -2.8771
 Traceless Quadrupole moment (field-independent basis, Debye-Ang):
   XX=             10.2769   YY=             -2.4434   ZZ=             -7.8335
   XY=            -11.6043   XZ=              3.4332   YZ=             -2.8771
 Octapole moment (field-independent basis, Debye-Ang**2):
  XXX=            -37.0297  YYY=             -7.8591  ZZZ=              5.4419  XYY=             24.4718
  XXY=              3.6203  XXZ=             16.6086  XZZ=             -3.3912  YZZ=              3.1144
  YYZ=              1.8730  XYZ=              0.4045
 Hexadecapole moment (field-independent basis, Debye-Ang**3):
 XXXX=          -2193.3325 YYYY=          -1466.0880 ZZZZ=           -554.7473 XXXY=            -79.6902
 XXXZ=            -48.1037 YYYX=            -25.7387 YYYZ=            -18.5422 ZZZX=             30.7379
 ZZZY=             -6.6314 XXYY=           -649.6858 XXZZ=           -508.4547 YYZZ=           -343.6943
 XXYZ=            -23.5727 YYXZ=            -15.0614 ZZXY=            -18.2773
 N-N= 1.180039577856D+03 E-N=-4.819589094679D+03  KE= 1.042099136170D+03
 Entering OneElI...
 OneElI was handed    33265605 working-precision words.
 Calculate electrostatic properties
    NBasis =   250  MinDer = 0  MaxDer = 0
    NGrid  =    32  NMatD  =   1
 Requested accuracy = 0.1000D-12
 PrsmSu:  NPrtUS=   2 ThrOK=T IAlg=1 NPAlg=1 LenDen=           0.
 Prism:   IPart=     0 DynPar=F LinDyn=F Incr=         512.
 PRISM was handed    16434344 working-precision words and  3552 shell-pairs
 PRISM was handed    16434344 working-precision words and  3552 shell-pairs
 IPart=  0 NShTot=       57376 NBatch=        1793 AvBLen=        32.0
 IPart=  1 NShTot=       56288 NBatch=        1759 AvBLen=        32.0
 PrSmSu:  NxtVal=           1025.
 --------------------------------------------------------
       Center         ----      EFG at Nuclei      ----
                      3XX-RR        3YY-RR        3ZZ-RR
 --------------------------------------------------------
     1   Atom       -0.154204     -0.148849      0.303053
     2   Atom       -0.012394      0.017963     -0.005569
     3   Atom        0.018157     -0.011865     -0.006292
     4   Atom       -0.098672     -0.046785      0.145457
     5   Atom        0.181331      0.116893     -0.298223
     6   Atom       -0.108202     -0.007012      0.115214
     7   Atom       -0.231905      0.124221      0.107684
     8   Atom        0.005229     -0.079844      0.074615
     9   Atom       -0.266431      0.655211     -0.388780
    10   Atom        0.211136      0.291436     -0.502572
    11   Atom        0.424465      0.583466     -1.007931
    12   Atom        0.562650      0.604383     -1.167033
    13   Atom        0.692070     -0.274506     -0.417565
    14   Atom       -0.054357     -0.139979      0.194336
    15   Atom        0.142527      0.144835     -0.287362
    16   Atom       -0.062238     -0.028345      0.090583
    17   Atom        0.104042     -0.237023      0.132981
    18   Atom        0.144094      0.144107     -0.288201
    19   Atom       -0.221197      0.142342      0.078854
    20   Atom        0.104019     -0.228830      0.124811
    21   Atom       -0.206457      0.127763      0.078695
    22   Atom        0.144113      0.137323     -0.281436
    23   Atom        0.118433     -0.250255      0.131822
    24   Atom       -0.250334      0.147790      0.102545
    25   Atom        0.051454     -0.098509      0.047055
    26   Atom        0.090229     -0.173916      0.083687
    27   Atom       -0.075668      0.002400      0.073268
    28   Atom        0.104982     -0.095169     -0.009813
    29   Atom        0.099980      0.094413     -0.194393
    30   Atom        0.125959      0.146723     -0.272683
    31   Atom        0.139172      0.136001     -0.275173
    32   Atom        0.149813      0.143397     -0.293209
 --------------------------------------------------------
                        XY            XZ            YZ
 --------------------------------------------------------
     1   Atom       -0.408775     -0.083601      0.039885
     2   Atom       -0.013514     -0.019571     -0.000838
     3   Atom        0.023224      0.023894     -0.008265
     4   Atom        0.176232      0.110935     -0.119344
     5   Atom       -0.013289      0.028532      0.031994
     6   Atom        0.170617      0.050598     -0.038285
     7   Atom       -0.011562     -0.171874     -0.068189
     8   Atom       -0.028743     -0.005031      0.021185
     9   Atom       -0.821613      0.097787      0.134541
    10   Atom        0.751100      0.089670      0.113149
    11   Atom       -1.053464      0.108857     -0.120409
    12   Atom        0.154542     -0.765047      0.586145
    13   Atom       -0.482290     -0.491958     -1.070074
    14   Atom       -0.307957      0.249763      0.299444
    15   Atom       -0.003499      0.006398      0.047427
    16   Atom        0.187135      0.109835     -0.106364
    17   Atom       -0.125221      0.023386      0.084294
    18   Atom        0.003100      0.037182      0.018798
    19   Atom       -0.053582     -0.159517     -0.025228
    20   Atom       -0.123500      0.036531      0.097932
    21   Atom       -0.070619     -0.152215     -0.042536
    22   Atom        0.005331      0.026067      0.051361
    23   Atom       -0.091127      0.028230      0.078458
    24   Atom        0.012033      0.104384      0.003020
    25   Atom       -0.158767     -0.092210     -0.144197
    26   Atom        0.151961     -0.051979      0.124134
    27   Atom       -0.168068      0.137809      0.107942
    28   Atom       -0.087662     -0.077361     -0.205024
    29   Atom        0.059318     -0.120751      0.138077
    30   Atom       -0.001387      0.051661      0.039367
    31   Atom       -0.005741      0.028811      0.036906
    32   Atom       -0.006892      0.072507     -0.153595
 --------------------------------------------------------


 ---------------------------------------------------------------------------------
              Nuclear Quadrupole in Principal Axis System
 ---------------------------------------------------------------------------------

       Atom             a.u.   MegaHertz   Gauss  10(-4) cm-1        Axes

              Baa    -0.5614   -75.341   -26.884   -25.131  0.7117  0.7016  0.0365
     1 C(13)  Bbb     0.1905    25.559     9.120     8.525  0.5415 -0.5808  0.6078
              Bcc     0.3710    49.782    17.764    16.606 -0.4476  0.4128  0.7932
 
              Baa    -0.0313    -4.204    -1.500    -1.402  0.7729  0.2220  0.5944
     2 C(13)  Bbb     0.0065     0.873     0.311     0.291 -0.4479 -0.4727  0.7589
              Bcc     0.0248     3.331     1.189     1.111 -0.4495  0.8528  0.2659
 
              Baa    -0.0375    -5.028    -1.794    -1.677 -0.5126  0.6471  0.5644
     3 C(13)  Bbb    -0.0008    -0.104    -0.037    -0.035 -0.0705 -0.6868  0.7234
              Bcc     0.0382     5.132     1.831     1.712  0.8557  0.3310  0.3977
 
              Baa    -0.3087   -41.427   -14.782   -13.818  0.7032 -0.6264 -0.3364
     4 C(13)  Bbb     0.1027    13.780     4.917     4.596  0.6967  0.7015  0.1503
              Bcc     0.2060    27.647     9.865     9.222  0.1418 -0.3400  0.9297
 
              Baa    -0.3025   -40.589   -14.483   -13.539 -0.0608 -0.0778  0.9951
     5 C(13)  Bbb     0.1175    15.765     5.625     5.259  0.1656  0.9823  0.0870
              Bcc     0.1850    24.823     8.858     8.280  0.9843 -0.1701  0.0469
 
              Baa    -0.2467   -33.104   -11.812   -11.042  0.7892 -0.5894 -0.1727
     6 C(13)  Bbb     0.1203    16.147     5.762     5.386  0.6063  0.7925  0.0662
              Bcc     0.1264    16.957     6.051     5.656  0.0978 -0.1569  0.9828
 
              Baa    -0.3069   -41.187   -14.697   -13.739  0.9152  0.0868  0.3936
     7 C(13)  Bbb     0.0896    12.030     4.293     4.013 -0.2820  0.8356  0.4714
              Bcc     0.2173    29.157    10.404     9.726 -0.2880 -0.5425  0.7892
 
              Baa    -0.0908   -12.184    -4.347    -4.064  0.2794  0.9534 -0.1136
     8 C(13)  Bbb     0.0122     1.636     0.584     0.546  0.9517 -0.2593  0.1647
              Bcc     0.0786    10.548     3.764     3.518 -0.1276  0.1541  0.9798
 
              Baa    -0.8039   -31.004   -11.063   -10.342  0.8034  0.4843 -0.3463
     9 N(14)  Bbb    -0.3355   -12.938    -4.617    -4.316  0.3204  0.1385  0.9371
              Bcc     1.1393    43.942    15.680    14.657 -0.5018  0.8639  0.0439
 
              Baa    -0.5234   -20.185    -7.203    -6.733  0.3010 -0.3979  0.8666
    10 N(14)  Bbb    -0.4937   -19.041    -6.794    -6.351  0.6641 -0.5647 -0.4899
              Bcc     1.0171    39.226    13.997    13.084  0.6843  0.7231  0.0942
 
              Baa    -1.0182    73.673    26.288    24.575 -0.0395  0.0491  0.9980
    11 O(17)  Bbb    -0.5525    39.977    14.265    13.335  0.7335  0.6797 -0.0044
              Bcc     1.5706  -113.651   -40.553   -37.910 -0.6786  0.7318 -0.0628
 
              Baa    -1.6203   117.247    41.837    39.109  0.3357 -0.2617  0.9049
    12 O(17)  Bbb     0.7359   -53.252   -19.002   -17.763  0.5162  0.8547  0.0557
              Bcc     0.8844   -63.995   -22.835   -21.347  0.7880 -0.4484 -0.4220
 
              Baa    -1.6234   117.466    41.915    39.183  0.2851  0.6562  0.6987
    13 O(17)  Bbb     0.7250   -52.463   -18.720   -17.500  0.0854  0.7086 -0.7004
              Bcc     0.8983   -65.003   -23.195   -21.683  0.9547 -0.2594 -0.1460
 
              Baa    -0.5995   -24.581    -8.771    -8.199  0.5860  0.6799 -0.4408
    14 S(33)  Bbb     0.2134     8.751     3.123     2.919  0.7686 -0.6387  0.0365
              Bcc     0.3861    15.830     5.648     5.280  0.2567  0.3602  0.8969
 
              Baa    -0.2926  -156.122   -55.708   -52.077 -0.0155 -0.1079  0.9940
    15 H(1)   Bbb     0.1417    75.600    26.976    25.218  0.9476  0.3156  0.0490
              Bcc     0.1509    80.522    28.732    26.859 -0.3190  0.9428  0.0974
 
              Baa    -0.2939  -156.834   -55.962   -52.314  0.6835 -0.6295 -0.3694
    16 H(1)   Bbb     0.1410    75.213    26.838    25.088  0.7299  0.5912  0.3431
              Bcc     0.1530    81.621    29.124    27.226  0.0024 -0.5041  0.8636
 
              Baa    -0.2959  -157.861   -56.329   -52.657  0.3034  0.9317 -0.1997
    17 H(1)   Bbb     0.1431    76.332    27.237    25.462  0.8750 -0.1894  0.4456
              Bcc     0.1528    81.529    29.092    27.195 -0.3773  0.3099  0.8727
 
              Baa    -0.2922  -155.881   -55.622   -51.996 -0.0845 -0.0423  0.9955
    18 H(1)   Bbb     0.1412    75.362    26.891    25.138 -0.6145  0.7887 -0.0187
              Bcc     0.1509    80.519    28.731    26.858  0.7843  0.6134  0.0927
 
              Baa    -0.2981  -159.057   -56.755   -53.056  0.9095  0.1332  0.3938
    19 H(1)   Bbb     0.1468    78.327    27.949    26.127 -0.4079  0.4691  0.7833
              Bcc     0.1513    80.730    28.807    26.929  0.0804  0.8731 -0.4810
 
              Baa    -0.2956  -157.718   -56.278   -52.609  0.3066  0.9208 -0.2411
    20 H(1)   Bbb     0.1430    76.274    27.216    25.442  0.8182 -0.3844 -0.4276
              Bcc     0.1526    81.445    29.061    27.167  0.4864  0.0662  0.8712
 
              Baa    -0.2885  -153.926   -54.925   -51.344  0.8984  0.1927  0.3947
    21 H(1)   Bbb     0.1335    71.230    25.417    23.760 -0.4060  0.7074  0.5786
              Bcc     0.1550    82.695    29.508    27.584 -0.1677 -0.6801  0.7137
 
              Baa    -0.2891  -154.258   -55.043   -51.455 -0.0582 -0.1187  0.9912
    22 H(1)   Bbb     0.1361    72.610    25.909    24.220 -0.6617  0.7480  0.0507
              Bcc     0.1530    81.647    29.134    27.235  0.7475  0.6530  0.1220
 
              Baa    -0.2879  -153.610   -54.812   -51.239  0.2275  0.9543 -0.1937
    23 H(1)   Bbb     0.1336    71.282    25.435    23.777  0.7920 -0.2970 -0.5334
              Bcc     0.1543    82.328    29.377    27.462  0.5666  0.0321  0.8234
 
              Baa    -0.2792  -148.954   -53.150   -49.686  0.9643 -0.0253 -0.2635
    24 H(1)   Bbb     0.1292    68.909    24.588    22.986  0.2434 -0.3063  0.9203
              Bcc     0.1500    80.045    28.562    26.700  0.1040  0.9516  0.2892
 
              Baa    -0.2868  -153.047   -54.611   -51.051  0.4769  0.7513  0.4562
    25 H(1)   Bbb     0.1348    71.905    25.658    23.985 -0.2131 -0.4046  0.8893
              Bcc     0.1521    81.142    28.953    27.066  0.8527 -0.5213 -0.0329
 
              Baa    -0.2914  -155.487   -55.482   -51.865 -0.3875  0.8578 -0.3376
    26 H(1)   Bbb     0.1314    70.094    25.011    23.381 -0.2651  0.2470  0.9320
              Bcc     0.1600    85.393    30.470    28.484  0.8829  0.4507  0.1316
 
              Baa    -0.2929  -156.259   -55.757   -52.122  0.7072  0.5602 -0.4313
    27 H(1)   Bbb     0.1359    72.484    25.864    24.178 -0.6031  0.7964  0.0456
              Bcc     0.1570    83.774    29.893    27.944  0.3690  0.2279  0.9010
 
              Baa    -0.2960  -157.906   -56.345   -52.672  0.2798  0.7430  0.6080
    28 H(1)   Bbb     0.1379    73.601    26.263    24.551  0.9338 -0.3578  0.0075
              Bcc     0.1580    84.305    30.082    28.121 -0.2231 -0.5656  0.7939
 
              Baa    -0.2953  -157.578   -56.228   -52.562  0.3215 -0.3593  0.8761
    29 H(1)   Bbb     0.1379    73.560    26.248    24.537  0.7382 -0.4844 -0.4696
              Bcc     0.1575    84.018    29.980    28.025  0.5931  0.7977  0.1095
 
              Baa    -0.2829  -150.916   -53.851   -50.340 -0.1252 -0.0909  0.9880
    30 H(1)   Bbb     0.1318    70.348    25.102    23.466  0.9760 -0.1899  0.1062
              Bcc     0.1510    80.568    28.749    26.875  0.1780  0.9776  0.1125
 
              Baa    -0.2805  -149.657   -53.401   -49.920 -0.0694 -0.0890  0.9936
    31 H(1)   Bbb     0.1369    73.069    26.073    24.373  0.5941  0.7965  0.1129
              Bcc     0.1435    76.588    27.329    25.547  0.8014 -0.5981  0.0024
 
              Baa    -0.3508  -187.189   -66.794   -62.439 -0.1331  0.2924  0.9470
    32 H(1)   Bbb     0.1427    76.128    27.164    25.394  0.8601  0.5088 -0.0362
              Bcc     0.2082   111.061    39.629    37.046 -0.4924  0.8097 -0.3193
 

 ---------------------------------------------------------------------------------

 No NMR shielding tensors so no spin-rotation constants.
 Leave Link  601 at Sat Feb 17 21:01:24 2018, MaxMem=   33554432 cpu:       0.6
 Merz-Kollman atomic radii used.
 Read replacement radii for each type of atom:
 Atom Element Radius
    1     6    1.50
    2     6    1.50
    3     6    1.50
    4     6    1.50
    5     6    1.50
    6     6    1.50
    7     6    1.50
    8     6    1.50
    9     7    1.50
   10     7    1.50
   11     8    1.40
   12     8    1.40
   13     8    1.40
   14    16    1.75
   15     1    1.20
   16     1    1.20
   17     1    1.20
   18     1    1.20
   19     1    1.20
   20     1    1.20
   21     1    1.20
   22     1    1.20
   23     1    1.20
   24     1    1.20
   25     1    1.20
   26     1    1.20
   27     1    1.20
   28     1    1.20
   29     1    1.20
   30     1    1.20
   31     1    1.20
   32     1    1.20
 Generate VDW surfaces: Layer= 4 Dens= 1 Start= 1.400 Inc= 0.200

 **********************************************************************

            Electrostatic Properties Using The SCF Density

 **********************************************************************

       Atomic Center    1 is at   1.326393 -0.385474 -0.588254
       Atomic Center    2 is at   2.212500  2.321579  0.292015
       Atomic Center    3 is at  -0.182117  3.124349  0.197884
       Atomic Center    4 is at   3.060849 -2.060970 -0.309171
       Atomic Center    5 is at   1.882756 -1.205908  1.709625
       Atomic Center    6 is at  -3.497584  0.414070  0.327267
       Atomic Center    7 is at   0.324215  0.639241 -0.016589
       Atomic Center    8 is at   0.819241  2.080006 -0.310130
       Atomic Center    9 is at  -0.974403  0.412018 -0.690029
       Atomic Center   10 is at   2.053493 -1.168219  0.256831
       Atomic Center   11 is at   1.432674 -0.439141 -1.816527
       Atomic Center   12 is at  -1.562011 -1.065773  1.342404
       Atomic Center   13 is at  -2.469782 -1.645809 -0.979229
       Atomic Center   14 is at  -2.079477 -0.655262  0.027681
       Atomic Center   15 is at   2.198782  2.207142  1.384043
       Atomic Center   16 is at   2.961901  1.634797 -0.114668
       Atomic Center   17 is at   2.547301  3.341697  0.074285
       Atomic Center   18 is at  -0.275847  3.082320  1.291546
       Atomic Center   19 is at  -1.173238  2.969501 -0.237261
       Atomic Center   20 is at   0.151878  4.134458 -0.065441
       Atomic Center   21 is at   4.045884 -1.846263  0.123586
       Atomic Center   22 is at   3.091522 -1.906889 -1.386597
       Atomic Center   23 is at   2.806813 -3.107187 -0.099172
       Atomic Center   24 is at   0.826124 -1.191542  1.983130
       Atomic Center   25 is at   2.409454 -0.382593  2.209945
       Atomic Center   26 is at   2.304628 -2.145688  2.074983
       Atomic Center   27 is at  -4.268763 -0.200020  0.798073
       Atomic Center   28 is at  -3.194747  1.224782  0.991711
       Atomic Center   29 is at  -3.849876  0.804609 -0.628653
       Atomic Center   30 is at   0.162438  0.530294  1.055119
       Atomic Center   31 is at   0.900128  2.165221 -1.401432
       Atomic Center   32 is at  -0.810944  0.107379 -1.652774
      ESP Fit Center   33 is at   4.031153  2.321579  1.342015
      ESP Fit Center   34 is at   3.742448  3.304818  1.342015
      ESP Fit Center   35 is at   1.347831  4.107587  1.247884
      ESP Fit Center   36 is at  -1.373082  4.498796  1.247884
      ESP Fit Center   37 is at  -1.927102  3.636723  1.247884
      ESP Fit Center   38 is at  -1.927102  2.611975  1.247884
      ESP Fit Center   39 is at  -1.373082  1.749903  1.247884
      ESP Fit Center   40 is at  -1.753990  4.516907  0.197884
      ESP Fit Center   41 is at  -0.707117  4.033676 -1.620769
      ESP Fit Center   42 is at   4.879502 -2.060970 -1.359171
      ESP Fit Center   43 is at   4.590797 -1.077732 -1.359171
      ESP Fit Center   44 is at   1.315864 -2.573344 -1.359171
      ESP Fit Center   45 is at   3.816345 -3.715275 -1.359171
      ESP Fit Center   46 is at   4.590797 -3.044208 -1.359171
      ESP Fit Center   47 is at   1.882756 -1.205908  3.809625
      ESP Fit Center   48 is at   1.357756 -0.296582  3.528278
      ESP Fit Center   49 is at   1.357756 -2.115235  3.528278
      ESP Fit Center   50 is at   3.982756 -1.205908  1.709625
      ESP Fit Center   51 is at  -4.242254  2.377604  0.327267
      ESP Fit Center   52 is at  -5.069457  1.806628  0.327267
      ESP Fit Center   53 is at  -5.536562  0.916633  0.327267
      ESP Fit Center   54 is at  -2.742088  2.068375 -0.722733
      ESP Fit Center   55 is at  -4.688549 -0.960377 -0.722733
      ESP Fit Center   56 is at   1.574737  3.734311 -1.360130
      ESP Fit Center   57 is at  -1.233225  2.212160 -1.740029
      ESP Fit Center   58 is at  -2.165368  1.786464 -1.740029
      ESP Fit Center   59 is at   0.481621 -2.560776  0.256831
      ESP Fit Center   60 is at   0.862529 -2.542665 -0.793169
      ESP Fit Center   61 is at   3.130084  0.540859 -1.816527
      ESP Fit Center   62 is at   2.412674  1.258269 -1.816527
      ESP Fit Center   63 is at   0.452674 -2.136550 -1.816527
      ESP Fit Center   64 is at   1.432674 -2.399141 -1.816527
      ESP Fit Center   65 is at   3.130084 -0.439141 -2.796527
      ESP Fit Center   66 is at   2.805907  0.558572 -2.796527
      ESP Fit Center   67 is at   1.957202  1.175192 -2.796527
      ESP Fit Center   68 is at   0.908145  1.175192 -2.796527
      ESP Fit Center   69 is at   0.059440 -1.436853 -2.796527
      ESP Fit Center   70 is at   0.908145 -2.053473 -2.796527
      ESP Fit Center   71 is at   1.957202 -2.053473 -2.796527
      ESP Fit Center   72 is at   2.412674 -0.439141 -3.513937
      ESP Fit Center   73 is at   1.922674  0.409564 -3.513937
      ESP Fit Center   74 is at   0.942674  0.409564 -3.513937
      ESP Fit Center   75 is at   0.452674 -0.439141 -3.513937
      ESP Fit Center   76 is at   0.942674 -1.287846 -3.513937
      ESP Fit Center   77 is at   1.922674 -1.287846 -3.513937
      ESP Fit Center   78 is at   1.432674 -0.439141 -3.776527
      ESP Fit Center   79 is at  -1.562011 -1.065773  3.302404
      ESP Fit Center   80 is at  -0.582011 -1.065773  3.039814
      ESP Fit Center   81 is at  -1.072011 -0.217068  3.039814
      ESP Fit Center   82 is at  -2.052011 -0.217068  3.039814
      ESP Fit Center   83 is at  -2.542011 -1.065773  3.039814
      ESP Fit Center   84 is at  -2.052011 -1.914478  3.039814
      ESP Fit Center   85 is at  -1.072011 -1.914478  3.039814
      ESP Fit Center   86 is at  -1.037483  0.548560  2.322404
      ESP Fit Center   87 is at  -2.086540  0.548560  2.322404
      ESP Fit Center   88 is at  -2.935245 -0.068060  2.322404
      ESP Fit Center   89 is at  -3.259421 -1.065773  2.322404
      ESP Fit Center   90 is at  -2.935245 -2.063485  2.322404
      ESP Fit Center   91 is at  -2.086540 -2.680105  2.322404
      ESP Fit Center   92 is at  -1.037483 -2.680105  2.322404
      ESP Fit Center   93 is at  -2.542011 -2.763183  1.342404
      ESP Fit Center   94 is at  -1.562011 -3.025773  1.342404
      ESP Fit Center   95 is at  -0.582011 -2.763183  1.342404
      ESP Fit Center   96 is at  -3.843015 -2.643521  0.000771
      ESP Fit Center   97 is at  -2.994310 -3.260142  0.000771
      ESP Fit Center   98 is at  -1.945253 -3.260142  0.000771
      ESP Fit Center   99 is at  -4.429782 -1.645809 -0.979229
      ESP Fit Center  100 is at  -4.167192 -2.625809 -0.979229
      ESP Fit Center  101 is at  -3.449782 -3.343219 -0.979229
      ESP Fit Center  102 is at  -2.469782 -3.605809 -0.979229
      ESP Fit Center  103 is at  -1.489782 -3.343219 -0.979229
      ESP Fit Center  104 is at  -0.772372 -2.625809 -0.979229
      ESP Fit Center  105 is at  -0.772372 -1.645809 -1.959229
      ESP Fit Center  106 is at  -3.843015 -0.648096 -1.959229
      ESP Fit Center  107 is at  -4.167192 -1.645809 -1.959229
      ESP Fit Center  108 is at  -3.843015 -2.643521 -1.959229
      ESP Fit Center  109 is at  -2.994310 -3.260142 -1.959229
      ESP Fit Center  110 is at  -1.945253 -3.260142 -1.959229
      ESP Fit Center  111 is at  -1.096548 -2.643521 -1.959229
      ESP Fit Center  112 is at  -1.489782 -1.645809 -2.676639
      ESP Fit Center  113 is at  -1.979782 -0.797104 -2.676639
      ESP Fit Center  114 is at  -2.959782 -0.797104 -2.676639
      ESP Fit Center  115 is at  -3.449782 -1.645809 -2.676639
      ESP Fit Center  116 is at  -2.959782 -2.494514 -2.676639
      ESP Fit Center  117 is at  -1.979782 -2.494514 -2.676639
      ESP Fit Center  118 is at  -2.469782 -1.645809 -2.939229
      ESP Fit Center  119 is at  -3.333854 -2.102891  1.555231
      ESP Fit Center  120 is at  -3.568728 -2.522724  0.572858
      ESP Fit Center  121 is at  -2.610984 -2.983949  0.572858
      ESP Fit Center  122 is at  -1.547969 -2.983949  0.572858
      ESP Fit Center  123 is at  -0.590225 -2.522724 -0.517495
      ESP Fit Center  124 is at  -0.468066 -1.690852 -1.499869
      ESP Fit Center  125 is at  -2.610984  0.265336 -2.179692
      ESP Fit Center  126 is at   2.198782  2.207142  3.064043
      ESP Fit Center  127 is at   3.186261  2.207142  2.743192
      ESP Fit Center  128 is at   2.503930  3.146291  2.743192
      ESP Fit Center  129 is at   1.399895  2.787568  2.743192
      ESP Fit Center  130 is at   1.399895  1.626716  2.743192
      ESP Fit Center  131 is at   2.503930  1.267993  2.743192
      ESP Fit Center  132 is at   3.796557  2.207142  1.903192
      ESP Fit Center  133 is at   3.422749  3.234172  1.903192
      ESP Fit Center  134 is at   2.476233  3.780643  1.903192
      ESP Fit Center  135 is at   1.399895  3.590856  1.903192
      ESP Fit Center  136 is at   3.422749  1.180112  1.903192
      ESP Fit Center  137 is at   3.267049  0.695648  1.244480
      ESP Fit Center  138 is at   4.559676  1.634797  0.404480
      ESP Fit Center  139 is at   4.185868  0.607767  0.404480
      ESP Fit Center  140 is at   4.559676  1.634797 -0.633817
      ESP Fit Center  141 is at   4.185868  2.661827 -0.633817
      ESP Fit Center  142 is at   4.185868  0.607767 -0.633817
      ESP Fit Center  143 is at   3.949380  1.634797 -1.473817
      ESP Fit Center  144 is at   3.267049  0.695648 -1.473817
      ESP Fit Center  145 is at   2.961901  1.634797 -1.794668
      ESP Fit Center  146 is at   2.852449  4.280846  1.433433
      ESP Fit Center  147 is at   4.145076  3.341697  0.593433
      ESP Fit Center  148 is at   3.771267  4.368727  0.593433
      ESP Fit Center  149 is at   2.824752  4.915198  0.593433
      ESP Fit Center  150 is at   1.748413  4.725411  0.593433
      ESP Fit Center  151 is at   4.145076  3.341697 -0.444864
      ESP Fit Center  152 is at   3.771267  4.368727 -0.444864
      ESP Fit Center  153 is at   2.824752  4.915198 -0.444864
      ESP Fit Center  154 is at   1.748413  4.725411 -0.444864
      ESP Fit Center  155 is at   3.534780  3.341697 -1.284864
      ESP Fit Center  156 is at   2.852449  4.280846 -1.284864
      ESP Fit Center  157 is at   1.748413  3.922123 -1.284864
      ESP Fit Center  158 is at   2.547301  3.341697 -1.605715
      ESP Fit Center  159 is at  -0.275847  3.082320  2.971546
      ESP Fit Center  160 is at   0.711632  3.082320  2.650694
      ESP Fit Center  161 is at   0.029301  4.021469  2.650694
      ESP Fit Center  162 is at  -1.074735  3.662746  2.650694
      ESP Fit Center  163 is at  -1.074735  2.501895  2.650694
      ESP Fit Center  164 is at   0.029301  2.143172  2.650694
      ESP Fit Center  165 is at   0.948120  4.109350  1.810694
      ESP Fit Center  166 is at   0.001604  4.655821  1.810694
      ESP Fit Center  167 is at  -1.074735  4.466034  1.810694
      ESP Fit Center  168 is at  -1.777264  3.628792  1.810694
      ESP Fit Center  169 is at  -1.777264  2.535849  1.810694
      ESP Fit Center  170 is at  -1.074735  1.698607  1.810694
      ESP Fit Center  171 is at  -1.972125  2.389075  1.121887
      ESP Fit Center  172 is at  -1.972125  4.353215  0.281887
      ESP Fit Center  173 is at  -2.674655  3.515972  0.281887
      ESP Fit Center  174 is at  -1.972125  4.353215 -0.756410
      ESP Fit Center  175 is at  -2.674655  3.515972 -0.756410
      ESP Fit Center  176 is at  -2.674655  2.423030 -0.756410
      ESP Fit Center  177 is at  -1.972125  3.549927 -1.596410
      ESP Fit Center  178 is at  -1.972125  2.389075 -1.596410
      ESP Fit Center  179 is at  -1.173238  2.969501 -1.917261
      ESP Fit Center  180 is at   0.457026  5.073607  1.293708
      ESP Fit Center  181 is at   1.375845  5.161488  0.453708
      ESP Fit Center  182 is at   0.429329  5.707959  0.453708
      ESP Fit Center  183 is at  -0.647009  5.518172  0.453708
      ESP Fit Center  184 is at   1.375845  5.161488 -0.584589
      ESP Fit Center  185 is at   0.429329  5.707959 -0.584589
      ESP Fit Center  186 is at  -0.647009  5.518172 -0.584589
      ESP Fit Center  187 is at   1.139357  4.134458 -1.424589
      ESP Fit Center  188 is at   0.457026  5.073607 -1.424589
      ESP Fit Center  189 is at  -0.647009  4.714884 -1.424589
      ESP Fit Center  190 is at   0.151878  4.134458 -1.745441
      ESP Fit Center  191 is at   4.045884 -1.846263  1.803586
      ESP Fit Center  192 is at   5.033363 -1.846263  1.482735
      ESP Fit Center  193 is at   4.351032 -0.907114  1.482735
      ESP Fit Center  194 is at   4.351032 -2.785411  1.482735
      ESP Fit Center  195 is at   5.643659 -1.846263  0.642735
      ESP Fit Center  196 is at   5.269851 -0.819233  0.642735
      ESP Fit Center  197 is at   4.323335 -0.272762  0.642735
      ESP Fit Center  198 is at   5.269851 -2.873293  0.642735
      ESP Fit Center  199 is at   5.643659 -1.846263 -0.395562
      ESP Fit Center  200 is at   5.269851 -0.819233 -0.395562
      ESP Fit Center  201 is at   4.323335 -0.272762 -0.395562
      ESP Fit Center  202 is at   5.269851 -2.873293 -0.395562
      ESP Fit Center  203 is at   5.033363 -1.846263 -1.235562
      ESP Fit Center  204 is at   4.689297 -1.906889 -1.905745
      ESP Fit Center  205 is at   4.315489 -0.879859 -1.905745
      ESP Fit Center  206 is at   1.590105 -2.453360 -1.905745
      ESP Fit Center  207 is at   2.292635 -3.290603 -1.905745
      ESP Fit Center  208 is at   3.368973 -3.480390 -1.905745
      ESP Fit Center  209 is at   4.315489 -2.933919 -1.905745
      ESP Fit Center  210 is at   4.079001 -1.906889 -2.745745
      ESP Fit Center  211 is at   3.396670 -0.967741 -2.745745
      ESP Fit Center  212 is at   2.292635 -2.487315 -2.745745
      ESP Fit Center  213 is at   3.396670 -2.846038 -2.745745
      ESP Fit Center  214 is at   3.091522 -1.906889 -3.066597
      ESP Fit Center  215 is at   2.007926 -3.687613  1.259976
      ESP Fit Center  216 is at   3.111961 -4.046336  1.259976
      ESP Fit Center  217 is at   1.305396 -3.653658  0.419976
      ESP Fit Center  218 is at   2.007926 -4.490901  0.419976
      ESP Fit Center  219 is at   3.084264 -4.680688  0.419976
      ESP Fit Center  220 is at   4.030780 -4.134217  0.419976
      ESP Fit Center  221 is at   1.305396 -3.653658 -0.618321
      ESP Fit Center  222 is at   2.007926 -4.490901 -0.618321
      ESP Fit Center  223 is at   3.084264 -4.680688 -0.618321
      ESP Fit Center  224 is at   4.030780 -4.134217 -0.618321
      ESP Fit Center  225 is at   2.007926 -3.687613 -1.458321
      ESP Fit Center  226 is at   3.111961 -4.046336 -1.458321
      ESP Fit Center  227 is at   0.826124 -1.191542  3.663130
      ESP Fit Center  228 is at   0.027236 -0.611116  3.342279
      ESP Fit Center  229 is at   0.027236 -1.771967  3.342279
      ESP Fit Center  230 is at   0.027236 -2.575255  2.502279
      ESP Fit Center  231 is at   0.027236 -2.575255  1.463982
      ESP Fit Center  232 is at   2.409454 -0.382593  3.889945
      ESP Fit Center  233 is at   3.396933 -0.382593  3.569093
      ESP Fit Center  234 is at   2.714602  0.556555  3.569093
      ESP Fit Center  235 is at   1.610567  0.197832  3.569093
      ESP Fit Center  236 is at   4.007229 -0.382593  2.729093
      ESP Fit Center  237 is at   3.633421  0.644437  2.729093
      ESP Fit Center  238 is at   2.686905  1.190908  2.729093
      ESP Fit Center  239 is at   1.610567  1.001120  2.729093
      ESP Fit Center  240 is at   4.007229 -0.382593  1.690796
      ESP Fit Center  241 is at   3.633421  0.644437  1.690796
      ESP Fit Center  242 is at   2.304628 -2.145688  3.754983
      ESP Fit Center  243 is at   3.292108 -2.145688  3.434131
      ESP Fit Center  244 is at   1.505741 -2.726114  3.434131
      ESP Fit Center  245 is at   2.609776 -3.084836  3.434131
      ESP Fit Center  246 is at   3.902403 -2.145688  2.594131
      ESP Fit Center  247 is at   1.505741 -3.529402  2.594131
      ESP Fit Center  248 is at   2.582079 -3.719189  2.594131
      ESP Fit Center  249 is at   3.528595 -3.172718  2.594131
      ESP Fit Center  250 is at   1.505741 -3.529402  1.555834
      ESP Fit Center  251 is at   2.582079 -3.719189  1.555834
      ESP Fit Center  252 is at   3.528595 -3.172718  1.555834
      ESP Fit Center  253 is at  -4.268763 -0.200020  2.478073
      ESP Fit Center  254 is at  -5.067651  0.380406  2.157221
      ESP Fit Center  255 is at  -5.067651 -0.780445  2.157221
      ESP Fit Center  256 is at  -3.963615 -1.139168  2.157221
      ESP Fit Center  257 is at  -5.770180  0.346452  1.317221
      ESP Fit Center  258 is at  -5.770180 -0.746491  1.317221
      ESP Fit Center  259 is at  -5.067651 -1.583733  1.317221
      ESP Fit Center  260 is at  -3.991312 -1.773521  1.317221
      ESP Fit Center  261 is at  -5.770180  0.346452  0.278924
      ESP Fit Center  262 is at  -5.770180 -0.746491  0.278924
      ESP Fit Center  263 is at  -5.067651 -1.583733  0.278924
      ESP Fit Center  264 is at  -5.067651 -0.780445 -0.561076
      ESP Fit Center  265 is at  -3.194747  1.224782  2.671711
      ESP Fit Center  266 is at  -2.207267  1.224782  2.350860
      ESP Fit Center  267 is at  -2.889599  2.163931  2.350860
      ESP Fit Center  268 is at  -3.993634  1.805208  2.350860
      ESP Fit Center  269 is at  -2.889599  0.285634  2.350860
      ESP Fit Center  270 is at  -1.970780  2.251812  1.510860
      ESP Fit Center  271 is at  -2.917296  2.798284  1.510860
      ESP Fit Center  272 is at  -3.993634  2.608496  1.510860
      ESP Fit Center  273 is at  -4.696164  1.771254  1.510860
      ESP Fit Center  274 is at  -2.917296  2.798284  0.472562
      ESP Fit Center  275 is at  -3.993634  2.608496  0.472562
      ESP Fit Center  276 is at  -4.648763  2.188323 -0.109504
      ESP Fit Center  277 is at  -5.351293  1.351081 -0.109504
      ESP Fit Center  278 is at  -2.625909  1.831639 -1.147801
      ESP Fit Center  279 is at  -3.572425  2.378111 -1.147801
      ESP Fit Center  280 is at  -4.648763  2.188323 -1.147801
      ESP Fit Center  281 is at  -5.351293  1.351081 -1.147801
      ESP Fit Center  282 is at  -5.351293  0.258138 -1.147801
      ESP Fit Center  283 is at  -4.648763 -0.579104 -1.147801
      ESP Fit Center  284 is at  -2.862396  0.804609 -1.987801
      ESP Fit Center  285 is at  -3.544728  1.743758 -1.987801
      ESP Fit Center  286 is at  -4.648763  1.385035 -1.987801
      ESP Fit Center  287 is at  -4.648763  0.224184 -1.987801
      ESP Fit Center  288 is at  -3.544728 -0.134539 -1.987801
      ESP Fit Center  289 is at  -3.849876  0.804609 -2.308653
      ESP Fit Center  290 is at   0.162438  0.530294  2.735119
      ESP Fit Center  291 is at   0.467586  1.469443  2.414267
      ESP Fit Center  292 is at  -0.636449  1.110720  2.414267
      ESP Fit Center  293 is at   2.497903  2.165221 -1.920580
      ESP Fit Center  294 is at   2.124094  3.192251 -1.920580
[...]
  590 Fit       0.023279
  591 Fit       0.022368
  592 Fit       0.022802
  593 Fit       0.023125
  594 Fit       0.023172
  595 Fit       0.021745
  596 Fit       0.021935
  597 Fit       0.021033
  598 Fit       0.019084
  599 Fit       0.017844
  600 Fit       0.020569
  601 Fit       0.020029
  602 Fit       0.016657
  603 Fit       0.008867
  604 Fit       0.014508
  605 Fit       0.016240
  606 Fit       0.018234
  607 Fit       0.014712
  608 Fit       0.004332
  609 Fit       0.012941
  610 Fit       0.014146
  611 Fit       0.022618
  612 Fit       0.017340
  613 Fit      -0.001319
  614 Fit       0.020198
  615 Fit      -0.007501
  616 Fit       0.002137
  617 Fit       0.005977
  618 Fit       0.006037
  619 Fit       0.004428
  620 Fit       0.002361
  621 Fit      -0.009965
  622 Fit       0.000445
  623 Fit       0.002398
  624 Fit       0.000123
  625 Fit      -0.014696
  626 Fit      -0.006486
  627 Fit      -0.003297
  628 Fit       0.006356
  629 Fit       0.003531
  630 Fit      -0.008419
  631 Fit      -0.021769
  632 Fit      -0.002716
  633 Fit       0.007918
  634 Fit       0.008729
  635 Fit       0.006813
  636 Fit       0.006251
  637 Fit       0.005352
  638 Fit      -0.004533
  639 Fit       0.001438
  640 Fit       0.007620
  641 Fit       0.011193
  642 Fit       0.007566
  643 Fit       0.006389
  644 Fit       0.005311
  645 Fit       0.004251
  646 Fit       0.009845
  647 Fit       0.007886
  648 Fit      -0.000782
  649 Fit      -0.020183
  650 Fit       0.004972
  651 Fit       0.005709
  652 Fit      -0.015079
  653 Fit      -0.004958
  654 Fit       0.000414
  655 Fit       0.011278
  656 Fit       0.013376
  657 Fit       0.011611
  658 Fit       0.007052
  659 Fit       0.008083
  660 Fit       0.011502
  661 Fit       0.001167
  662 Fit       0.014150
  663 Fit      -0.006402
  664 Fit      -0.002587
  665 Fit       0.006910
  666 Fit       0.019874
  667 Fit       0.018446
  668 Fit       0.020168
  669 Fit       0.018991
  670 Fit       0.017873
  671 Fit       0.014923
  672 Fit       0.001884
  673 Fit       0.004594
  674 Fit       0.009733
  675 Fit      -0.018678
  676 Fit      -0.018529
  677 Fit      -0.019650
  678 Fit      -0.017691
  679 Fit      -0.036539
  680 Fit      -0.031563
  681 Fit      -0.028533
  682 Fit      -0.029127
  683 Fit      -0.026526
  684 Fit      -0.014231
  685 Fit      -0.036053
  686 Fit      -0.035722
  687 Fit      -0.029933
  688 Fit      -0.034565
  689 Fit      -0.033014
  690 Fit      -0.029847
  691 Fit      -0.030655
  692 Fit      -0.036485
  693 Fit      -0.035896
  694 Fit      -0.035512
  695 Fit      -0.018743
  696 Fit      -0.010133
  697 Fit      -0.013353
  698 Fit      -0.019130
  699 Fit      -0.024434
  700 Fit      -0.020061
  701 Fit       0.001481
  702 Fit      -0.005015
  703 Fit      -0.015794
  704 Fit      -0.026063
  705 Fit      -0.028908
  706 Fit      -0.022988
  707 Fit      -0.026790
  708 Fit      -0.032875
  709 Fit      -0.029960
  710 Fit      -0.022084
  711 Fit      -0.022930
  712 Fit      -0.033108
  713 Fit      -0.038195
  714 Fit      -0.039341
  715 Fit      -0.035426
  716 Fit      -0.018383
  717 Fit      -0.029458
  718 Fit      -0.035794
  719 Fit      -0.039181
  720 Fit      -0.040244
  721 Fit      -0.038345
  722 Fit      -0.032958
  723 Fit      -0.019502
  724 Fit      -0.029939
  725 Fit      -0.035672
  726 Fit      -0.038712
  727 Fit      -0.039795
  728 Fit      -0.038661
  729 Fit      -0.028962
  730 Fit      -0.018673
  731 Fit      -0.028849
  732 Fit      -0.035134
  733 Fit      -0.036674
  734 Fit      -0.029719
  735 Fit      -0.006940
  736 Fit      -0.010237
  737 Fit      -0.026442
  738 Fit      -0.012010
  739 Fit      -0.027997
  740 Fit      -0.035794
  741 Fit      -0.035279
  742 Fit      -0.028015
  743 Fit      -0.030333
  744 Fit      -0.031510
  745 Fit       0.002080
  746 Fit       0.014981
  747 Fit       0.013095
  748 Fit       0.011445
  749 Fit       0.013084
  750 Fit       0.016740
  751 Fit       0.010113
  752 Fit       0.008521
  753 Fit       0.008441
  754 Fit       0.009366
  755 Fit       0.007730
  756 Fit       0.010355
  757 Fit       0.006021
  758 Fit       0.004683
  759 Fit       0.007524
  760 Fit       0.002507
  761 Fit       0.002263
  762 Fit       0.001252
  763 Fit      -0.004203
  764 Fit      -0.014061
  765 Fit       0.007733
  766 Fit       0.007379
  767 Fit       0.008742
  768 Fit       0.009572
  769 Fit       0.005123
  770 Fit       0.006934
  771 Fit       0.008784
  772 Fit       0.010233
  773 Fit       0.003583
  774 Fit       0.006236
  775 Fit       0.008499
  776 Fit       0.010404
  777 Fit       0.001997
  778 Fit       0.005816
  779 Fit       0.008029
  780 Fit       0.013168
  781 Fit       0.014230
  782 Fit       0.011143
  783 Fit       0.011257
  784 Fit       0.013326
  785 Fit       0.013985
  786 Fit       0.016476
  787 Fit       0.009786
  788 Fit       0.008438
  789 Fit       0.008382
  790 Fit       0.009801
  791 Fit       0.013458
  792 Fit       0.019072
  793 Fit       0.017169
  794 Fit       0.017859
  795 Fit       0.010733
  796 Fit       0.016557
  797 Fit       0.008250
  798 Fit       0.012210
  799 Fit       0.005536
  800 Fit       0.006664
  801 Fit       0.003184
  802 Fit       0.010132
  803 Fit       0.009081
  804 Fit       0.008126
  805 Fit       0.007168
  806 Fit       0.010493
  807 Fit       0.009368
  808 Fit       0.008140
  809 Fit       0.006973
  810 Fit       0.010825
  811 Fit       0.009472
  812 Fit       0.008258
  813 Fit       0.006696
  814 Fit       0.007629
  815 Fit       0.006112
  816 Fit       0.013692
  817 Fit       0.014907
  818 Fit       0.014441
  819 Fit       0.011603
  820 Fit       0.011834
  821 Fit       0.012213
  822 Fit       0.011142
  823 Fit       0.011154
  824 Fit       0.009338
  825 Fit       0.009034
  826 Fit       0.008595
  827 Fit       0.009102
  828 Fit       0.009204
  829 Fit       0.006257
  830 Fit       0.004891
  831 Fit       0.006949
  832 Fit      -0.000199
  833 Fit      -0.005262
  834 Fit      -0.018937
  835 Fit      -0.017360
  836 Fit      -0.006234
  837 Fit      -0.000596
  838 Fit       0.001220
  839 Fit      -0.007177
  840 Fit      -0.020887
  841 Fit      -0.016991
  842 Fit      -0.006757
  843 Fit      -0.020309
  844 Fit       0.013691
  845 Fit       0.002692
  846 Fit       0.006609
  847 Fit       0.008734
  848 Fit       0.010159
  849 Fit      -0.011304
  850 Fit      -0.004243
  851 Fit       0.001465
  852 Fit       0.004876
  853 Fit       0.006751
  854 Fit      -0.014289
  855 Fit      -0.006137
  856 Fit      -0.000237
  857 Fit       0.003164
  858 Fit      -0.007053
  859 Fit       0.005835
  860 Fit      -0.004986
  861 Fit      -0.000810
  862 Fit      -0.016786
  863 Fit      -0.015202
  864 Fit       0.013290
  865 Fit       0.013685
  866 Fit       0.014696
  867 Fit       0.014424
  868 Fit       0.013609
  869 Fit       0.014403
  870 Fit       0.016409
  871 Fit       0.018025
  872 Fit       0.013786
  873 Fit       0.013240
  874 Fit       0.011785
  875 Fit       0.013263
  876 Fit       0.008485
  877 Fit       0.011854
  878 Fit       0.014109
  879 Fit       0.003028
  880 Fit       0.008610
  881 Fit       0.012244
  882 Fit       0.013788
  883 Fit       0.004992
  884 Fit       0.010980
  885 Fit       0.013817
  886 Fit       0.014990
  887 Fit       0.008501
  888 Fit       0.016217
  889 Fit       0.013659
  890 Fit       0.007831
  891 Fit      -0.005107
  892 Fit       0.016544
  893 Fit       0.014003
  894 Fit       0.009535
  895 Fit       0.001929
  896 Fit       0.016367
  897 Fit       0.013360
  898 Fit       0.008694
  899 Fit       0.001185
  900 Fit       0.010252
  901 Fit       0.001485
  902 Fit       0.012194
  903 Fit       0.009669
  904 Fit       0.017652
  905 Fit       0.017929
  906 Fit       0.016042
  907 Fit       0.019642
  908 Fit       0.019979
  909 Fit       0.019605
  910 Fit       0.019185
  911 Fit       0.020083
  912 Fit       0.019218
  913 Fit       0.019240
  914 Fit       0.018608
  915 Fit       0.017266
  916 Fit       0.013837
  917 Fit       0.016980
  918 Fit       0.017106
  919 Fit       0.015199
  920 Fit       0.010585
  921 Fit       0.000011
  922 Fit       0.012619
  923 Fit       0.014468
  924 Fit       0.010919
  925 Fit      -0.000053
  926 Fit       0.008861
  927 Fit       0.011604
  928 Fit       0.020108
  929 Fit       0.015069
  930 Fit      -0.008324
  931 Fit       0.000683
  932 Fit       0.004696
  933 Fit       0.005460
  934 Fit       0.004283
  935 Fit       0.002706
  936 Fit      -0.011178
  937 Fit      -0.000796
  938 Fit       0.001196
  939 Fit      -0.000958
  940 Fit      -0.007856
  941 Fit      -0.006583
  942 Fit       0.002907
  943 Fit      -0.000670
  944 Fit      -0.012942
  945 Fit      -0.006834
  946 Fit       0.007369
  947 Fit       0.006540
  948 Fit       0.008387
  949 Fit       0.009892
  950 Fit       0.005987
  951 Fit       0.005543
  952 Fit       0.004530
  953 Fit       0.003055
  954 Fit       0.001264
  955 Fit      -0.006091
  956 Fit       0.008395
  957 Fit       0.007248
  958 Fit       0.007530
  959 Fit       0.009664
  960 Fit       0.015219
  961 Fit       0.007336
  962 Fit       0.009948
  963 Fit       0.006860
  964 Fit       0.005025
  965 Fit       0.003860
  966 Fit       0.009518
  967 Fit       0.007698
  968 Fit      -0.016841
  969 Fit       0.005602
  970 Fit       0.002821
  971 Fit       0.000748
  972 Fit      -0.003137
  973 Fit      -0.018972
  974 Fit       0.001067
  975 Fit       0.002805
  976 Fit       0.003419
  977 Fit      -0.006857
  978 Fit       0.009559
  979 Fit       0.011552
  980 Fit       0.009870
  981 Fit       0.005860
  982 Fit       0.006709
  983 Fit       0.010162
  984 Fit       0.012404
  985 Fit       0.009430
  986 Fit       0.001021
  987 Fit       0.012720
  988 Fit      -0.001917
  989 Fit      -0.011527
  990 Fit      -0.015778
  991 Fit       0.004806
  992 Fit       0.010760
  993 Fit       0.014940
  994 Fit       0.016305
  995 Fit       0.017077
  996 Fit       0.015935
  997 Fit       0.015425
  998 Fit       0.017429
  999 Fit       0.017051
 1000 Fit       0.015969
 1001 Fit       0.014275
 1002 Fit       0.008711
 1003 Fit      -0.000719
 1004 Fit       0.002114
 1005 Fit       0.004379
 1006 Fit      -0.017580
 1007 Fit      -0.025106
 1008 Fit      -0.018576
 1009 Fit      -0.017354
 1010 Fit      -0.032893
 1011 Fit      -0.027545
 1012 Fit      -0.024647
 1013 Fit      -0.024804
 1014 Fit      -0.023121
 1015 Fit      -0.019819
 1016 Fit      -0.016002
 1017 Fit      -0.027653
 1018 Fit      -0.031768
 1019 Fit      -0.029891
 1020 Fit      -0.025856
 1021 Fit      -0.023747
 1022 Fit      -0.028806
 1023 Fit      -0.027368
 1024 Fit      -0.025060
 1025 Fit      -0.026338
 1026 Fit      -0.030692
 1027 Fit      -0.030092
 1028 Fit      -0.029516
 1029 Fit      -0.013858
 1030 Fit      -0.006896
 1031 Fit      -0.009576
 1032 Fit      -0.014464
 1033 Fit      -0.018685
 1034 Fit      -0.015187
 1035 Fit       0.001352
 1036 Fit       0.000553
 1037 Fit      -0.002737
 1038 Fit      -0.008844
 1039 Fit      -0.016756
 1040 Fit      -0.021957
 1041 Fit      -0.021856
 1042 Fit      -0.015751
 1043 Fit      -0.024251
 1044 Fit      -0.026004
 1045 Fit      -0.021737
 1046 Fit      -0.028637
 1047 Fit      -0.021665
 1048 Fit      -0.020157
 1049 Fit      -0.028344
 1050 Fit      -0.032481
 1051 Fit      -0.014599
 1052 Fit      -0.023774
 1053 Fit      -0.029514
 1054 Fit      -0.032797
 1055 Fit      -0.034046
 1056 Fit      -0.033025
 1057 Fit      -0.010838
 1058 Fit      -0.021147
 1059 Fit      -0.027695
 1060 Fit      -0.031659
 1061 Fit      -0.033831
 1062 Fit      -0.034446
 1063 Fit      -0.033690
 1064 Fit      -0.012271
 1065 Fit      -0.021343
 1066 Fit      -0.027512
 1067 Fit      -0.031232
 1068 Fit      -0.033283
 1069 Fit      -0.034060
 1070 Fit      -0.034159
 1071 Fit      -0.025674
 1072 Fit      -0.016116
 1073 Fit      -0.023961
 1074 Fit      -0.029509
 1075 Fit      -0.031041
 1076 Fit      -0.025006
 1077 Fit      -0.008195
 1078 Fit      -0.010278
 1079 Fit      -0.023017
 1080 Fit      -0.013338
 1081 Fit      -0.023877
 1082 Fit      -0.029176
 1083 Fit      -0.028879
 1084 Fit      -0.027831
 1085 Fit      -0.028011
 1086 Fit      -0.000898
 1087 Fit       0.013629
 1088 Fit       0.012347
 1089 Fit       0.010928
 1090 Fit       0.012224
 1091 Fit       0.014907
 1092 Fit       0.010353
 1093 Fit       0.008809
 1094 Fit       0.008689
 1095 Fit       0.009570
 1096 Fit       0.010941
 1097 Fit       0.006417
 1098 Fit       0.008369
 1099 Fit       0.004132
 1100 Fit       0.003613
 1101 Fit       0.004715
 1102 Fit       0.000176
 1103 Fit       0.000942
 1104 Fit      -0.002472
 1105 Fit      -0.006431
 1106 Fit       0.006935
 1107 Fit       0.007815
 1108 Fit       0.008503
 1109 Fit       0.006362
 1110 Fit       0.007585
 1111 Fit       0.008686
 1112 Fit       0.009921
 1113 Fit       0.005650
 1114 Fit       0.007219
 1115 Fit       0.008609
 1116 Fit       0.010428
 1117 Fit       0.004836
 1118 Fit       0.006797
 1119 Fit       0.008529
 1120 Fit       0.004389
 1121 Fit       0.006305
 1122 Fit       0.011922
 1123 Fit       0.013026
 1124 Fit       0.010582
 1125 Fit       0.010570
 1126 Fit       0.012014
 1127 Fit       0.012289
 1128 Fit       0.014396
 1129 Fit       0.010058
 1130 Fit       0.008690
 1131 Fit       0.008594
 1132 Fit       0.009784
 1133 Fit       0.012662
 1134 Fit       0.016087
 1135 Fit       0.013189
 1136 Fit       0.014050
 1137 Fit       0.008388
 1138 Fit       0.012205
 1139 Fit       0.007257
 1140 Fit       0.010271
 1141 Fit       0.004903
 1142 Fit       0.005652
 1143 Fit       0.002983
 1144 Fit       0.008872
 1145 Fit       0.008119
 1146 Fit       0.007476
 1147 Fit       0.009418
 1148 Fit       0.008438
 1149 Fit       0.007667
 1150 Fit       0.007074
 1151 Fit       0.009445
 1152 Fit       0.008425
 1153 Fit       0.007567
 1154 Fit       0.006780
 1155 Fit       0.008751
 1156 Fit       0.007868
 1157 Fit       0.007000
 1158 Fit       0.006029
 1159 Fit       0.006319
 1160 Fit       0.005373
 1161 Fit       0.012897
 1162 Fit       0.010813
 1163 Fit       0.011284
 1164 Fit       0.012389
 1165 Fit       0.010988
 1166 Fit       0.010533
 1167 Fit       0.009034
 1168 Fit       0.009086
 1169 Fit       0.009213
 1170 Fit       0.008679
 1171 Fit       0.008821
 1172 Fit       0.006884
 1173 Fit       0.006444
 1174 Fit       0.005894
 1175 Fit       0.007016
 1176 Fit       0.004224
 1177 Fit       0.002682
 1178 Fit      -0.002439
 1179 Fit      -0.007301
 1180 Fit      -0.018582
 1181 Fit      -0.008210
 1182 Fit      -0.002972
 1183 Fit      -0.001218
 1184 Fit      -0.009056
 1185 Fit      -0.020540
 1186 Fit      -0.017569
 1187 Fit      -0.008696
 1188 Fit      -0.020053
 1189 Fit       0.002944
 1190 Fit       0.006293
 1191 Fit       0.008387
 1192 Fit      -0.008230
 1193 Fit      -0.001846
 1194 Fit       0.002521
 1195 Fit       0.005141
 1196 Fit       0.006779
 1197 Fit      -0.012447
 1198 Fit      -0.005256
 1199 Fit      -0.000253
 1200 Fit       0.002796
 1201 Fit       0.004747
 1202 Fit      -0.008469
 1203 Fit      -0.002555
 1204 Fit       0.001003
 1205 Fit       0.005153
 1206 Fit      -0.003213
 1207 Fit      -0.000292
 1208 Fit      -0.012402
 1209 Fit       0.011767
 1210 Fit       0.012250
 1211 Fit       0.012920
 1212 Fit       0.012606
 1213 Fit       0.012356
 1214 Fit       0.012931
 1215 Fit       0.014357
 1216 Fit       0.015856
 1217 Fit       0.014874
 1218 Fit       0.012510
 1219 Fit       0.012369
 1220 Fit       0.011488
 1221 Fit       0.011659
 1222 Fit       0.007292
 1223 Fit       0.010061
 1224 Fit       0.012463
 1225 Fit       0.002676
 1226 Fit       0.007067
 1227 Fit       0.010151
 1228 Fit       0.011735
 1229 Fit       0.013679
 1230 Fit      -0.000998
 1231 Fit       0.005282
 1232 Fit       0.009427
 1233 Fit       0.011680
 1234 Fit       0.012868
 1235 Fit       0.006254
 1236 Fit       0.010788
 1237 Fit       0.005194
 1238 Fit       0.013834
 1239 Fit       0.011194
 1240 Fit       0.006870
 1241 Fit      -0.000665
 1242 Fit       0.015247
 1243 Fit       0.012866
 1244 Fit       0.009775
 1245 Fit       0.005019
 1246 Fit      -0.002181
 1247 Fit       0.011942
 1248 Fit       0.007768
 1249 Fit       0.001256
 1250 Fit      -0.003160
 1251 Fit       0.009860
 1252 Fit       0.007463
 1253 Fit       0.014545
 1254 Fit       0.014996
 1255 Fit       0.013245
 1256 Fit       0.017254
 1257 Fit       0.017187
 1258 Fit       0.016854
 1259 Fit       0.017545
 1260 Fit       0.017723
 1261 Fit       0.017685
 1262 Fit       0.016031
 1263 Fit       0.015781
 1264 Fit       0.014682
 1265 Fit       0.012538
 1266 Fit       0.011212
 1267 Fit       0.013803
 1268 Fit       0.013829
 1269 Fit       0.011923
 1270 Fit       0.007346
 1271 Fit      -0.002863
 1272 Fit       0.009757
 1273 Fit       0.011078
 1274 Fit       0.007763
 1275 Fit      -0.001698
 1276 Fit       0.005886
 1277 Fit       0.017248
 1278 Fit       0.012610
 1279 Fit      -0.010102
 1280 Fit      -0.001227
 1281 Fit       0.002654
 1282 Fit       0.003729
 1283 Fit       0.003203
 1284 Fit       0.002235
 1285 Fit      -0.011546
 1286 Fit      -0.002373
 1287 Fit      -0.000387
 1288 Fit      -0.002661
 1289 Fit      -0.008540
 1290 Fit      -0.008513
 1291 Fit      -0.000243
 1292 Fit      -0.003610
 1293 Fit      -0.013822
 1294 Fit      -0.009231
 -----------------------------------------------------------------
 Leave Link  602 at Sat Feb 17 21:01:24 2018, MaxMem=   33554432 cpu:       0.6

 Test job not archived.
 1\1\GINC-NODE073\SP\RHF\6-31G(d)\C8H18N2O3S1\WULSDORT\17-Feb-2018\0\\#
 HF/6-31G* Geom=AllCheck Guess=Read Pop=(MK,ReadRadii) Integral=(Grid=U
 ltraFine) iop(6/33=2)\\Optimization for frag25-conf2\\0,1\C,0,1.121840
 2968,-4.4462970146,-1.1620822736\C,0,-0.5417885892,-2.0795030076,-1.88
 23748315\C,0,0.5478989248,-0.7607428751,-0.0220135892\C,0,1.0499781863
 ,-6.1774987314,-2.8624610072\C,0,2.3571262078,-4.1077633797,-3.3120502
 895\C,0,4.3251398756,-1.8880615968,1.6561629848\C,0,1.4967338068,-3.02
 78304575,-0.6839506922\C,0,0.2162385018,-2.1624612988,-0.5479764462\N,
 0,2.1485387296,-3.1638355022,0.6382502437\N,0,1.4993440015,-4.86688737
 71,-2.4014881594\O,0,0.4697112689,-5.1457262051,-0.3821098309\O,0,4.37
 71836702,-3.1476001995,-0.6628306871\O,0,4.1466840581,-4.5233207367,1.
 4830331322\S,0,3.8352757189,-3.3290807803,0.6929662216\H,0,0.075270110
 7,-1.6127945627,-2.6616262714\H,0,-0.8562498067,-3.0654718694,-2.23964
 70834\H,0,-1.4429601131,-1.4671046722,-1.7683736935\H,0,1.1782321058,-
 0.2107422433,-0.7339316826\H,0,1.0742342894,-0.8094885196,0.9351931076
 \H,0,-0.36984676,-0.1793539685,0.1227026459\H,0,0.4929786924,-6.079818
 4326,-3.8026112672\H,0,0.406774088,-6.60987047,-2.0976924826\H,0,1.908
 4184133,-6.8391304988,-3.031362776\H,0,3.1850992529,-3.6401090087,-2.7
 761001325\H,0,1.7966691227,-3.346903837,-3.8711203387\H,0,2.7857306425
 ,-4.8073341727,-4.0342328371\H,0,5.4141015647,-1.9131283562,1.73991978
 14\H,0,4.0017423373,-0.9867941864,1.1331128393\H,0,3.8637321661,-1.952
 8824066,2.642730158\H,0,2.1986538554,-2.5225892111,-1.3462477322\H,0,-
 0.4285858515,-2.6725456655,0.1791817195\H,0,1.7312735881,-3.9480818406
 ,1.1454463968\\Version=AM64L-G09RevC.01\State=1-A\HF=-1044.3489315\RMS
 D=6.744e-09\Dipole=-0.3776926,1.5877021,-0.7742187\Quadrupole=-5.55038
 55,-0.3539491,5.9043346,2.5363656,2.7305077,9.302593\PG=C01 [X(C8H18N2
 O3S1)]\\@


 In the race for quality, there is no finish line.
                               -- David T. Kearns
 Job cpu time:  0 days  0 hours  3 minutes 51.6 seconds.
 File lengths (MBytes):  RWF=     37 Int=      0 D2E=      0 Chk=      6 Scr=      1
 Normal termination of Gaussian 09 at Sat Feb 17 21:01:25 2018.
