 Entering Gaussian System, Link 0=g09
 Initial command:
 /home/fb_chem/chemsoft/lx24-amd64/Gaussian_09_C.01_NBO_3.1_64_istanbul-64/g09/l1.exe /local/2397366.1.parallel/Gau-21645.inp -scrdir=/local/2397366.1.parallel/
 Entering Link 1 = /home/fb_chem/chemsoft/lx24-amd64/Gaussian_09_C.01_NBO_3.1_64_istanbul-64/g09/l1.exe PID=     21646.
  
 Copyright (c) 1988,1990,1992,1993,1995,1998,2003,2009,2011,
            Gaussian, Inc.  All Rights Reserved.
  
 This is part of the Gaussian(R) 09 program.  It is based on
 the Gaussian(R) 03 system (copyright 2003, Gaussian, Inc.),
 the Gaussian(R) 98 system (copyright 1998, Gaussian, Inc.),
 the Gaussian(R) 94 system (copyright 1995, Gaussian, Inc.),
 the Gaussian 92(TM) system (copyright 1992, Gaussian, Inc.),
 the Gaussian 90(TM) system (copyright 1990, Gaussian, Inc.),
 the Gaussian 88(TM) system (copyright 1988, Gaussian, Inc.),
 the Gaussian 86(TM) system (copyright 1986, Carnegie Mellon
 University), and the Gaussian 82(TM) system (copyright 1983,
 Carnegie Mellon University). Gaussian is a federally registered
 trademark of Gaussian, Inc.
  
 This software contains proprietary and confidential information,
 including trade secrets, belonging to Gaussian, Inc.
  
 This software is provided under written license and may be
 used, copied, transmitted, or stored only in accord with that
 written license.
  
 The following legend is applicable only to US Government
 contracts under FAR:
  
                    RESTRICTED RIGHTS LEGEND
  
 Use, reproduction and disclosure by the US Government is
 subject to restrictions as set forth in subparagraphs (a)
 and (c) of the Commercial Computer Software - Restricted
 Rights clause in FAR 52.227-19.
  
 Gaussian, Inc.
 340 Quinnipiac St., Bldg. 40, Wallingford CT 06492
  
  
 ---------------------------------------------------------------
 Warning -- This program may not be used in any manner that
 competes with the business of Gaussian, Inc. or will provide
 assistance to any competitor of Gaussian, Inc.  The licensee
 of this program is prohibited from giving any competitor of
 Gaussian, Inc. access to this program.  By using this program,
 the user acknowledges that Gaussian, Inc. is engaged in the
 business of creating and licensing software in the field of
 computational chemistry and represents and warrants to the
 licensee that it is not a competitor of Gaussian, Inc. and that
 it will not use this program in any manner prohibited above.
 ---------------------------------------------------------------
  

 Cite this work as:
 Gaussian 09, Revision C.01,
 M. J. Frisch, G. W. Trucks, H. B. Schlegel, G. E. Scuseria, 
 M. A. Robb, J. R. Cheeseman, G. Scalmani, V. Barone, B. Mennucci, 
 G. A. Petersson, H. Nakatsuji, M. Caricato, X. Li, H. P. Hratchian, 
 A. F. Izmaylov, J. Bloino, G. Zheng, J. L. Sonnenberg, M. Hada, 
 M. Ehara, K. Toyota, R. Fukuda, J. Hasegawa, M. Ishida, T. Nakajima, 
 Y. Honda, O. Kitao, H. Nakai, T. Vreven, J. A. Montgomery, Jr., 
 J. E. Peralta, F. Ogliaro, M. Bearpark, J. J. Heyd, E. Brothers, 
 K. N. Kudin, V. N. Staroverov, T. Keith, R. Kobayashi, J. Normand, 
 K. Raghavachari, A. Rendell, J. C. Burant, S. S. Iyengar, J. Tomasi, 
 M. Cossi, N. Rega, J. M. Millam, M. Klene, J. E. Knox, J. B. Cross, 
 V. Bakken, C. Adamo, J. Jaramillo, R. Gomperts, R. E. Stratmann, 
 O. Yazyev, A. J. Austin, R. Cammi, C. Pomelli, J. W. Ochterski, 
 R. L. Martin, K. Morokuma, V. G. Zakrzewski, G. A. Voth, 
 P. Salvador, J. J. Dannenberg, S. Dapprich, A. D. Daniels, 
 O. Farkas, J. B. Foresman, J. V. Ortiz, J. Cioslowski, 
 and D. J. Fox, Gaussian, Inc., Wallingford CT, 2010.
 
 ******************************************
 Gaussian 09:  AM64L-G09RevC.01 23-Sep-2011
                16-Feb-2018 
 ******************************************
 %nprocs=4
 Will use up to    4 processors via shared memory.
 %chk=frag25-conf2.chk
 ---------------------------------------------------------
 #B3LYP/6-31G* Integral=(Grid=UltraFine) freq Opt pop=none
 ---------------------------------------------------------
 1/14=-1,18=20,19=15,26=3,38=1/1,3;
 2/9=110,12=2,17=6,18=5,40=1/2;
 3/5=1,6=6,7=1,11=2,16=1,25=1,30=1,71=1,74=-5,75=-5/1,2,3;
 4//1;
 5/5=2,38=5/2;
 7//1,2,3,16;
 1/14=-1,18=20,19=15/3(2);
 2/9=110/2;
 99//99;
 2/9=110/2;
 3/5=1,6=6,7=1,11=2,16=1,25=1,30=1,71=1,74=-5,75=-5/1,2,3;
 4/5=5,16=3/1;
 5/5=2,38=5/2;
 7//1,2,3,16;
 1/14=-1,18=20,19=15/3(-5);
 2/9=110/2;
 99/9=1/99;
 -----------------------------
 Optimization for frag25-conf2
 -----------------------------
 Charge =  0 Multiplicity = 1
 Symbolic Z-Matrix:
 C                     1.10194  -4.38737  -1.15826 
 C                    -0.64541  -2.06052  -1.73352 
 C                     0.31746  -0.7872    0.17288 
 C                     1.55848  -5.98549  -2.97588 
 C                     2.49535  -3.70661  -3.14549 
 C                     4.45278  -2.42966   0.59049 
 C                     1.37689  -3.01558  -0.48405 
 C                     0.06189  -2.1978   -0.37847 
 N                     1.89706  -3.30062   0.89661 
 N                     1.67012  -4.65086  -2.40309 
 O                     0.39432  -5.23135  -0.58911 
 O                     3.69646  -4.91549   0.08741 
 O                     3.67306  -4.10447   2.46776 
 S                     3.48189  -3.85247   1.05032 
 H                    -0.00046  -1.5708   -2.4704 
 H                    -0.94672  -3.03368  -2.13278 
 H                    -1.55652  -1.45993  -1.63505 
 H                     1.03553  -0.24371  -0.45081 
 H                     0.706    -0.81097   1.19462 
 H                    -0.61168  -0.20711   0.19878 
 H                     1.10184  -5.9057   -3.96682 
 H                     0.95048  -6.65303  -2.3607 
 H                     2.56266  -6.41004  -3.06861 
 H                     3.50249  -3.7152   -2.71981 
 H                     2.08006  -2.69895  -3.08535 
 H                     2.53981  -3.99496  -4.1999 
 H                     5.50186  -2.66906   0.7786 
 H                     4.31117  -2.21801  -0.46962 
 H                     4.15146  -1.58215   1.20869 
 H                     2.12023  -2.42366  -1.01751 
 H                    -0.6273   -2.70864   0.30723 
 H                     1.71198  -2.55966   1.57825 
 

 GradGradGradGradGradGradGradGradGradGradGradGradGradGradGradGradGradGrad
 Berny optimization.
 Initialization pass.
                           ----------------------------
                           !    Initial Parameters    !
                           ! (Angstroms and Degrees)  !
 --------------------------                            --------------------------
 ! Name  Definition              Value          Derivative Info.                !
 --------------------------------------------------------------------------------
 ! R1    R(1,7)                  1.553          estimate D2E/DX2                !
 ! R2    R(1,10)                 1.3935         estimate D2E/DX2                !
 ! R3    R(1,11)                 1.2397         estimate D2E/DX2                !
 ! R4    R(2,8)                  1.5347         estimate D2E/DX2                !
 ! R5    R(2,15)                 1.0949         estimate D2E/DX2                !
 ! R6    R(2,16)                 1.0942         estimate D2E/DX2                !
 ! R7    R(2,17)                 1.0957         estimate D2E/DX2                !
 ! R8    R(3,8)                  1.5359         estimate D2E/DX2                !
 ! R9    R(3,18)                 1.0954         estimate D2E/DX2                !
 ! R10   R(3,19)                 1.0934         estimate D2E/DX2                !
 ! R11   R(3,20)                 1.0957         estimate D2E/DX2                !
 ! R12   R(4,10)                 1.4566         estimate D2E/DX2                !
 ! R13   R(4,21)                 1.094          estimate D2E/DX2                !
 ! R14   R(4,22)                 1.0926         estimate D2E/DX2                !
 ! R15   R(4,23)                 1.0942         estimate D2E/DX2                !
 ! R16   R(5,10)                 1.4573         estimate D2E/DX2                !
 ! R17   R(5,24)                 1.0934         estimate D2E/DX2                !
 ! R18   R(5,25)                 1.0915         estimate D2E/DX2                !
 ! R19   R(5,26)                 1.094          estimate D2E/DX2                !
 ! R20   R(6,14)                 1.7828         estimate D2E/DX2                !
 ! R21   R(6,27)                 1.0924         estimate D2E/DX2                !
 ! R22   R(6,28)                 1.0903         estimate D2E/DX2                !
 ! R23   R(6,29)                 1.0914         estimate D2E/DX2                !
 ! R24   R(7,8)                  1.5521         estimate D2E/DX2                !
 ! R25   R(7,9)                  1.5027         estimate D2E/DX2                !
 ! R26   R(7,30)                 1.0897         estimate D2E/DX2                !
 ! R27   R(8,31)                 1.0982         estimate D2E/DX2                !
 ! R28   R(9,14)                 1.6852         estimate D2E/DX2                !
 ! R29   R(9,32)                 1.0237         estimate D2E/DX2                !
 ! R30   R(12,14)                1.4503         estimate D2E/DX2                !
 ! R31   R(13,14)                1.4523         estimate D2E/DX2                !
 ! A1    A(7,1,10)             118.8577         estimate D2E/DX2                !
 ! A2    A(7,1,11)             120.2032         estimate D2E/DX2                !
 ! A3    A(10,1,11)            120.9379         estimate D2E/DX2                !
 ! A4    A(8,2,15)             111.2701         estimate D2E/DX2                !
 ! A5    A(8,2,16)             111.6875         estimate D2E/DX2                !
 ! A6    A(8,2,17)             110.6658         estimate D2E/DX2                !
 ! A7    A(15,2,16)            108.3271         estimate D2E/DX2                !
 ! A8    A(15,2,17)            107.7662         estimate D2E/DX2                !
 ! A9    A(16,2,17)            106.9369         estimate D2E/DX2                !
 ! A10   A(8,3,18)             111.121          estimate D2E/DX2                !
 ! A11   A(8,3,19)             112.0            estimate D2E/DX2                !
 ! A12   A(8,3,20)             110.7088         estimate D2E/DX2                !
 ! A13   A(18,3,19)            108.0528         estimate D2E/DX2                !
 ! A14   A(18,3,20)            107.8583         estimate D2E/DX2                !
 ! A15   A(19,3,20)            106.9047         estimate D2E/DX2                !
 ! A16   A(10,4,21)            108.7452         estimate D2E/DX2                !
 ! A17   A(10,4,22)            112.3984         estimate D2E/DX2                !
 ! A18   A(10,4,23)            108.572          estimate D2E/DX2                !
 ! A19   A(21,4,22)            108.8016         estimate D2E/DX2                !
 ! A20   A(21,4,23)            109.5489         estimate D2E/DX2                !
 ! A21   A(22,4,23)            108.7447         estimate D2E/DX2                !
 ! A22   A(10,5,24)            108.5521         estimate D2E/DX2                !
 ! A23   A(10,5,25)            110.7711         estimate D2E/DX2                !
 ! A24   A(10,5,26)            110.0735         estimate D2E/DX2                !
 ! A25   A(24,5,25)            109.648          estimate D2E/DX2                !
 ! A26   A(24,5,26)            109.6149         estimate D2E/DX2                !
 ! A27   A(25,5,26)            108.1717         estimate D2E/DX2                !
 ! A28   A(14,6,27)            107.6793         estimate D2E/DX2                !
 ! A29   A(14,6,28)            109.5715         estimate D2E/DX2                !
 ! A30   A(14,6,29)            108.8614         estimate D2E/DX2                !
 ! A31   A(27,6,28)            109.5553         estimate D2E/DX2                !
 ! A32   A(27,6,29)            109.7412         estimate D2E/DX2                !
 ! A33   A(28,6,29)            111.3544         estimate D2E/DX2                !
 ! A34   A(1,7,8)              110.1768         estimate D2E/DX2                !
 ! A35   A(1,7,9)              107.0139         estimate D2E/DX2                !
 ! A36   A(1,7,30)             112.8324         estimate D2E/DX2                !
 ! A37   A(8,7,9)              109.3123         estimate D2E/DX2                !
 ! A38   A(8,7,30)             108.9669         estimate D2E/DX2                !
 ! A39   A(9,7,30)             108.4632         estimate D2E/DX2                !
 ! A40   A(2,8,3)              108.149          estimate D2E/DX2                !
 ! A41   A(2,8,7)              112.1808         estimate D2E/DX2                !
 ! A42   A(2,8,31)             107.6782         estimate D2E/DX2                !
 ! A43   A(3,8,7)              111.5505         estimate D2E/DX2                !
 ! A44   A(3,8,31)             107.9076         estimate D2E/DX2                !
 ! A45   A(7,8,31)             109.2117         estimate D2E/DX2                !
 ! A46   A(7,9,14)             118.1296         estimate D2E/DX2                !
 ! A47   A(7,9,32)             114.3255         estimate D2E/DX2                !
 ! A48   A(14,9,32)            110.2631         estimate D2E/DX2                !
 ! A49   A(1,10,4)             119.5562         estimate D2E/DX2                !
 ! A50   A(1,10,5)             124.2946         estimate D2E/DX2                !
 ! A51   A(4,10,5)             115.8961         estimate D2E/DX2                !
 ! A52   A(6,14,9)             103.1369         estimate D2E/DX2                !
 ! A53   A(6,14,12)            109.4602         estimate D2E/DX2                !
 ! A54   A(6,14,13)            108.5733         estimate D2E/DX2                !
 ! A55   A(9,14,12)            108.579          estimate D2E/DX2                !
 ! A56   A(9,14,13)            105.6429         estimate D2E/DX2                !
 ! A57   A(12,14,13)           120.0901         estimate D2E/DX2                !
 ! D1    D(10,1,7,8)           114.3812         estimate D2E/DX2                !
 ! D2    D(10,1,7,9)          -126.874          estimate D2E/DX2                !
 ! D3    D(10,1,7,30)           -7.653          estimate D2E/DX2                !
 ! D4    D(11,1,7,8)           -66.0235         estimate D2E/DX2                !
 ! D5    D(11,1,7,9)            52.7213         estimate D2E/DX2                !
 ! D6    D(11,1,7,30)          171.9424         estimate D2E/DX2                !
 ! D7    D(7,1,10,4)           172.6008         estimate D2E/DX2                !
 ! D8    D(7,1,10,5)            -1.3743         estimate D2E/DX2                !
 ! D9    D(11,1,10,4)           -6.9914         estimate D2E/DX2                !
 ! D10   D(11,1,10,5)          179.0335         estimate D2E/DX2                !
 ! D11   D(15,2,8,3)            64.5732         estimate D2E/DX2                !
 ! D12   D(15,2,8,7)           -58.8685         estimate D2E/DX2                !
 ! D13   D(15,2,8,31)         -179.0614         estimate D2E/DX2                !
 ! D14   D(16,2,8,3)          -174.2321         estimate D2E/DX2                !
 ! D15   D(16,2,8,7)            62.3262         estimate D2E/DX2                !
 ! D16   D(16,2,8,31)          -57.8667         estimate D2E/DX2                !
 ! D17   D(17,2,8,3)           -55.2146         estimate D2E/DX2                !
 ! D18   D(17,2,8,7)          -178.6563         estimate D2E/DX2                !
 ! D19   D(17,2,8,31)           61.1508         estimate D2E/DX2                !
 ! D20   D(18,3,8,2)           -66.2344         estimate D2E/DX2                !
 ! D21   D(18,3,8,7)            57.5875         estimate D2E/DX2                !
 ! D22   D(18,3,8,31)          177.5491         estimate D2E/DX2                !
 ! D23   D(19,3,8,2)           172.8101         estimate D2E/DX2                !
 ! D24   D(19,3,8,7)           -63.3679         estimate D2E/DX2                !
 ! D25   D(19,3,8,31)           56.5937         estimate D2E/DX2                !
 ! D26   D(20,3,8,2)            53.5997         estimate D2E/DX2                !
 ! D27   D(20,3,8,7)           177.4217         estimate D2E/DX2                !
 ! D28   D(20,3,8,31)          -62.6167         estimate D2E/DX2                !
 ! D29   D(21,4,10,1)          124.5071         estimate D2E/DX2                !
 ! D30   D(21,4,10,5)          -61.0243         estimate D2E/DX2                !
 ! D31   D(22,4,10,1)            3.9778         estimate D2E/DX2                !
 ! D32   D(22,4,10,5)          178.4464         estimate D2E/DX2                !
 ! D33   D(23,4,10,1)         -116.3631         estimate D2E/DX2                !
 ! D34   D(23,4,10,5)           58.1055         estimate D2E/DX2                !
 ! D35   D(24,5,10,1)           78.9592         estimate D2E/DX2                !
 ! D36   D(24,5,10,4)          -95.2157         estimate D2E/DX2                !
 ! D37   D(25,5,10,1)          -41.4796         estimate D2E/DX2                !
 ! D38   D(25,5,10,4)          144.3456         estimate D2E/DX2                !
 ! D39   D(26,5,10,1)         -161.0649         estimate D2E/DX2                !
 ! D40   D(26,5,10,4)           24.7603         estimate D2E/DX2                !
 ! D41   D(27,6,14,9)          173.3709         estimate D2E/DX2                !
 ! D42   D(27,6,14,12)         -71.1958         estimate D2E/DX2                !
 ! D43   D(27,6,14,13)          61.623          estimate D2E/DX2                !
 ! D44   D(28,6,14,9)          -67.54           estimate D2E/DX2                !
 ! D45   D(28,6,14,12)          47.8934         estimate D2E/DX2                !
 ! D46   D(28,6,14,13)        -179.2878         estimate D2E/DX2                !
 ! D47   D(29,6,14,9)           54.4552         estimate D2E/DX2                !
 ! D48   D(29,6,14,12)         169.8886         estimate D2E/DX2                !
 ! D49   D(29,6,14,13)         -57.2926         estimate D2E/DX2                !
 ! D50   D(1,7,8,2)            -53.5736         estimate D2E/DX2                !
 ! D51   D(1,7,8,3)           -175.0857         estimate D2E/DX2                !
 ! D52   D(1,7,8,31)            65.7242         estimate D2E/DX2                !
 ! D53   D(9,7,8,2)           -170.9024         estimate D2E/DX2                !
 ! D54   D(9,7,8,3)             67.5855         estimate D2E/DX2                !
 ! D55   D(9,7,8,31)           -51.6046         estimate D2E/DX2                !
 ! D56   D(30,7,8,2)            70.7198         estimate D2E/DX2                !
 ! D57   D(30,7,8,3)           -50.7922         estimate D2E/DX2                !
 ! D58   D(30,7,8,31)         -169.9823         estimate D2E/DX2                !
 ! D59   D(1,7,9,14)            74.7991         estimate D2E/DX2                !
 ! D60   D(1,7,9,32)          -152.9287         estimate D2E/DX2                !
 ! D61   D(8,7,9,14)          -165.8969         estimate D2E/DX2                !
 ! D62   D(8,7,9,32)           -33.6247         estimate D2E/DX2                !
 ! D63   D(30,7,9,14)          -47.2053         estimate D2E/DX2                !
 ! D64   D(30,7,9,32)           85.0669         estimate D2E/DX2                !
 ! D65   D(7,9,14,6)            69.0547         estimate D2E/DX2                !
 ! D66   D(7,9,14,12)          -47.0084         estimate D2E/DX2                !
 ! D67   D(7,9,14,13)         -177.0536         estimate D2E/DX2                !
 ! D68   D(32,9,14,6)          -64.9943         estimate D2E/DX2                !
 ! D69   D(32,9,14,12)         178.9426         estimate D2E/DX2                !
 ! D70   D(32,9,14,13)          48.8974         estimate D2E/DX2                !
 --------------------------------------------------------------------------------
 Trust Radius=3.00D-01 FncErr=1.00D-07 GrdErr=1.00D-06
 Number of steps in this run=    168 maximum allowed number of steps=    192.
 GradGradGradGradGradGradGradGradGradGradGradGradGradGradGradGradGradGrad

                          Input orientation:                          
 ---------------------------------------------------------------------
 Center     Atomic      Atomic             Coordinates (Angstroms)
 Number     Number       Type             X           Y           Z
 ---------------------------------------------------------------------
      1          6           0        1.101945   -4.387366   -1.158257
      2          6           0       -0.645410   -2.060525   -1.733521
      3          6           0        0.317460   -0.787196    0.172885
      4          6           0        1.558479   -5.985485   -2.975885
      5          6           0        2.495348   -3.706612   -3.145485
      6          6           0        4.452776   -2.429663    0.590495
      7          6           0        1.376893   -3.015583   -0.484051
      8          6           0        0.061887   -2.197801   -0.378473
      9          7           0        1.897060   -3.300621    0.896610
     10          7           0        1.670122   -4.650858   -2.403086
     11          8           0        0.394316   -5.231347   -0.589107
     12          8           0        3.696456   -4.915493    0.087405
     13          8           0        3.673063   -4.104468    2.467756
     14         16           0        3.481887   -3.852473    1.050320
     15          1           0       -0.000459   -1.570799   -2.470398
     16          1           0       -0.946722   -3.033676   -2.132783
     17          1           0       -1.556519   -1.459933   -1.635053
     18          1           0        1.035531   -0.243713   -0.450806
     19          1           0        0.706004   -0.810975    1.194622
     20          1           0       -0.611676   -0.207106    0.198781
     21          1           0        1.101837   -5.905702   -3.966821
     22          1           0        0.950481   -6.653034   -2.360701
     23          1           0        2.562656   -6.410040   -3.068606
     24          1           0        3.502494   -3.715200   -2.719812
     25          1           0        2.080055   -2.698951   -3.085350
     26          1           0        2.539809   -3.994957   -4.199900
     27          1           0        5.501859   -2.669059    0.778597
     28          1           0        4.311166   -2.218008   -0.469615
     29          1           0        4.151464   -1.582149    1.208690
     30          1           0        2.120230   -2.423656   -1.017513
     31          1           0       -0.627300   -2.708645    0.307226
     32          1           0        1.711978   -2.559659    1.578251
 ---------------------------------------------------------------------
                    Distance matrix (angstroms):
                    1          2          3          4          5
     1  C    0.000000
     2  C    2.966204   0.000000
     3  C    3.917726   2.486538   0.000000
     4  C    2.462961   4.669679   6.202990   0.000000
     5  C    2.520729   3.816753   4.927247   2.469767   0.000000
     6  C    4.256619   5.615053   4.469109   5.808605   4.406775
     7  C    1.553042   2.561840   2.553365   3.881048   2.968450
     8  C    2.546365   1.534689   1.535943   4.830412   3.981783
     9  N    2.456767   3.862588   3.055523   4.724336   4.106253
    10  N    1.393504   3.538338   4.836652   1.456637   1.457311
    11  O    1.239747   3.527723   4.509658   2.760562   3.643380
    12  O    2.926104   5.506217   5.335519   3.885817   3.654536
    13  O    4.454060   6.362204   5.246980   6.135382   5.749242
    14  S    3.290600   5.291071   4.492151   4.945661   4.312692
    15  H    3.296977   1.094888   2.775257   4.709062   3.353579
    16  H    2.641819   1.094176   3.458458   3.962326   3.650514
    17  H    3.983042   1.095685   2.689425   5.655233   4.873048
    18  H    4.204135   2.787781   1.095440   6.294239   4.624287
    19  H    4.299230   3.458572   1.093380   6.700403   5.515705
    20  H    4.717268   2.677702   1.095659   6.941018   5.751891
    21  H    3.192707   4.777645   6.629594   1.094003   2.729919
    22  H    2.569448   4.902179   6.420890   1.092581   3.418172
    23  H    3.142343   5.567084   6.867645   1.094174   2.705358
    24  H    2.941581   4.573383   5.204359   2.999827   1.093442
    25  H    2.742468   3.108567   4.168650   3.329464   1.091543
    26  H    3.387187   4.468856   5.860872   2.534448   1.094034
    27  H    5.105216   6.668580   5.548539   6.375348   5.051143
    28  H    3.934393   5.117608   4.290655   5.296467   3.559975
    29  H    4.771924   5.647606   4.050239   6.604818   5.120050
    30  H    2.216499   2.879809   2.710172   4.103341   2.512957
    31  H    2.820644   2.141270   2.145363   5.127780   4.761101
    32  H    3.346809   4.095638   2.657322   5.700877   4.923703
                    6          7          8          9         10
     6  C    0.000000
     7  C    3.310439   0.000000
     8  C    4.502507   1.552145   0.000000
     9  N    2.717344   1.502680   2.491970   0.000000
    10  N    4.651709   2.538268   3.564122   3.572483   0.000000
    11  O    5.070699   2.426130   3.058967   2.862394   2.292414
    12  O    2.646596   3.052310   4.562125   2.549598   3.221584
    13  O    2.633825   3.895026   4.977649   2.503768   5.294848
    14  S    1.782822   2.735997   4.059038   1.685184   3.980694
    15  H    5.471564   2.816039   2.184758   4.234337   3.504588
    16  H    6.077470   2.849181   2.189425   4.163602   3.088076
    17  H    6.481131   3.514222   2.177769   4.660972   4.602509
    18  H    4.188108   2.793008   2.184416   3.449993   4.861793
    19  H    4.125945   2.851023   2.193810   2.775926   5.349554
    20  H    5.544536   3.508305   2.179398   4.043583   5.632339
    21  H    6.639335   4.534108   5.263675   5.574208   2.083950
    22  H    6.229966   4.115178   4.956604   4.769146   2.128000
    23  H    5.727562   4.428126   5.588704   5.082759   2.081887
    24  H    3.676109   3.163269   4.429689   3.978418   2.081672
    25  H    4.383395   2.713199   3.413405   4.031315   2.107954
    26  H    5.390498   4.014858   4.896241   5.183594   2.101215
    27  H    1.092368   4.327782   5.581594   3.661607   5.360302
    28  H    1.090268   3.040772   4.250305   2.977672   4.078257
    29  H    1.091437   3.552232   4.429758   2.851820   5.349670
    30  H    2.833107   1.089729   2.167062   2.117248   2.661360
    31  H    5.095610   2.176493   1.098236   2.658986   4.049214
    32  H    2.916253   2.138513   2.585056   1.023677   4.497323
                   11         12         13         14         15
    11  O    0.000000
    12  O    3.385492   0.000000
    13  O    4.622169   2.514832   0.000000
    14  S    3.757939   1.450261   1.452300   0.000000
    15  H    4.134576   5.603260   6.655795   5.452360   0.000000
    16  H    3.001845   5.479924   6.607114   5.514993   1.774657
    17  H    4.373022   6.519317   7.153679   6.190397   1.769580
    18  H    5.030584   5.403307   5.511806   4.610986   2.629293
    19  H    4.776875   5.197673   4.612093   4.120323   3.809041
    20  H    5.184186   6.382893   6.220665   5.547169   3.059045
    21  H    3.516290   4.914195   7.159569   5.920481   4.716538
    22  H    2.338601   4.068494   6.100953   5.087850   5.171599
    23  H    3.498418   3.671454   6.099178   4.934742   5.508690
    24  H    4.061942   3.059215   5.204949   3.772687   4.114772
    25  H    3.935222   4.194304   5.945598   4.516582   2.445288
    26  H    4.378313   4.534998   6.764163   5.335974   3.914165
    27  H    5.875621   2.963730   2.873700   2.356817   6.483644
    28  H    4.943299   2.822157   3.548811   2.381047   4.797096
    29  H    5.537589   3.546195   2.859407   2.372296   5.547458
    30  H    3.323468   3.148743   4.169355   2.858594   2.708425
    31  H    2.865509   4.859359   5.010921   4.329660   3.066402
    32  H    3.683964   3.422094   2.650190   2.254475   4.505757
                   16         17         18         19         20
    16  H    0.000000
    17  H    1.759618   0.000000
    18  H    3.813432   3.098443   0.000000
    19  H    4.329380   3.680654   1.771385   0.000000
    20  H    3.679394   2.413555   1.771043   1.758590   0.000000
    21  H    3.976031   5.680569   6.665199   7.263156   7.263771
    22  H    4.092808   5.812049   6.688372   6.843226   7.109238
    23  H    4.958964   6.597441   6.870850   7.278173   7.696011
    24  H    4.539229   5.644160   4.825507   5.619402   6.144209
    25  H    3.190737   4.106482   3.749673   4.875513   4.923436
    26  H    4.165685   5.457535   5.512748   6.526979   6.605155
    27  H    7.084721   7.557009   5.228940   5.160017   6.616095
    28  H    5.574659   6.030145   3.824654   4.212674   5.359558
    29  H    6.266089   6.378313   3.775497   3.530737   5.059463
    30  H    3.319961   3.850792   2.499976   3.081285   3.722335
    31  H    2.482201   2.489011   3.068470   2.483208   2.503937
    32  H    4.589679   4.713575   3.152501   2.053546   3.582850
                   21         22         23         24         25
    21  H    0.000000
    22  H    1.777931   0.000000
    23  H    1.787495   1.777437   0.000000
    24  H    3.480874   3.908017   2.875259   0.000000
    25  H    3.466577   4.175623   3.742374   1.785976   0.000000
    26  H    2.402714   3.601943   2.667016   1.787648   1.770093
    27  H    7.235678   6.814857   6.118400   4.163020   5.161367
    28  H    6.010768   5.877062   5.233084   2.821156   3.471488
    29  H    7.401301   6.978590   6.642899   4.517101   4.896607
    30  H    4.675488   4.589128   4.504884   2.544909   2.086468
    31  H    5.610577   5.016516   5.939056   5.218363   4.340442
    32  H    6.505083   5.731573   6.094454   4.797350   4.680177
                   26         27         28         29         30
    26  H    0.000000
    27  H    5.942825   0.000000
    28  H    4.495584   1.783039   0.000000
    29  H    6.137746   1.786034   1.801813   0.000000
    30  H    3.573880   3.836879   2.267749   3.128902   0.000000
    31  H    5.656798   6.147385   5.023212   4.991815   3.063507
    32  H    6.011025   3.874869   3.326599   2.653902   2.631190
                   31         32
    31  H    0.000000
    32  H    2.666444   0.000000
 Stoichiometry    C8H18N2O3S
 Framework group  C1[X(C8H18N2O3S)]
 Deg. of freedom    90
 Full point group                 C1      NOp   1
 Largest Abelian subgroup         C1      NOp   1
 Largest concise Abelian subgroup C1      NOp   1
                         Standard orientation:                         
 ---------------------------------------------------------------------
 Center     Atomic      Atomic             Coordinates (Angstroms)
 Number     Number       Type             X           Y           Z
 ---------------------------------------------------------------------
      1          6           0        1.119942   -0.527368   -0.593291
      2          6           0        2.649290    1.928682    0.060374
      3          6           0        0.552706    3.240691    0.316959
      4          6           0        2.209647   -2.709711   -0.252556
      5          6           0        1.641974   -1.351929    1.730856
      6          6           0       -2.478498    0.201258    1.560576
      7          6           0        0.395611    0.712039   -0.000707
      8          6           0        1.174018    2.007261   -0.355159
      9          7           0       -0.969075    0.765127   -0.627494
     10          7           0        1.671004   -1.464744    0.278208
     11          8           0        1.195894   -0.677201   -1.821604
     12          8           0       -1.526466   -1.658227   -0.064362
     13          8           0       -3.300958   -0.097102   -0.923689
     14         16           0       -2.128312   -0.339276   -0.101846
     15          1           0        2.750080    1.757084    1.137024
     16          1           0        3.175639    1.127097   -0.466541
     17          1           0        3.168836    2.863102   -0.179327
     18          1           0        0.518971    3.122107    1.405439
     19          1           0       -0.465059    3.429833   -0.034977
     20          1           0        1.138779    4.139395    0.094883
     21          1           0        3.248523   -2.811212    0.074972
     22          1           0        2.179595   -2.744432   -1.344172
     23          1           0        1.618402   -3.541511    0.142102
     24          1           0        0.651925   -1.653670    2.083518
     25          1           0        1.846143   -0.326280    2.043626
     26          1           0        2.403121   -2.001455    2.173215
     27          1           0       -3.313606   -0.395465    1.934452
     28          1           0       -1.603060    0.038281    2.189648
     29          1           0       -2.760164    1.255457    1.536866
     30          1           0        0.276586    0.655151    1.081007
     31          1           0        1.141445    2.162515   -1.441878
     32          1           0       -1.372558    1.704446   -0.680374
 ---------------------------------------------------------------------
 Rotational constants (GHZ):      0.7139539      0.5165849      0.3807789
 Standard basis: 6-31G(d) (6D, 7F)
 There are   250 symmetry adapted basis functions of A   symmetry.
 Integral buffers will be    131072 words long.
 Raffenetti 2 integral format.
 Two-electron integral symmetry is turned on.
   250 basis functions,   488 primitive gaussians,   250 cartesian basis functions
    60 alpha electrons       60 beta electrons
       nuclear repulsion energy      1189.0195032112 Hartrees.
 NAtoms=   32 NActive=   32 NUniq=   32 SFac= 1.00D+00 NAtFMM=   60 NAOKFM=F Big=F
 One-electron integrals computed using PRISM.
 NBasis=   250 RedAO= T  NBF=   250
 NBsUse=   250 1.00D-06 NBFU=   250
 Harris functional with IExCor=  402 diagonalized for initial guess.
 ExpMin= 1.17D-01 ExpMax= 2.19D+04 ExpMxC= 3.30D+03 IAcc=3 IRadAn=         5 AccDes= 0.00D+00
 HarFok:  IExCor=  402 AccDes= 0.00D+00 IRadAn=         5 IDoV= 1
 ScaDFX=  1.000000  1.000000  1.000000  1.000000
 FoFCou: FMM=F IPFlag=           0 FMFlag=      100000 FMFlg1=           0
         NFxFlg=           0 DoJE=T BraDBF=F KetDBF=T FulRan=T
         Omega=  0.000000  0.000000  1.000000  0.000000  0.000000 ICntrl=     500 IOpCl=  0
         NMat0=    1 NMatS0=    1 NMatT0=    0 NMatD0=    1 NMtDS0=    0 NMtDT0=    0
         I1Cent=           4 NGrid=           0.
 Petite list used in FoFCou.
 Initial guess orbital symmetries:
       Occupied  (A) (A) (A) (A) (A) (A) (A) (A) (A) (A) (A) (A)
                 (A) (A) (A) (A) (A) (A) (A) (A) (A) (A) (A) (A)
                 (A) (A) (A) (A) (A) (A) (A) (A) (A) (A) (A) (A)
                 (A) (A) (A) (A) (A) (A) (A) (A) (A) (A) (A) (A)
                 (A) (A) (A) (A) (A) (A) (A) (A) (A) (A) (A) (A)
       Virtual   (A) (A) (A) (A) (A) (A) (A) (A) (A) (A) (A) (A)
                 (A) (A) (A) (A) (A) (A) (A) (A) (A) (A) (A) (A)
                 (A) (A) (A) (A) (A) (A) (A) (A) (A) (A) (A) (A)
                 (A) (A) (A) (A) (A) (A) (A) (A) (A) (A) (A) (A)
                 (A) (A) (A) (A) (A) (A) (A) (A) (A) (A) (A) (A)
                 (A) (A) (A) (A) (A) (A) (A) (A) (A) (A) (A) (A)
                 (A) (A) (A) (A) (A) (A) (A) (A) (A) (A) (A) (A)
                 (A) (A) (A) (A) (A) (A) (A) (A) (A) (A) (A) (A)
                 (A) (A) (A) (A) (A) (A) (A) (A) (A) (A) (A) (A)
                 (A) (A) (A) (A) (A) (A) (A) (A) (A) (A) (A) (A)
                 (A) (A) (A) (A) (A) (A) (A) (A) (A) (A) (A) (A)
                 (A) (A) (A) (A) (A) (A) (A) (A) (A) (A) (A) (A)
                 (A) (A) (A) (A) (A) (A) (A) (A) (A) (A) (A) (A)
                 (A) (A) (A) (A) (A) (A) (A) (A) (A) (A) (A) (A)
                 (A) (A) (A) (A) (A) (A) (A) (A) (A) (A) (A) (A)
                 (A) (A) (A) (A) (A) (A) (A) (A) (A) (A)
 The electronic state of the initial guess is 1-A.
 Requested convergence on RMS density matrix=1.00D-08 within 128 cycles.
 Requested convergence on MAX density matrix=1.00D-06.
 Requested convergence on             energy=1.00D-06.
 No special actions if energy rises.
 Integral accuracy reduced to 1.0D-05 until final iterations.
 Initial convergence to 1.0D-05 achieved.  Increase integral accuracy.
 SCF Done:  E(RB3LYP) =  -1048.98362894     A.U. after   15 cycles
             Convg  =    0.6154D-08             -V/T =  2.0073
 Calling FoFJK, ICntrl=      2127 FMM=F ISym2X=0 I1Cent= 0 IOpClX= 0 NMat=1 NMatS=1 NMatT=0.
 ***** Axes restored to original set *****
 -------------------------------------------------------------------
 Center     Atomic                   Forces (Hartrees/Bohr)
 Number     Number              X              Y              Z
 -------------------------------------------------------------------
      1        6          -0.004301048   -0.029424726   -0.005583064
      2        6          -0.001101626   -0.006189622   -0.002489394
      3        6           0.001432410   -0.001102277    0.003083383
      4        6           0.000418636    0.000265066   -0.000528306
      5        6          -0.000179797   -0.002527293    0.008871710
      6        6           0.011270919    0.003943587   -0.001576668
      7        6          -0.004221041   -0.009515453    0.015402917
      8        6          -0.003613898    0.007956988   -0.000368017
      9        7          -0.004929500    0.002984869   -0.011701331
     10        7          -0.016020852    0.008281053    0.015183176
     11        8           0.011774284    0.022473577   -0.008917180
     12        8           0.003155315   -0.004755513   -0.015082692
     13        8           0.004009621    0.003414051    0.011738138
     14       16          -0.017231425    0.000293596    0.010975745
     15        1           0.000307820    0.001428062   -0.001614138
     16        1           0.000843162   -0.000392879   -0.000621199
     17        1           0.001173942    0.000692592    0.001014365
     18        1           0.000659222    0.001322961   -0.000709846
     19        1           0.001090794    0.002399050    0.002396675
     20        1           0.000355078   -0.000616226    0.000117321
     21        1           0.000249242   -0.002650472   -0.003066601
     22        1           0.001041542    0.006884118    0.002820366
     23        1           0.001224146   -0.003128047   -0.002141701
     24        1           0.006195971    0.003281869   -0.004385293
     25        1           0.001216989    0.000819878   -0.002522851
     26        1          -0.000450171   -0.000719283    0.001315353
     27        1           0.000909682    0.000590507   -0.000526261
     28        1           0.000013451    0.001600958   -0.000551265
     29        1           0.000740839    0.000566474   -0.000104020
     30        1          -0.000499888    0.002087926   -0.005893578
     31        1           0.004412815   -0.004370802   -0.001019486
     32        1           0.000053366   -0.005894587   -0.003516260
 -------------------------------------------------------------------
 Cartesian Forces:  Max     0.029424726 RMS     0.006648299

 GradGradGradGradGradGradGradGradGradGradGradGradGradGradGradGradGradGrad
 Berny optimization.
 Internal  Forces:  Max     0.026113717 RMS     0.004452294
 Search for a local minimum.
 Step number   1 out of a maximum of  168
 All quantities printed in internal units (Hartrees-Bohrs-Radians)
 Mixed Optimization -- RFO/linear search
 Second derivative matrix not updated -- first step.
 ITU=  0
     Eigenvalues ---    0.00230   0.00230   0.00290   0.00307   0.00334
     Eigenvalues ---    0.00598   0.00855   0.00934   0.00943   0.01182
     Eigenvalues ---    0.01492   0.01778   0.01982   0.03562   0.04447
     Eigenvalues ---    0.04762   0.05026   0.05029   0.05350   0.05372
     Eigenvalues ---    0.05492   0.05517   0.05965   0.06152   0.06215
     Eigenvalues ---    0.07342   0.07484   0.07646   0.07744   0.08401
     Eigenvalues ---    0.09036   0.12610   0.12641   0.16000   0.16000
     Eigenvalues ---    0.16000   0.16000   0.16000   0.16000   0.16000
     Eigenvalues ---    0.16000   0.16000   0.16000   0.16000   0.16000
     Eigenvalues ---    0.16000   0.16000   0.16000   0.16229   0.16850
     Eigenvalues ---    0.16965   0.17465   0.18051   0.22872   0.24860
     Eigenvalues ---    0.24921   0.24999   0.25000   0.25000   0.27394
     Eigenvalues ---    0.27470   0.27518   0.28881   0.28995   0.32098
     Eigenvalues ---    0.33878   0.34164   0.34167   0.34191   0.34254
     Eigenvalues ---    0.34334   0.34335   0.34351   0.34354   0.34418
     Eigenvalues ---    0.34425   0.34516   0.34540   0.34635   0.34647
     Eigenvalues ---    0.34782   0.34844   0.37303   0.37389   0.37734
     Eigenvalues ---    0.43757   0.46714   0.87143   0.94920   0.95823
 RFO step:  Lambda=-1.32540852D-02 EMin= 2.30000000D-03
 Linear search not attempted -- first point.
 Iteration  1 RMS(Cart)=  0.12771685 RMS(Int)=  0.00450166
 Iteration  2 RMS(Cart)=  0.00740067 RMS(Int)=  0.00040194
 Iteration  3 RMS(Cart)=  0.00002663 RMS(Int)=  0.00040168
 Iteration  4 RMS(Cart)=  0.00000002 RMS(Int)=  0.00040168
 Variable       Old X    -DE/DX   Delta X   Delta X   Delta X     New X
                                 (Linear)    (Quad)   (Total)
    R1        2.93482  -0.00380   0.00000  -0.01324  -0.01324   2.92158
    R2        2.63334  -0.01844   0.00000  -0.03839  -0.03839   2.59495
    R3        2.34278  -0.02611   0.00000  -0.02952  -0.02952   2.31327
    R4        2.90014   0.00231   0.00000   0.00762   0.00762   2.90776
    R5        2.06904   0.00191   0.00000   0.00536   0.00536   2.07440
    R6        2.06769   0.00034   0.00000   0.00096   0.00096   2.06866
    R7        2.07054  -0.00051   0.00000  -0.00142  -0.00142   2.06912
    R8        2.90251   0.00418   0.00000   0.01385   0.01385   2.91636
    R9        2.07008   0.00149   0.00000   0.00420   0.00420   2.07428
   R10        2.06619   0.00258   0.00000   0.00720   0.00720   2.07339
   R11        2.07050  -0.00062   0.00000  -0.00176  -0.00176   2.06874
   R12        2.75264  -0.00033   0.00000  -0.00086  -0.00086   2.75178
   R13        2.06737   0.00248   0.00000   0.00695   0.00695   2.07432
   R14        2.06468  -0.00320   0.00000  -0.00892  -0.00892   2.05576
   R15        2.06769   0.00252   0.00000   0.00706   0.00706   2.07475
   R16        2.75392   0.00273   0.00000   0.00706   0.00706   2.76097
   R17        2.06631   0.00397   0.00000   0.01112   0.01112   2.07742
   R18        2.06272   0.00016   0.00000   0.00043   0.00043   2.06315
   R19        2.06742  -0.00110   0.00000  -0.00307  -0.00307   2.06435
   R20        3.36905   0.01311   0.00000   0.04544   0.04544   3.41448
   R21        2.06428   0.00065   0.00000   0.00182   0.00182   2.06610
   R22        2.06031   0.00085   0.00000   0.00234   0.00234   2.06265
   R23        2.06252   0.00018   0.00000   0.00049   0.00049   2.06301
   R24        2.93313  -0.00413   0.00000  -0.01434  -0.01434   2.91879
   R25        2.83965  -0.01072   0.00000  -0.03208  -0.03208   2.80757
   R26        2.05929   0.00368   0.00000   0.01017   0.01017   2.06946
   R27        2.07537  -0.00137   0.00000  -0.00390  -0.00390   2.07147
   R28        3.18454   0.00129   0.00000   0.00331   0.00331   3.18784
   R29        1.93447  -0.00662   0.00000  -0.01468  -0.01468   1.91979
   R30        2.74060   0.01397   0.00000   0.01438   0.01438   2.75497
   R31        2.74445   0.01139   0.00000   0.01184   0.01184   2.75628
    A1        2.07446   0.00025   0.00000   0.00109   0.00007   2.07453
    A2        2.09794  -0.00679   0.00000  -0.02565  -0.02662   2.07132
    A3        2.11076   0.00656   0.00000   0.02508   0.02398   2.13474
    A4        1.94203   0.00120   0.00000   0.00562   0.00560   1.94763
    A5        1.94931   0.00035   0.00000   0.00439   0.00438   1.95370
    A6        1.93148  -0.00207   0.00000  -0.01303  -0.01303   1.91846
    A7        1.89067  -0.00056   0.00000  -0.00126  -0.00129   1.88938
    A8        1.88087  -0.00018   0.00000  -0.00558  -0.00559   1.87529
    A9        1.86640   0.00127   0.00000   0.00986   0.00988   1.87628
   A10        1.93943   0.00027   0.00000   0.00135   0.00128   1.94071
   A11        1.95477   0.00362   0.00000   0.02306   0.02303   1.97780
   A12        1.93223  -0.00121   0.00000  -0.00900  -0.00899   1.92324
   A13        1.88588  -0.00158   0.00000  -0.00545  -0.00556   1.88032
   A14        1.88248  -0.00009   0.00000  -0.00473  -0.00475   1.87773
   A15        1.86584  -0.00117   0.00000  -0.00636  -0.00632   1.85952
   A16        1.89796   0.00574   0.00000   0.03559   0.03531   1.93327
   A17        1.96172  -0.01195   0.00000  -0.07308  -0.07269   1.88903
   A18        1.89494   0.00552   0.00000   0.03332   0.03298   1.92792
   A19        1.89895   0.00222   0.00000   0.00972   0.01015   1.90910
   A20        1.91199  -0.00338   0.00000  -0.01083  -0.01178   1.90021
   A21        1.89795   0.00187   0.00000   0.00577   0.00609   1.90405
   A22        1.89459   0.01057   0.00000   0.06643   0.06582   1.96041
   A23        1.93332   0.00291   0.00000   0.01859   0.01768   1.95100
   A24        1.92114  -0.00482   0.00000  -0.03510  -0.03482   1.88633
   A25        1.91372  -0.00364   0.00000  -0.00671  -0.00828   1.90544
   A26        1.91314  -0.00387   0.00000  -0.02617  -0.02561   1.88753
   A27        1.88795  -0.00135   0.00000  -0.01816  -0.01818   1.86977
   A28        1.87936   0.00106   0.00000   0.00660   0.00658   1.88593
   A29        1.91238   0.00141   0.00000   0.00830   0.00827   1.92065
   A30        1.89999   0.00074   0.00000   0.00365   0.00363   1.90362
   A31        1.91210  -0.00097   0.00000  -0.00430  -0.00434   1.90776
   A32        1.91534  -0.00090   0.00000  -0.00551  -0.00552   1.90982
   A33        1.94350  -0.00125   0.00000  -0.00815  -0.00816   1.93534
   A34        1.92295  -0.00118   0.00000  -0.01548  -0.01553   1.90741
   A35        1.86775   0.00146   0.00000   0.00739   0.00713   1.87487
   A36        1.96930  -0.00006   0.00000   0.00202   0.00162   1.97091
   A37        1.90786  -0.00185   0.00000  -0.01336  -0.01331   1.89455
   A38        1.90183  -0.00037   0.00000  -0.01093  -0.01088   1.89095
   A39        1.89304   0.00201   0.00000   0.03092   0.03084   1.92388
   A40        1.88756   0.00344   0.00000   0.03408   0.03392   1.92148
   A41        1.95792  -0.00268   0.00000  -0.01506  -0.01545   1.94248
   A42        1.87934   0.00080   0.00000   0.00767   0.00649   1.88582
   A43        1.94692   0.00032   0.00000   0.00578   0.00597   1.95289
   A44        1.88334   0.00046   0.00000   0.01742   0.01704   1.90038
   A45        1.90610  -0.00218   0.00000  -0.04798  -0.04800   1.85810
   A46        2.06175   0.00725   0.00000   0.03277   0.03260   2.09435
   A47        1.99536  -0.00120   0.00000   0.00403   0.00392   1.99928
   A48        1.92445  -0.00384   0.00000  -0.01294  -0.01324   1.91121
   A49        2.08665  -0.00634   0.00000  -0.02515  -0.02527   2.06138
   A50        2.16935   0.00557   0.00000   0.02034   0.02010   2.18945
   A51        2.02277   0.00069   0.00000   0.00173   0.00156   2.02432
   A52        1.80008   0.01492   0.00000   0.05374   0.05424   1.85432
   A53        1.91044  -0.00795   0.00000  -0.04490  -0.04510   1.86534
   A54        1.89496  -0.00752   0.00000  -0.03597  -0.03682   1.85814
   A55        1.89506  -0.00455   0.00000  -0.01624  -0.01539   1.87968
   A56        1.84382  -0.00068   0.00000   0.01474   0.01540   1.85922
   A57        2.09597   0.00771   0.00000   0.03590   0.03473   2.13070
    D1        1.99633   0.00061   0.00000   0.04170   0.04225   2.03858
    D2       -2.21437  -0.00140   0.00000   0.02149   0.02201  -2.19236
    D3       -0.13357   0.00199   0.00000   0.06563   0.06614  -0.06742
    D4       -1.15233   0.00245   0.00000   0.12534   0.12484  -1.02748
    D5        0.92016   0.00044   0.00000   0.10514   0.10460   1.02476
    D6        3.00096   0.00383   0.00000   0.14928   0.14874  -3.13349
    D7        3.01245   0.00173   0.00000   0.06491   0.06566   3.07811
    D8       -0.02399   0.00262   0.00000   0.10151   0.10223   0.07824
    D9       -0.12202  -0.00007   0.00000  -0.01916  -0.01987  -0.14189
   D10        3.12472   0.00082   0.00000   0.01744   0.01670   3.14142
   D11        1.12701  -0.00112   0.00000  -0.02282  -0.02296   1.10406
   D12       -1.02745  -0.00218   0.00000  -0.04420  -0.04423  -1.07168
   D13       -3.12521   0.00162   0.00000   0.01929   0.01944  -3.10577
   D14       -3.04092  -0.00076   0.00000  -0.01745  -0.01757  -3.05849
   D15        1.08780  -0.00182   0.00000  -0.03883  -0.03884   1.04896
   D16       -1.00996   0.00198   0.00000   0.02466   0.02483  -0.98514
   D17       -0.96368  -0.00030   0.00000  -0.01084  -0.01098  -0.97466
   D18       -3.11814  -0.00136   0.00000  -0.03222  -0.03225   3.13279
   D19        1.06728   0.00244   0.00000   0.03128   0.03141   1.09870
   D20       -1.15601   0.00187   0.00000   0.02556   0.02558  -1.13043
   D21        1.00509   0.00109   0.00000   0.03406   0.03421   1.03930
   D22        3.09882  -0.00110   0.00000  -0.01037  -0.01048   3.08834
   D23        3.01611   0.00121   0.00000   0.01562   0.01558   3.03169
   D24       -1.10598   0.00043   0.00000   0.02412   0.02422  -1.08176
   D25        0.98775  -0.00176   0.00000  -0.02031  -0.02047   0.96727
   D26        0.93549   0.00113   0.00000   0.01454   0.01456   0.95005
   D27        3.09659   0.00035   0.00000   0.02304   0.02319   3.11978
   D28       -1.09287  -0.00184   0.00000  -0.02139  -0.02150  -1.11437
   D29        2.17306  -0.00086   0.00000   0.00473   0.00393   2.17699
   D30       -1.06507  -0.00134   0.00000  -0.02759  -0.02789  -1.09297
   D31        0.06943   0.00008   0.00000   0.01494   0.01473   0.08416
   D32        3.11448  -0.00040   0.00000  -0.01738  -0.01709   3.09739
   D33       -2.03092   0.00156   0.00000   0.03133   0.03159  -1.99932
   D34        1.01413   0.00108   0.00000  -0.00099  -0.00023   1.01390
   D35        1.37810   0.00124   0.00000   0.00765   0.00824   1.38634
   D36       -1.66183   0.00250   0.00000   0.04456   0.04562  -1.61621
   D37       -0.72396  -0.00279   0.00000  -0.03779  -0.03861  -0.76257
   D38        2.51931  -0.00153   0.00000  -0.00087  -0.00123   2.51808
   D39       -2.81111   0.00014   0.00000  -0.00443  -0.00490  -2.81601
   D40        0.43215   0.00140   0.00000   0.03249   0.03249   0.46463
   D41        3.02589   0.00162   0.00000   0.02787   0.02784   3.05373
   D42       -1.24260   0.00053   0.00000   0.01715   0.01659  -1.22601
   D43        1.07552  -0.00150   0.00000   0.00073   0.00129   1.07682
   D44       -1.17879   0.00187   0.00000   0.03123   0.03121  -1.14758
   D45        0.83590   0.00078   0.00000   0.02051   0.01996   0.85586
   D46       -3.12916  -0.00125   0.00000   0.00409   0.00467  -3.12449
   D47        0.95042   0.00169   0.00000   0.02869   0.02866   0.97909
   D48        2.96512   0.00059   0.00000   0.01796   0.01741   2.98253
   D49       -0.99994  -0.00144   0.00000   0.00155   0.00212  -0.99782
   D50       -0.93504   0.00178   0.00000   0.01130   0.01103  -0.92401
   D51       -3.05582  -0.00099   0.00000  -0.02623  -0.02615  -3.08197
   D52        1.14710  -0.00035   0.00000  -0.02039  -0.02014   1.12697
   D53       -2.98281   0.00180   0.00000   0.01931   0.01897  -2.96384
   D54        1.17959  -0.00097   0.00000  -0.01822  -0.01821   1.16138
   D55       -0.90067  -0.00034   0.00000  -0.01238  -0.01219  -0.91286
   D56        1.23429   0.00066   0.00000  -0.00391  -0.00418   1.23012
   D57       -0.88649  -0.00211   0.00000  -0.04144  -0.04136  -0.92785
   D58       -2.96675  -0.00147   0.00000  -0.03560  -0.03534  -3.00209
   D59        1.30549   0.00250   0.00000   0.10168   0.10173   1.40722
   D60       -2.66911   0.00304   0.00000   0.12178   0.12203  -2.54708
   D61       -2.89545   0.00092   0.00000   0.08015   0.08007  -2.81537
   D62       -0.58686   0.00145   0.00000   0.10025   0.10038  -0.48649
   D63       -0.82389   0.00058   0.00000   0.07733   0.07706  -0.74683
   D64        1.48470   0.00112   0.00000   0.09743   0.09736   1.58206
   D65        1.20523   0.00109   0.00000   0.03461   0.03426   1.23949
   D66       -0.82045   0.00477   0.00000   0.06631   0.06629  -0.75416
   D67       -3.09017  -0.00137   0.00000   0.02245   0.02264  -3.06752
   D68       -1.13436  -0.00031   0.00000   0.00890   0.00867  -1.12570
   D69        3.12314   0.00337   0.00000   0.04060   0.04070  -3.11935
   D70        0.85342  -0.00277   0.00000  -0.00326  -0.00295   0.85047
         Item               Value     Threshold  Converged?
 Maximum Force            0.026114     0.000450     NO 
 RMS     Force            0.004452     0.000300     NO 
 Maximum Displacement     0.462062     0.001800     NO 
 RMS     Displacement     0.129887     0.001200     NO 
 Predicted change in Energy=-7.983803D-03
 GradGradGradGradGradGradGradGradGradGradGradGradGradGradGradGradGradGrad

                          Input orientation:                          
 ---------------------------------------------------------------------
 Center     Atomic      Atomic             Coordinates (Angstroms)
 Number     Number       Type             X           Y           Z
 ---------------------------------------------------------------------
      1          6           0        1.075405   -4.390530   -1.210091
      2          6           0       -0.654722   -2.104266   -1.735642
      3          6           0        0.331284   -0.825289    0.206759
      4          6           0        1.398406   -5.973913   -3.020856
      5          6           0        2.593519   -3.811042   -3.135414
      6          6           0        4.501246   -2.281303    0.712942
      7          6           0        1.385381   -3.036220   -0.531870
      8          6           0        0.077908   -2.226597   -0.388068
      9          7           0        1.911789   -3.329018    0.826246
     10          7           0        1.635644   -4.662541   -2.433932
     11          8           0        0.276205   -5.146847   -0.673667
     12          8           0        3.860629   -4.723897   -0.023869
     13          8           0        3.698529   -4.085244    2.441352
     14         16           0        3.527459   -3.770453    1.027475
     15          1           0       -0.045172   -1.576166   -2.480326
     16          1           0       -0.924233   -3.083115   -2.144981
     17          1           0       -1.581063   -1.535022   -1.606304
     18          1           0        1.015572   -0.243955   -0.424639
     19          1           0        0.753001   -0.853010    1.219289
     20          1           0       -0.608705   -0.268432    0.275745
     21          1           0        0.965188   -5.878369   -4.024898
     22          1           0        0.705969   -6.513990   -2.378762
     23          1           0        2.337446   -6.538385   -3.091454
     24          1           0        3.615008   -3.921592   -2.744448
     25          1           0        2.305895   -2.758630   -3.094577
     26          1           0        2.598743   -4.102555   -4.188194
     27          1           0        5.549240   -2.510955    0.923522
     28          1           0        4.400281   -1.982010   -0.331863
     29          1           0        4.162664   -1.486222    1.380033
     30          1           0        2.104740   -2.432050   -1.094692
     31          1           0       -0.563893   -2.792207    0.297332
     32          1           0        1.655813   -2.646927    1.534270
 ---------------------------------------------------------------------
                    Distance matrix (angstroms):
                    1          2          3          4          5
     1  C    0.000000
     2  C    2.914883   0.000000
     3  C    3.907956   2.526047   0.000000
     4  C    2.426995   4.565225   6.169650   0.000000
     5  C    2.519394   3.927278   5.020213   2.473749   0.000000
     6  C    4.459067   5.710597   4.445759   6.099528   4.559535
     7  C    1.546035   2.545511   2.558301   3.850359   2.972942
     8  C    2.520580   1.538723   1.543270   4.766305   4.048045
     9  N    2.443975   3.827567   3.024965   4.696725   4.048685
    10  N    1.373188   3.504020   4.837262   1.456180   1.461045
    11  O    1.224127   3.354358   4.410674   2.729958   3.635178
    12  O    3.045609   5.493727   5.263896   4.075171   3.481463
    13  O    4.506331   6.349988   5.192210   6.220399   5.691796
    14  S    3.376946   5.282200   4.423019   5.077114   4.266560
    15  H    3.284788   1.097723   2.815309   4.660073   3.519446
    16  H    2.565522   1.094687   3.493534   3.810319   3.726314
    17  H    3.920170   1.094931   2.729101   5.530095   4.994555
    18  H    4.220734   2.823008   1.097663   6.302327   4.749981
    19  H    4.303472   3.504133   1.097192   6.679748   5.576817
    20  H    4.694212   2.723616   1.094728   6.888294   5.868588
    21  H    3.185742   4.701984   6.621358   1.097682   2.777857
    22  H    2.451808   4.659480   6.259922   1.087859   3.382499
    23  H    3.121788   5.518397   6.895097   1.097911   2.739692
    24  H    3.003953   4.748785   5.392546   3.033438   1.099324
    25  H    2.780016   3.322672   4.305312   3.341708   1.091771
    26  H    3.357468   4.537974   5.932744   2.511069   1.092408
    27  H    5.300972   6.762078   5.530125   6.691758   5.186662
    28  H    4.198458   5.247723   4.264370   5.672497   3.803897
    29  H    4.967385   5.770323   4.061142   6.866464   5.315662
    30  H    2.215511   2.851822   2.724078   4.093142   2.510989
    31  H    2.741214   2.148138   2.162940   4.998424   4.773994
    32  H    3.302808   4.040468   2.614388   5.646616   4.903101
                    6          7          8          9         10
     6  C    0.000000
     7  C    3.439196   0.000000
     8  C    4.558632   1.544555   0.000000
     9  N    2.795681   1.485704   2.460286   0.000000
    10  N    4.876964   2.515033   3.542022   3.533171   0.000000
    11  O    5.290085   2.388541   2.940876   2.868689   2.276216
    12  O    2.630503   3.038614   4.547321   2.542904   3.280659
    13  O    2.624111   3.910391   4.956721   2.524457   5.325144
    14  S    1.806865   2.749392   4.035672   1.686934   4.044270
    15  H    5.600366   2.823954   2.194482   4.223222   3.514685
    16  H    6.184371   2.817560   2.196509   4.114812   3.021763
    17  H    6.552123   3.493965   2.171304   4.619063   4.562187
    18  H    4.194615   2.818688   2.193495   3.447540   4.893429
    19  H    4.042987   2.869297   2.219480   2.761863   5.351412
    20  H    5.509481   3.505605   2.178646   4.002890   5.629178
    21  H    6.920240   4.522789   5.229650   5.561371   2.111616
    22  H    6.471353   3.995935   4.768549   4.676551   2.072488
    23  H    6.105588   4.441065   5.568242   5.082282   2.107997
    24  H    3.928042   3.263529   4.575653   4.000244   2.136189
    25  H    4.420928   2.737127   3.545726   3.981647   2.123809
    26  H    5.563957   3.997252   4.931002   5.120047   2.078120
    27  H    1.093332   4.442048   5.633524   3.729576   5.587311
    28  H    1.091507   3.200153   4.329652   3.057489   4.387157
    29  H    1.091696   3.710952   4.512157   2.961252   5.569664
    30  H    3.005579   1.095110   2.156287   2.128799   2.643615
    31  H    5.107777   2.132319   1.096174   2.587840   3.974407
    32  H    2.984083   2.119815   2.522269   1.015909   4.450812
                   11         12         13         14         15
    11  O    0.000000
    12  O    3.667318   0.000000
    13  O    4.747910   2.551758   0.000000
    14  S    3.919056   1.457869   1.458563   0.000000
    15  H    4.014607   5.585488   6.673356   5.466558   0.000000
    16  H    2.804426   5.485088   6.588524   5.509489   1.776542
    17  H    4.167078   6.502695   7.124693   6.166923   1.767645
    18  H    4.964578   5.322109   5.492510   4.566662   2.669422
    19  H    4.716742   5.117280   4.540584   4.030618   3.853205
    20  H    5.048107   6.317902   6.148998   5.471481   3.102203
    21  H    3.498653   5.071945   7.245608   6.044420   4.681398
    22  H    2.227359   4.324562   6.171525   5.204830   4.995662
    23  H    3.468543   3.875891   6.203418   5.103249   5.538409
    24  H    4.115457   2.847029   5.189053   3.775965   4.355193
    25  H    3.960306   3.963423   5.860532   4.416709   2.702414
    26  H    4.340119   4.395456   6.720172   5.308108   4.036055
    27  H    6.107687   2.940419   2.864843   2.384269   6.614942
    28  H    5.209705   2.811410   3.550601   2.410009   4.954054
    29  H    5.720352   3.541850   2.845475   2.396976   5.711072
    30  H    3.300140   3.079346   4.216257   2.884275   2.697154
    31  H    2.681964   4.838491   4.943380   4.269571   3.076233
    32  H    3.609419   3.406291   2.657864   2.241029   4.489639
                   16         17         18         19         20
    16  H    0.000000
    17  H    1.765840   0.000000
    18  H    3.844900   3.131406   0.000000
    19  H    4.370903   3.727865   1.772679   0.000000
    20  H    3.725844   2.468165   1.769015   1.756773   0.000000
    21  H    3.862311   5.585486   6.686631   7.266413   7.241828
    22  H    3.805669   5.533293   6.574785   6.707822   6.912436
    23  H    4.844921   6.526410   6.962694   7.308656   7.702607
    24  H    4.654795   5.830115   5.065925   5.772216   6.348771
    25  H    3.382418   4.338273   3.888071   4.965109   5.104414
    26  H    4.198254   5.543389   5.617791   6.573217   6.701863
    27  H    7.186719   7.628479   5.245090   5.083322   6.585500
    28  H    5.731516   6.131923   3.806008   4.121087   5.328741
    29  H    6.391581   6.473870   3.834613   3.471684   5.046625
    30  H    3.271341   3.827734   2.534368   3.110478   3.731236
    31  H    2.485832   2.497795   3.083755   2.518869   2.524265
    32  H    4.514840   4.645095   3.165676   2.032835   3.516982
                   21         22         23         24         25
    21  H    0.000000
    22  H    1.783528   0.000000
    23  H    1.786066   1.780518   0.000000
    24  H    3.534130   3.913663   2.932607   0.000000
    25  H    3.520762   4.144259   3.779888   1.785734   0.000000
    26  H    2.418405   3.559728   2.684099   1.774809   1.757240
    27  H    7.539222   7.098355   6.531144   4.380086   5.169695
    28  H    6.373381   6.194883   5.712371   3.193618   3.552771
    29  H    7.663425   7.166291   6.989275   4.821026   5.008867
    30  H    4.664954   4.501958   4.572001   2.687254   2.036334
    31  H    5.526677   4.756648   5.825417   5.290665   4.443180
    32  H    6.467112   5.582849   6.083206   4.875514   4.675608
                   26         27         28         29         30
    26  H    0.000000
    27  H    6.112959   0.000000
    28  H    4.755369   1.782100   0.000000
    29  H    6.347929   1.783556   1.798015   0.000000
    30  H    3.550265   3.992993   2.460478   3.354684   0.000000
    31  H    5.642625   6.151553   5.069056   5.021770   3.031344
    32  H    5.979512   3.943384   3.384770   2.766826   2.675658
                   31         32
    31  H    0.000000
    32  H    2.545234   0.000000
 Stoichiometry    C8H18N2O3S
 Framework group  C1[X(C8H18N2O3S)]
 Deg. of freedom    90
 Full point group                 C1      NOp   1
 Largest Abelian subgroup         C1      NOp   1
 Largest concise Abelian subgroup C1      NOp   1
                         Standard orientation:                         
 ---------------------------------------------------------------------
 Center     Atomic      Atomic             Coordinates (Angstroms)
 Number     Number       Type             X           Y           Z
 ---------------------------------------------------------------------
      1          6           0        1.227256   -0.451314   -0.567893
      2          6           0        2.519284    2.052835    0.178060
      3          6           0        0.290273    3.227035    0.361585
      4          6           0        2.520410   -2.487410   -0.298868
      5          6           0        1.574439   -1.429960    1.727551
      6          6           0       -2.702321    0.127706    1.458543
      7          6           0        0.373328    0.692095    0.026787
      8          6           0        1.050058    2.046390   -0.279108
      9          7           0       -0.947853    0.659918   -0.652008
     10          7           0        1.786962   -1.372192    0.283200
     11          8           0        1.445609   -0.456095   -1.772379
     12          8           0       -1.466895   -1.725694    0.059194
     13          8           0       -3.247743   -0.291664   -1.073769
     14         16           0       -2.124428   -0.442397   -0.155701
     15          1           0        2.605696    1.902651    1.262022
     16          1           0        3.107078    1.277394   -0.323466
     17          1           0        2.978957    3.018343   -0.057249
     18          1           0        0.237527    3.119705    1.452714
     19          1           0       -0.734879    3.338441   -0.013224
     20          1           0        0.804924    4.168975    0.146381
     21          1           0        3.539598   -2.536543    0.105789
     22          1           0        2.566213   -2.339709   -1.375680
     23          1           0        2.008408   -3.435426   -0.087852
     24          1           0        0.617619   -1.903263    1.990216
     25          1           0        1.621666   -0.439299    2.183976
     26          1           0        2.379615   -2.024559    2.165157
     27          1           0       -3.530733   -0.515070    1.768296
     28          1           0       -1.896412    0.055936    2.191173
     29          1           0       -3.055463    1.156726    1.367937
     30          1           0        0.244134    0.608485    1.111031
     31          1           0        1.032948    2.163040   -1.368923
     32          1           0       -1.373959    1.571802   -0.789743
 ---------------------------------------------------------------------
 Rotational constants (GHZ):      0.7266516      0.5018411      0.3753581
 Standard basis: 6-31G(d) (6D, 7F)
 There are   250 symmetry adapted basis functions of A   symmetry.
 Integral buffers will be    131072 words long.
 Raffenetti 2 integral format.
 Two-electron integral symmetry is turned on.
   250 basis functions,   488 primitive gaussians,   250 cartesian basis functions
    60 alpha electrons       60 beta electrons
       nuclear repulsion energy      1185.7696302998 Hartrees.
 NAtoms=   32 NActive=   32 NUniq=   32 SFac= 1.00D+00 NAtFMM=   60 NAOKFM=F Big=F
 One-electron integrals computed using PRISM.
 NBasis=   250 RedAO= T  NBF=   250
 NBsUse=   250 1.00D-06 NBFU=   250
 Initial guess read from the read-write file.
 B after Tr=     0.000000    0.000000    0.000000
         Rot=    1.000000    0.000000    0.000000    0.000000 Ang=   0.00 deg.
 Initial guess orbital symmetries:
       Occupied  (A) (A) (A) (A) (A) (A) (A) (A) (A) (A) (A) (A)
                 (A) (A) (A) (A) (A) (A) (A) (A) (A) (A) (A) (A)
                 (A) (A) (A) (A) (A) (A) (A) (A) (A) (A) (A) (A)
                 (A) (A) (A) (A) (A) (A) (A) (A) (A) (A) (A) (A)
                 (A) (A) (A) (A) (A) (A) (A) (A) (A) (A) (A) (A)
       Virtual   (A) (A) (A) (A) (A) (A) (A) (A) (A) (A) (A) (A)
                 (A) (A) (A) (A) (A) (A) (A) (A) (A) (A) (A) (A)
                 (A) (A) (A) (A) (A) (A) (A) (A) (A) (A) (A) (A)
                 (A) (A) (A) (A) (A) (A) (A) (A) (A) (A) (A) (A)
                 (A) (A) (A) (A) (A) (A) (A) (A) (A) (A) (A) (A)
                 (A) (A) (A) (A) (A) (A) (A) (A) (A) (A) (A) (A)
                 (A) (A) (A) (A) (A) (A) (A) (A) (A) (A) (A) (A)
                 (A) (A) (A) (A) (A) (A) (A) (A) (A) (A) (A) (A)
                 (A) (A) (A) (A) (A) (A) (A) (A) (A) (A) (A) (A)
                 (A) (A) (A) (A) (A) (A) (A) (A) (A) (A) (A) (A)
                 (A) (A) (A) (A) (A) (A) (A) (A) (A) (A) (A) (A)
                 (A) (A) (A) (A) (A) (A) (A) (A) (A) (A) (A) (A)
                 (A) (A) (A) (A) (A) (A) (A) (A) (A) (A) (A) (A)
                 (A) (A) (A) (A) (A) (A) (A) (A) (A) (A) (A) (A)
                 (A) (A) (A) (A) (A) (A) (A) (A) (A) (A) (A) (A)
                 (A) (A) (A) (A) (A) (A) (A) (A) (A) (A)
 Harris functional with IExCor=  402 diagonalized for initial guess.
 ExpMin= 1.17D-01 ExpMax= 2.19D+04 ExpMxC= 3.30D+03 IAcc=3 IRadAn=         5 AccDes= 0.00D+00
 HarFok:  IExCor=  402 AccDes= 0.00D+00 IRadAn=         5 IDoV= 1
 ScaDFX=  1.000000  1.000000  1.000000  1.000000
 FoFCou: FMM=F IPFlag=           0 FMFlag=      100000 FMFlg1=           0
         NFxFlg=           0 DoJE=T BraDBF=F KetDBF=T FulRan=T
         Omega=  0.000000  0.000000  1.000000  0.000000  0.000000 ICntrl=     500 IOpCl=  0
         NMat0=    1 NMatS0=    1 NMatT0=    0 NMatD0=    1 NMtDS0=    0 NMtDT0=    0
         I1Cent=           4 NGrid=           0.
 Petite list used in FoFCou.
 Requested convergence on RMS density matrix=1.00D-08 within 128 cycles.
 Requested convergence on MAX density matrix=1.00D-06.
 Requested convergence on             energy=1.00D-06.
 No special actions if energy rises.
 Integral accuracy reduced to 1.0D-05 until final iterations.
 Initial convergence to 1.0D-05 achieved.  Increase integral accuracy.
 SCF Done:  E(RB3LYP) =  -1048.99079308     A.U. after   13 cycles
             Convg  =    0.7076D-08             -V/T =  2.0073
 Calling FoFJK, ICntrl=      2127 FMM=F ISym2X=0 I1Cent= 0 IOpClX= 0 NMat=1 NMatS=1 NMatT=0.
 ***** Axes restored to original set *****
 -------------------------------------------------------------------
 Center     Atomic                   Forces (Hartrees/Bohr)
 Number     Number              X              Y              Z
 -------------------------------------------------------------------
      1        6          -0.001207876   -0.001583924   -0.005654596
      2        6          -0.000215027   -0.000237471    0.000033604
      3        6          -0.000117317   -0.001926177   -0.000826628
      4        6           0.000367263   -0.002083306   -0.000107901
      5        6           0.001244598   -0.001947385    0.002082517
      6        6           0.001930453    0.003761261   -0.000798658
      7        6           0.002849402   -0.002966830    0.007021536
      8        6          -0.002429912    0.004546512    0.000251869
      9        7           0.006571699    0.001103189   -0.004706883
     10        7           0.000350684    0.004507696    0.000363035
     11        8           0.000128326   -0.000428050    0.003003182
     12        8          -0.000639318   -0.004404805   -0.006558157
     13        8          -0.001452931   -0.000156807    0.003613925
     14       16          -0.002712444    0.004145766    0.003049754
     15        1           0.000218726    0.000403249    0.000048302
     16        1           0.000508765    0.000689528    0.000996277
     17        1          -0.000077951    0.000446493   -0.000012081
     18        1          -0.000087960    0.000058115   -0.000135942
     19        1           0.000043208    0.000135293   -0.000340702
     20        1          -0.000356623   -0.000007229    0.000005107
     21        1           0.000570572    0.000495223    0.000060832
     22        1          -0.000388426   -0.000298801    0.000287060
     23        1          -0.000121160    0.000188855   -0.000350791
     24        1          -0.001094143   -0.000466565    0.000459570
     25        1          -0.000097525    0.000249580   -0.000402602
     26        1          -0.000123784   -0.000023052   -0.000842663
     27        1          -0.000953584   -0.001682772    0.000158471
     28        1          -0.000895572    0.000345392   -0.000226656
     29        1           0.000286824    0.000538033    0.000303864
     30        1           0.000133561   -0.000339570   -0.001286064
     31        1           0.000043580   -0.001133730   -0.000512024
     32        1          -0.002276111   -0.001927710    0.001023443
 -------------------------------------------------------------------
 Cartesian Forces:  Max     0.007021536 RMS     0.002038136

 GradGradGradGradGradGradGradGradGradGradGradGradGradGradGradGradGradGrad
 Berny optimization.
 Using GEDIIS/GDIIS optimizer.
 Internal  Forces:  Max     0.007465307 RMS     0.001263796
 Search for a local minimum.
 Step number   2 out of a maximum of  168
 All quantities printed in internal units (Hartrees-Bohrs-Radians)
 Mixed Optimization -- RFO/linear search
 Update second derivatives using D2CorX and points    1    2
 DE= -7.16D-03 DEPred=-7.98D-03 R= 8.97D-01
 SS=  1.41D+00  RLast= 4.51D-01 DXNew= 5.0454D-01 1.3540D+00
 Trust test= 8.97D-01 RLast= 4.51D-01 DXMaxT set to 5.05D-01
 ITU=  1  0
 Use linear search instead of GDIIS.
     Eigenvalues ---    0.00230   0.00235   0.00291   0.00307   0.00345
     Eigenvalues ---    0.00596   0.00932   0.00943   0.00972   0.01182
     Eigenvalues ---    0.01502   0.01753   0.01855   0.03449   0.04715
     Eigenvalues ---    0.04846   0.04947   0.05195   0.05208   0.05326
     Eigenvalues ---    0.05524   0.05581   0.05901   0.05966   0.06151
     Eigenvalues ---    0.07126   0.07496   0.07663   0.07703   0.08489
     Eigenvalues ---    0.08978   0.12922   0.13071   0.15403   0.16000
     Eigenvalues ---    0.16000   0.16000   0.16000   0.16000   0.16000
     Eigenvalues ---    0.16000   0.16000   0.16000   0.16000   0.16000
     Eigenvalues ---    0.16000   0.16000   0.16406   0.16675   0.16769
     Eigenvalues ---    0.17360   0.17722   0.18498   0.22918   0.23220
     Eigenvalues ---    0.24776   0.24886   0.24998   0.25094   0.27114
     Eigenvalues ---    0.27412   0.27954   0.28966   0.29293   0.31613
     Eigenvalues ---    0.33882   0.34165   0.34169   0.34189   0.34244
     Eigenvalues ---    0.34321   0.34341   0.34350   0.34371   0.34423
     Eigenvalues ---    0.34473   0.34532   0.34604   0.34637   0.34670
     Eigenvalues ---    0.34777   0.34821   0.37339   0.37422   0.38299
     Eigenvalues ---    0.43757   0.46281   0.86678   0.93951   0.95474
 RFO step:  Lambda=-3.42890062D-03 EMin= 2.29573301D-03
 Quartic linear search produced a step of  0.08550.
 Iteration  1 RMS(Cart)=  0.17664108 RMS(Int)=  0.00801660
 Iteration  2 RMS(Cart)=  0.01486206 RMS(Int)=  0.00038020
 Iteration  3 RMS(Cart)=  0.00010998 RMS(Int)=  0.00037663
 Iteration  4 RMS(Cart)=  0.00000002 RMS(Int)=  0.00037663
 Variable       Old X    -DE/DX   Delta X   Delta X   Delta X     New X
                                 (Linear)    (Quad)   (Total)
    R1        2.92158   0.00177  -0.00113   0.00612   0.00499   2.92657
    R2        2.59495  -0.00121  -0.00328  -0.00438  -0.00767   2.58728
    R3        2.31327   0.00150  -0.00252   0.00047  -0.00205   2.31121
    R4        2.90776  -0.00104   0.00065  -0.00339  -0.00273   2.90503
    R5        2.07440   0.00028   0.00046   0.00108   0.00154   2.07594
    R6        2.06866  -0.00111   0.00008  -0.00332  -0.00324   2.06542
    R7        2.06912   0.00030  -0.00012   0.00084   0.00072   2.06984
    R8        2.91636  -0.00217   0.00118  -0.00716  -0.00597   2.91038
    R9        2.07428   0.00005   0.00036   0.00034   0.00070   2.07498
   R10        2.07339  -0.00030   0.00062  -0.00059   0.00003   2.07342
   R11        2.06874   0.00030  -0.00015   0.00084   0.00069   2.06943
   R12        2.75178   0.00150  -0.00007   0.00413   0.00406   2.75584
   R13        2.07432  -0.00024   0.00059  -0.00041   0.00018   2.07450
   R14        2.05576   0.00056  -0.00076   0.00131   0.00054   2.05630
   R15        2.07475  -0.00018   0.00060  -0.00023   0.00037   2.07512
   R16        2.76097  -0.00194   0.00060  -0.00509  -0.00449   2.75649
   R17        2.07742  -0.00081   0.00095  -0.00195  -0.00100   2.07642
   R18        2.06315   0.00025   0.00004   0.00077   0.00081   2.06396
   R19        2.06435   0.00082  -0.00026   0.00233   0.00207   2.06642
   R20        3.41448   0.00274   0.00388   0.01223   0.01611   3.43059
   R21        2.06610  -0.00053   0.00016  -0.00151  -0.00135   2.06475
   R22        2.06265   0.00040   0.00020   0.00128   0.00148   2.06413
   R23        2.06301   0.00049   0.00004   0.00148   0.00152   2.06453
   R24        2.91879   0.00361  -0.00123   0.01295   0.01172   2.93051
   R25        2.80757  -0.00418  -0.00274  -0.01486  -0.01760   2.78997
   R26        2.06946   0.00056   0.00087   0.00211   0.00298   2.07244
   R27        2.07147   0.00024  -0.00033   0.00057   0.00023   2.07170
   R28        3.18784  -0.00496   0.00028  -0.01350  -0.01321   3.17463
   R29        1.91979  -0.00001  -0.00126  -0.00066  -0.00192   1.91787
   R30        2.75497   0.00747   0.00123   0.00876   0.00999   2.76497
   R31        2.75628   0.00337   0.00101   0.00423   0.00524   2.76152
    A1        2.07453   0.00027   0.00001   0.00403   0.00155   2.07608
    A2        2.07132  -0.00246  -0.00228  -0.00860  -0.01334   2.05799
    A3        2.13474   0.00230   0.00205   0.01370   0.01323   2.14797
    A4        1.94763  -0.00019   0.00048  -0.00128  -0.00081   1.94682
    A5        1.95370  -0.00088   0.00037  -0.00515  -0.00478   1.94892
    A6        1.91846   0.00016  -0.00111   0.00045  -0.00066   1.91779
    A7        1.88938   0.00060  -0.00011   0.00381   0.00370   1.89308
    A8        1.87529  -0.00006  -0.00048  -0.00126  -0.00174   1.87355
    A9        1.87628   0.00044   0.00084   0.00379   0.00464   1.88092
   A10        1.94071  -0.00006   0.00011  -0.00050  -0.00040   1.94031
   A11        1.97780   0.00026   0.00197   0.00299   0.00496   1.98276
   A12        1.92324  -0.00029  -0.00077  -0.00243  -0.00320   1.92004
   A13        1.88032  -0.00006  -0.00048  -0.00021  -0.00070   1.87962
   A14        1.87773   0.00009  -0.00041  -0.00035  -0.00077   1.87696
   A15        1.85952   0.00006  -0.00054   0.00044  -0.00010   1.85943
   A16        1.93327  -0.00091   0.00302  -0.00544  -0.00245   1.93082
   A17        1.88903   0.00035  -0.00622   0.00071  -0.00547   1.88356
   A18        1.92792   0.00014   0.00282   0.00177   0.00457   1.93248
   A19        1.90910   0.00039   0.00087   0.00372   0.00462   1.91372
   A20        1.90021  -0.00007  -0.00101  -0.00362  -0.00470   1.89551
   A21        1.90405   0.00012   0.00052   0.00306   0.00362   1.90767
   A22        1.96041  -0.00148   0.00563  -0.00709  -0.00152   1.95889
   A23        1.95100   0.00053   0.00151   0.00403   0.00547   1.95647
   A24        1.88633   0.00026  -0.00298   0.00054  -0.00241   1.88392
   A25        1.90544   0.00049  -0.00071   0.00227   0.00143   1.90686
   A26        1.88753   0.00056  -0.00219   0.00258   0.00043   1.88796
   A27        1.86977  -0.00031  -0.00155  -0.00218  -0.00374   1.86604
   A28        1.88593  -0.00282   0.00056  -0.01884  -0.01828   1.86765
   A29        1.92065  -0.00014   0.00071  -0.00007   0.00061   1.92126
   A30        1.90362   0.00107   0.00031   0.00760   0.00791   1.91153
   A31        1.90776   0.00132  -0.00037   0.00706   0.00666   1.91442
   A32        1.90982   0.00074  -0.00047   0.00359   0.00314   1.91296
   A33        1.93534  -0.00024  -0.00070   0.00018  -0.00054   1.93480
   A34        1.90741   0.00044  -0.00133   0.00454   0.00321   1.91062
   A35        1.87487  -0.00108   0.00061  -0.00521  -0.00465   1.87022
   A36        1.97091   0.00012   0.00014  -0.00304  -0.00295   1.96797
   A37        1.89455   0.00127  -0.00114   0.00962   0.00848   1.90303
   A38        1.89095  -0.00051  -0.00093  -0.00219  -0.00312   1.88784
[...]
 0003682,0.00001951,-0.00001302,-0.00005141,-0.00003828,0.00002690,-0.3
 2709175,0.00800317,-0.02032939,0.00011619,-0.00061949,0.00029133,0.000
 03230,0.00002569,0.00000285,-0.00042261,-0.00083346,-0.00084084,0.0000
 1298,-0.00012967,-0.00009565,0.00000829,-0.00006930,-0.00010468,0.0016
 4452,0.00027944,-0.00028222,0.00160044,-0.00043810,0.00065444,-0.00916
 806,0.00168027,0.00022732,0.00000306,0.00000351,-0.00000572,-0.0000007
 5,-0.00000635,-0.00000654,-0.00000658,0.00000530,-0.00000641,0.0000013
 3,-0.00000093,-0.00000735,0.00002466,-0.00003451,-0.00002124,-0.000024
 23,0.00000963,-0.00001962,-0.00000407,-0.00000817,-0.00000643,-0.00000
 043,0.00001080,0.00000762,-0.00000029,-0.00001984,-0.00001113,-0.00000
 771,0.00001061,-0.00002727,0.00001263,0.00001332,0.00000336,0.00000565
 ,-0.00000310,-0.00000792,0.34928450,-0.00033894,0.00044203,-0.00008141
 ,-0.00005328,0.00011916,0.00006860,-0.00006326,-0.00000281,-0.00011632
 ,0.00007971,0.00004242,-0.00001970,-0.00007893,-0.00007082,0.00006198,
 0.00770401,-0.04811363,0.00163734,-0.00028972,-0.00149406,0.00075943,0
 .00011108,-0.00017183,-0.00010870,-0.00411910,-0.00140312,-0.00281605,
 0.00001752,-0.00026765,-0.00018468,-0.00003108,-0.00018061,-0.00020585
 ,0.00224417,0.00009166,0.00082537,0.00292593,-0.00022107,0.00055134,-0
 .02532422,0.00134210,-0.00120840,0.00000484,-0.00000290,-0.00001282,0.
 00002501,-0.00000026,0.00002731,-0.00003639,0.00001483,-0.00004078,-0.
 00000924,0.00003850,-0.00006998,-0.00006383,-0.00006177,0.00010686,0.0
 0004592,0.00005500,0.00003594,-0.00000717,-0.00001710,-0.00001629,0.00
 000032,0.00001954,0.00001578,-0.00000145,-0.00004174,-0.00002460,-0.00
 001244,0.00002440,-0.00003448,0.00002248,0.00002491,-0.00000275,0.0000
 0843,-0.00000478,-0.00001884,-0.00788843,0.04793850,-0.00022167,0.0001
 9576,0.00013408,-0.00003877,0.00004319,0.00004040,-0.00005359,0.000000
 14,-0.00002610,0.00004095,0.00002932,-0.00001992,-0.00006396,-0.000061
 50,0.00004553,-0.02044689,0.00167889,-0.05030318,-0.00011767,-0.000518
 68,0.00052083,0.00006707,-0.00006106,-0.00008114,-0.00282895,-0.002197
 46,-0.00002236,0.00003828,-0.00014836,-0.00015097,-0.00002156,-0.00010
 284,-0.00023185,0.00240043,0.00023898,-0.00015650,0.00134865,0.0004320
 8,-0.00006269,-0.01711786,0.00152216,-0.00153245,0.00000524,0.00000273
 ,-0.00000808,0.00000728,-0.00000394,0.00000519,-0.00001894,0.00000899,
 -0.00002326,0.00000917,-0.00000733,0.00002511,0.00003167,-0.00002615,-
 0.00003916,-0.00002117,0.00001698,-0.00000247,-0.00000672,-0.00001246,
 -0.00001068,0.00000245,0.00001539,0.00001075,0.00000046,-0.00002553,-0
 .00001302,-0.00001708,0.00002067,-0.00002127,0.00001504,0.00001878,-0.
 00000193,0.00000421,-0.00000679,-0.00001464,0.02275297,0.00058024,0.04
 829449,0.00002339,-0.00014557,-0.00011242,-0.00002362,0.00013434,0.000
 00547,-0.00003758,-0.00002542,-0.00034075,-0.00000751,-0.00002854,0.00
 001300,0.00003391,0.00001991,-0.00000704,-0.07382315,0.07102372,-0.040
 45225,-0.00011242,0.00002955,0.00012311,0.00001752,-0.00024408,-0.0000
 9007,-0.00028712,0.00080151,-0.00019899,-0.00002491,0.00007660,0.00006
 682,-0.00000762,0.00011333,0.00004153,-0.00064733,0.00050174,0.0002325
 1,0.00082479,-0.00359275,-0.00115657,0.00180268,-0.00805644,0.00545657
 ,-0.00000435,-0.00001263,0.00000148,0.00002924,0.00001942,0.00005202,-
 0.00002020,-0.00000243,-0.00002043,-0.00005794,0.00007312,-0.00012621,
 -0.00020450,-0.00003418,0.00029799,0.00013937,0.00007535,0.00011896,0.
 00000393,0.00000885,0.00000234,0.00000298,-0.00000899,-0.00000520,-0.0
 0000429,0.00001288,0.00000843,0.00001635,-0.00000382,0.00000699,-0.000
 00456,-0.00000564,-0.00000789,-0.00000205,0.00000917,0.00000796,-0.005
 93464,0.02715596,-0.01464059,0.07384292,0.00003454,-0.00016968,-0.0000
 3180,-0.00002763,0.00006747,0.00001478,0.00000345,-0.00009421,-0.00019
 108,-0.00000350,-0.00003126,-0.00000010,-0.00001193,-0.00001144,0.0000
 0070,0.07068971,-0.23816828,0.11363974,-0.00042719,-0.00002759,0.00009
 353,-0.00007183,-0.00007325,-0.00013807,-0.00023061,0.00246818,-0.0016
 1372,-0.00000212,0.00008014,0.00002676,0.00003152,0.00017228,0.0000221
 4,-0.00091732,0.00359828,-0.00135000,-0.00170026,-0.00542402,-0.002950
 24,0.00869727,-0.02068642,0.01555678,-0.00000267,-0.00000052,-0.000005
 61,0.00001608,0.00000956,0.00002327,-0.00000624,-0.00000126,-0.0000166
 7,-0.00000414,0.00006827,-0.00003773,-0.00009290,0.00007879,0.00015792
 ,0.00010151,0.00002683,0.00006710,-0.00000127,0.00000930,0.00000232,0.
 00000741,-0.00000618,-0.00000327,-0.00000477,0.00001260,0.00001511,0.0
 0001029,-0.00001135,-0.00000019,-0.00000518,0.00000091,-0.00000960,0.0
 0000214,0.00000808,0.00000821,-0.00063035,0.00244357,-0.00120234,-0.07
 544485,0.25412407,0.00003029,-0.00004956,0.00003530,-0.00003777,-0.000
 03038,0.00002735,0.00000573,-0.00015952,0.00034622,0.00000436,-0.00000
 505,-0.00000698,-0.00002186,-0.00002043,0.00001188,-0.04019681,0.11483
 107,-0.11499078,-0.00019545,0.00016376,0.00033201,-0.00005087,0.000019
 91,-0.00022870,0.00038978,0.00060675,-0.00081833,0.00000976,0.00001227
 ,-0.00002368,0.00002577,0.00008493,-0.00003009,-0.00061591,0.00138009,
 -0.00036757,-0.00127921,-0.00564733,-0.00012191,0.00600533,-0.01439782
 ,0.00817228,0.00000246,0.00000623,-0.00001502,-0.00000433,-0.00000236,
 -0.00001686,-0.00000029,0.00000549,-0.00000837,-0.00001671,0.00008624,
 -0.00011135,-0.00001502,0.00004265,-0.00009558,0.00001338,0.00002926,-
 0.00007499,-0.00000347,0.00000121,-0.00000059,0.00000383,0.00000098,0.
 00000044,-0.00000107,0.00000110,0.00000576,0.00000594,-0.00000980,0.00
 001362,-0.00000677,0.00000307,-0.00000861,0.00000196,0.00000222,0.0000
 0066,0.00034538,0.00091689,-0.00115649,0.04517557,-0.12166887,0.119459
 92,0.00009374,-0.00007538,-0.00005522,-0.00000063,0.00003192,-0.000005
 75,-0.00006912,0.00001729,-0.00014416,-0.00001191,-0.00000305,0.000013
 88,0.00005445,0.00004051,-0.00002089,-0.09993204,-0.00663820,0.1099351
 4,0.00023242,0.00010193,0.00004061,0.00001676,-0.00005216,0.00001053,-
 0.00028994,0.00008278,0.00096516,-0.00003624,0.00006422,0.00006365,-0.
 00003610,0.00000822,0.00007060,0.00106417,-0.00244410,-0.00311492,-0.0
 0066694,0.00050795,0.00013248,0.00309070,0.00104091,-0.00912806,-0.000
 00168,-0.00000754,0.00000772,0.00001162,0.00000851,0.00001704,-0.00000
 421,-0.00000159,-0.00000133,0.00000897,-0.00001663,0.00005564,-0.00001
 230,0.00003756,0.00000352,0.00001430,-0.00000016,0.00003438,0.00000241
 ,0.00000385,0.00000010,-0.00000027,-0.00000704,-0.00000270,-0.00000109
 ,0.00001088,0.00000480,0.00002333,-0.00003292,0.00005208,-0.00002084,-
 0.00001128,-0.00001223,-0.00000737,-0.00000126,0.00000271,-0.00979541,
 -0.00132402,0.02937361,0.00409149,-0.00039790,-0.00994504,0.10225922,0
 .00022077,-0.00009430,-0.00005157,0.00000698,-0.00002250,-0.00000961,0
 .00003057,-0.00004765,0.00009781,-0.00001886,0.00003279,0.00003681,0.0
 0010960,0.00010500,-0.00003988,-0.00689959,-0.04857552,0.01901072,0.00
 011682,0.00039717,-0.00002398,-0.00001023,-0.00000300,0.00000790,0.000
 11024,-0.00085377,0.00209327,-0.00005556,0.00007819,0.00007798,-0.0000
 5848,-0.00004153,0.00009586,-0.00139783,-0.00396744,-0.00661304,-0.001
 31648,0.00037335,0.00269519,0.01224530,0.00268476,-0.02319188,-0.00000
 001,-0.00000614,-0.00000134,0.00000170,0.00000138,-0.00000852,0.000002
 14,0.00000223,0.00000868,-0.00001358,0.00002249,-0.00005807,-0.0000015
 9,0.00001005,0.00001556,0.00001749,0.00001555,-0.00001424,0.00000234,0
 .00000079,-0.00000397,-0.00000563,-0.00000860,-0.00000189,0.00000553,0
 .00001133,0.00000049,0.00003977,-0.00008677,0.00016230,-0.00005444,-0.
 00002882,-0.00002875,-0.00001896,-0.00001211,-0.00000611,0.00052189,-0
 .00049229,-0.00015124,-0.01250702,0.00148195,0.02384062,0.00914953,0.0
 4906251,0.00017293,-0.00016899,-0.00003649,0.00001425,0.00003639,-0.00
 001465,-0.00007042,0.00003817,-0.00018866,-0.00002951,0.00000708,0.000
 03339,0.00009763,0.00008747,-0.00003029,0.10962196,0.01772736,-0.27901
 268,-0.00000550,0.00045822,-0.00018957,-0.00001183,-0.00007765,0.00005
 639,-0.00058350,-0.00017788,0.00244431,-0.00005173,0.00012212,0.000103
 31,-0.00005165,0.00000664,0.00009970,-0.00090947,-0.00362521,-0.002016
 51,-0.00103482,0.00033187,0.00275173,0.00793133,0.00384054,-0.01612199
 ,-0.00000241,-0.00001069,0.00000942,0.00001237,0.00000931,0.00001947,-
 0.00000293,-0.00000292,0.00000369,0.00001025,-0.00002140,0.00005475,-0
 .00004415,0.00005333,0.00001953,0.00002207,-0.00000847,0.00004895,0.00
 000462,0.00000554,0.00000042,-0.00000313,-0.00001189,-0.00000526,0.000
 00312,0.00001893,0.00000568,0.00003098,-0.00004651,0.00010245,-0.00003
 606,-0.00002518,-0.00001690,-0.00001352,-0.00000411,0.00000218,-0.0022
 3356,0.00011588,0.00573768,0.00555239,-0.00066521,-0.01027423,-0.11820
 259,-0.01776093,0.29660598,-0.00373117,-0.00047240,0.00437449,0.000996
 87,-0.00096886,0.00099463,0.00124056,-0.00132393,-0.00032235,-0.000070
 07,0.00004623,-0.00011336,-0.00011437,0.00077953,0.00146498,-0.0002232
 5,0.00000260,0.00027004,-0.16335631,-0.09000726,0.11041392,-0.01968229
 ,-0.01044623,0.01669236,0.01064881,0.00935291,-0.01152903,-0.00026033,
 -0.00057635,-0.00066827,0.00061986,-0.00142314,-0.00051235,-0.00319836
 ,-0.00016120,0.00061071,-0.00018526,-0.00021911,0.00061323,0.00090036,
 0.00158119,-0.00440963,0.00000855,0.00040288,-0.00098506,-0.00000949,0
 .00008089,-0.00001898,0.00043476,0.00020809,-0.00015790,0.00041227,0.0
 0100295,-0.00010154,0.00000694,0.00012518,0.00001192,0.00023976,-0.000
 15871,-0.00044895,-0.00001875,-0.00001366,-0.00004237,0.00001014,0.000
 04987,0.00008030,0.00001650,0.00001001,0.00001364,0.00004631,0.0013347
 8,0.00190289,-0.00026375,-0.00005869,-0.00049621,0.00016432,0.00039666
 ,0.00010393,-0.00002128,-0.00002695,-0.00004269,0.00005021,-0.00000891
 ,-0.00000800,0.00007423,0.00012294,0.00010425,0.18081608,-0.01805419,-
 0.00567178,0.02340476,-0.00071980,0.00054325,-0.00065119,0.00055924,0.
 00166702,-0.00069525,0.00009160,-0.00004504,-0.00014834,-0.00125774,-0
 .00082602,-0.00060713,0.00031605,-0.00000300,-0.00025557,-0.08265222,-
 0.11012604,0.07363397,0.01381420,0.00794359,-0.01206903,0.00110214,-0.
 00138251,0.00244855,0.00114159,0.00018441,-0.00151807,-0.00255526,-0.0
 0882438,-0.00187124,-0.00102576,0.00009434,-0.00211390,0.00050264,0.00
 028368,-0.00042150,-0.00259163,0.00012043,0.00344702,-0.00035118,0.000
 03372,0.00023832,-0.00000110,-0.00003949,0.00009119,-0.00020448,-0.000
 03396,-0.00015436,-0.00029611,-0.00016398,0.00042129,-0.00007544,-0.00
 006921,-0.00000868,-0.00014669,0.00020892,0.00018733,-0.00001996,0.000
 03479,-0.00003064,0.00007204,0.00027200,0.00027155,0.00004170,-0.00004
 162,0.00000134,0.00157000,-0.00030774,-0.00138476,0.00012569,0.0002659
 9,-0.00019649,0.00046578,0.00043296,0.00012957,0.00004268,0.00004185,0
 .00006214,-0.00003087,-0.00003829,-0.00006235,-0.00002069,-0.00010728,
 -0.00006544,0.08688990,0.11764643,-0.00774008,-0.00102801,0.01039973,-
 0.00054211,-0.00032872,0.00086676,-0.00007634,0.00040185,-0.00004719,0
 .00002188,-0.00003699,0.00003034,0.00052744,-0.00233297,-0.00233987,-0
 .00013928,0.00003572,0.00004102,0.10156255,0.07511355,-0.14876418,0.00
 367131,0.00052386,-0.00159393,0.01466601,0.01690213,-0.02523331,0.0007
 5287,0.00093509,-0.00043425,-0.00093827,-0.00478292,0.00043409,0.00094
 533,-0.00139894,0.00255656,-0.00096405,-0.00053058,0.00048415,0.003983
 24,0.00302100,-0.00398892,0.00023230,0.00010488,0.00027460,-0.00006294
 ,-0.00001874,-0.00001910,0.00000180,-0.00009702,0.00001853,0.00002021,
 -0.00051267,0.00008786,0.00006468,0.00005099,-0.00005041,-0.00022463,-
 0.00009794,0.00014455,0.00000089,0.00001498,0.00002119,0.00004658,0.00
 011960,0.00004971,0.00001192,0.00001697,-0.00000879,0.00112696,-0.0018
 4789,-0.00194061,0.00022083,-0.00003602,-0.00021475,-0.00003960,-0.000
 21155,-0.00031212,-0.00004196,-0.00004323,-0.00000436,-0.00007315,-0.0
 0012972,-0.00011778,0.00006010,0.00003267,0.00009211,-0.11436971,-0.08
 217574,0.17384339,-0.00180493,-0.00327478,0.00120727,0.01017761,0.0080
 2359,-0.01316085,-0.00420310,-0.00375000,0.00407613,0.00000637,-0.0000
 3398,0.00001014,-0.00028770,0.00007151,-0.00003863,0.00007884,-0.00001
 889,-0.00004387,-0.02195195,-0.00972558,0.02069913,-0.13766868,-0.0690
 8014,0.09963430,0.00280614,-0.00035270,0.00013083,0.00033991,0.0001450
 5,-0.00031855,0.00178304,0.00001357,-0.00198598,-0.00023889,0.00033752
 ,-0.00094202,0.00023753,0.00007848,-0.00009005,-0.00078670,-0.00052327
 ,0.00097438,-0.00093443,0.00053179,-0.00399455,0.00062652,-0.00012081,
 0.00081822,0.00085934,0.00008020,0.00075834,0.00075958,-0.00106346,-0.
 00081957,-0.00004803,0.00003782,0.00011849,0.00067076,0.00003559,-0.00
 042444,0.00001634,0.00003498,-0.00000170,0.00003121,0.00005732,0.00002
 865,0.00001413,-0.00000057,0.00000148,0.00021597,-0.00002172,-0.000042
 21,-0.00001430,0.00000355,-0.00002316,0.00010591,0.00008225,0.00006577
 ,0.00000807,0.00002045,0.00000759,0.00002078,0.00002545,0.00002408,-0.
 00001769,-0.00001004,-0.00002671,-0.00347694,0.00359046,0.00000102,0.1
 5370785,0.00119200,0.00209615,-0.00168763,-0.00056506,-0.00039730,0.00
 096702,-0.01865936,-0.01647528,0.01946058,0.00006740,-0.00003432,0.000
 04699,0.00005538,0.00004362,-0.00007003,-0.00000915,-0.00004552,0.0000
 7313,0.01279505,0.00687971,-0.01256901,-0.07044626,-0.10357745,0.07979
 795,-0.00095844,0.00051607,-0.00038366,-0.00014455,-0.00010167,0.00037
 154,-0.00061753,-0.00094950,0.00051754,0.00040762,-0.00007591,0.000424
 16,-0.00003865,-0.00000115,0.00005019,-0.00018210,0.00008575,-0.000652
 47,0.00025203,0.00082075,-0.00020821,0.00046514,0.00045286,-0.00014171
 ,-0.00011585,-0.00017969,0.00014702,-0.00134592,-0.00526239,-0.0025504
 7,0.00013671,0.00122564,-0.00023960,0.00065057,0.00100510,0.00047390,-
 0.00000493,0.00000343,0.00002540,-0.00001847,-0.00006430,-0.00004303,-
 0.00000974,-0.00000417,-0.00000684,-0.00011646,0.00004672,0.00010994,0
 .00005030,-0.00005150,0.00005366,-0.00007448,-0.00008525,-0.00001851,0
 .00000007,0.00001955,-0.00000792,0.00003704,-0.00000164,0.00000822,-0.
 00000578,0.00001531,0.00000645,0.00294302,-0.00205316,-0.00037495,0.07
 408208,0.11596543,0.00203127,0.00174288,-0.00197199,0.01607583,0.01317
 327,-0.02253405,-0.00788722,-0.00660447,0.00845415,-0.00001603,-0.0000
 1415,-0.00000349,0.00010278,0.00017305,-0.00025244,0.00002325,-0.00000
 950,0.00000532,0.00278120,0.00115821,-0.00340828,0.10013010,0.07743709
 ,-0.16107936,-0.00059673,-0.00068979,0.00089796,-0.00022121,-0.0001049
 6,0.00077609,-0.00195824,-0.00008096,0.00114720,-0.00002248,0.00000937
 ,0.00006049,0.00010869,-0.00009193,0.00007306,-0.00006996,-0.00010470,
 -0.00005808,-0.00355732,0.00025695,-0.00460358,0.00039952,-0.00051337,
 0.00086492,-0.00009980,0.00009416,0.00127124,-0.00106491,-0.00302165,0
 .00005999,-0.00004978,0.00069316,0.00069810,0.00012336,0.00079342,0.00
 037599,0.00001664,0.00001871,0.00001618,-0.00000507,-0.00005092,-0.000
 02734,-0.00001373,0.00001060,0.00001391,-0.00006378,-0.00002059,0.0000
 2918,-0.00002164,-0.00007409,0.00019050,0.00000180,-0.00006664,0.00002
 379,0.00000073,0.00001027,-0.00000013,0.00000955,-0.00000371,0.0000076
 3,-0.00000476,0.00000224,-0.00000564,0.00008899,-0.00042674,0.00073476
 ,-0.10648092,-0.08383050,0.17788771,0.00353570,0.00264729,-0.00577344,
 -0.00059873,0.00002631,0.00018285,-0.00028244,0.00012010,0.00031752,0.
 00009536,-0.00018705,-0.00008565,0.00021330,0.00038599,0.00001937,-0.0
 0280119,0.00163291,-0.00109321,0.01070712,0.01182880,-0.00719503,0.001
 51581,0.00006280,-0.00105736,-0.10652638,-0.10708379,0.05973928,-0.001
 51450,-0.00039169,0.00216667,-0.00163892,-0.00070901,0.00415902,-0.004
 43084,0.00214987,0.00164118,0.00645782,0.00218064,-0.00104458,-0.02101
 163,-0.03147322,0.01759049,0.00003097,-0.00009054,0.00024512,-0.000035
 29,-0.00002619,-0.00007898,-0.00014582,-0.00002474,-0.00009688,-0.0000
 0273,-0.00020826,0.00006593,0.00009817,-0.00005612,-0.00024200,-0.0001
 0790,0.00007003,-0.00009451,-0.00002259,0.00000121,0.00005083,-0.00002
 155,-0.00016767,-0.00011516,-0.00004187,0.00002570,0.00002930,-0.00014
 481,-0.00005283,-0.00003185,-0.00000742,-0.00007251,0.00012483,-0.0001
 1489,-0.00012866,0.00008993,-0.00009526,-0.00069739,-0.00044698,0.0003
 0423,0.00037220,0.00035497,-0.00013403,-0.00033534,-0.00026465,-0.0020
 7492,-0.00032258,-0.00270577,-0.00103257,0.00017830,0.00023989,0.11982
 779,0.00217285,0.00176383,-0.00630528,0.00036195,0.00021314,-0.0000753
 4,0.00049886,-0.00027535,0.00004246,-0.00024292,-0.00033730,-0.0000926
 4,0.00040271,0.00063872,-0.00026278,-0.00091942,-0.00010540,0.00083906
 ,0.00076043,-0.00055414,-0.00045656,-0.00072163,-0.00064680,0.00098522
 ,-0.13390450,-0.25467507,0.17389813,-0.00149011,0.00044977,0.00242064,
 0.00058407,-0.00278116,0.00213339,0.00624412,-0.00041410,-0.00384993,0
 .00035855,-0.00146166,0.00047504,0.00503850,0.00525052,-0.00610028,-0.
 00007799,0.00001270,-0.00015831,-0.00012956,-0.00008131,-0.00012663,0.
 00001075,-0.00001641,-0.00000942,-0.00002520,0.00012541,-0.00018545,-0
 .00009931,-0.00042003,0.00005616,-0.00000372,-0.00002311,-0.00000471,0
 .00002829,0.00003726,0.00012742,-0.00005015,-0.00014020,-0.00016154,0.
 00000179,0.00014380,0.00001879,-0.00006280,-0.00007293,0.00014056,-0.0
 0007396,-0.00016325,0.00019058,-0.00014858,-0.00011674,0.00012700,-0.0
 0010292,-0.00011157,-0.00033285,0.00005073,0.00009511,0.00001053,-0.00
 006635,0.00005285,-0.00019281,0.00053579,-0.00003985,-0.00128867,0.000
 72429,0.00018410,0.00013530,0.12034543,0.25346916,0.00391174,0.0028958
 2,-0.00636194,-0.00009845,0.00016063,0.00002109,0.00043724,-0.00025044
 ,-0.00013582,-0.00039603,-0.00026085,0.00000501,0.00058726,0.00037526,
 -0.00048045,-0.00293022,0.00032823,-0.00009449,0.01303039,0.02490942,-
 0.02136416,-0.00011249,-0.00046617,-0.00006234,0.05131163,0.13698282,-
 0.11702513,-0.00071714,0.00067554,0.00178207,0.00064867,-0.00060160,0.
 00430291,0.00139088,0.00021392,0.00022620,-0.00214849,0.00023712,-0.00
 207819,0.00660414,-0.00270702,0.00102713,0.00001620,-0.00005115,0.0000
 9580,-0.00012899,-0.00004362,-0.00010133,-0.00006987,-0.00008873,-0.00
 001084,-0.00005326,-0.00001380,-0.00014207,-0.00013118,-0.00015571,0.0
 0016475,0.00005618,-0.00007980,0.00005798,0.00004060,0.00005796,0.0001
 3967,-0.00004746,-0.00020334,-0.00015331,-0.00001577,0.00016640,0.0000
 8171,-0.00022331,-0.00003564,-0.00003835,-0.00001281,-0.00015301,0.000
 27705,-0.00014672,-0.00013361,0.00007025,-0.00028788,-0.00070834,-0.00
 093143,0.00005887,0.00038958,0.00005484,-0.00020607,-0.00021308,-0.000
 27828,-0.00351390,0.00051941,-0.00500975,-0.00016263,0.00025086,0.0003
 5623,-0.06669112,-0.16199705,0.14560518\\0.00000566,0.00000592,-0.0000
 0706,0.00000127,0.00000006,0.00000063,0.,-0.00000017,-0.00000191,-0.00
 000610,-0.00000109,-0.00000064,-0.00000495,0.00001045,-0.00000918,0.00
 000067,0.00000108,-0.00000023,-0.00000150,0.00000169,0.00000492,-0.000
 00169,-0.00000071,-0.00000083,0.00000663,-0.00000225,-0.00000354,0.000
 00687,-0.00000978,0.00000580,-0.00000627,-0.00000535,0.00000533,-0.000
 00040,0.00000083,0.00000134,-0.00000023,0.00000246,0.00000153,-0.00000
 335,0.00000026,-0.00000332,-0.00000027,0.00000022,-0.00000028,-0.00000
 033,0.00000033,0.00000083,-0.00000014,0.00000052,0.00000032,-0.0000000
 8,0.00000025,-0.00000028,0.00000041,-0.00000016,0.00000104,0.00000027,
 -0.00000057,0.00000025,0.00000033,0.00000066,0.00000124,-0.00000074,-0
 .00000116,0.00000007,-0.00000110,-0.00000050,0.00000248,0.00000148,-0.
 00000133,0.00000376,0.00000013,0.00000115,-0.00000130,0.00000011,0.000
 00074,0.00000223,0.00000039,-0.00000237,0.00000024,0.00000211,0.000000
 38,-0.00000064,0.00000032,-0.00000038,-0.00000039,0.00000166,-0.000000
 72,-0.00000034,0.00000018,0.00000013,0.00000041,-0.00000134,-0.0000005
 8,-0.00000249\\\@


 NO MATTER HOW THIN YOU SLICE IT, IT'S STILL BALONEY

                                   -- ALFRED E. SMITH
 Job cpu time:  0 days  2 hours 19 minutes 21.3 seconds.
 File lengths (MBytes):  RWF=    268 Int=      0 D2E=      0 Chk=      6 Scr=      1
 Normal termination of Gaussian 09 at Fri Feb 16 22:23:30 2018.
