 Entering Gaussian System, Link 0=g09
 Initial command:
 /home/fb_chem/chemsoft/lx24-amd64/Gaussian_09_C.01_NBO_3.1_64_istanbul-64/g09/l1.exe /local/2397351.1.parallel/Gau-18754.inp -scrdir=/local/2397351.1.parallel/
 Entering Link 1 = /home/fb_chem/chemsoft/lx24-amd64/Gaussian_09_C.01_NBO_3.1_64_istanbul-64/g09/l1.exe PID=     18756.
  
 Copyright (c) 1988,1990,1992,1993,1995,1998,2003,2009,2011,
            Gaussian, Inc.  All Rights Reserved.
  
 This is part of the Gaussian(R) 09 program.  It is based on
 the Gaussian(R) 03 system (copyright 2003, Gaussian, Inc.),
 the Gaussian(R) 98 system (copyright 1998, Gaussian, Inc.),
 the Gaussian(R) 94 system (copyright 1995, Gaussian, Inc.),
 the Gaussian 92(TM) system (copyright 1992, Gaussian, Inc.),
 the Gaussian 90(TM) system (copyright 1990, Gaussian, Inc.),
 the Gaussian 88(TM) system (copyright 1988, Gaussian, Inc.),
 the Gaussian 86(TM) system (copyright 1986, Carnegie Mellon
 University), and the Gaussian 82(TM) system (copyright 1983,
 Carnegie Mellon University). Gaussian is a federally registered
 trademark of Gaussian, Inc.
  
 This software contains proprietary and confidential information,
 including trade secrets, belonging to Gaussian, Inc.
  
 This software is provided under written license and may be
 used, copied, transmitted, or stored only in accord with that
 written license.
  
 The following legend is applicable only to US Government
 contracts under FAR:
  
                    RESTRICTED RIGHTS LEGEND
  
 Use, reproduction and disclosure by the US Government is
 subject to restrictions as set forth in subparagraphs (a)
 and (c) of the Commercial Computer Software - Restricted
 Rights clause in FAR 52.227-19.
  
 Gaussian, Inc.
 340 Quinnipiac St., Bldg. 40, Wallingford CT 06492
  
  
 ---------------------------------------------------------------
 Warning -- This program may not be used in any manner that
 competes with the business of Gaussian, Inc. or will provide
 assistance to any competitor of Gaussian, Inc.  The licensee
 of this program is prohibited from giving any competitor of
 Gaussian, Inc. access to this program.  By using this program,
 the user acknowledges that Gaussian, Inc. is engaged in the
 business of creating and licensing software in the field of
 computational chemistry and represents and warrants to the
 licensee that it is not a competitor of Gaussian, Inc. and that
 it will not use this program in any manner prohibited above.
 ---------------------------------------------------------------
  

 Cite this work as:
 Gaussian 09, Revision C.01,
 M. J. Frisch, G. W. Trucks, H. B. Schlegel, G. E. Scuseria, 
 M. A. Robb, J. R. Cheeseman, G. Scalmani, V. Barone, B. Mennucci, 
 G. A. Petersson, H. Nakatsuji, M. Caricato, X. Li, H. P. Hratchian, 
 A. F. Izmaylov, J. Bloino, G. Zheng, J. L. Sonnenberg, M. Hada, 
 M. Ehara, K. Toyota, R. Fukuda, J. Hasegawa, M. Ishida, T. Nakajima, 
 Y. Honda, O. Kitao, H. Nakai, T. Vreven, J. A. Montgomery, Jr., 
 J. E. Peralta, F. Ogliaro, M. Bearpark, J. J. Heyd, E. Brothers, 
 K. N. Kudin, V. N. Staroverov, T. Keith, R. Kobayashi, J. Normand, 
 K. Raghavachari, A. Rendell, J. C. Burant, S. S. Iyengar, J. Tomasi, 
 M. Cossi, N. Rega, J. M. Millam, M. Klene, J. E. Knox, J. B. Cross, 
 V. Bakken, C. Adamo, J. Jaramillo, R. Gomperts, R. E. Stratmann, 
 O. Yazyev, A. J. Austin, R. Cammi, C. Pomelli, J. W. Ochterski, 
 R. L. Martin, K. Morokuma, V. G. Zakrzewski, G. A. Voth, 
 P. Salvador, J. J. Dannenberg, S. Dapprich, A. D. Daniels, 
 O. Farkas, J. B. Foresman, J. V. Ortiz, J. Cioslowski, 
 and D. J. Fox, Gaussian, Inc., Wallingford CT, 2010.
 
 ******************************************
 Gaussian 09:  AM64L-G09RevC.01 23-Sep-2011
                16-Feb-2018 
 ******************************************
 %nprocs=4
 Will use up to    4 processors via shared memory.
 %chk=frag20-conf2.chk
 ---------------------------------------------------------
 #B3LYP/6-31G* Integral=(Grid=UltraFine) freq Opt pop=none
 ---------------------------------------------------------
 1/14=-1,18=20,19=15,26=3,38=1/1,3;
 2/9=110,12=2,17=6,18=5,40=1/2;
 3/5=1,6=6,7=1,11=2,16=1,25=1,30=1,71=1,74=-5,75=-5/1,2,3;
 4//1;
 5/5=2,38=5/2;
 7//1,2,3,16;
 1/14=-1,18=20,19=15/3(2);
 2/9=110/2;
 99//99;
 2/9=110/2;
 3/5=1,6=6,7=1,11=2,16=1,25=1,30=1,71=1,74=-5,75=-5/1,2,3;
 4/5=5,16=3/1;
 5/5=2,38=5/2;
 7//1,2,3,16;
 1/14=-1,18=20,19=15/3(-5);
 2/9=110/2;
 99/9=1/99;
 -----------------------------
 Optimization for frag20-conf2
 -----------------------------
 Charge =  1 Multiplicity = 1
 Symbolic Z-Matrix:
 C                     0.75434  -1.4265    0.70605 
 C                     0.66168  -0.87657   1.97503 
 C                     2.98841  -1.01335   2.25033 
 C                     3.15126  -1.56227   0.97714 
 C                     2.00518  -1.77152   0.20793 
 C                     6.07108  -3.85214   0.5809 
 C                     6.14175  -5.34505   0.75092 
 C                     1.64456  -0.1084    4.06584 
 C                     4.53339  -1.92695   0.51979 
 N                     1.76812  -0.67636   2.71614 
 N                     4.80595  -3.33554   0.70447 
 O                     7.0595   -3.16636   0.32823 
 Cl                    2.07971  -2.47204  -1.36915 
 H                    -0.14863  -1.5838    0.12443 
 H                    -0.29036  -0.59699   2.41239 
 H                     3.82645  -0.83823   2.91721 
 H                     5.94668  -5.82591  -0.21123 
 H                     7.13859  -5.62435   1.10297 
 H                     5.40622  -5.68959   1.48337 
 H                     1.60475  -0.94257   4.77081 
 H                     2.51032   0.52909   4.2643 
 H                     0.73436   0.49369   4.12716 
 H                     4.68287  -1.67985  -0.53736 
 H                     5.28852  -1.35179   1.07019 
 H                     4.02637  -3.97555   0.83127 
 

 GradGradGradGradGradGradGradGradGradGradGradGradGradGradGradGradGradGrad
 Berny optimization.
 Initialization pass.
                           ----------------------------
                           !    Initial Parameters    !
                           ! (Angstroms and Degrees)  !
 --------------------------                            --------------------------
 ! Name  Definition              Value          Derivative Info.                !
 --------------------------------------------------------------------------------
 ! R1    R(1,2)                  1.3861         estimate D2E/DX2                !
 ! R2    R(1,5)                  1.3899         estimate D2E/DX2                !
 ! R3    R(1,14)                 1.0855         estimate D2E/DX2                !
 ! R4    R(2,10)                 1.3467         estimate D2E/DX2                !
 ! R5    R(2,15)                 1.0844         estimate D2E/DX2                !
 ! R6    R(3,4)                  1.396          estimate D2E/DX2                !
 ! R7    R(3,10)                 1.3489         estimate D2E/DX2                !
 ! R8    R(3,16)                 1.0852         estimate D2E/DX2                !
 ! R9    R(4,5)                  1.3961         estimate D2E/DX2                !
 ! R10   R(4,9)                  1.5008         estimate D2E/DX2                !
 ! R11   R(5,13)                 1.7273         estimate D2E/DX2                !
 ! R12   R(6,7)                  1.5042         estimate D2E/DX2                !
 ! R13   R(6,11)                 1.3721         estimate D2E/DX2                !
 ! R14   R(6,12)                 1.2293         estimate D2E/DX2                !
 ! R15   R(7,17)                 1.0932         estimate D2E/DX2                !
 ! R16   R(7,18)                 1.0935         estimate D2E/DX2                !
 ! R17   R(7,19)                 1.0937         estimate D2E/DX2                !
 ! R18   R(8,10)                 1.4695         estimate D2E/DX2                !
 ! R19   R(8,20)                 1.0929         estimate D2E/DX2                !
 ! R20   R(8,21)                 1.0933         estimate D2E/DX2                !
 ! R21   R(8,22)                 1.093          estimate D2E/DX2                !
 ! R22   R(9,11)                 1.4466         estimate D2E/DX2                !
 ! R23   R(9,23)                 1.0959         estimate D2E/DX2                !
 ! R24   R(9,24)                 1.0973         estimate D2E/DX2                !
 ! R25   R(11,25)                1.0166         estimate D2E/DX2                !
 ! A1    A(2,1,5)              119.1275         estimate D2E/DX2                !
 ! A2    A(2,1,14)             119.4987         estimate D2E/DX2                !
 ! A3    A(5,1,14)             121.373          estimate D2E/DX2                !
 ! A4    A(1,2,10)             120.5223         estimate D2E/DX2                !
 ! A5    A(1,2,15)             122.0212         estimate D2E/DX2                !
 ! A6    A(10,2,15)            117.4557         estimate D2E/DX2                !
 ! A7    A(4,3,10)             121.2443         estimate D2E/DX2                !
 ! A8    A(4,3,16)             122.2634         estimate D2E/DX2                !
 ! A9    A(10,3,16)            116.4919         estimate D2E/DX2                !
 ! A10   A(3,4,5)              117.7543         estimate D2E/DX2                !
 ! A11   A(3,4,9)              118.7442         estimate D2E/DX2                !
 ! A12   A(5,4,9)              123.4834         estimate D2E/DX2                !
 ! A13   A(1,5,4)              120.2743         estimate D2E/DX2                !
 ! A14   A(1,5,13)             117.8227         estimate D2E/DX2                !
 ! A15   A(4,5,13)             121.9004         estimate D2E/DX2                !
 ! A16   A(7,6,11)             114.0043         estimate D2E/DX2                !
 ! A17   A(7,6,12)             122.6251         estimate D2E/DX2                !
 ! A18   A(11,6,12)            123.3564         estimate D2E/DX2                !
 ! A19   A(6,7,17)             109.1907         estimate D2E/DX2                !
 ! A20   A(6,7,18)             109.4345         estimate D2E/DX2                !
 ! A21   A(6,7,19)             110.9007         estimate D2E/DX2                !
 ! A22   A(17,7,18)            109.4936         estimate D2E/DX2                !
 ! A23   A(17,7,19)            109.3205         estimate D2E/DX2                !
 ! A24   A(18,7,19)            108.4817         estimate D2E/DX2                !
 ! A25   A(10,8,20)            107.4885         estimate D2E/DX2                !
 ! A26   A(10,8,21)            108.9957         estimate D2E/DX2                !
 ! A27   A(10,8,22)            109.5379         estimate D2E/DX2                !
 ! A28   A(20,8,21)            110.9044         estimate D2E/DX2                !
 ! A29   A(20,8,22)            110.7274         estimate D2E/DX2                !
 ! A30   A(21,8,22)            109.1497         estimate D2E/DX2                !
 ! A31   A(4,9,11)             111.7913         estimate D2E/DX2                !
 ! A32   A(4,9,23)             111.3946         estimate D2E/DX2                !
 ! A33   A(4,9,24)             110.7044         estimate D2E/DX2                !
 ! A34   A(11,9,23)            108.4829         estimate D2E/DX2                !
 ! A35   A(11,9,24)            108.4643         estimate D2E/DX2                !
 ! A36   A(23,9,24)            105.7724         estimate D2E/DX2                !
 ! A37   A(2,10,3)             121.0697         estimate D2E/DX2                !
 ! A38   A(2,10,8)             119.5923         estimate D2E/DX2                !
 ! A39   A(3,10,8)             119.3249         estimate D2E/DX2                !
 ! A40   A(6,11,9)             121.9277         estimate D2E/DX2                !
 ! A41   A(6,11,25)            118.7687         estimate D2E/DX2                !
 ! A42   A(9,11,25)            118.9783         estimate D2E/DX2                !
 ! D1    D(5,1,2,10)             0.1115         estimate D2E/DX2                !
 ! D2    D(5,1,2,15)          -179.5544         estimate D2E/DX2                !
 ! D3    D(14,1,2,10)          179.7897         estimate D2E/DX2                !
 ! D4    D(14,1,2,15)            0.1238         estimate D2E/DX2                !
 ! D5    D(2,1,5,4)             -0.1638         estimate D2E/DX2                !
 ! D6    D(2,1,5,13)           179.2653         estimate D2E/DX2                !
 ! D7    D(14,1,5,4)          -179.8357         estimate D2E/DX2                !
 ! D8    D(14,1,5,13)           -0.4066         estimate D2E/DX2                !
 ! D9    D(1,2,10,3)            -0.5214         estimate D2E/DX2                !
 ! D10   D(1,2,10,8)          -179.1969         estimate D2E/DX2                !
 ! D11   D(15,2,10,3)          179.1594         estimate D2E/DX2                !
 ! D12   D(15,2,10,8)            0.4839         estimate D2E/DX2                !
 ! D13   D(10,3,4,5)            -1.0043         estimate D2E/DX2                !
 ! D14   D(10,3,4,9)          -179.5112         estimate D2E/DX2                !
 ! D15   D(16,3,4,5)           178.7612         estimate D2E/DX2                !
 ! D16   D(16,3,4,9)             0.2543         estimate D2E/DX2                !
 ! D17   D(4,3,10,2)             0.9846         estimate D2E/DX2                !
 ! D18   D(4,3,10,8)           179.6636         estimate D2E/DX2                !
 ! D19   D(16,3,10,2)         -178.7939         estimate D2E/DX2                !
 ! D20   D(16,3,10,8)           -0.1148         estimate D2E/DX2                !
 ! D21   D(3,4,5,1)              0.5927         estimate D2E/DX2                !
 ! D22   D(3,4,5,13)          -178.8126         estimate D2E/DX2                !
 ! D23   D(9,4,5,1)            179.023          estimate D2E/DX2                !
 ! D24   D(9,4,5,13)            -0.3822         estimate D2E/DX2                !
 ! D25   D(3,4,9,11)            97.7591         estimate D2E/DX2                !
 ! D26   D(3,4,9,23)          -140.6857         estimate D2E/DX2                !
 ! D27   D(3,4,9,24)           -23.2878         estimate D2E/DX2                !
 ! D28   D(5,4,9,11)           -80.6566         estimate D2E/DX2                !
 ! D29   D(5,4,9,23)            40.8986         estimate D2E/DX2                !
 ! D30   D(5,4,9,24)           158.2965         estimate D2E/DX2                !
 ! D31   D(11,6,7,17)           86.453          estimate D2E/DX2                !
 ! D32   D(11,6,7,18)         -153.713          estimate D2E/DX2                !
 ! D33   D(11,6,7,19)          -34.0715         estimate D2E/DX2                !
 ! D34   D(12,6,7,17)          -92.2159         estimate D2E/DX2                !
 ! D35   D(12,6,7,18)           27.6181         estimate D2E/DX2                !
 ! D36   D(12,6,7,19)          147.2595         estimate D2E/DX2                !
 ! D37   D(7,6,11,9)          -177.4993         estimate D2E/DX2                !
 ! D38   D(7,6,11,25)           -4.1186         estimate D2E/DX2                !
 ! D39   D(12,6,11,9)            1.1586         estimate D2E/DX2                !
 ! D40   D(12,6,11,25)         174.5393         estimate D2E/DX2                !
 ! D41   D(20,8,10,2)           94.3689         estimate D2E/DX2                !
 ! D42   D(20,8,10,3)          -84.3299         estimate D2E/DX2                !
 ! D43   D(21,8,10,2)         -145.3588         estimate D2E/DX2                !
 ! D44   D(21,8,10,3)           35.9424         estimate D2E/DX2                !
 ! D45   D(22,8,10,2)          -25.9994         estimate D2E/DX2                !
 ! D46   D(22,8,10,3)          155.3018         estimate D2E/DX2                !
 ! D47   D(4,9,11,6)          -168.3094         estimate D2E/DX2                !
 ! D48   D(4,9,11,25)           18.3234         estimate D2E/DX2                !
 ! D49   D(23,9,11,6)           68.47           estimate D2E/DX2                !
 ! D50   D(23,9,11,25)        -104.8972         estimate D2E/DX2                !
 ! D51   D(24,9,11,6)          -45.9716         estimate D2E/DX2                !
 ! D52   D(24,9,11,25)         140.6612         estimate D2E/DX2                !
 --------------------------------------------------------------------------------
 Trust Radius=3.00D-01 FncErr=1.00D-07 GrdErr=1.00D-06
 Number of steps in this run=    129 maximum allowed number of steps=    150.
 GradGradGradGradGradGradGradGradGradGradGradGradGradGradGradGradGradGrad

                          Input orientation:                          
 ---------------------------------------------------------------------
 Center     Atomic      Atomic             Coordinates (Angstroms)
 Number     Number       Type             X           Y           Z
 ---------------------------------------------------------------------
      1          6           0        0.754339   -1.426496    0.706054
      2          6           0        0.661677   -0.876568    1.975034
      3          6           0        2.988412   -1.013348    2.250329
      4          6           0        3.151262   -1.562273    0.977144
      5          6           0        2.005178   -1.771523    0.207933
      6          6           0        6.071084   -3.852144    0.580897
      7          6           0        6.141751   -5.345048    0.750915
      8          6           0        1.644561   -0.108401    4.065839
      9          6           0        4.533390   -1.926954    0.519792
     10          7           0        1.768115   -0.676362    2.716136
     11          7           0        4.805949   -3.335542    0.704468
     12          8           0        7.059500   -3.166363    0.328228
     13         17           0        2.079707   -2.472040   -1.369152
     14          1           0       -0.148627   -1.583798    0.124427
     15          1           0       -0.290359   -0.596989    2.412388
     16          1           0        3.826445   -0.838232    2.917206
     17          1           0        5.946678   -5.825913   -0.211226
     18          1           0        7.138587   -5.624349    1.102972
     19          1           0        5.406219   -5.689586    1.483371
     20          1           0        1.604747   -0.942571    4.770806
     21          1           0        2.510321    0.529090    4.264298
     22          1           0        0.734365    0.493692    4.127155
     23          1           0        4.682872   -1.679845   -0.537362
     24          1           0        5.288521   -1.351794    1.070193
     25          1           0        4.026372   -3.975546    0.831273
 ---------------------------------------------------------------------
                    Distance matrix (angstroms):
                    1          2          3          4          5
     1  C    0.000000
     2  C    1.386116   0.000000
     3  C    2.747100   2.346954   0.000000
     4  C    2.416022   2.768395   1.396008   0.000000
     5  C    1.389880   2.393446   2.390179   1.396058   0.000000
     6  C    5.845273   6.329247   4.510947   3.731741   4.582541
     7  C    6.661927   7.176141   5.563759   4.827380   5.493282
     8  C    3.717261   2.434668   2.433299   3.731479   4.216569
     9  C    3.816592   4.267459   2.493269   1.500813   2.552111
    10  N    2.372946   1.346670   1.348947   2.392076   2.747118
    11  N    4.478839   4.983561   3.329521   2.440661   3.246078
    12  O    6.551713   6.991943   4.990361   4.274169   5.244637
    13  Cl   2.675116   3.967357   4.006766   2.735144   1.727275
    14  H    1.085533   2.140447   3.832217   3.408351   2.163583
    15  H    2.165884   1.084351   3.309072   3.851812   3.392439
    16  H    3.830546   3.302259   1.085215   2.178061   3.395320
    17  H    6.867070   7.563530   6.162092   5.234998   5.670026
    18  H    7.651022   8.077889   6.308860   5.693422   6.480529
    19  H    6.357526   6.776250   5.319889   4.730308   5.342756
    20  H    4.180859   2.951285   2.876168   4.143382   4.654816
    21  H    4.423674   3.260995   2.581426   3.948416   4.690638
    22  H    3.923195   2.552356   3.297632   4.471125   4.701751
    23  H    4.128395   4.809096   3.329660   2.157170   2.780992
    24  H    4.549394   4.738382   2.607253   2.149613   3.420527
    25  H    4.149642   4.715191   3.444662   2.571183   3.054749
                    6          7          8          9         10
     6  C    0.000000
     7  C    1.504215   0.000000
     8  C    6.764211   7.657410   0.000000
     9  C    2.464670   3.784655   4.922085   0.000000
    10  N    5.758505   6.692340   1.469539   3.746285   0.000000
    11  N    1.372121   2.413429   5.630953   1.446553   4.510707
    12  O    1.229269   2.401582   7.255511   2.820295   6.316721
    13  Cl   4.651718   5.408240   5.942666   3.144168   4.473380
    14  H    6.636157   7.355838   4.574609   4.711195   3.348776
    15  H    7.376881   8.165574   2.591628   5.349699   2.082278
    16  H    4.424976   5.510431   2.571504   2.726294   2.074452
    17  H    2.130422   1.093160   8.336153   4.211134   7.248980
    18  H    2.133737   1.093452   8.329982   4.560469   7.478425
    19  H    2.152369   1.093711   7.208942   3.980919   6.315688
    20  H    6.780054   7.491711   1.092888   5.255196   2.078275
    21  H    6.741046   7.748332   1.093307   4.913887   2.097806
    22  H    7.742275   8.644635   1.093038   5.771065   2.104434
    23  H    2.810075   4.149904   5.735001   1.095894   4.481968
    24  H    2.665252   4.095854   4.878357   1.097257   3.944438
    25  H    2.063678   2.521274   5.575864   2.133264   4.420073
                   11         12         13         14         15
    11  N    0.000000
    12  O    2.290998   0.000000
    13  Cl   3.532412   5.306743   0.000000
    14  H    5.287048   7.382624   2.825814   0.000000
    15  H    6.032331   8.060139   4.840773   2.495726   0.000000
    16  H    3.477383   4.751383   4.908491   4.914945   4.154650
    17  H    2.888201   2.933017   5.248116   7.433771   8.551353
    18  H    3.292209   2.578406   6.452962   8.389702   9.065218
    19  H    2.551183   3.230223   5.436467   7.039925   7.697313
    20  H    5.701676   7.378082   6.345388   5.007428   3.045158
    21  H    5.733906   7.060032   6.397498   5.354702   3.541389
    22  H    6.554054   8.236212   6.388655   4.595375   2.275977
    23  H    2.073312   2.933827   2.845333   4.877559   5.882741
    24  H    2.074099   2.641882   4.183521   5.523666   5.787497
    25  H    1.016574   3.179260   3.300289   4.863199   5.705150
                   16         17         18         19         20
    16  H    0.000000
    17  H    6.257750   0.000000
    18  H    6.096609   1.785607   0.000000
    19  H    5.299736   1.783911   1.774840   0.000000
    20  H    2.895284   8.217058   8.123758   6.913218   0.000000
    21  H    2.327319   8.498525   8.323439   7.402143   1.800667
    22  H    3.577564   9.269691   9.358962   8.188330   1.798528
    23  H    3.657296   4.346659   4.927509   4.548034   6.180217
    24  H    2.410989   4.700313   4.656022   4.359014   5.237575
    25  H    3.772774   2.863257   3.532458   2.295026   5.530201
                   21         22         23         24         25
    21  H    0.000000
    22  H    1.781595   0.000000
    23  H    5.714483   6.486347   0.000000
    24  H    4.632325   5.787156   1.748903   0.000000
    25  H    5.863089   6.455559   2.752162   2.921331   0.000000
 Stoichiometry    C9H12ClN2O(1+)
 Framework group  C1[X(C9H12ClN2O)]
 Deg. of freedom    69
 Full point group                 C1      NOp   1
 Largest Abelian subgroup         C1      NOp   1
 Largest concise Abelian subgroup C1      NOp   1
                         Standard orientation:                         
 ---------------------------------------------------------------------
 Center     Atomic      Atomic             Coordinates (Angstroms)
 Number     Number       Type             X           Y           Z
 ---------------------------------------------------------------------
      1          6           0        2.339639    1.223922    0.360821
      2          6           0        3.094282    0.063060    0.425850
      3          6           0        1.278125   -1.210898   -0.340176
      4          6           0        0.467680   -0.078382   -0.437263
      5          6           0        1.020667    1.150101   -0.071186
      6          6           0       -3.181926   -0.671655    0.067010
      7          6           0       -3.993396   -0.601316    1.331617
      8          6           0        3.372087   -2.341822    0.167049
      9          6           0       -0.952582   -0.244161   -0.893131
     10          7           0        2.558993   -1.121312    0.073359
     11          7           0       -1.872410   -0.292471    0.222261
     12          8           0       -3.663050   -1.014578   -1.010964
     13         17           0        0.105445    2.614133   -0.120779
     14          1           0        2.786807    2.169176    0.652228
     15          1           0        4.124998    0.065441    0.762653
     16          1           0        0.917368   -2.204273   -0.586656
     17          1           0       -4.391957    0.410033    1.447037
     18          1           0       -4.819936   -1.314837    1.273688
     19          1           0       -3.380738   -0.850417    2.202709
     20          1           0        3.165699   -2.800266    1.137429
     21          1           0        3.097761   -3.015698   -0.649013
     22          1           0        4.430495   -2.083651    0.078441
     23          1           0       -1.256498    0.571454   -1.559005
     24          1           0       -1.067192   -1.165296   -1.478236
     25          1           0       -1.568515    0.058095    1.126791
 ---------------------------------------------------------------------
 Rotational constants (GHZ):      0.9906379      0.4107076      0.3172303
 Standard basis: 6-31G(d) (6D, 7F)
 There are   223 symmetry adapted basis functions of A   symmetry.
 Integral buffers will be    131072 words long.
 Raffenetti 2 integral format.
 Two-electron integral symmetry is turned on.
   223 basis functions,   436 primitive gaussians,   223 cartesian basis functions
    52 alpha electrons       52 beta electrons
       nuclear repulsion energy       871.6777431411 Hartrees.
 NAtoms=   25 NActive=   25 NUniq=   25 SFac= 1.00D+00 NAtFMM=   60 NAOKFM=F Big=F
 One-electron integrals computed using PRISM.
 NBasis=   223 RedAO= T  NBF=   223
 NBsUse=   223 1.00D-06 NBFU=   223
 Harris functional with IExCor=  402 diagonalized for initial guess.
 ExpMin= 1.43D-01 ExpMax= 2.52D+04 ExpMxC= 3.78D+03 IAcc=3 IRadAn=         5 AccDes= 0.00D+00
 HarFok:  IExCor=  402 AccDes= 0.00D+00 IRadAn=         5 IDoV= 1
 ScaDFX=  1.000000  1.000000  1.000000  1.000000
 FoFCou: FMM=F IPFlag=           0 FMFlag=      100000 FMFlg1=           0
         NFxFlg=           0 DoJE=T BraDBF=F KetDBF=T FulRan=T
         Omega=  0.000000  0.000000  1.000000  0.000000  0.000000 ICntrl=     500 IOpCl=  0
         NMat0=    1 NMatS0=    1 NMatT0=    0 NMatD0=    1 NMtDS0=    0 NMtDT0=    0
         I1Cent=           4 NGrid=           0.
 Petite list used in FoFCou.
 Initial guess orbital symmetries:
       Occupied  (A) (A) (A) (A) (A) (A) (A) (A) (A) (A) (A) (A)
                 (A) (A) (A) (A) (A) (A) (A) (A) (A) (A) (A) (A)
                 (A) (A) (A) (A) (A) (A) (A) (A) (A) (A) (A) (A)
                 (A) (A) (A) (A) (A) (A) (A) (A) (A) (A) (A) (A)
                 (A) (A) (A) (A)
       Virtual   (A) (A) (A) (A) (A) (A) (A) (A) (A) (A) (A) (A)
                 (A) (A) (A) (A) (A) (A) (A) (A) (A) (A) (A) (A)
                 (A) (A) (A) (A) (A) (A) (A) (A) (A) (A) (A) (A)
                 (A) (A) (A) (A) (A) (A) (A) (A) (A) (A) (A) (A)
                 (A) (A) (A) (A) (A) (A) (A) (A) (A) (A) (A) (A)
                 (A) (A) (A) (A) (A) (A) (A) (A) (A) (A) (A) (A)
                 (A) (A) (A) (A) (A) (A) (A) (A) (A) (A) (A) (A)
                 (A) (A) (A) (A) (A) (A) (A) (A) (A) (A) (A) (A)
                 (A) (A) (A) (A) (A) (A) (A) (A) (A) (A) (A) (A)
                 (A) (A) (A) (A) (A) (A) (A) (A) (A) (A) (A) (A)
                 (A) (A) (A) (A) (A) (A) (A) (A) (A) (A) (A) (A)
                 (A) (A) (A) (A) (A) (A) (A) (A) (A) (A) (A) (A)
                 (A) (A) (A) (A) (A) (A) (A) (A) (A) (A) (A) (A)
                 (A) (A) (A) (A) (A) (A) (A) (A) (A) (A) (A) (A)
                 (A) (A) (A)
 The electronic state of the initial guess is 1-A.
 Requested convergence on RMS density matrix=1.00D-08 within 128 cycles.
 Requested convergence on MAX density matrix=1.00D-06.
 Requested convergence on             energy=1.00D-06.
 No special actions if energy rises.
 Integral accuracy reduced to 1.0D-05 until final iterations.
 EnCoef did     2 forward-backward iterations
 Initial convergence to 1.0D-05 achieved.  Increase integral accuracy.
 SCF Done:  E(RB3LYP) =  -994.882098205     A.U. after   17 cycles
             Convg  =    0.4337D-08             -V/T =  2.0065
 Calling FoFJK, ICntrl=      2127 FMM=F ISym2X=0 I1Cent= 0 IOpClX= 0 NMat=1 NMatS=1 NMatT=0.
 ***** Axes restored to original set *****
 -------------------------------------------------------------------
 Center     Atomic                   Forces (Hartrees/Bohr)
 Number     Number              X              Y              Z
 -------------------------------------------------------------------
      1        6          -0.009345732    0.004115528    0.008690049
      2        6          -0.005761123   -0.003549699   -0.010278423
      3        6          -0.000615145   -0.003667785   -0.010109771
      4        6           0.011834097    0.001456868    0.010968194
      5        6          -0.005459968   -0.003872338   -0.009984218
      6        6           0.021809882    0.003448545   -0.005635773
      7        6          -0.000149206   -0.004147184    0.005734852
      8        6           0.000229501    0.002054955    0.006939739
      9        6           0.013351835    0.002034174   -0.008135078
     10        7           0.000633581    0.003131562   -0.000368500
     11        7          -0.012538493   -0.005245324    0.008875644
     12        8          -0.017585549    0.000929318    0.004074498
     13       17           0.002465813    0.000909678    0.001463403
     14        1           0.001271185    0.000383726    0.000442750
     15        1           0.001289246    0.000608861    0.000311891
     16        1          -0.000130110    0.000014807   -0.001747486
     17        1           0.000643642   -0.002876104   -0.000624602
     18        1          -0.000884537    0.000734067   -0.002882365
     19        1          -0.001259449   -0.003703893   -0.000794507
     20        1          -0.000306119    0.002971824    0.003617413
     21        1          -0.001714707   -0.001627842    0.001136001
     22        1           0.001662408   -0.001877525    0.000417741
     23        1          -0.003360131    0.005442358   -0.001007266
     24        1          -0.001171302   -0.000384127    0.000146033
     25        1           0.005090381    0.002715552   -0.001250219
 -------------------------------------------------------------------
 Cartesian Forces:  Max     0.021809882 RMS     0.005761688

 GradGradGradGradGradGradGradGradGradGradGradGradGradGradGradGradGradGrad
 Berny optimization.
 Internal  Forces:  Max     0.016999121 RMS     0.004002468
 Search for a local minimum.
 Step number   1 out of a maximum of  129
 All quantities printed in internal units (Hartrees-Bohrs-Radians)
 Mixed Optimization -- RFO/linear search
 Second derivative matrix not updated -- first step.
 ITU=  0
     Eigenvalues ---    0.00710   0.00755   0.00772   0.01076   0.01257
     Eigenvalues ---    0.01490   0.01575   0.01743   0.02061   0.02159
     Eigenvalues ---    0.02181   0.02247   0.02247   0.02252   0.02330
     Eigenvalues ---    0.02366   0.05126   0.06564   0.07352   0.07512
     Eigenvalues ---    0.07627   0.07760   0.10033   0.13282   0.15930
     Eigenvalues ---    0.16000   0.16000   0.16000   0.16000   0.16000
     Eigenvalues ---    0.16000   0.16000   0.16000   0.16000   0.21921
     Eigenvalues ---    0.22015   0.22367   0.23499   0.24593   0.24990
     Eigenvalues ---    0.24994   0.24994   0.24999   0.25000   0.31939
     Eigenvalues ---    0.32292   0.32798   0.33987   0.34140   0.34387
     Eigenvalues ---    0.34417   0.34433   0.34450   0.34464   0.34481
     Eigenvalues ---    0.35334   0.35372   0.35474   0.35795   0.38700
     Eigenvalues ---    0.42976   0.44020   0.44889   0.46693   0.47512
     Eigenvalues ---    0.50571   0.53295   0.54874   0.91392
 RFO step:  Lambda=-7.01730045D-03 EMin= 7.10194212D-03
 Linear search not attempted -- first point.
 Iteration  1 RMS(Cart)=  0.07696132 RMS(Int)=  0.00240175
 Iteration  2 RMS(Cart)=  0.00411320 RMS(Int)=  0.00013223
 Iteration  3 RMS(Cart)=  0.00001204 RMS(Int)=  0.00013212
 Iteration  4 RMS(Cart)=  0.00000000 RMS(Int)=  0.00013212
 Variable       Old X    -DE/DX   Delta X   Delta X   Delta X     New X
                                 (Linear)    (Quad)   (Total)
    R1        2.61938  -0.00414   0.00000  -0.00825  -0.00829   2.61109
    R2        2.62649   0.00986   0.00000   0.02097   0.02096   2.64745
    R3        2.05136  -0.00135   0.00000  -0.00375  -0.00375   2.04761
    R4        2.54484   0.00728   0.00000   0.01274   0.01272   2.55755
    R5        2.04913  -0.00085   0.00000  -0.00235  -0.00235   2.04678
    R6        2.63807  -0.00528   0.00000  -0.01152  -0.01149   2.62659
    R7        2.54914   0.00637   0.00000   0.01102   0.01103   2.56017
    R8        2.05076  -0.00117   0.00000  -0.00325  -0.00325   2.04751
    R9        2.63817   0.01084   0.00000   0.02327   0.02329   2.66146
   R10        2.83613   0.00435   0.00000   0.01318   0.01318   2.84930
   R11        3.26408  -0.00160   0.00000  -0.00477  -0.00477   3.25930
   R12        2.84255   0.01000   0.00000   0.03064   0.03064   2.87320
   R13        2.59293   0.00450   0.00000   0.00878   0.00878   2.60171
   R14        2.32298  -0.01446   0.00000  -0.01570  -0.01570   2.30728
   R15        2.06577   0.00170   0.00000   0.00484   0.00484   2.07061
   R16        2.06632  -0.00192   0.00000  -0.00547  -0.00547   2.06085
   R17        2.06681   0.00148   0.00000   0.00422   0.00422   2.07104
   R18        2.77703   0.01172   0.00000   0.03212   0.03212   2.80914
   R19        2.06526   0.00008   0.00000   0.00022   0.00022   2.06548
   R20        2.06605  -0.00210   0.00000  -0.00598  -0.00598   2.06007
   R21        2.06554  -0.00239   0.00000  -0.00681  -0.00681   2.05873
   R22        2.73359   0.00797   0.00000   0.02023   0.02023   2.75382
   R23        2.07094   0.00174   0.00000   0.00500   0.00500   2.07593
   R24        2.07352  -0.00093   0.00000  -0.00269  -0.00269   2.07082
   R25        1.92105  -0.00577   0.00000  -0.01265  -0.01265   1.90839
    A1        2.07917   0.00046   0.00000   0.00287   0.00284   2.08201
    A2        2.08565   0.00000   0.00000  -0.00005  -0.00007   2.08558
    A3        2.11836  -0.00046   0.00000  -0.00277  -0.00278   2.11558
    A4        2.10351   0.00058   0.00000   0.00207   0.00204   2.10555
    A5        2.12967   0.00078   0.00000   0.00541   0.00541   2.13509
    A6        2.04999  -0.00137   0.00000  -0.00745  -0.00744   2.04255
    A7        2.11611   0.00557   0.00000   0.02245   0.02252   2.13863
    A8        2.13390  -0.00394   0.00000  -0.01810  -0.01815   2.11575
    A9        2.03317  -0.00163   0.00000  -0.00432  -0.00437   2.02880
   A10        2.05520  -0.00383   0.00000  -0.01539  -0.01544   2.03976
   A11        2.07248   0.00141   0.00000   0.00603   0.00586   2.07834
   A12        2.15519   0.00244   0.00000   0.01006   0.00989   2.16508
   A13        2.09918  -0.00017   0.00000   0.00001  -0.00002   2.09916
   A14        2.05639   0.00417   0.00000   0.01598   0.01589   2.07229
   A15        2.12756  -0.00400   0.00000  -0.01580  -0.01589   2.11167
   A16        1.98975   0.00902   0.00000   0.03522   0.03517   2.02492
   A17        2.14021   0.00798   0.00000   0.03118   0.03114   2.17135
   A18        2.15297  -0.01700   0.00000  -0.06603  -0.06608   2.08689
   A19        1.90574   0.00219   0.00000   0.00927   0.00910   1.91484
   A20        1.90999  -0.00203   0.00000  -0.01331  -0.01337   1.89662
   A21        1.93558   0.00504   0.00000   0.03522   0.03505   1.97063
   A22        1.91102  -0.00215   0.00000  -0.02312  -0.02317   1.88785
   A23        1.90800  -0.00320   0.00000  -0.01680  -0.01706   1.89094
   A24        1.89336   0.00005   0.00000   0.00797   0.00791   1.90127
   A25        1.87603   0.00669   0.00000   0.04114   0.04100   1.91702
   A26        1.90233   0.00093   0.00000   0.00537   0.00524   1.90758
   A27        1.91180  -0.00088   0.00000  -0.00618  -0.00620   1.90559
   A28        1.93565  -0.00329   0.00000  -0.01779  -0.01804   1.91761
   A29        1.93256  -0.00283   0.00000  -0.01664  -0.01667   1.91589
   A30        1.90502  -0.00048   0.00000  -0.00503  -0.00504   1.89998
   A31        1.95113  -0.00082   0.00000  -0.00290  -0.00298   1.94815
   A32        1.94420  -0.00384   0.00000  -0.02508  -0.02536   1.91884
   A33        1.93216  -0.00043   0.00000  -0.01699  -0.01724   1.91492
   A34        1.89338   0.00594   0.00000   0.05524   0.05529   1.94868
   A35        1.89306  -0.00067   0.00000  -0.00868  -0.00885   1.88421
   A36        1.84608   0.00004   0.00000   0.00014  -0.00031   1.84577
   A37        2.11307  -0.00261   0.00000  -0.01187  -0.01185   2.10122
   A38        2.08728   0.00179   0.00000   0.00784   0.00783   2.09510
   A39        2.08261   0.00081   0.00000   0.00400   0.00399   2.08660
   A40        2.12804  -0.01082   0.00000  -0.04816  -0.04828   2.07976
   A41        2.07291   0.00442   0.00000   0.01698   0.01687   2.08978
   A42        2.07656   0.00630   0.00000   0.02845   0.02832   2.10488
    D1        0.00195  -0.00007   0.00000  -0.00180  -0.00183   0.00011
    D2       -3.13382  -0.00020   0.00000  -0.00758  -0.00767  -3.14149
    D3        3.13792   0.00024   0.00000   0.00971   0.00977  -3.13549
    D4        0.00216   0.00011   0.00000   0.00393   0.00393   0.00609
    D5       -0.00286  -0.00007   0.00000  -0.00092  -0.00094  -0.00380
    D6        3.12877   0.00053   0.00000   0.02024   0.02046  -3.13396
    D7       -3.13873  -0.00039   0.00000  -0.01267  -0.01276   3.13170
    D8       -0.00710   0.00021   0.00000   0.00849   0.00864   0.00154
    D9       -0.00910   0.00031   0.00000   0.00805   0.00798  -0.00112
   D10       -3.12758   0.00034   0.00000   0.00972   0.00967  -3.11791
   D11        3.12692   0.00044   0.00000   0.01361   0.01356   3.14048
   D12        0.00844   0.00048   0.00000   0.01529   0.01525   0.02370
   D13       -0.01753   0.00017   0.00000   0.00816   0.00815  -0.00938
   D14       -3.13306  -0.00054   0.00000  -0.02083  -0.02060   3.12953
   D15        3.11997   0.00042   0.00000   0.01555   0.01543   3.13541
   D16        0.00444  -0.00029   0.00000  -0.01344  -0.01331  -0.00887
   D17        0.01718  -0.00030   0.00000  -0.01114  -0.01117   0.00601
   D18        3.13572  -0.00032   0.00000  -0.01276  -0.01280   3.12292
   D19       -3.12054  -0.00054   0.00000  -0.01809  -0.01808  -3.13862
   D20       -0.00200  -0.00055   0.00000  -0.01971  -0.01971  -0.02172
   D21        0.01034  -0.00001   0.00000  -0.00229  -0.00219   0.00815
   D22       -3.12087  -0.00068   0.00000  -0.02452  -0.02427   3.13805
   D23        3.12454   0.00072   0.00000   0.02809   0.02804  -3.13061
   D24       -0.00667   0.00005   0.00000   0.00586   0.00596  -0.00071
   D25        1.70622  -0.00178   0.00000  -0.01673  -0.01650   1.68972
   D26       -2.45543   0.00256   0.00000   0.03453   0.03439  -2.42104
   D27       -0.40645  -0.00008   0.00000   0.00810   0.00830  -0.39815
   D28       -1.40772  -0.00244   0.00000  -0.04708  -0.04704  -1.45476
   D29        0.71382   0.00190   0.00000   0.00418   0.00385   0.71766
   D30        2.76279  -0.00073   0.00000  -0.02225  -0.02224   2.74055
   D31        1.50889   0.00118   0.00000   0.02411   0.02440   1.53329
   D32       -2.68280  -0.00134   0.00000  -0.00651  -0.00631  -2.68910
   D33       -0.59466   0.00057   0.00000   0.01679   0.01692  -0.57774
   D34       -1.60947   0.00100   0.00000   0.00793   0.00780  -1.60167
   D35        0.48203  -0.00152   0.00000  -0.02269  -0.02291   0.45912
   D36        2.57016   0.00039   0.00000   0.00061   0.00032   2.57049
   D37       -3.09795   0.00095   0.00000   0.03855   0.03881  -3.05913
   D38       -0.07188   0.00040   0.00000   0.01295   0.01335  -0.05854
   D39        0.02022   0.00151   0.00000   0.05635   0.05595   0.07617
   D40        3.04629   0.00096   0.00000   0.03075   0.03048   3.07677
   D41        1.64705  -0.00018   0.00000  -0.00306  -0.00317   1.64388
   D42       -1.47184  -0.00010   0.00000  -0.00120  -0.00128  -1.47311
   D43       -2.53699   0.00030   0.00000   0.00260   0.00269  -2.53430
   D44        0.62731   0.00037   0.00000   0.00446   0.00458   0.63189
   D45       -0.45377  -0.00025   0.00000  -0.00397  -0.00399  -0.45777
   D46        2.71053  -0.00018   0.00000  -0.00211  -0.00210   2.70842
   D47       -2.93755   0.00036   0.00000   0.03216   0.03220  -2.90535
   D48        0.31980   0.00103   0.00000   0.05856   0.05868   0.37849
   D49        1.19503   0.00161   0.00000   0.02728   0.02719   1.22221
   D50       -1.83080   0.00228   0.00000   0.05369   0.05367  -1.77713
   D51       -0.80236  -0.00117   0.00000   0.00298   0.00291  -0.79945
   D52        2.45500  -0.00049   0.00000   0.02938   0.02939   2.48439
         Item               Value     Threshold  Converged?
 Maximum Force            0.016999     0.000450     NO 
 RMS     Force            0.004002     0.000300     NO 
 Maximum Displacement     0.346243     0.001800     NO 
 RMS     Displacement     0.078978     0.001200     NO 
 Predicted change in Energy=-3.684528D-03
 GradGradGradGradGradGradGradGradGradGradGradGradGradGradGradGradGradGrad

                          Input orientation:                          
 ---------------------------------------------------------------------
 Center     Atomic      Atomic             Coordinates (Angstroms)
 Number     Number       Type             X           Y           Z
 ---------------------------------------------------------------------
      1          6           0        0.710786   -1.367846    0.698797
      2          6           0        0.639001   -0.817116    1.963995
      3          6           0        2.962709   -1.043712    2.231107
      4          6           0        3.121075   -1.600257    0.967349
      5          6           0        1.955704   -1.765321    0.193913
      6          6           0        6.059518   -3.866012    0.619433
      7          6           0        6.239264   -5.370375    0.747070
      8          6           0        1.659231   -0.094408    4.083581
      9          6           0        4.503407   -1.984660    0.503868
     10          7           0        1.755683   -0.660532    2.712455
     11          7           0        4.767334   -3.401519    0.719393
     12          8           0        6.971118   -3.075638    0.432245
     13         17           0        2.030270   -2.440493   -1.391440
     14          1           0       -0.194167   -1.479403    0.113392
     15          1           0       -0.296899   -0.493227    2.402526
     16          1           0        3.810928   -0.890290    2.887574
     17          1           0        6.129902   -5.840432   -0.236641
     18          1           0        7.247732   -5.571899    1.109965
     19          1           0        5.516721   -5.829838    1.431118
     20          1           0        1.586472   -0.903614    4.814707
     21          1           0        2.543354    0.510132    4.286726
     22          1           0        0.776206    0.540460    4.147429
     23          1           0        4.637183   -1.703114   -0.549517
     24          1           0        5.252954   -1.412610    1.062248
     25          1           0        4.005579   -4.057181    0.817827
 ---------------------------------------------------------------------
                    Distance matrix (angstroms):
                    1          2          3          4          5
     1  C    0.000000
     2  C    1.381731   0.000000
     3  C    2.743027   2.349960   0.000000
     4  C    2.436315   2.786988   1.389930   0.000000
     5  C    1.400970   2.401247   2.384311   1.408382   0.000000
     6  C    5.903903   6.362830   4.489220   3.726813   4.629822
     7  C    6.825441   7.319564   5.626561   4.897491   5.625947
     8  C    3.738710   2.460857   2.455991   3.757056   4.243744
     9  C    3.847393   4.292873   2.498497   1.507787   2.575844
    10  N    2.376325   1.353399   1.354783   2.406819   2.757467
    11  N    4.537823   5.027057   3.331847   2.452793   3.295229
    12  O    6.494565   6.895135   4.840658   4.157634   5.189230
    13  Cl   2.694569   3.978684   3.992905   2.731253   1.724750
    14  H    1.083551   2.134836   3.826278   3.425591   2.170294
    15  H    2.164042   1.083108   3.310206   3.868824   3.401532
    16  H    3.824877   3.304462   1.083495   2.160373   3.385756
    17  H    7.088434   7.760573   6.255351   5.336826   5.849430
    18  H    7.782981   8.186125   6.334260   5.729186   6.582913
    19  H    6.598688   7.014520   5.483608   4.882986   5.543628
    20  H    4.233563   3.005286   2.930639   4.200295   4.714935
    21  H    4.445036   3.283782   2.610720   3.975646   4.719548
    22  H    3.941950   2.574727   3.310994   4.493772   4.726323
    23  H    4.133677   4.805017   3.312181   2.147101   2.783322
    24  H    4.556906   4.738810   2.597603   2.142224   3.427866
    25  H    4.254687   4.810985   3.487970   2.615565   3.137496
                    6          7          8          9         10
     6  C    0.000000
     7  C    1.520430   0.000000
     8  C    6.751877   7.742405   0.000000
     9  C    2.444242   3.812534   4.947397   0.000000
    10  N    5.760108   6.793222   1.486534   3.765789   0.000000
    11  N    1.376766   2.458402   5.649340   1.457257   4.533801
    12  O    1.220961   2.429103   7.101840   2.699067   6.183273
    13  Cl   4.723405   5.556354   5.968051   3.149029   4.481698
    14  H    6.712715   7.545213   4.595181   4.740776   3.350760
    15  H    7.413443   8.321571   2.609874   5.373287   2.082580
    16  H    4.365265   5.527181   2.587211   2.712789   2.075449
    17  H    2.153173   1.095719   8.465696   4.249802   7.393398
    18  H    2.136007   1.090556   8.371179   4.557077   7.540034
    19  H    2.193188   1.095945   7.403442   4.083135   6.519890
    20  H    6.810599   7.625359   1.093003   5.316061   2.123013
    21  H    6.705451   7.795465   1.090142   4.937186   2.114050
    22  H    7.731567   8.737587   1.089434   5.791700   2.112085
    23  H    2.840354   4.206734   5.737745   1.098537   4.475543
    24  H    2.620269   4.090971   4.876572   1.095832   3.939507
    25  H    2.072334   2.592071   5.645713   2.154472   4.493204
                   11         12         13         14         15
    11  N    0.000000
    12  O    2.246178   0.000000
    13  Cl   3.587577   5.304830   0.000000
    14  H    5.355208   7.347853   2.852426   0.000000
    15  H    6.077628   7.960837   4.858162   2.494641   0.000000
    16  H    3.452823   4.559736   4.887109   4.907537   4.155379
    17  H    2.952777   2.966334   5.449782   7.689925   8.767074
    18  H    3.318956   2.601372   6.579106   8.551230   9.186135
    19  H    2.639103   3.270877   5.622262   7.299104   7.951178
    20  H    5.755780   7.274481   6.408995   5.060096   3.087737
    21  H    5.742208   6.878943   6.419581   5.372987   3.553024
    22  H    6.574171   8.078099   6.413878   4.614642   2.294504
    23  H    2.124065   2.880093   2.836998   4.881745   5.875674
    24  H    2.075845   2.472783   4.178854   5.529549   5.782947
    25  H    1.009878   3.147463   3.375854   4.977855   5.807268
                   16         17         18         19         20
    16  H    0.000000
    17  H    6.296210   0.000000
    18  H    6.073629   1.770594   0.000000
    19  H    5.424954   1.776942   1.779345   0.000000
    20  H    2.943165   8.398276   8.219967   7.152847   0.000000
    21  H    2.350649   8.582181   8.319499   7.562448   1.786915
    22  H    3.583827   9.412646   9.405730   8.392349   1.785257
    23  H    3.627254   4.409479   4.953417   4.661153   6.222614
    24  H    2.384129   4.696994   4.613144   4.440443   5.270969
    25  H    3.788264   2.967260   3.590441   2.408731   5.636676
                   21         22         23         24         25
    21  H    0.000000
    22  H    1.772889   0.000000
    23  H    5.715926   6.480899   0.000000
    24  H    4.629917   5.777032   1.749671   0.000000
    25  H    5.918759   6.530958   2.794671   2.934185   0.000000
 Stoichiometry    C9H12ClN2O(1+)
 Framework group  C1[X(C9H12ClN2O)]
 Deg. of freedom    69
 Full point group                 C1      NOp   1
 Largest Abelian subgroup         C1      NOp   1
 Largest concise Abelian subgroup C1      NOp   1
                         Standard orientation:                         
 ---------------------------------------------------------------------
 Center     Atomic      Atomic             Coordinates (Angstroms)
 Number     Number       Type             X           Y           Z
 ---------------------------------------------------------------------
      1          6           0        2.396560    1.197522    0.354442
      2          6           0        3.116863    0.019522    0.406025
      3          6           0        1.240704   -1.198561   -0.314122
      4          6           0        0.449485   -0.058883   -0.397872
      5          6           0        1.054709    1.163404   -0.046792
      6          6           0       -3.200234   -0.658528    0.059412
      7          6           0       -4.126278   -0.594861    1.263612
      8          6           0        3.316698   -2.421122    0.162831
      9          6           0       -0.981512   -0.192114   -0.853852
     10          7           0        2.538168   -1.157903    0.073652
     11          7           0       -1.900826   -0.257809    0.274928
     12          8           0       -3.540101   -1.027994   -1.053570
     13         17           0        0.172388    2.643722   -0.117009
     14          1           0        2.879972    2.130447    0.619105
     15          1           0        4.156251   -0.011105    0.709106
     16          1           0        0.845200   -2.176351   -0.562046
     17          1           0       -4.579153    0.400721    1.329345
     18          1           0       -4.925947   -1.323859    1.127951
     19          1           0       -3.611974   -0.802904    2.208761
     20          1           0        3.142113   -2.896833    1.131270
     21          1           0        3.009061   -3.091323   -0.640038
     22          1           0        4.376668   -2.197211    0.047967
     23          1           0       -1.235496    0.630595   -1.536074
     24          1           0       -1.098982   -1.111050   -1.439178
     25          1           0       -1.630854    0.101265    1.179380
 ---------------------------------------------------------------------
 Rotational constants (GHZ):      0.9754448      0.4098329      0.3139622
 Standard basis: 6-31G(d) (6D, 7F)
 There are   223 symmetry adapted basis functions of A   symmetry.
 Integral buffers will be    131072 words long.
 Raffenetti 2 integral format.
 Two-electron integral symmetry is turned on.
   223 basis functions,   436 primitive gaussians,   223 cartesian basis functions
    52 alpha electrons       52 beta electrons
       nuclear repulsion energy       868.8613823027 Hartrees.
 NAtoms=   25 NActive=   25 NUniq=   25 SFac= 1.00D+00 NAtFMM=   60 NAOKFM=F Big=F
 One-electron integrals computed using PRISM.
 NBasis=   223 RedAO= T  NBF=   223
 NBsUse=   223 1.00D-06 NBFU=   223
 Initial guess read from the read-write file.
 B after Tr=     0.000000    0.000000    0.000000
         Rot=    1.000000    0.000000    0.000000    0.000000 Ang=   0.00 deg.
 Initial guess orbital symmetries:
       Occupied  (A) (A) (A) (A) (A) (A) (A) (A) (A) (A) (A) (A)
                 (A) (A) (A) (A) (A) (A) (A) (A) (A) (A) (A) (A)
                 (A) (A) (A) (A) (A) (A) (A) (A) (A) (A) (A) (A)
                 (A) (A) (A) (A) (A) (A) (A) (A) (A) (A) (A) (A)
                 (A) (A) (A) (A)
       Virtual   (A) (A) (A) (A) (A) (A) (A) (A) (A) (A) (A) (A)
                 (A) (A) (A) (A) (A) (A) (A) (A) (A) (A) (A) (A)
                 (A) (A) (A) (A) (A) (A) (A) (A) (A) (A) (A) (A)
                 (A) (A) (A) (A) (A) (A) (A) (A) (A) (A) (A) (A)
                 (A) (A) (A) (A) (A) (A) (A) (A) (A) (A) (A) (A)
                 (A) (A) (A) (A) (A) (A) (A) (A) (A) (A) (A) (A)
                 (A) (A) (A) (A) (A) (A) (A) (A) (A) (A) (A) (A)
                 (A) (A) (A) (A) (A) (A) (A) (A) (A) (A) (A) (A)
                 (A) (A) (A) (A) (A) (A) (A) (A) (A) (A) (A) (A)
                 (A) (A) (A) (A) (A) (A) (A) (A) (A) (A) (A) (A)
                 (A) (A) (A) (A) (A) (A) (A) (A) (A) (A) (A) (A)
                 (A) (A) (A) (A) (A) (A) (A) (A) (A) (A) (A) (A)
                 (A) (A) (A) (A) (A) (A) (A) (A) (A) (A) (A) (A)
                 (A) (A) (A) (A) (A) (A) (A) (A) (A) (A) (A) (A)
                 (A) (A) (A)
 Harris functional with IExCor=  402 diagonalized for initial guess.
 ExpMin= 1.43D-01 ExpMax= 2.52D+04 ExpMxC= 3.78D+03 IAcc=3 IRadAn=         5 AccDes= 0.00D+00
 HarFok:  IExCor=  402 AccDes= 0.00D+00 IRadAn=         5 IDoV= 1
 ScaDFX=  1.000000  1.000000  1.000000  1.000000
 FoFCou: FMM=F IPFlag=           0 FMFlag=      100000 FMFlg1=           0
         NFxFlg=           0 DoJE=T BraDBF=F KetDBF=T FulRan=T
         Omega=  0.000000  0.000000  1.000000  0.000000  0.000000 ICntrl=     500 IOpCl=  0
         NMat0=    1 NMatS0=    1 NMatT0=    0 NMatD0=    1 NMtDS0=    0 NMtDT0=    0
         I1Cent=           4 NGrid=           0.
 Petite list used in FoFCou.
 Requested convergence on RMS density matrix=1.00D-08 within 128 cycles.
 Requested convergence on MAX density matrix=1.00D-06.
 Requested convergence on             energy=1.00D-06.
 No special actions if energy rises.
 Integral accuracy reduced to 1.0D-05 until final iterations.
 Initial convergence to 1.0D-05 achieved.  Increase integral accuracy.
 SCF Done:  E(RB3LYP) =  -994.885541962     A.U. after   13 cycles
             Convg  =    0.3808D-08             -V/T =  2.0066
 Calling FoFJK, ICntrl=      2127 FMM=F ISym2X=0 I1Cent= 0 IOpClX= 0 NMat=1 NMatS=1 NMatT=0.
 ***** Axes restored to original set *****
 -------------------------------------------------------------------
 Center     Atomic                   Forces (Hartrees/Bohr)
 Number     Number              X              Y              Z
 -------------------------------------------------------------------
      1        6           0.000258079    0.000816848    0.002187556
      2        6          -0.000784236   -0.001077890   -0.002304642
      3        6          -0.001306952   -0.000460709   -0.001306216
      4        6           0.000850000   -0.000293278    0.002985181
      5        6          -0.002206260    0.000183060   -0.002774730
      6        6           0.005444696    0.001713183    0.000327699
      7        6          -0.000875391    0.001641756    0.001063171
      8        6          -0.000004318    0.000599024    0.000471276
      9        6           0.003729257   -0.000352815   -0.001086543
     10        7           0.001137356    0.000601174    0.002327237
     11        7          -0.007037637   -0.000549949    0.002716106
     12        8           0.001597198   -0.001914344   -0.000461606
     13       17           0.000197668    0.000294267    0.001605437
     14        1           0.000216629   -0.000213289   -0.000425024
     15        1           0.000109487    0.000303502    0.000295978
     16        1           0.000312738    0.000187492    0.000216317
     17        1           0.000084766    0.000072678   -0.000312321
     18        1           0.000695458    0.000440277   -0.000401055
     19        1          -0.000376330    0.000670443   -0.000802671
     20        1           0.000058886   -0.000623931   -0.000928926
     21        1           0.000583636   -0.000304540   -0.000620764
     22        1          -0.000575963   -0.000150605   -0.000583119
     23        1          -0.000935428   -0.001018226    0.000124635
     24        1          -0.000010007   -0.000948837   -0.000484947
     25        1          -0.001163331    0.000384708   -0.001828029
 -------------------------------------------------------------------
 Cartesian Forces:  Max     0.007037637 RMS     0.001542900

 GradGradGradGradGradGradGradGradGradGradGradGradGradGradGradGradGradGrad
 Berny optimization.
 Using GEDIIS/GDIIS optimizer.
 Internal  Forces:  Max     0.005325314 RMS     0.000989873
 Search for a local minimum.
 Step number   2 out of a maximum of  129
 All quantities printed in internal units (Hartrees-Bohrs-Radians)
 Mixed Optimization -- En-DIIS/RFO-DIIS
 Update second derivatives using D2CorX and points    1    2
 DE= -3.44D-03 DEPred=-3.68D-03 R= 9.35D-01
 SS=  1.41D+00  RLast= 2.26D-01 DXNew= 5.0454D-01 6.7672D-01
 Trust test= 9.35D-01 RLast= 2.26D-01 DXMaxT set to 5.05D-01
 ITU=  1  0
 Use linear search instead of GDIIS.
     Eigenvalues ---    0.00710   0.00755   0.00772   0.01048   0.01221
     Eigenvalues ---    0.01491   0.01567   0.01735   0.02076   0.02159
     Eigenvalues ---    0.02193   0.02248   0.02249   0.02253   0.02329
     Eigenvalues ---    0.02366   0.05135   0.06615   0.07055   0.07487
     Eigenvalues ---    0.07510   0.07619   0.10090   0.13225   0.15726
     Eigenvalues ---    0.15926   0.16000   0.16000   0.16000   0.16000
     Eigenvalues ---    0.16000   0.16000   0.16000   0.16593   0.20441
     Eigenvalues ---    0.21921   0.22358   0.23417   0.24576   0.24918
     Eigenvalues ---    0.24992   0.25000   0.25000   0.27361   0.32104
     Eigenvalues ---    0.32607   0.32978   0.33972   0.34164   0.34394
     Eigenvalues ---    0.34423   0.34442   0.34447   0.34480   0.34534
     Eigenvalues ---    0.35334   0.35378   0.35475   0.36489   0.39826
     Eigenvalues ---    0.43028   0.43436   0.44939   0.46679   0.47377
     Eigenvalues ---    0.50498   0.53545   0.54856   0.91304
 RFO step:  Lambda=-6.66990235D-04 EMin= 7.09862248D-03
 Quartic linear search produced a step of -0.02474.
 Iteration  1 RMS(Cart)=  0.03211825 RMS(Int)=  0.00063911
 Iteration  2 RMS(Cart)=  0.00088743 RMS(Int)=  0.00003281
 Iteration  3 RMS(Cart)=  0.00000063 RMS(Int)=  0.00003281
 Variable       Old X    -DE/DX   Delta X   Delta X   Delta X     New X
                                 (Linear)    (Quad)   (Total)
    R1        2.61109  -0.00151   0.00020  -0.00397  -0.00377   2.60732
    R2        2.64745  -0.00027  -0.00052   0.00169   0.00118   2.64863
    R3        2.04761   0.00007   0.00009  -0.00020  -0.00011   2.04750
    R4        2.55755   0.00091  -0.00031   0.00288   0.00257   2.56012
    R5        2.04678   0.00012   0.00006   0.00007   0.00013   2.04690
    R6        2.62659  -0.00103   0.00028  -0.00335  -0.00307   2.62352
    R7        2.56017  -0.00048  -0.00027   0.00031   0.00003   2.56020
    R8        2.04751   0.00040   0.00008   0.00076   0.00084   2.04835
    R9        2.66146   0.00166  -0.00058   0.00603   0.00546   2.66691
   R10        2.84930   0.00137  -0.00033   0.00554   0.00521   2.85452
   R11        3.25930  -0.00158   0.00012  -0.00519  -0.00508   3.25423
   R12        2.87320  -0.00289  -0.00076  -0.00553  -0.00628   2.86691
   R13        2.60171   0.00533  -0.00022   0.01117   0.01095   2.61266
   R14        2.30728   0.00002   0.00039  -0.00164  -0.00125   2.30603
   R15        2.07061   0.00024  -0.00012   0.00119   0.00107   2.07168
   R16        2.06085   0.00043   0.00014   0.00063   0.00076   2.06162
   R17        2.07104  -0.00053  -0.00010  -0.00106  -0.00116   2.06987
   R18        2.80914  -0.00172  -0.00079  -0.00125  -0.00205   2.80710
   R19        2.06548  -0.00016  -0.00001  -0.00044  -0.00044   2.06503
   R20        2.06007   0.00019   0.00015  -0.00010   0.00004   2.06011
   R21        2.05873   0.00035   0.00017   0.00025   0.00042   2.05915
   R22        2.75382  -0.00264  -0.00050  -0.00448  -0.00498   2.74883
   R23        2.07593  -0.00049  -0.00012  -0.00088  -0.00100   2.07493
   R24        2.07082  -0.00075   0.00007  -0.00243  -0.00236   2.06846
   R25        1.90839   0.00045   0.00031  -0.00037  -0.00006   1.90833
    A1        2.08201   0.00021  -0.00007   0.00118   0.00111   2.08312
    A2        2.08558   0.00042   0.00000   0.00277   0.00277   2.08835
    A3        2.11558  -0.00064   0.00007  -0.00396  -0.00389   2.11169
    A4        2.10555  -0.00004  -0.00005  -0.00022  -0.00027   2.10528
    A5        2.13509   0.00041  -0.00013   0.00317   0.00304   2.13813
    A6        2.04255  -0.00037   0.00018  -0.00296  -0.00277   2.03978
    A7        2.13863   0.00042  -0.00056   0.00420   0.00365   2.14228
    A8        2.11575  -0.00017   0.00045  -0.00264  -0.00220   2.11356
    A9        2.02880  -0.00024   0.00011  -0.00157  -0.00147   2.02733
   A10        2.03976  -0.00055   0.00038  -0.00366  -0.00329   2.03647
   A11        2.07834   0.00041  -0.00014   0.00212   0.00194   2.08028
   A12        2.16508   0.00014  -0.00024   0.00151   0.00124   2.16632
   A13        2.09916  -0.00001   0.00000   0.00011   0.00011   2.09927
   A14        2.07229   0.00051  -0.00039   0.00365   0.00324   2.07553
   A15        2.11167  -0.00050   0.00039  -0.00368  -0.00330   2.10838
   A16        2.02492  -0.00220  -0.00087  -0.00482  -0.00572   2.01920
   A17        2.17135  -0.00178  -0.00077  -0.00362  -0.00443   2.16693
   A18        2.08689   0.00397   0.00163   0.00835   0.00995   2.09684
   A19        1.91484  -0.00021  -0.00023  -0.00168  -0.00191   1.91293
   A20        1.89662  -0.00051   0.00033  -0.00373  -0.00341   1.89322
   A21        1.97063  -0.00062  -0.00087   0.00061  -0.00025   1.97037
   A22        1.88785   0.00010   0.00057  -0.00325  -0.00268   1.88517
   A23        1.89094   0.00021   0.00042  -0.00191  -0.00149   1.88945
   A24        1.90127   0.00106  -0.00020   0.00989   0.00969   1.91096
   A25        1.91702  -0.00141  -0.00101  -0.00510  -0.00613   1.91089
   A26        1.90758  -0.00078  -0.00013  -0.00380  -0.00393   1.90364
   A27        1.90559  -0.00055   0.00015  -0.00345  -0.00330   1.90229
   A28        1.91761   0.00090   0.00045   0.00241   0.00285   1.92045
   A29        1.91589   0.00085   0.00041   0.00259   0.00299   1.91888
   A30        1.89998   0.00100   0.00012   0.00738   0.00751   1.90749
   A31        1.94815  -0.00002   0.00007  -0.00160  -0.00153   1.94661
   A32        1.91884   0.00018   0.00063  -0.00118  -0.00055   1.91829
   A33        1.91492   0.00024   0.00043   0.00036   0.00078   1.91570
   A34        1.94868  -0.00039  -0.00137   0.00176   0.00039   1.94907
   A35        1.88421  -0.00042   0.00022  -0.00508  -0.00486   1.87935
   A36        1.84577   0.00043   0.00001   0.00608   0.00610   1.85187
   A37        2.10122  -0.00002   0.00029  -0.00158  -0.00129   2.09993
   A38        2.09510   0.00006  -0.00019   0.00116   0.00097   2.09607
   A39        2.08660  -0.00004  -0.00010   0.00037   0.00028   2.08687
   A40        2.07976  -0.00318   0.00119  -0.01996  -0.01891   2.06085
   A41        2.08978   0.00271  -0.00042   0.01437   0.01378   2.10356
   A42        2.10488   0.00039  -0.00070   0.00158   0.00074   2.10562
    D1        0.00011  -0.00004   0.00005  -0.00137  -0.00133  -0.00122
    D2       -3.14149  -0.00007   0.00019  -0.00397  -0.00379   3.13791
    D3       -3.13549  -0.00004  -0.00024  -0.00013  -0.00038  -3.13587
    D4        0.00609  -0.00008  -0.00010  -0.00273  -0.00283   0.00326
    D5       -0.00380   0.00005   0.00002   0.00273   0.00276  -0.00105
    D6       -3.13396  -0.00018  -0.00051  -0.00508  -0.00561  -3.13956
    D7        3.13170   0.00006   0.00032   0.00149   0.00181   3.13351
    D8        0.00154  -0.00017  -0.00021  -0.00632  -0.00655  -0.00501
    D9       -0.00112   0.00003  -0.00020   0.00139   0.00119   0.00007
   D10       -3.11791   0.00006  -0.00024   0.00334   0.00310  -3.11480
   D11        3.14048   0.00006  -0.00034   0.00386   0.00351  -3.13919
   D12        0.02370   0.00010  -0.00038   0.00581   0.00543   0.02912
   D13       -0.00938   0.00005  -0.00020   0.00404   0.00383  -0.00555
   D14        3.12953  -0.00013   0.00051  -0.00957  -0.00906   3.12047
   D15        3.13541   0.00010  -0.00038   0.00713   0.00674  -3.14104
   D16       -0.00887  -0.00007   0.00033  -0.00648  -0.00615  -0.01502
   D17        0.00601  -0.00003   0.00028  -0.00280  -0.00252   0.00349
   D18        3.12292  -0.00006   0.00032  -0.00473  -0.00441   3.11851
   D19       -3.13862  -0.00008   0.00045  -0.00575  -0.00530   3.13926
   D20       -0.02172  -0.00012   0.00049  -0.00768  -0.00719  -0.02891
   D21        0.00815  -0.00005   0.00005  -0.00397  -0.00390   0.00425
   D22        3.13805   0.00019   0.00060   0.00407   0.00466  -3.14047
   D23       -3.13061   0.00013  -0.00069   0.01038   0.00969  -3.12092
   D24       -0.00071   0.00037  -0.00015   0.01842   0.01825   0.01754
   D25        1.68972   0.00004   0.00041  -0.00260  -0.00219   1.68753
   D26       -2.42104  -0.00035  -0.00085  -0.00234  -0.00318  -2.42422
   D27       -0.39815   0.00042  -0.00021   0.00454   0.00434  -0.39380
   D28       -1.45476  -0.00015   0.00116  -0.01725  -0.01610  -1.47087
   D29        0.71766  -0.00053  -0.00010  -0.01699  -0.01709   0.70057
   D30        2.74055   0.00023   0.00055  -0.01011  -0.00957   2.73098
   D31        1.53329  -0.00002  -0.00060   0.00562   0.00503   1.53832
   D32       -2.68910  -0.00031   0.00016  -0.00146  -0.00128  -2.69038
   D33       -0.57774   0.00027  -0.00042   0.00884   0.00844  -0.56929
   D34       -1.60167   0.00021  -0.00019   0.02133   0.02110  -1.58057
   D35        0.45912  -0.00009   0.00057   0.01425   0.01480   0.47392
   D36        2.57049   0.00050  -0.00001   0.02455   0.02452   2.59501
   D37       -3.05913   0.00039  -0.00096   0.02640   0.02555  -3.03359
   D38       -0.05854  -0.00020  -0.00033  -0.00553  -0.00590  -0.06444
   D39        0.07617   0.00016  -0.00138   0.01145   0.01011   0.08628
   D40        3.07677  -0.00044  -0.00075  -0.02048  -0.02134   3.05543
   D41        1.64388   0.00000   0.00008  -0.00191  -0.00183   1.64205
   D42       -1.47311   0.00004   0.00003   0.00006   0.00009  -1.47302
   D43       -2.53430  -0.00025  -0.00007  -0.00448  -0.00454  -2.53885
   D44        0.63189  -0.00022  -0.00011  -0.00252  -0.00263   0.62926
   D45       -0.45777   0.00017   0.00010   0.00019   0.00028  -0.45748
   D46        2.70842   0.00021   0.00005   0.00216   0.00220   2.71063
   D47       -2.90535   0.00043  -0.00080   0.04524   0.04450  -2.86086
   D48        0.37849   0.00084  -0.00145   0.07642   0.07491   0.45339
   D49        1.22221   0.00049  -0.00067   0.04667   0.04606   1.26827
   D50       -1.77713   0.00090  -0.00133   0.07785   0.07647  -1.70067
   D51       -0.79945   0.00044  -0.00007   0.04139   0.04138  -0.75807
   D52        2.48439   0.00084  -0.00073   0.07257   0.07179   2.55618
         Item               Value     Threshold  Converged?
 Maximum Force            0.005325     0.000450     NO 
 RMS     Force            0.000990     0.000300     NO 
 Maximum Displacement     0.153826     0.001800     NO 
 RMS     Displacement     0.032366     0.001200     NO 
 Predicted change in Energy=-3.437331D-04
 GradGradGradGradGradGradGradGradGradGradGradGradGradGradGradGradGradGrad

                          Input orientation:                          
 ---------------------------------------------------------------------
 Center     Atomic      Atomic             Coordinates (Angstroms)
 Number     Number       Type             X           Y           Z
 ---------------------------------------------------------------------
      1          6           0        0.698505   -1.353364    0.703527
      2          6           0        0.636519   -0.800690    1.966214
      3          6           0        2.958509   -1.054674    2.226410
      4          6           0        3.109557   -1.615976    0.965648
      5          6           0        1.937369   -1.765971    0.194182
      6          6           0        6.061146   -3.857277    0.656862
      7          6           0        6.258252   -5.358583    0.750863
      8          6           0        1.673170   -0.091599    4.083465
      9          6           0        4.490351   -2.006204    0.493546
     10          7           0        1.758106   -0.656661    2.712314
     11          7           0        4.750915   -3.419914    0.715921
     12          8           0        6.969154   -3.054694    0.513646
     13         17           0        2.002245   -2.451499   -1.384217
     14          1           0       -0.207537   -1.456258    0.118329
     15          1           0       -0.292430   -0.461734    2.408289
     16          1           0        3.811212   -0.906036    2.878888
     17          1           0        6.201992   -5.800363   -0.250891
     18          1           0        7.255220   -5.552064    1.149375
     19          1           0        5.510285   -5.847733    1.384129
     20          1           0        1.592678   -0.905101    4.808640
     21          1           0        2.568295    0.498235    4.281727
     22          1           0        0.796306    0.552046    4.148098
     23          1           0        4.615972   -1.731874   -0.562193
     24          1           0        5.244903   -1.438092    1.046728
     25          1           0        3.990370   -4.082825    0.759620
 ---------------------------------------------------------------------
                    Distance matrix (angstroms):
                    1          2          3          4          5
     1  C    0.000000
     2  C    1.379736   0.000000
     3  C    2.741534   2.350286   0.000000
     4  C    2.439436   2.789577   1.388307   0.000000
     5  C    1.401592   2.400849   2.382986   1.411270   0.000000
     6  C    5.918588   6.362681   4.465918   3.718959   4.646845
     7  C    6.852358   7.338620   5.620425   4.895663   5.646838
     8  C    3.737112   2.461748   2.455252   3.756024   4.242622
     9  C    3.853361   4.298143   2.500954   1.510546   2.581676
    10  N    2.375579   1.354757   1.354800   2.407810   2.757479
    11  N    4.548935   5.035059   3.329963   2.451655   3.305114
    12  O    6.500124   6.876972   4.797803   4.143754   5.204010
    13  Cl   2.695239   3.976905   3.987755   2.728755   1.722063
    14  H    1.083492   2.134685   3.824803   3.427327   2.168478
    15  H    2.164063   1.083175   3.309571   3.871305   3.402250
    16  H    3.823774   3.304958   1.083939   2.157967   3.385030
    17  H    7.139684   7.802998   6.259294   5.343427   5.887395
    18  H    7.798614   8.188405   6.312547   5.719533   6.597457
    19  H    6.619351   7.040246   5.494944   4.883276   5.553601
    20  H    4.225214   3.000753   2.925026   4.192237   4.706711
    21  H    4.441627   3.283376   2.605402   3.969790   4.715159
    22  H    3.937667   2.572167   3.309011   4.492153   4.723207
    23  H    4.134231   4.805829   3.313924   2.148724   2.783555
    24  H    4.560121   4.742251   2.601203   2.144276   3.431344
    25  H    4.276620   4.845265   3.519362   2.627474   3.146799
                    6          7          8          9         10
     6  C    0.000000
     7  C    1.517105   0.000000
     8  C    6.721329   7.737592   0.000000
     9  C    2.433216   3.798701   4.948711   0.000000
    10  N    5.743255   6.797549   1.485451   3.769530   0.000000
    11  N    1.382563   2.455957   5.647171   1.454620   4.536304
    12  O    1.220298   2.422717   7.040666   2.691505   6.143266
    13  Cl   4.755722   5.578826   5.964308   3.148802   4.479131
    14  H    6.734337   7.578566   4.595830   4.744827   3.351397
    15  H    7.413848   8.344916   2.608985   5.378348   2.082097
    16  H    4.325440   5.508328   2.585640   2.713201   2.074893
    17  H    2.149287   1.096287   8.478611   4.228421   7.415280
    18  H    2.130888   1.090960   8.341753   4.543978   7.525026
    19  H    2.189585   1.095330   7.425830   4.073174   6.541418
    20  H    6.776416   7.620147   1.092768   5.313095   2.117468
    21  H    6.656587   7.770786   1.090165   4.931210   2.110272
    22  H    7.703856   8.735536   1.089655   5.791922   2.108912
    23  H    2.844637   4.192162   5.738704   1.098008   4.477262
    24  H    2.582770   4.060131   4.877714   1.094583   3.942406
    25  H    2.085556   2.602100   5.687464   2.152471   4.531513
                   11         12         13         14         15
    11  N    0.000000
    12  O    2.257185   0.000000
    13  Cl   3.592158   5.351253   0.000000
    14  H    5.366499   7.363162   2.851541   0.000000
    15  H    6.086893   7.940007   4.858786   2.498039   0.000000
    16  H    3.446890   4.492627   4.882099   4.906504   4.154365
    17  H    2.950743   2.951567   5.489736   7.751750   8.817580
    18  H    3.317452   2.592844   6.605024   8.575047   9.190394
    19  H    2.630105   3.269114   5.612887   7.319890   7.983069
    20  H    5.748834   7.209315   6.396137   5.054064   3.084135
    21  H    5.729808   6.796271   6.412821   5.372073   3.551769
    22  H    6.572308   8.020091   6.409531   4.613028   2.289112
    23  H    2.121618   2.905985   2.832870   4.879068   5.876174
    24  H    2.069076   2.422936   4.177478   5.530946   5.785256
    25  H    1.009846   3.160809   3.348120   4.993248   5.845749
                   16         17         18         19         20
    16  H    0.000000
    17  H    6.282180   0.000000
    18  H    6.036388   1.769657   0.000000
    19  H    5.435212   1.775948   1.785309   0.000000
    20  H    2.940380   8.414762   8.188337   7.176666   0.000000
    21  H    2.341960   8.568589   8.269523   7.571176   1.788524
    22  H    3.581418   9.430039   9.379236   8.415361   1.787120
    23  H    3.629144   4.377781   4.948631   4.639856   6.218497
    24  H    2.386496   4.650725   4.580030   4.430486   5.270181
    25  H    3.823007   2.976968   3.601364   2.411443   5.678153
                   21         22         23         24         25
    21  H    0.000000
    22  H    1.777834   0.000000
    23  H    5.712261   6.480199   0.000000
    24  H    4.623723   5.776605   1.752282   0.000000
    25  H    5.950937   6.570073   2.768671   2.941241   0.000000
 Stoichiometry    C9H12ClN2O(1+)
 Framework group  C1[X(C9H12ClN2O)]
 Deg. of freedom    69
 Full point group                 C1      NOp   1
 Largest Abelian subgroup         C1      NOp   1
 Largest concise Abelian subgroup C1      NOp   1
                         Standard orientation:                         
 ---------------------------------------------------------------------
 Center     Atomic      Atomic             Coordinates (Angstroms)
 Number     Number       Type             X           Y           Z
 ---------------------------------------------------------------------
      1          6           0        2.418918    1.180467    0.338957
      2          6           0        3.120884   -0.006096    0.393565
      3          6           0        1.219361   -1.200270   -0.300701
      4          6           0        0.442827   -0.052607   -0.385913
      5          6           0        1.072806    1.165080   -0.051177
      6          6           0       -3.199209   -0.660048    0.058206
      7          6           0       -4.148161   -0.557633    1.237447
      8          6           0        3.277635   -2.452791    0.171489
      9          6           0       -0.992892   -0.166653   -0.841385
     10          7           0        2.520587   -1.178310    0.075880
     11          7           0       -1.908475   -0.220904    0.287634
     12          8           0       -3.518760   -1.073826   -1.044429
     13         17           0        0.208201    2.652846   -0.118368
     14          1           0        2.916069    2.109526    0.591239
     15          1           0        4.163125   -0.052949    0.684780
     16          1           0        0.808056   -2.173720   -0.541838
     17          1           0       -4.623538    0.430212    1.242291
     18          1           0       -4.930870   -1.308080    1.117494
     19          1           0       -3.647694   -0.702348    2.200950
     20          1           0        3.099090   -2.910488    1.147592
     21          1           0        2.947184   -3.123739   -0.621664
     22          1           0        4.339959   -2.244417    0.047413
     23          1           0       -1.236245    0.660338   -1.521449
     24          1           0       -1.125327   -1.085554   -1.421207
     25          1           0       -1.656948    0.191253    1.174567
 ---------------------------------------------------------------------
 Rotational constants (GHZ):      0.9705800      0.4112013      0.3134336
 Standard basis: 6-31G(d) (6D, 7F)
 There are   223 symmetry adapted basis functions of A   symmetry.
 Integral buffers will be    131072 words long.
 Raffenetti 2 integral format.
 Two-electron integral symmetry is turned on.
   223 basis functions,   436 primitive gaussians,   223 cartesian basis functions
    52 alpha electrons       52 beta electrons
       nuclear repulsion energy       868.8851891174 Hartrees.
 NAtoms=   25 NActive=   25 NUniq=   25 SFac= 1.00D+00 NAtFMM=   60 NAOKFM=F Big=F
 One-electron integrals computed using PRISM.
 NBasis=   223 RedAO= T  NBF=   223
 NBsUse=   223 1.00D-06 NBFU=   223
 Initial guess read from the read-write file.
 B after Tr=     0.000000    0.000000    0.000000
         Rot=    1.000000    0.000000    0.000000    0.000000 Ang=   0.00 deg.
 Initial guess orbital symmetries:
       Occupied  (A) (A) (A) (A) (A) (A) (A) (A) (A) (A) (A) (A)
                 (A) (A) (A) (A) (A) (A) (A) (A) (A) (A) (A) (A)
                 (A) (A) (A) (A) (A) (A) (A) (A) (A) (A) (A) (A)
                 (A) (A) (A) (A) (A) (A) (A) (A) (A) (A) (A) (A)
                 (A) (A) (A) (A)
       Virtual   (A) (A) (A) (A) (A) (A) (A) (A) (A) (A) (A) (A)
                 (A) (A) (A) (A) (A) (A) (A) (A) (A) (A) (A) (A)
                 (A) (A) (A) (A) (A) (A) (A) (A) (A) (A) (A) (A)
                 (A) (A) (A) (A) (A) (A) (A) (A) (A) (A) (A) (A)
                 (A) (A) (A) (A) (A) (A) (A) (A) (A) (A) (A) (A)
                 (A) (A) (A) (A) (A) (A) (A) (A) (A) (A) (A) (A)
                 (A) (A) (A) (A) (A) (A) (A) (A) (A) (A) (A) (A)
                 (A) (A) (A) (A) (A) (A) (A) (A) (A) (A) (A) (A)
                 (A) (A) (A) (A) (A) (A) (A) (A) (A) (A) (A) (A)
                 (A) (A) (A) (A) (A) (A) (A) (A) (A) (A) (A) (A)
                 (A) (A) (A) (A) (A) (A) (A) (A) (A) (A) (A) (A)
                 (A) (A) (A) (A) (A) (A) (A) (A) (A) (A) (A) (A)
                 (A) (A) (A) (A) (A) (A) (A) (A) (A) (A) (A) (A)
                 (A) (A) (A) (A) (A) (A) (A) (A) (A) (A) (A) (A)
                 (A) (A) (A)
 Harris functional with IExCor=  402 diagonalized for initial guess.
 ExpMin= 1.43D-01 ExpMax= 2.52D+04 ExpMxC= 3.78D+03 IAcc=3 IRadAn=         5 AccDes= 0.00D+00
 HarFok:  IExCor=  402 AccDes= 0.00D+00 IRadAn=         5 IDoV= 1
 ScaDFX=  1.000000  1.000000  1.000000  1.000000
[...]
 000218,-0.00000025,-0.00000276,0.00000172,-0.00003507,0.00001931,0.000
 01350,0.01394345,0.05044939,0.00001134,0.00000020,-0.00002422,0.000025
 67,0.00001265,0.00001644,-0.00001150,-0.00001251,-0.00003403,0.0001145
 1,-0.00008043,0.00001134,-0.00003876,-0.00003338,-0.00003992,-0.003519
 23,0.00156284,-0.00222302,-0.02212349,-0.00365547,-0.04591798,0.000001
 38,0.00000503,0.00001313,0.00049937,0.00036275,-0.00027246,-0.00003521
 ,0.00000765,0.00001694,0.00029693,0.00148620,-0.00022258,-0.00024856,-
 0.00174479,-0.00028200,0.00000015,0.00001203,0.00002462,-0.00000013,-0
 .00000086,-0.00000091,0.00000053,0.00000188,0.00000174,-0.00001745,0.0
 0003251,0.00001330,0.02450948,0.00127456,0.04673208,0.00001052,-0.0000
 2353,-0.00001271,-0.00003534,0.00002157,0.00002730,-0.00004967,0.00003
 060,0.00003338,0.00010568,0.00012069,-0.00016864,-0.00006235,0.0000190
 1,0.00004328,0.00418833,0.00910276,-0.01396580,-0.07712680,-0.04460152
 ,0.08071884,-0.00000223,0.00001562,0.00000169,-0.00097192,0.00028043,-
 0.00032698,0.00001986,-0.00001331,-0.00000087,-0.00119284,0.00223615,0
 .00033811,-0.00023179,-0.00201564,-0.00021747,0.00000476,-0.00000688,-
 0.00001972,-0.00000577,0.00000765,-0.00000142,0.00000010,0.00000643,-0
 .00000100,-0.00000797,0.00002576,0.00000673,-0.01054512,-0.01529631,0.
 02833891,0.08315814,-0.00001434,0.00002859,-0.00000674,0.00008971,-0.0
 0001633,-0.00001430,0.00011114,-0.00003845,0.00003563,-0.00008208,-0.0
 0014581,0.00022393,0.00006719,-0.00004105,-0.00007926,-0.01299917,-0.0
 1452799,0.02919723,-0.04405533,-0.10338719,0.09864059,0.00001085,0.000
 00252,0.00005093,0.00103814,0.00009745,0.00065074,-0.00006114,-0.00000
 626,-0.00001807,0.00221186,-0.00404244,-0.00137597,0.00179018,0.003414
 34,-0.00215616,-0.00000981,-0.00000209,0.00000948,0.00000596,-0.000002
 98,-0.00000490,-0.00000294,-0.00000203,0.00000232,0.00002391,-0.000024
 52,0.00000815,-0.00071000,-0.00062550,0.00068127,0.04471969,0.10973555
 ,0.00000523,-0.00001170,-0.00001107,0.00001323,0.00001795,0.00002315,-
 0.00005820,0.00001735,-0.00001944,0.00002248,0.00010167,-0.00003272,-0
 .00002975,0.00001538,0.00000719,-0.00191232,0.00117048,-0.00229124,0.0
 8084548,0.10029639,-0.23665260,-0.00000095,0.00000690,0.00001456,-0.00
 017470,-0.00009652,0.00000953,-0.00002112,-0.00000397,0.00000851,0.000
 31538,0.00092814,0.00076223,0.00014356,-0.00147728,0.00064623,0.000001
 70,-0.00000097,-0.00000378,-0.00000317,0.00000446,-0.00000120,0.000000
 74,0.00000376,0.00000108,-0.00001748,0.00003386,0.00000891,-0.00125941
 ,-0.00217935,0.00311111,-0.08739109,-0.11043349,0.25247422,-0.00001946
 ,0.00000174,0.00001457,-0.00002673,-0.00001236,-0.00000610,0.00004642,
 0.00007048,0.00006472,-0.00004348,-0.00000211,-0.00000219,0.00004062,0
 .00004867,0.00005420,0.00125172,0.00496633,0.01294615,-0.06308433,-0.0
 3516348,-0.05272280,0.00000049,0.00000940,-0.00000121,-0.00003794,-0.0
 0020900,0.00020540,0.00000152,-0.00001223,-0.00001481,-0.00043135,-0.0
 0055634,-0.00029014,0.00031801,0.00474048,0.00005463,-0.00000312,-0.00
 002748,-0.00004794,-0.00000328,0.00000613,-0.00000105,-0.00000422,-0.0
 0000236,-0.00000132,0.00003983,-0.00006578,-0.00002612,-0.00481161,-0.
 01834530,-0.02701751,0.00245179,0.00788263,0.00901777,0.06358641,0.000
 08515,-0.00004994,-0.00013645,0.00016951,0.00009467,0.00011311,-0.0002
 2018,-0.00010463,-0.00023861,0.00019832,0.00013443,0.00008937,-0.00026
 007,-0.00010476,-0.00011762,-0.01255927,-0.00966051,-0.02801136,-0.033
 72976,-0.13286746,-0.11541638,-0.00000367,0.00000023,0.00003825,0.0000
 2528,0.00028881,-0.00008392,-0.00013507,-0.00002530,0.00007623,0.00033
 063,0.00168604,0.00139895,0.00456432,-0.00817725,-0.00026464,0.0000186
 5,0.00006419,0.00012170,-0.00000197,-0.00000365,-0.00000234,0.00000490
 ,0.00002012,0.00000248,-0.00006917,0.00020249,0.00006034,-0.00051568,-
 0.00067835,0.00018126,0.00528316,0.01005213,0.01185219,0.03607750,0.14
 043828,0.00000190,0.00000633,-0.00000492,0.00002937,0.00000026,-0.0000
 0146,0.00004966,-0.00003115,-0.00004752,0.00002695,-0.00000016,0.00006
 862,-0.00004281,-0.00005547,-0.00010566,0.00225035,0.00339159,0.000631
 42,-0.05159215,-0.11871147,-0.22557246,-0.00000146,-0.00000286,-0.0000
 1537,0.00031213,-0.00026705,0.00038274,-0.00006433,-0.00000193,0.00005
 472,0.00001091,0.00082031,-0.00018066,-0.00091064,0.00030318,0.0025220
 4,0.00001287,0.00003176,0.00006399,0.00000178,-0.00000598,-0.00000078,
 -0.00000284,0.00000261,-0.00000009,-0.00004015,0.00005095,-0.00000535,
 0.00001255,0.00011185,-0.00126811,-0.00762100,-0.01536820,-0.01852245,
 0.05801077,0.12900055,0.24119098,-0.00042310,-0.00026392,0.00102274,-0
 .00027475,-0.00048724,-0.00154527,-0.00026354,0.00072090,0.00187637,-0
 .00065702,-0.00021491,-0.00110476,0.00111891,0.00004969,-0.00006588,0.
 00007724,0.00016725,0.00035146,0.00000965,-0.00002812,-0.00001320,-0.0
 5764584,0.03144991,-0.02326083,-0.00000037,-0.00006291,0.00003815,-0.0
 0021777,0.00207623,-0.00415465,-0.00005960,-0.00000408,-0.00019020,0.0
 0002604,-0.00017131,-0.00034558,-0.00004976,0.00001239,-0.00003475,-0.
 00001385,-0.00000415,-0.00004348,-0.00011680,0.00043559,-0.00022995,-0
 .00005897,-0.00024240,0.00020155,-0.00000583,-0.00000122,0.00000270,0.
 00000395,0.00001336,0.00000273,0.00000123,-0.00001001,-0.00001085,0.05
 402221,0.00009173,-0.00069938,-0.00001340,0.00078731,0.00063196,-0.000
 70948,-0.00090867,0.00092501,-0.00050433,-0.00008803,-0.00051242,0.000
 20006,-0.00009811,0.00020722,0.00004570,-0.00007189,0.00004911,-0.0001
 7313,0.00000654,-0.00000693,-0.00000434,0.03249096,-0.22532894,0.13471
 835,-0.00012851,0.00006431,0.00000275,-0.00318644,0.01419260,-0.014758
 67,0.00009800,-0.00007943,0.00009467,0.00002081,-0.00007246,0.00015581
 ,-0.00003462,-0.00011830,-0.00026439,0.00000622,-0.00008188,-0.0000267
 0,-0.00011197,0.00003601,0.00009708,0.00006194,-0.00005733,0.00016927,
 -0.00000079,-0.00000412,0.00000241,0.00000916,-0.00001283,-0.00000017,
 0.00000002,-0.00000307,0.00000278,-0.03369980,0.23447330,0.00002769,-0
 .00141645,-0.00093347,0.00302126,0.00137876,-0.00005544,-0.00295723,0.
 00116575,0.00051807,0.00006102,-0.00131997,-0.00025737,-0.00031749,0.0
 0047042,0.00061929,-0.00008536,-0.00006308,-0.00037851,-0.00000219,0.0
 0001151,0.00000244,-0.02248886,0.12782910,-0.14485647,-0.00019236,0.00
 007653,-0.00001852,-0.00651620,0.01755457,-0.03213680,0.00016941,-0.00
 012197,0.00020112,-0.00003519,0.00007501,0.00033149,-0.00003242,-0.000
 08810,-0.00045345,0.00002043,-0.00017913,-0.00005652,-0.00024810,0.000
 29074,-0.00013127,0.00030229,0.00041273,-0.00025724,0.00000150,-0.0000
 0252,0.00000462,0.00000953,-0.00001475,0.00000364,-0.00000080,0.000005
 80,0.00000633,0.02786088,-0.13811209,0.16731487,-0.00002481,-0.0000251
 5,0.00002580,0.00009908,-0.00067126,-0.00031334,0.00057743,0.00131536,
 0.00207328,0.00022005,0.00036096,-0.00056246,0.00009241,0.00016588,0.0
 0009779,0.00002788,0.00005594,0.00013415,0.00000406,-0.00000959,-0.000
 01176,-0.23063180,-0.13776742,-0.00199662,-0.00000561,-0.00004772,0.00
 001563,-0.00256177,0.00039167,-0.00138996,-0.00001572,-0.00002408,-0.0
 0007625,-0.00000255,-0.00010344,-0.00008956,0.00003546,-0.00008787,0.0
 0006103,0.00000632,-0.00003220,-0.00002010,0.00037213,-0.00006501,0.00
 001268,0.00039262,-0.00016926,0.00064569,-0.00000180,0.00000104,0.0000
 0090,0.00000096,0.00000237,-0.00000028,0.00000068,-0.00000623,-0.00000
 240,0.00625276,0.00458709,0.00087893,0.24258609,-0.00021559,0.00021311
 ,-0.00002433,0.00157270,-0.00045600,-0.00052319,-0.00161347,0.00089191
 ,0.00035161,0.00011937,0.00004965,-0.00003108,0.00005850,0.00003081,0.
 00016152,-0.00004695,-0.00013094,-0.00029327,-0.00001077,0.00002649,0.
 00001633,-0.13523525,-0.15509545,-0.00211242,-0.00002112,0.00000234,-0
 .00001071,-0.00739680,-0.00625710,-0.00269009,0.00008262,-0.00000231,0
 .00014851,-0.00000234,0.00021406,0.00024051,0.00002352,-0.00003491,-0.
 00008022,0.00002149,-0.00001056,-0.00008335,-0.00014772,-0.00001718,0.
 00004511,0.00064779,-0.00028421,-0.00053619,0.00000422,0.00000120,-0.0
 0000132,-0.00000281,-0.00000605,0.00000022,-0.00000165,0.00001210,0.00
 000747,-0.02053428,-0.01311744,-0.00054838,0.14864444,0.16076097,-0.00
 131797,0.00013599,-0.00124853,0.00254225,-0.00281633,-0.00363734,-0.00
 245279,-0.00015321,0.00085815,0.00007569,0.00032240,0.00027903,-0.0006
 5379,-0.00002829,0.00042946,0.00000737,-0.00002788,0.00001343,-0.00001
 020,0.00000534,-0.00000032,0.00941995,0.00522239,-0.04925531,0.0000256
 9,0.00003517,-0.00003935,-0.03179846,-0.02360650,-0.00973586,-0.000010
 61,0.00007829,0.00000185,0.00000326,0.00004703,-0.00001337,0.00005916,
 -0.00007516,-0.00016338,0.00004213,0.00000419,-0.00041919,-0.00013846,
 -0.00020052,-0.00007076,0.00066188,-0.00043044,-0.00002233,-0.00000105
 ,0.00000161,0.00000284,0.00000471,-0.00000199,0.00000085,-0.00000167,0
 .00000004,-0.00000095,0.01689853,0.01043942,0.00241484,0.00089220,0.00
 448440,0.05990953,0.00040771,-0.00030737,0.00030344,0.00072193,-0.0011
 7123,-0.00193547,-0.00055468,-0.00015181,-0.00091341,0.00037902,0.0001
 1868,-0.00030821,0.00006689,-0.00015891,-0.00003316,-0.00002583,-0.000
 07048,-0.00015830,-0.00000461,0.00001265,0.00000816,-0.24666911,0.1202
 5731,0.06269641,-0.00004739,0.00002249,-0.00008219,0.00558741,-0.00575
 561,-0.00340736,0.00003231,-0.00000181,0.00007870,-0.00001444,0.000110
 25,0.00011799,0.00001797,0.00006832,-0.00004276,-0.00001529,0.00007540
 ,-0.00000498,0.00019774,-0.00004300,-0.00078405,0.00039306,-0.00008547
 ,-0.00011946,0.00000160,0.00000010,0.00000024,0.00000082,-0.00000392,0
 .00000070,-0.00000066,0.00000640,0.00000342,-0.00172163,0.00014691,0.0
 0048823,-0.01744324,0.01404420,0.00573656,0.25866107,-0.00011058,-0.00
 004244,-0.00006377,0.00157029,0.00066965,0.00008809,-0.00155652,-0.000
 34456,-0.00072839,0.00036088,0.00041524,0.00001034,-0.00015647,0.00001
 519,0.00015882,-0.00000428,0.00002001,0.00002688,-0.00000270,-0.000002
 33,0.00000078,0.11576000,-0.12286731,-0.03741816,-0.00005794,-0.000037
 71,-0.00006327,0.00770562,-0.00623012,-0.00434318,-0.00000086,-0.00000
 513,-0.00001182,0.00003549,0.00000459,-0.00002941,-0.00003219,-0.00003
 139,-0.00007041,0.00000377,-0.00001186,-0.00001156,-0.00080641,-0.0000
 1202,-0.00045076,0.00012777,-0.00012119,0.00006054,-0.00000041,-0.0000
 0062,-0.00000092,-0.00000011,0.00000157,0.00000049,0.00000070,-0.00000
 084,-0.00000147,0.02078494,-0.01045790,-0.00736790,-0.01652018,0.01320
 834,0.00659316,-0.12709963,0.12583335,-0.00014490,0.00034415,0.0001423
 3,0.00249613,0.00015858,0.00079532,-0.00320140,-0.00277226,-0.00346862
 ,0.00106596,-0.00005266,-0.00118817,0.00061295,0.00001592,0.00024199,-
 0.00008481,-0.00002896,-0.00024329,0.00000215,0.00000224,0.00000461,0.
 05002367,-0.03217910,-0.06612818,-0.00033770,0.00012762,-0.00034688,0.
 02966238,-0.01862505,-0.01786868,0.00009862,-0.00007674,0.00013090,0.0
 0000342,0.00003716,0.00017671,-0.00008645,-0.00007542,-0.00009592,-0.0
 0001377,0.00006132,-0.00002798,-0.00087545,-0.00049629,0.00013636,-0.0
 0008828,-0.00010826,-0.00014183,0.00000194,-0.00000328,-0.00000030,0.0
 0000156,-0.00001033,-0.00000066,0.00000002,0.00000271,0.00000558,-0.01
 726182,0.00863676,0.00812244,-0.00037811,0.00149662,0.00071884,-0.0616
 2474,0.04362705,0.07907432,0.00051017,0.00039968,-0.00049175,0.0001684
 3,0.00010927,0.00044740,-0.00441704,0.00010934,0.00118577,0.00299856,-
 0.00451015,0.02926015,0.00122049,0.00094092,0.00198572,0.00034970,0.00
 120284,-0.00041390,-0.00005566,0.00001200,-0.00040466,-0.00032041,0.00
 008043,-0.00008289,-0.05620395,0.00523788,-0.03642853,0.00013870,0.001
 41198,0.00068159,-0.00292757,0.00227882,-0.01087508,-0.00001901,0.0010
 6504,-0.00036340,-0.00196668,-0.00129572,-0.00150478,-0.00000066,-0.00
 004254,-0.00002406,0.00000249,-0.00006954,-0.00002220,-0.00017518,-0.0
 0018975,0.00035024,-0.00000474,0.00005667,-0.00003741,-0.00006893,0.00
 013460,0.00000802,0.00003078,0.00000554,0.00004176,-0.00001347,0.00000
 512,0.00000701,0.00000184,-0.00000668,-0.00000132,0.00002168,0.0000059
 9,0.00011801,0.06140169,0.00005359,-0.00007329,-0.00010707,-0.00018678
 ,-0.00003932,-0.00009314,0.00059270,0.00038685,-0.00043550,-0.00134004
 ,0.00129314,-0.00628869,-0.00004529,0.00046277,0.00008122,-0.00051084,
 -0.00697955,-0.00426104,0.00081192,0.00025001,0.00118904,0.00011935,-0
 .00003735,0.00012148,0.00395889,-0.05655426,0.03561155,0.00055663,-0.0
 0061591,-0.00042535,0.00965339,-0.01316297,0.04006977,-0.00056127,0.00
 242085,-0.00031302,-0.00060086,-0.00011983,-0.00009261,0.00000169,0.00
 000912,0.00000129,0.00001461,0.00002112,-0.00001161,0.00006769,0.00026
 773,0.00010085,0.00009692,-0.00032870,0.00008378,0.00012443,-0.0002541
 1,0.00002890,-0.00006046,0.00006805,-0.00005583,-0.00000594,-0.0000103
 4,-0.00000640,-0.00000201,0.00001031,-0.00001338,-0.00000597,-0.000008
 44,-0.00006056,-0.01214522,0.06675449,0.00008758,-0.00005347,-0.000114
 51,-0.00012226,-0.00000857,-0.00002952,0.00222122,0.00062146,-0.000657
 04,0.00100521,-0.00029538,-0.01491936,-0.00164667,-0.00115452,-0.00117
 188,0.00014471,-0.00019991,-0.00000179,0.00010454,-0.00000801,-0.00010
 598,0.00017851,-0.00006065,0.00009202,-0.03747855,0.04618668,-0.313093
 23,-0.00004464,-0.00037145,-0.00045757,-0.00094935,-0.00052019,-0.0011
 4896,-0.00014575,0.00085614,0.00034118,-0.00179912,0.00011853,0.001264
 44,0.00002947,0.00002667,0.00000173,0.00002238,0.00001071,0.00001435,0
 .00003523,0.00012350,0.00009231,0.00000825,0.00000695,-0.00000818,-0.0
 0003945,0.00004495,0.00000868,-0.00000539,0.00001730,0.00000174,-0.000
 00439,0.00000202,0.00000558,-0.00000536,0.00001567,-0.00000044,-0.0000
 0752,-0.00001011,-0.00006565,0.03945257,-0.04629538,0.33628232,-0.0009
 0962,-0.00019783,-0.00132563,0.00042235,0.00001500,0.00016166,0.000426
 50,-0.00046126,-0.00237835,-0.02474705,-0.01354484,-0.00804023,-0.0028
 7548,0.00082768,0.00389380,0.00173686,0.00083241,0.00096336,-0.0006616
 1,-0.00013203,0.00016323,-0.00000274,-0.00010151,-0.00005927,-0.193037
 61,-0.11724036,-0.06334904,-0.00035403,0.00039378,0.00012598,0.0122663
 0,0.00903358,0.00349989,-0.00050345,-0.00005112,-0.00058453,0.00010631
 ,-0.00000163,0.00028373,-0.00024179,0.00015875,0.00025913,0.00005410,-
 0.00003707,0.00006830,0.00012644,0.00003708,0.00107044,-0.00007087,0.0
 0014569,-0.00007088,0.00004413,-0.00000810,0.00004738,0.00004270,-0.00
 005660,0.00000428,0.00000565,0.00002044,0.00003234,0.00000614,0.000023
 44,0.00003728,0.00000804,-0.00000729,0.00000113,-0.00132071,-0.0008011
 6,-0.00097106,0.20952606,0.00046923,-0.00034259,0.00001907,0.00022508,
 0.00012514,0.00015136,0.00116891,0.00008678,-0.00019650,0.00424693,0.0
 0540099,0.00140140,0.00079957,0.00024416,-0.00082333,-0.00258330,-0.00
 098786,-0.00863853,0.00094490,0.00010101,-0.00020424,0.00002373,0.0000
 4042,0.00008556,-0.11513854,-0.13733726,-0.05069959,-0.00006016,0.0000
 8523,-0.00003082,-0.01246351,-0.03607526,-0.00906808,0.00025478,0.0036
 1808,0.00275012,0.00028215,0.00011386,-0.00003507,0.00007906,-0.000106
 76,-0.00005302,-0.00000261,-0.00000721,0.00000467,-0.00028937,0.000109
 04,0.00029231,0.00005841,-0.00016468,0.00019043,-0.00009837,0.00008249
 ,0.00001460,-0.00009017,0.00020380,0.00010911,0.00000245,-0.00001801,-
 0.00002138,0.00000026,-0.00000012,-0.00001860,-0.00000232,0.00000214,-
 0.00001387,0.00512509,0.00514771,0.00089025,0.11958294,0.16337331,0.00
 053651,-0.00029851,0.00088741,0.00014563,0.00003290,-0.00008519,0.0017
 5449,0.00031895,0.00080218,0.01655027,0.01002549,0.00451392,0.00192053
 ,-0.00134056,-0.00329969,0.00070136,0.00219551,0.00057135,-0.00056470,
 -0.00035855,0.00007613,-0.00004542,0.00003956,0.00001576,-0.06722457,-
 0.05332423,-0.08280415,-0.00037641,0.00015510,0.00034772,0.00400665,0.
 00133017,0.00298934,-0.00019763,-0.00055806,-0.00017715,-0.00076240,0.
 00023025,0.00044561,0.00019812,-0.00010042,-0.00012952,-0.00004414,-0.
 00000491,-0.00000894,0.00014110,-0.00024422,-0.00056564,-0.00005646,0.
 00009071,-0.00002904,0.00005971,-0.00004235,0.00004899,0.00005214,-0.0
 0010008,0.00002343,0.00001683,-0.00000232,-0.00001484,0.00000960,-0.00
 003593,-0.00001775,-0.00001383,0.00000428,0.00001611,-0.02259931,-0.01
 913353,-0.00744511,0.06639765,0.06106468,0.08374408,0.00007328,-0.0004
 7867,-0.00059905,0.00021236,0.00024074,0.00048847,-0.00034544,0.000034
 43,0.00051752,-0.00133580,0.00345867,-0.00054458,-0.00009797,0.0013470
 1,0.00236524,-0.00420673,-0.01436099,-0.00588980,-0.00248312,-0.000608
 45,0.00101642,-0.00007331,0.00003516,0.00001352,-0.00534496,0.00248240
 ,0.00776399,-0.00031247,-0.00046625,0.00018510,-0.00886738,0.03117363,
 -0.00209763,0.00480519,0.00277031,-0.00524639,-0.00001591,-0.00059677,
 -0.00118275,-0.00007756,0.00006657,0.00002698,-0.00000274,0.00002601,-
 0.00003703,-0.00005705,0.00032380,-0.00001582,-0.00021460,0.00041001,-
 0.00068201,0.00031169,-0.00015475,0.00044408,0.00065399,0.00079832,-0.
 00048006,0.00000468,-0.00000343,-0.00000431,0.00001139,-0.00000685,-0.
 00002035,-0.00000037,0.00000012,0.00000950,0.00064948,0.00021405,-0.00
 007017,-0.00004663,-0.00253512,-0.00060572,0.01676001,0.00000389,0.000
 03479,0.00004204,-0.00004375,-0.00005180,-0.00003289,0.00051171,-0.000
 19471,0.00003947,-0.00080323,-0.00158504,0.00053702,-0.00003579,-0.000
 11715,-0.00036130,-0.00667541,0.01157823,0.00551159,-0.00005942,-0.000
 10161,0.00159328,0.00000882,-0.00000598,0.00000176,-0.00234843,-0.0132
 1981,-0.02114379,0.00005138,0.00018786,-0.00006962,0.02744305,-0.20356
 536,-0.18829666,0.00367292,0.00248366,0.00547558,-0.00000313,0.0000734
 8,0.00015455,0.00000957,0.00002800,-0.00002069,0.00000476,-0.00002667,
 0.00001538,0.00012494,-0.00015573,0.00005621,-0.00015906,-0.00013991,-
 0.00036774,0.00005534,-0.00027902,-0.00028929,0.00074463,-0.00158960,0
 .00066283,0.00001757,0.00000124,-0.00000877,0.00000641,-0.00000903,0.0
 0000286,-0.00000517,0.00000378,-0.00000736,0.00007838,0.00109192,0.000
 05681,0.00157000,-0.00369441,0.00005604,-0.02416997,0.20925287,0.00003
 315,-0.00007778,-0.00023527,-0.00001988,0.00006680,0.00011496,-0.00044
 786,0.00007219,0.00011442,0.00039561,0.00044565,-0.00062564,0.00016422
 ,0.00007023,0.00073491,0.00787848,-0.02283089,-0.01497507,0.00011432,-
 0.00043730,0.00004143,-0.00003418,-0.00003711,-0.00007017,0.00089357,0
 .01005122,0.00971258,0.00003114,-0.00007285,0.00006720,-0.00829339,-0.
 19127319,-0.31330047,-0.00475578,0.00301593,-0.00503615,-0.00016056,-0
 .00003817,-0.00036189,-0.00001573,0.00000800,0.00003042,0.00001233,-0.
 00000490,-0.00001031,-0.00001403,0.00007133,-0.00005948,0.00019839,0.0
 0004589,0.00037457,0.00018240,-0.00001873,0.00040630,-0.00028133,0.001
 41111,0.00077420,-0.00000632,0.00000195,0.00000519,-0.00000148,0.00000
 252,-0.00000394,0.00000160,0.00000069,0.00001064,-0.00028892,0.0003052
 2,0.00111487,-0.00023059,0.00282947,0.00009499,0.00464485,0.19639271,0
 .32108172\\-0.00000145,-0.00001596,-0.00001240,0.00001619,0.00000256,0
 .00001042,0.00002469,-0.00000888,-0.00002932,-0.00000312,-0.00000394,0
 .00001251,-0.00000180,0.00003833,0.00002019,-0.00000046,0.00003082,-0.
 00003874,-0.00001221,-0.00000686,-0.00000557,-0.00000568,-0.00000306,-
 0.00000125,0.00003091,-0.00002248,0.00000788,-0.00002541,0.00000522,0.
 00001174,-0.00002020,-0.00002178,0.00002767,-0.00000341,-0.00000001,-0
 .00000586,-0.00000225,-0.00001281,-0.00001203,0.00000171,-0.00000220,0
 .00000135,-0.00000063,-0.00000200,0.00000233,-0.00000733,0.00000549,0.
 00000214,0.00000316,0.00000183,0.00000436,0.00000046,-0.00000105,0.000
 00492,0.00000110,0.00000284,0.00000348,-0.00000233,0.00000053,0.,0.000
 00342,-0.00000487,0.00000077,0.00000134,0.00000621,-0.00000240,-0.0000
 0176,0.00000046,-0.00000042,-0.00000357,0.00000057,-0.00000178,0.00000
 865,0.00001107,0.00000002\\\@


 ... IT CAN BE VERY DIFFICULT, IN THESE COMPLEX TIMES,
 TO UNDERSTAND JUST HOW SCIENTISTS DO WHAT THEY DO.

                     DON MOSER IN THE FEBRUARY 1979 SMITHSONIAN
 Job cpu time:  0 days  1 hours 45 minutes 55.8 seconds.
 File lengths (MBytes):  RWF=    168 Int=      0 D2E=      0 Chk=      5 Scr=      1
 Normal termination of Gaussian 09 at Fri Feb 16 20:12:19 2018.
