 Entering Gaussian System, Link 0=g09
 Initial command:
 /home/fb_chem/chemsoft/lx24-amd64/Gaussian_09_C.01_NBO_3.1_64_istanbul-64/g09/l1.exe /local/2400033.1.parallel_long/Gau-7005.inp -scrdir=/local/2400033.1.parallel_long/
 Entering Link 1 = /home/fb_chem/chemsoft/lx24-amd64/Gaussian_09_C.01_NBO_3.1_64_istanbul-64/g09/l1.exe PID=      7006.
  
 Copyright (c) 1988,1990,1992,1993,1995,1998,2003,2009,2011,
            Gaussian, Inc.  All Rights Reserved.
  
 This is part of the Gaussian(R) 09 program.  It is based on
 the Gaussian(R) 03 system (copyright 2003, Gaussian, Inc.),
 the Gaussian(R) 98 system (copyright 1998, Gaussian, Inc.),
 the Gaussian(R) 94 system (copyright 1995, Gaussian, Inc.),
 the Gaussian 92(TM) system (copyright 1992, Gaussian, Inc.),
 the Gaussian 90(TM) system (copyright 1990, Gaussian, Inc.),
 the Gaussian 88(TM) system (copyright 1988, Gaussian, Inc.),
 the Gaussian 86(TM) system (copyright 1986, Carnegie Mellon
 University), and the Gaussian 82(TM) system (copyright 1983,
 Carnegie Mellon University). Gaussian is a federally registered
 trademark of Gaussian, Inc.
  
 This software contains proprietary and confidential information,
 including trade secrets, belonging to Gaussian, Inc.
  
 This software is provided under written license and may be
 used, copied, transmitted, or stored only in accord with that
 written license.
  
 The following legend is applicable only to US Government
 contracts under FAR:
  
                    RESTRICTED RIGHTS LEGEND
  
 Use, reproduction and disclosure by the US Government is
 subject to restrictions as set forth in subparagraphs (a)
 and (c) of the Commercial Computer Software - Restricted
 Rights clause in FAR 52.227-19.
  
 Gaussian, Inc.
 340 Quinnipiac St., Bldg. 40, Wallingford CT 06492
  
  
 ---------------------------------------------------------------
 Warning -- This program may not be used in any manner that
 competes with the business of Gaussian, Inc. or will provide
 assistance to any competitor of Gaussian, Inc.  The licensee
 of this program is prohibited from giving any competitor of
 Gaussian, Inc. access to this program.  By using this program,
 the user acknowledges that Gaussian, Inc. is engaged in the
 business of creating and licensing software in the field of
 computational chemistry and represents and warrants to the
 licensee that it is not a competitor of Gaussian, Inc. and that
 it will not use this program in any manner prohibited above.
 ---------------------------------------------------------------
  

 Cite this work as:
 Gaussian 09, Revision C.01,
 M. J. Frisch, G. W. Trucks, H. B. Schlegel, G. E. Scuseria, 
 M. A. Robb, J. R. Cheeseman, G. Scalmani, V. Barone, B. Mennucci, 
 G. A. Petersson, H. Nakatsuji, M. Caricato, X. Li, H. P. Hratchian, 
 A. F. Izmaylov, J. Bloino, G. Zheng, J. L. Sonnenberg, M. Hada, 
 M. Ehara, K. Toyota, R. Fukuda, J. Hasegawa, M. Ishida, T. Nakajima, 
 Y. Honda, O. Kitao, H. Nakai, T. Vreven, J. A. Montgomery, Jr., 
 J. E. Peralta, F. Ogliaro, M. Bearpark, J. J. Heyd, E. Brothers, 
 K. N. Kudin, V. N. Staroverov, T. Keith, R. Kobayashi, J. Normand, 
 K. Raghavachari, A. Rendell, J. C. Burant, S. S. Iyengar, J. Tomasi, 
 M. Cossi, N. Rega, J. M. Millam, M. Klene, J. E. Knox, J. B. Cross, 
 V. Bakken, C. Adamo, J. Jaramillo, R. Gomperts, R. E. Stratmann, 
 O. Yazyev, A. J. Austin, R. Cammi, C. Pomelli, J. W. Ochterski, 
 R. L. Martin, K. Morokuma, V. G. Zakrzewski, G. A. Voth, 
 P. Salvador, J. J. Dannenberg, S. Dapprich, A. D. Daniels, 
 O. Farkas, J. B. Foresman, J. V. Ortiz, J. Cioslowski, 
 and D. J. Fox, Gaussian, Inc., Wallingford CT, 2010.
 
 ******************************************
 Gaussian 09:  AM64L-G09RevC.01 23-Sep-2011
                17-Feb-2018 
 ******************************************
 %nprocs=2
 Will use up to    2 processors via shared memory.
 %chk=frag26-conf0.chk
 ----------------------------------------------------------------------
 #HF/6-31G* Geom=AllCheck Guess=Read Pop=(MK,ReadRadii) Integral=(Grid=
 UltraFine) iop(6/33=2)
 ----------------------------------------------------------------------
 1/29=7,38=1/1;
 2/12=2,40=1/2;
 3/5=1,6=6,7=1,11=9,14=-4,16=1,25=1,30=1,75=-5,116=-2/1,2,3;
 4/5=1/1;
 5/5=2,38=6/2;
 6/7=2,8=2,9=2,10=2,15=8,20=101,28=1,33=2/1,2;
 99/5=1,9=1/99;
 Structure from the checkpoint file:  frag26-conf0.chk
 -----------------------------
 Optimization for frag26-conf0
 -----------------------------
 Charge =  0 Multiplicity = 1
 Redundant internal coordinates found in file.
 C,0,5.722382881,-2.6627622413,-3.0195966582
 C,0,-0.7217141709,-2.5850207343,-0.8546928172
 C,0,0.4105809249,-1.7312038792,-0.2667101142
 C,0,-0.2427187234,-4.0142206611,-1.147603334
 C,0,1.6575426541,-1.740148942,-1.1656135793
 C,0,1.0026966109,-4.0178603898,-2.0471661719
 C,0,2.1497512789,-3.1716906286,-1.4560926989
 C,0,6.7909633396,-1.6414241928,-4.9512692906
 C,0,5.1139357739,-0.3231648325,-3.7320612663
 C,0,6.5616469753,-3.1449508849,1.5901281479
 C,0,3.363602343,-3.2028081657,-2.4013489016
 C,0,4.6969045055,-2.6195280046,-1.8668750512
 N,0,5.3108666139,-3.3945832899,-0.7825614948
 N,0,5.8363047778,-1.5806690768,-3.8505854239
 O,0,6.3698888564,-3.6952805351,-3.1878073946
 O,0,4.2284606116,-4.343102402,1.3642311975
 O,0,4.3467483751,-1.827520117,0.9406243993
 S,0,4.9291285004,-3.1708741374,0.8256560127
 H,0,-1.5798832743,-2.6042071844,-0.1705624401
 H,0,-1.0767801248,-2.123867885,-1.788905382
 H,0,0.0694884949,-0.6994476734,-0.1117597331
 H,0,0.6856243938,-2.1204110738,0.723708087
 H,0,-0.0022434773,-4.5164233523,-0.1993707482
 H,0,-1.0454420128,-4.5984899003,-1.6159285019
 H,0,1.4176318908,-1.2475654812,-2.1225048195
 H,0,2.4500838054,-1.1556407276,-0.6859246534
 H,0,1.3468867503,-5.0482186424,-2.2092503128
 H,0,0.7354540881,-3.6190624871,-3.038721631
 H,0,2.4360806678,-3.6366893341,-0.5023575226
 H,0,6.2760347138,-1.5068431915,-5.9111586043
 H,0,7.2804162924,-2.6136435191,-4.9314110926
 H,0,7.5425972698,-0.8479724786,-4.84765374
 H,0,5.7896302025,0.4931948227,-3.4413234796
 H,0,4.3096138673,-0.3839866989,-3.0016051349
 H,0,4.6674962073,-0.0634958118,-4.7001884214
 H,0,6.4107247267,-3.0257853104,2.6655857663
 H,0,7.0654784219,-4.0918232849,1.3855804071
 H,0,7.1278689572,-2.3070368433,1.182046846
 H,0,3.5693997785,-4.2380594035,-2.7063304574
 H,0,3.1044976312,-2.6644351088,-3.3256792132
 H,0,4.5540936589,-1.6148216717,-1.4709344272
 H,0,5.5403042092,-4.352088436,-1.0354067115
 Recover connectivity data from disk.
                          Input orientation:                          
 ---------------------------------------------------------------------
 Center     Atomic      Atomic             Coordinates (Angstroms)
 Number     Number       Type             X           Y           Z
 ---------------------------------------------------------------------
      1          6           0        5.722383   -2.662762   -3.019597
      2          6           0       -0.721714   -2.585021   -0.854693
      3          6           0        0.410581   -1.731204   -0.266710
      4          6           0       -0.242719   -4.014221   -1.147603
      5          6           0        1.657543   -1.740149   -1.165614
      6          6           0        1.002697   -4.017860   -2.047166
      7          6           0        2.149751   -3.171691   -1.456093
      8          6           0        6.790963   -1.641424   -4.951269
      9          6           0        5.113936   -0.323165   -3.732061
     10          6           0        6.561647   -3.144951    1.590128
     11          6           0        3.363602   -3.202808   -2.401349
     12          6           0        4.696905   -2.619528   -1.866875
     13          7           0        5.310867   -3.394583   -0.782561
     14          7           0        5.836305   -1.580669   -3.850585
     15          8           0        6.369889   -3.695281   -3.187807
     16          8           0        4.228461   -4.343102    1.364231
     17          8           0        4.346748   -1.827520    0.940624
     18         16           0        4.929129   -3.170874    0.825656
     19          1           0       -1.579883   -2.604207   -0.170562
     20          1           0       -1.076780   -2.123868   -1.788905
     21          1           0        0.069488   -0.699448   -0.111760
     22          1           0        0.685624   -2.120411    0.723708
     23          1           0       -0.002243   -4.516423   -0.199371
     24          1           0       -1.045442   -4.598490   -1.615929
     25          1           0        1.417632   -1.247565   -2.122505
     26          1           0        2.450084   -1.155641   -0.685925
     27          1           0        1.346887   -5.048219   -2.209250
     28          1           0        0.735454   -3.619062   -3.038722
     29          1           0        2.436081   -3.636689   -0.502358
     30          1           0        6.276035   -1.506843   -5.911159
     31          1           0        7.280416   -2.613644   -4.931411
     32          1           0        7.542597   -0.847972   -4.847654
     33          1           0        5.789630    0.493195   -3.441323
     34          1           0        4.309614   -0.383987   -3.001605
     35          1           0        4.667496   -0.063496   -4.700188
     36          1           0        6.410725   -3.025785    2.665586
     37          1           0        7.065478   -4.091823    1.385580
     38          1           0        7.127869   -2.307037    1.182047
     39          1           0        3.569400   -4.238059   -2.706330
     40          1           0        3.104498   -2.664435   -3.325679
     41          1           0        4.554094   -1.614822   -1.470934
     42          1           0        5.540304   -4.352088   -1.035407
 ---------------------------------------------------------------------
                    Distance matrix (angstroms):
                    1          2          3          4          5
     1  C    0.000000
     2  C    6.798473   0.000000
     3  C    6.054868   1.535193   0.000000
     4  C    6.396346   1.535528   2.532773   0.000000
     5  C    4.561951   2.543883   1.537212   2.963565   0.000000
     6  C    5.005732   2.539412   2.957942   1.536322   2.528622
     7  C    3.932842   2.991852   2.552322   2.555178   1.541415
     8  C    2.432356   8.608870   7.915961   8.340906   6.379102
     9  C    2.520224   6.888400   6.009391   6.999790   4.532235
    10  C    4.710248   7.703118   6.578917   7.385810   5.798088
    11  C    2.497544   4.411759   3.929712   3.903309   2.564577
    12  C    1.543451   5.512452   4.660710   5.182895   3.240802
    13  N    2.389400   6.087087   5.200551   5.599957   4.028729
    14  N    1.369104   7.279540   6.504253   7.083983   4.969563
    15  O    1.230306   7.547644   6.921254   6.927535   5.487988
    16  O    4.926793   5.702517   4.904915   5.138961   4.448045
    17  O    4.274734   5.430127   4.118294   5.495959   3.416972
    18  S    3.958964   5.924426   4.866537   5.599374   4.088448
    19  H    7.838591   1.097660   2.175621   2.175030   3.495376
    20  H    6.930630   1.100676   2.164141   2.163414   2.830593
    21  H    6.653220   2.175623   1.097668   3.486856   2.171539
    22  H    6.298842   2.165136   1.099118   2.819600   2.158416
    23  H    6.645380   2.162730   2.816453   1.099628   3.375828
    24  H    7.177798   2.176772   3.487366   1.097754   3.959675
    25  H    4.619355   2.823639   2.166110   3.370694   1.102650
    26  H    4.292480   3.483089   2.160228   3.954214   1.095387
    27  H    5.048963   3.490169   3.956352   2.173268   3.482673
    28  H    5.077828   2.821801   3.369510   2.165479   2.808754
    29  H    4.252624   3.346911   2.790888   2.781158   2.154738
    30  H    3.162880   8.700506   8.143321   8.454144   6.626092
    31  H    2.466762   8.980787   8.350615   8.536766   6.823557
    32  H    3.154114   9.341302   8.522371   9.182954   6.999090
    33  H    3.184720   7.652691   6.630256   7.871924   5.219275
    34  H    2.681242   5.896443   4.949455   6.110618   3.499075
    35  H    3.270070   7.084456   6.368540   7.234590   4.936011
    36  H    5.738197   7.966073   6.802648   7.732123   6.238885
    37  H    4.822002   8.241944   7.251913   7.735166   6.425320
    38  H    4.444743   8.114280   6.895828   7.916269   5.979744
    39  H    2.686081   4.957293   4.713195   4.124558   3.502651
    40  H    2.635719   4.555434   4.181555   4.215423   2.759324
    41  H    2.204866   5.399554   4.316526   5.373180   2.915293
    42  H    2.612276   6.509075   5.811539   5.793971   4.681348
                    6          7          8          9         10
     6  C    0.000000
     7  C    1.543083   0.000000
     8  C    6.898210   6.008230   0.000000
     9  C    5.778575   4.698992   2.456969   0.000000
    10  C    6.700284   5.361436   6.715881   6.195486   0.000000
    11  C    2.522624   1.538802   4.548276   3.623094   5.114951
    12  C    3.954113   2.638487   3.854252   2.987661   3.962853
    13  N    4.532993   3.239749   4.758401   4.262856   2.693775
    14  N    5.705786   4.675000   1.458276   1.455054   5.707404
    15  O    5.496533   4.591573   2.739604   3.639340   4.813346
    16  O    4.706269   3.694248   7.331510   6.551043   2.632557
    17  O    4.990708   3.518216   6.381476   4.968466   2.657678
    18  S    4.938356   3.596014   6.259274   5.377396   1.802833
    19  H    3.491386   3.985574   9.687785   7.917995   8.347272
    20  H    2.824558   3.408695   8.493214   6.733747   8.414633
    21  H    3.953295   3.499530   8.335850   6.220500   7.143181
    22  H    3.373217   2.828496   8.349249   6.534058   6.027272
    23  H    2.161670   2.831738   8.774612   7.499241   6.940310
    24  H    2.172088   3.502936   9.015430   7.790658   8.382087
    25  H    2.802210   2.163876   6.085205   4.136164   6.621526
    26  H    3.484280   2.178948   6.105111   4.131352   5.103207
    27  H    1.098352   2.175591   6.983043   6.231833   6.726918
    28  H    1.101654   2.169123   6.651172   5.524017   7.456243
    29  H    2.141568   1.099008   6.537500   5.346152   4.651946
    30  H    7.003124   6.296471   1.097566   2.738619   7.683376
    31  H    7.049855   6.221975   1.088655   3.373184   6.582506
    32  H    7.788531   6.781234   1.097841   2.723668   6.905317
    33  H    6.723691   5.533647   2.799858   1.098879   6.256806
    34  H    5.005167   3.850313   3.396974   1.088209   5.811935
    35  H    6.008850   5.150153   2.657445   1.097272   7.256118
    36  H    7.241617   5.930044   7.750969   7.065105   1.092514
    37  H    6.967535   5.752054   6.799668   6.648425   1.091903
    38  H    7.132494   5.699918   6.178520   5.669227   1.090522
    39  H    2.659126   2.171552   4.707519   4.331757   5.348643
    40  H    2.807832   2.159676   4.156817   3.111998   6.028925
    41  H    4.326553   2.864424   4.137273   2.663549   3.967577
    42  H    4.661035   3.614715   4.924005   4.866822   3.064923
                   11         12         13         14         15
    11  C    0.000000
    12  C    1.550346   0.000000
    13  N    2.539506   1.467445   0.000000
    14  N    3.293308   2.512482   3.602657   0.000000
    15  O    3.146237   2.387673   2.645214   2.279379   0.000000
    16  O    4.028380   3.691910   2.584572   6.116413   5.072124
    17  O    3.745234   2.938016   2.520829   5.023485   4.962416
    18  S    3.586844   2.758194   1.667973   5.021848   4.296357
    19  H    5.456444   6.501982   6.962878   8.342065   8.572811
    20  H    4.610444   5.795446   6.590104   7.234385   7.738162
    21  H    4.728659   5.308495   5.931760   6.929036   7.624443
    22  H    4.255482   4.801105   5.028442   6.909775   7.077502
    23  H    4.231219   5.334864   5.461481   7.485898   7.085838
    24  H    4.690894   6.078964   6.522772   7.839603   7.633723
    25  H    2.772639   3.563882   4.643534   4.756248   5.625925
    26  H    2.822781   2.930156   3.634045   4.654269   5.298496
    27  H    2.740362   4.151913   4.525824   5.905316   5.293257
    28  H    2.736179   4.250339   5.106373   5.552733   5.636922
    29  H    2.157479   2.829814   2.898538   5.196092   4.763394
    30  H    4.865935   4.481958   5.549560   2.108263   3.494955
    31  H    4.699975   4.008235   4.658535   2.078624   2.244806
    32  H    5.384576   4.485690   5.290635   2.107706   3.498214
    33  H    4.541761   3.655404   4.734242   2.114376   4.236071
    34  H    3.033315   2.536780   3.871738   2.117452   3.904366
    35  H    4.103667   3.815997   5.182458   2.095174   4.286642
    36  H    5.915245   4.862656   3.638052   6.699165   5.891698
    37  H    5.369829   4.284421   2.875004   5.935840   4.642948
    38  H    5.273787   3.911926   2.888588   5.246250   4.647298
    39  H    1.098686   2.143734   2.728561   3.675582   2.892951
    40  H    1.100621   2.160066   3.445088   2.985439   3.427015
    41  H    2.191949   1.089311   2.052831   2.703326   3.251626
    42  H    2.815080   2.098673   1.016557   3.961516   2.398424
                   16         17         18         19         20
    16  O    0.000000
    17  O    2.553740   0.000000
    18  S    1.468032   1.468668   0.000000
    19  H    6.254295   6.079716   6.609145   0.000000
    20  H    6.558418   6.078883   6.633483   1.761497   0.000000
    21  H    5.722920   4.546978   5.531980   2.520316   2.481073
    22  H    4.231113   3.679221   4.372779   2.483204   3.069089
    23  H    4.513729   5.238656   5.213407   2.479183   3.066850
    24  H    6.063054   6.579510   6.610213   2.520292   2.480858
    25  H    5.444303   4.277713   4.972060   3.825657   2.664824
    26  H    4.186368   2.587358   3.534361   4.313302   3.820052
    27  H    4.644397   5.412373   5.056435   4.323820   3.821345
    28  H    5.666685   5.664474   5.720244   3.823226   2.661173
    29  H    2.682499   3.000990   2.862847   4.159817   4.035347
    30  H    8.072684   7.125441   7.068792   9.791532   8.452075
    31  H    7.206981   6.610991   6.243627  10.058364   8.941921
    32  H    7.860468   6.684095   6.664273  10.400923   9.234583
    33  H    6.994310   5.164213   5.689726   8.637216   7.531739
    34  H    5.894210   4.198374   4.774774   6.901475   5.788874
    35  H    7.435386   5.918904   6.345014   8.124191   6.761465
    36  H    2.862014   2.944712   2.366753   8.489481   8.758920
    37  H    2.848204   3.566027   2.392834   8.909369   8.958046
    38  H    3.547580   2.832464   2.389077   8.817188   8.727908
    39  H    4.124908   4.440186   3.932261   5.967806   5.186373
    40  H    5.106513   4.521610   4.562822   5.648169   4.487424
    41  H    3.948128   2.429784   2.799335   6.347876   5.662771
    42  H    2.734827   3.420924   2.287435   7.382419   7.022715
                   21         22         23         24         25
    21  H    0.000000
    22  H    1.759763   0.000000
    23  H    3.818655   2.658216   0.000000
    24  H    4.325289   3.822482   1.761146   0.000000
    25  H    2.482140   3.065717   4.049682   4.189516   0.000000
    26  H    2.490986   2.455843   4.188735   4.993678   1.771488
    27  H    4.994299   4.196614   2.478422   2.505499   3.802301
    28  H    4.187453   4.050224   3.067795   2.480969   2.632265
    29  H    3.792191   2.620388   2.609819   3.779696   3.061050
    30  H    8.532651   8.697736   9.005491   9.033897   6.166458
    31  H    8.882042   8.701433   8.891002   9.178886   6.642918
    32  H    8.848622   8.926211   9.591073   9.912863   6.715751
    33  H    6.725207   7.087263   8.315788   8.716394   4.887116
    34  H    5.140952   5.479638   6.597095   6.954046   3.143588
    35  H    6.526851   7.035969   7.867172   7.919375   4.313710
    36  H    7.303203   6.112885   7.180260   8.740663   7.142748
    37  H    7.917962   6.710222   7.255691   8.663302   7.231503
    38  H    7.353843   6.461224   7.591324   8.937697   6.682017
    39  H    5.612749   4.956386   4.372524   4.755592   3.730149
    40  H    4.837534   4.748099   4.780743   4.887312   2.510112
    41  H    4.774615   4.476285   5.549448   6.346503   3.224409
    42  H    6.642645   5.625192   5.607655   6.615873   5.274113
                   26         27         28         29         30
    26  H    0.000000
    27  H    4.323162   0.000000
    28  H    3.813667   1.761919   0.000000
    29  H    2.487870   2.468247   3.053782   0.000000
    30  H    6.485701   7.109287   6.588657   6.966823   0.000000
    31  H    6.594091   6.967359   6.886920   6.643096   1.787091
    32  H    6.583946   7.936628   7.568908   7.261890   1.780262
    33  H    4.632866   7.208553   6.528204   6.077809   3.215094
    34  H    3.068498   5.582171   4.820966   4.509594   3.686885
    35  H    4.714235   6.486808   5.555491   5.947160   2.477316
    36  H    5.515137   7.314145   8.068445   5.119264   8.711250
    37  H    5.849288   6.822008   7.737387   5.020237   7.781243
    38  H    5.166885   7.241183   7.771696   5.159270   7.188845
    39  H    3.851780   2.417232   2.919741   2.550207   5.005631
    40  H    3.110148   3.165128   2.570219   3.059935   4.252455
    41  H    2.292149   4.755996   4.588785   3.084164   4.763647
    42  H    4.459695   4.409904   5.257108   3.229883   5.692950
                   31         32         33         34         35
    31  H    0.000000
    32  H    1.786994   0.000000
    33  H    3.754364   2.617134   0.000000
    34  H    4.185832   3.751714   1.775739   0.000000
    35  H    3.658424   2.983849   1.775903   1.765214   0.000000
    36  H    7.657714   7.903972   7.075544   6.596273   8.128261
    37  H    6.491194   7.042969   6.778583   6.371047   7.682078
    38  H    6.123042   6.217568   5.568459   5.398484   6.759260
    39  H    4.621835   5.644843   5.277727   3.935604   4.754815
    40  H    4.474288   5.031170   4.146557   2.599572   3.331235
    41  H    4.517231   4.573997   3.138904   1.979312   3.584348
    42  H    4.607497   5.551687   5.415475   4.596343   5.708279
                   36         37         38         39         40
    36  H    0.000000
    37  H    1.789847   0.000000
    38  H    1.797716   1.797437   0.000000
    39  H    6.196791   5.384021   5.613469   0.000000
    40  H    6.852515   6.318447   6.052673   1.753859   0.000000
    41  H    4.748547   4.538972   3.760557   3.062222   2.577420
    42  H    4.026668   2.873164   3.408768   2.586398   3.745220
                   41         42
    41  H    0.000000
    42  H    2.941925   0.000000
 Stoichiometry    C12H24N2O3S
 Framework group  C1[X(C12H24N2O3S)]
 Deg. of freedom   120
 Full point group                 C1      NOp   1
 Largest Abelian subgroup         C1      NOp   1
 Largest concise Abelian subgroup C1      NOp   1
                         Standard orientation:                         
 ---------------------------------------------------------------------
 Center     Atomic      Atomic             Coordinates (Angstroms)
 Number     Number       Type             X           Y           Z
 ---------------------------------------------------------------------
      1          6           0       -2.382642   -0.789199   -0.475358
      2          6           0        4.331021   -1.417859    0.391107
      3          6           0        3.392018   -0.660705    1.340744
      4          6           0        3.975681   -1.140350   -1.076737
      5          6           0        1.914642   -0.966149    1.045641
      6          6           0        2.498766   -1.448282   -1.366884
      7          6           0        1.548371   -0.680726   -0.424168
      8          6           0       -4.217121   -2.332167   -0.062699
      9          6           0       -2.403048   -2.231442    1.591293
     10          6           0       -1.384961    3.745480    0.316953
     11          6           0        0.087297   -1.034849   -0.752454
     12          6           0       -1.019683   -0.180141   -0.083395
     13          7           0       -1.078459    1.211686   -0.544655
     14          7           0       -2.940871   -1.745736    0.329541
     15          8           0       -2.900435   -0.431909   -1.532659
     16          8           0        0.838403    2.922181   -0.827243
     17          8           0        0.232904    1.978307    1.467111
     18         16           0       -0.163306    2.433199    0.128053
     19          1           0        5.375401   -1.143380    0.588054
     20          1           0        4.249732   -2.498272    0.584980
     21          1           0        3.623333   -0.909300    2.384568
     22          1           0        3.557917    0.420557    1.233930
     23          1           0        4.173045   -0.082451   -1.302743
     24          1           0        4.619498   -1.727912   -1.744071
     25          1           0        1.714860   -2.029154    1.259989
     26          1           0        1.284353   -0.372565    1.716661
     27          1           0        2.261777   -1.205138   -2.411438
     28          1           0        2.323978   -2.529834   -1.251407
     29          1           0        1.700585    0.390959   -0.614279
     30          1           0       -4.116783   -3.418294   -0.184807
     31          1           0       -4.528255   -1.884886   -1.005198
     32          1           0       -4.977076   -2.139159    0.705723
     33          1           0       -3.027121   -1.907917    2.435923
     34          1           0       -1.385414   -1.884578    1.759533
     35          1           0       -2.385630   -3.328558    1.584983
     36          1           0       -0.864792    4.610734    0.734500
     37          1           0       -1.795692    3.993230   -0.663952
     38          1           0       -2.169633    3.401128    0.991453
     39          1           0       -0.074631   -0.971535   -1.837296
     40          1           0       -0.088996   -2.087704   -0.484528
     41          1           0       -0.877903   -0.130615    0.995514
     42          1           0       -1.253360    1.311510   -1.541065
 ---------------------------------------------------------------------
 Rotational constants (GHZ):      0.4122898      0.2738197      0.1969192
 Standard basis: 6-31G(d) (6D, 7F)
 There are   322 symmetry adapted basis functions of A   symmetry.
 Integral buffers will be    131072 words long.
 Raffenetti 1 integral format.
 Two-electron integral symmetry is turned on.
   322 basis functions,   624 primitive gaussians,   322 cartesian basis functions
    75 alpha electrons       75 beta electrons
       nuclear repulsion energy      1654.8089485635 Hartrees.
 NAtoms=   42 NActive=   42 NUniq=   42 SFac= 1.00D+00 NAtFMM=   60 NAOKFM=F Big=F
 One-electron integrals computed using PRISM.
 NBasis=   322 RedAO= T  NBF=   322
 NBsUse=   322 1.00D-06 NBFU=   322
 Initial guess read from the checkpoint file:  frag26-conf0.chk
 B after Tr=     0.000000    0.000000    0.000000
         Rot=    1.000000    0.000000    0.000000    0.000000 Ang=   0.00 deg.
 Initial guess orbital symmetries:
       Occupied  (A) (A) (A) (A) (A) (A) (A) (A) (A) (A) (A) (A)
                 (A) (A) (A) (A) (A) (A) (A) (A) (A) (A) (A) (A)
                 (A) (A) (A) (A) (A) (A) (A) (A) (A) (A) (A) (A)
                 (A) (A) (A) (A) (A) (A) (A) (A) (A) (A) (A) (A)
                 (A) (A) (A) (A) (A) (A) (A) (A) (A) (A) (A) (A)
                 (A) (A) (A) (A) (A) (A) (A) (A) (A) (A) (A) (A)
                 (A) (A) (A)
       Virtual   (A) (A) (A) (A) (A) (A) (A) (A) (A) (A) (A) (A)
                 (A) (A) (A) (A) (A) (A) (A) (A) (A) (A) (A) (A)
                 (A) (A) (A) (A) (A) (A) (A) (A) (A) (A) (A) (A)
                 (A) (A) (A) (A) (A) (A) (A) (A) (A) (A) (A) (A)
                 (A) (A) (A) (A) (A) (A) (A) (A) (A) (A) (A) (A)
                 (A) (A) (A) (A) (A) (A) (A) (A) (A) (A) (A) (A)
                 (A) (A) (A) (A) (A) (A) (A) (A) (A) (A) (A) (A)
                 (A) (A) (A) (A) (A) (A) (A) (A) (A) (A) (A) (A)
                 (A) (A) (A) (A) (A) (A) (A) (A) (A) (A) (A) (A)
                 (A) (A) (A) (A) (A) (A) (A) (A) (A) (A) (A) (A)
                 (A) (A) (A) (A) (A) (A) (A) (A) (A) (A) (A) (A)
                 (A) (A) (A) (A) (A) (A) (A) (A) (A) (A) (A) (A)
                 (A) (A) (A) (A) (A) (A) (A) (A) (A) (A) (A) (A)
                 (A) (A) (A) (A) (A) (A) (A) (A) (A) (A) (A) (A)
                 (A) (A) (A) (A) (A) (A) (A) (A) (A) (A) (A) (A)
                 (A) (A) (A) (A) (A) (A) (A) (A) (A) (A) (A) (A)
                 (A) (A) (A) (A) (A) (A) (A) (A) (A) (A) (A) (A)
                 (A) (A) (A) (A) (A) (A) (A) (A) (A) (A) (A) (A)
                 (A) (A) (A) (A) (A) (A) (A) (A) (A) (A) (A) (A)
                 (A) (A) (A) (A) (A) (A) (A) (A) (A) (A) (A) (A)
                 (A) (A) (A) (A) (A) (A) (A)
 Requested convergence on RMS density matrix=1.00D-08 within 128 cycles.
 Requested convergence on MAX density matrix=1.00D-06.
 Requested convergence on             energy=1.00D-06.
 No special actions if energy rises.
 SCF Done:  E(RHF) =  -1199.32558798     A.U. after   13 cycles
             Convg  =    0.4782D-08             -V/T =  2.0021

 **********************************************************************

            Population analysis using the SCF density.

 **********************************************************************

 Orbital symmetries:
 BldTbl:  Degeneracy threshold= 1.00D-02
       Occupied  (A) (A) (A) (A) (A) (A) (A) (A) (A) (A) (A) (A)
                 (A) (A) (A) (A) (A) (A) (A) (A) (A) (A) (A) (A)
                 (A) (A) (A) (A) (A) (A) (A) (A) (A) (A) (A) (A)
                 (A) (A) (A) (A) (A) (A) (A) (A) (A) (A) (A) (A)
                 (A) (A) (A) (A) (A) (A) (A) (A) (A) (A) (A) (A)
                 (A) (A) (A) (A) (A) (A) (A) (A) (A) (A) (A) (A)
                 (A) (A) (A)
       Virtual   (A) (A) (A) (A) (A) (A) (A) (A) (A) (A) (A) (A)
                 (A) (A) (A) (A) (A) (A) (A) (A) (A) (A) (A) (A)
                 (A) (A) (A) (A) (A) (A) (A) (A) (A) (A) (A) (A)
                 (A) (A) (A) (A) (A) (A) (A) (A) (A) (A) (A) (A)
                 (A) (A) (A) (A) (A) (A) (A) (A) (A) (A) (A) (A)
                 (A) (A) (A) (A) (A) (A) (A) (A) (A) (A) (A) (A)
                 (A) (A) (A) (A) (A) (A) (A) (A) (A) (A) (A) (A)
                 (A) (A) (A) (A) (A) (A) (A) (A) (A) (A) (A) (A)
                 (A) (A) (A) (A) (A) (A) (A) (A) (A) (A) (A) (A)
                 (A) (A) (A) (A) (A) (A) (A) (A) (A) (A) (A) (A)
                 (A) (A) (A) (A) (A) (A) (A) (A) (A) (A) (A) (A)
                 (A) (A) (A) (A) (A) (A) (A) (A) (A) (A) (A) (A)
                 (A) (A) (A) (A) (A) (A) (A) (A) (A) (A) (A) (A)
                 (A) (A) (A) (A) (A) (A) (A) (A) (A) (A) (A) (A)
                 (A) (A) (A) (A) (A) (A) (A) (A) (A) (A) (A) (A)
                 (A) (A) (A) (A) (A) (A) (A) (A) (A) (A) (A) (A)
                 (A) (A) (A) (A) (A) (A) (A) (A) (A) (A) (A) (A)
                 (A) (A) (A) (A) (A) (A) (A) (A) (A) (A) (A) (A)
                 (A) (A) (A) (A) (A) (A) (A) (A) (A) (A) (A) (A)
                 (A) (A) (A) (A) (A) (A) (A) (A) (A) (A) (A) (A)
                 (A) (A) (A) (A) (A) (A) (A)
 The electronic state is 1-A.
 Alpha  occ. eigenvalues --  -92.21403 -20.55838 -20.55489 -20.53154 -15.60635
 Alpha  occ. eigenvalues --  -15.60264 -11.36409 -11.29747 -11.28182 -11.27676
 Alpha  occ. eigenvalues --  -11.26355 -11.23627 -11.22377 -11.21552 -11.21237
 Alpha  occ. eigenvalues --  -11.21151 -11.21132 -11.20974  -9.18447  -6.87055
 Alpha  occ. eigenvalues --   -6.87021  -6.86924  -1.45281  -1.38639  -1.33404
 Alpha  occ. eigenvalues --   -1.25321  -1.23536  -1.11724  -1.06384  -1.02898
 Alpha  occ. eigenvalues --   -0.99707  -0.99382  -0.98036  -0.93999  -0.88711
 Alpha  occ. eigenvalues --   -0.83290  -0.82361  -0.79580  -0.75910  -0.74465
 Alpha  occ. eigenvalues --   -0.73411  -0.68770  -0.67770  -0.67198  -0.66072
 Alpha  occ. eigenvalues --   -0.65260  -0.63607  -0.62351  -0.61760  -0.60414
 Alpha  occ. eigenvalues --   -0.59821  -0.59533  -0.58818  -0.58268  -0.57145
 Alpha  occ. eigenvalues --   -0.56771  -0.56251  -0.54420  -0.53966  -0.52512
 Alpha  occ. eigenvalues --   -0.51838  -0.51016  -0.50504  -0.49362  -0.48441
 Alpha  occ. eigenvalues --   -0.47479  -0.46949  -0.46504  -0.45555  -0.44292
 Alpha  occ. eigenvalues --   -0.43482  -0.42842  -0.41846  -0.40020  -0.37841
 Alpha virt. eigenvalues --    0.18279   0.20764   0.21826   0.23268   0.23717
 Alpha virt. eigenvalues --    0.24403   0.25019   0.25713   0.26310   0.27786
 Alpha virt. eigenvalues --    0.27942   0.28398   0.28738   0.29500   0.30070
 Alpha virt. eigenvalues --    0.30429   0.30739   0.31440   0.31765   0.32030
 Alpha virt. eigenvalues --    0.32338   0.32791   0.33271   0.33581   0.34083
 Alpha virt. eigenvalues --    0.34429   0.35133   0.36244   0.37109   0.37753
 Alpha virt. eigenvalues --    0.38901   0.40144   0.40965   0.42786   0.43333
 Alpha virt. eigenvalues --    0.44938   0.46627   0.47172   0.47742   0.48696
 Alpha virt. eigenvalues --    0.50639   0.53763   0.57074   0.59009   0.62191
 Alpha virt. eigenvalues --    0.65594   0.66331   0.68907   0.70824   0.71574
 Alpha virt. eigenvalues --    0.71880   0.73527   0.74080   0.74670   0.75154
 Alpha virt. eigenvalues --    0.75602   0.76250   0.77487   0.78886   0.80537
 Alpha virt. eigenvalues --    0.83396   0.86176   0.87470   0.87937   0.89281
 Alpha virt. eigenvalues --    0.90496   0.92128   0.92263   0.93921   0.94278
 Alpha virt. eigenvalues --    0.95960   0.96266   0.96827   0.99090   0.99414
 Alpha virt. eigenvalues --    1.01218   1.02475   1.03054   1.04416   1.05039
 Alpha virt. eigenvalues --    1.06238   1.06672   1.06976   1.07635   1.09217
 Alpha virt. eigenvalues --    1.10490   1.11539   1.12233   1.12392   1.13398
 Alpha virt. eigenvalues --    1.13612   1.13721   1.14632   1.14829   1.15574
 Alpha virt. eigenvalues --    1.15962   1.16683   1.17348   1.18503   1.19265
 Alpha virt. eigenvalues --    1.19550   1.20000   1.20976   1.21518   1.22073
 Alpha virt. eigenvalues --    1.22508   1.23075   1.23971   1.24253   1.25055
 Alpha virt. eigenvalues --    1.25208   1.27330   1.28209   1.29426   1.32612
 Alpha virt. eigenvalues --    1.33106   1.34420   1.37196   1.40239   1.40658
 Alpha virt. eigenvalues --    1.41686   1.42230   1.44479   1.45699   1.47461
 Alpha virt. eigenvalues --    1.51628   1.52584   1.52837   1.54091   1.55941
 Alpha virt. eigenvalues --    1.58821   1.62194   1.63817   1.64641   1.65533
 Alpha virt. eigenvalues --    1.66231   1.68640   1.69991   1.70922   1.74273
 Alpha virt. eigenvalues --    1.75003   1.78343   1.82921   1.84193   1.87245
 Alpha virt. eigenvalues --    1.89949   1.92774   1.95565   1.97665   1.99987
 Alpha virt. eigenvalues --    2.00852   2.02332   2.03598   2.04300   2.06237
 Alpha virt. eigenvalues --    2.07288   2.10489   2.11389   2.11427   2.13359
 Alpha virt. eigenvalues --    2.14739   2.16526   2.17580   2.18121   2.19869
 Alpha virt. eigenvalues --    2.20987   2.22100   2.22703   2.23913   2.24280
 Alpha virt. eigenvalues --    2.25513   2.27737   2.28280   2.29566   2.30968
 Alpha virt. eigenvalues --    2.31705   2.33662   2.34965   2.35760   2.35824
 Alpha virt. eigenvalues --    2.38109   2.39158   2.39966   2.41402   2.42911
 Alpha virt. eigenvalues --    2.44188   2.45862   2.46641   2.47331   2.51938
 Alpha virt. eigenvalues --    2.51959   2.52690   2.55027   2.55723   2.57852
 Alpha virt. eigenvalues --    2.58871   2.62001   2.64077   2.65330   2.65873
 Alpha virt. eigenvalues --    2.68062   2.69835   2.72046   2.72284   2.73522
 Alpha virt. eigenvalues --    2.74267   2.75160   2.76645   2.80064   2.84040
 Alpha virt. eigenvalues --    2.85129   2.90502   2.92768   2.94088   2.96905
 Alpha virt. eigenvalues --    2.98675   3.00676   3.02940   3.07440   3.09252
 Alpha virt. eigenvalues --    3.11850   3.13551   3.16198   3.18573   3.19776
 Alpha virt. eigenvalues --    3.24662   3.31005   3.38179   3.55289   4.19910
 Alpha virt. eigenvalues --    4.30599   4.38946   4.42149   4.50380   4.56391
 Alpha virt. eigenvalues --    4.60053   4.63146   4.64767   4.69696   4.69983
 Alpha virt. eigenvalues --    4.76799   4.79809   4.89426   4.98854   5.00473
 Alpha virt. eigenvalues --    5.06693   5.12768
          Condensed to atoms (all electrons):
              1          2          3          4          5          6
     1  C    4.163407   0.000000   0.000002   0.000001  -0.000150  -0.000063
     2  C    0.000000   5.107045   0.340303   0.340352  -0.056513  -0.055678
     3  C    0.000002   0.340303   5.087020  -0.057016   0.343656  -0.004174
     4  C    0.000001   0.340352  -0.057016   5.093822  -0.003300   0.341808
     5  C   -0.000150  -0.056513   0.343656  -0.003300   5.150124  -0.057827
     6  C   -0.000063  -0.055678  -0.004174   0.341808  -0.057827   5.115364
     7  C    0.003656  -0.004199  -0.047161  -0.048689   0.339556   0.353751
     8  C   -0.031326   0.000000   0.000000   0.000000   0.000000   0.000000
     9  C   -0.025153   0.000000   0.000002   0.000000  -0.000193  -0.000001
    10  C   -0.000151   0.000000   0.000000   0.000000  -0.000001   0.000000
    11  C   -0.060115  -0.000336   0.003921   0.004114  -0.057553  -0.057443
    12  C    0.358281   0.000005  -0.000053  -0.000078  -0.001419   0.004040
    13  N   -0.059514   0.000000  -0.000001   0.000003   0.000090  -0.000128
    14  N    0.302529   0.000000   0.000000   0.000000   0.000017   0.000000
    15  O    0.566928   0.000000   0.000000   0.000000  -0.000002  -0.000001
    16  O   -0.000049   0.000000   0.000002  -0.000001   0.000010   0.000021
    17  O    0.000041   0.000000  -0.000159   0.000000  -0.002204   0.000015
    18  S   -0.000165   0.000004  -0.000027  -0.000009  -0.000265   0.000040
    19  H    0.000000   0.403114  -0.037394  -0.037555   0.004417   0.004429
    20  H    0.000000   0.393554  -0.043239  -0.043792  -0.002983  -0.003039
    21  H    0.000000  -0.038023   0.402393   0.004427  -0.038326  -0.000346
    22  H    0.000000  -0.042572   0.398759  -0.002814  -0.042285   0.000459
    23  H    0.000000  -0.042625  -0.002657   0.397807   0.000431  -0.042442
    24  H    0.000000  -0.037250   0.004349   0.402135  -0.000374  -0.038479
    25  H   -0.000039  -0.003208  -0.041744   0.000377   0.385718  -0.003250
    26  H    0.000109   0.003955  -0.032121  -0.000321   0.400244   0.003920
    27  H   -0.000003   0.004150  -0.000345  -0.034771   0.004395   0.400024
    28  H   -0.000006  -0.003088   0.000420  -0.041538  -0.003360   0.391937
    29  H   -0.000181   0.000041  -0.001775  -0.001951  -0.042296  -0.042267
    30  H    0.001856   0.000000   0.000000   0.000000   0.000000   0.000000
    31  H   -0.004897   0.000000   0.000000   0.000000   0.000000   0.000000
    32  H    0.000653   0.000000   0.000000   0.000000   0.000000   0.000000
    33  H    0.000081   0.000000   0.000000   0.000000   0.000001   0.000000
    34  H   -0.003110   0.000001  -0.000010   0.000000   0.000649   0.000002
    35  H    0.001231   0.000000   0.000000   0.000000  -0.000001   0.000000
    36  H    0.000000   0.000000   0.000000   0.000000   0.000000   0.000000
    37  H    0.000010   0.000000   0.000000   0.000000   0.000000   0.000000
    38  H    0.000048   0.000000   0.000000   0.000000   0.000000   0.000000
    39  H   -0.003157   0.000002  -0.000077   0.000030   0.003934  -0.004569
    40  H   -0.000056   0.000009  -0.000049  -0.000046  -0.004102  -0.003424
    41  H   -0.032313   0.000000  -0.000015   0.000000   0.001134  -0.000040
    42  H   -0.004737   0.000000   0.000000   0.000000   0.000000  -0.000009
              7          8          9         10         11         12
     1  C    0.003656  -0.031326  -0.025153  -0.000151  -0.060115   0.358281
     2  C   -0.004199   0.000000   0.000000   0.000000  -0.000336   0.000005
     3  C   -0.047161   0.000000   0.000002   0.000000   0.003921  -0.000053
     4  C   -0.048689   0.000000   0.000000   0.000000   0.004114  -0.000078
     5  C    0.339556   0.000000  -0.000193  -0.000001  -0.057553  -0.001419
     6  C    0.353751   0.000000  -0.000001   0.000000  -0.057443   0.004040
     7  C    5.135946   0.000003   0.000064  -0.000034   0.340873  -0.038925
     8  C    0.000003   4.974413  -0.049756   0.000000  -0.000263   0.003462
     9  C    0.000064  -0.049756   4.950771   0.000000  -0.000626  -0.001139
    10  C   -0.000034   0.000000   0.000000   5.490888  -0.000101   0.001510
    11  C    0.340873  -0.000263  -0.000626  -0.000101   5.198227   0.329508
    12  C   -0.038925   0.003462  -0.001139   0.001510   0.329508   5.108666
    13  N    0.002266  -0.000104   0.000294  -0.066080  -0.068860   0.216573
    14  N   -0.000044   0.215957   0.220770   0.000000   0.000070  -0.094823
    15  O    0.000002  -0.007730   0.001672   0.000002  -0.001037  -0.080941
    16  O   -0.003596   0.000000   0.000000  -0.064669   0.000773  -0.000413
    17  O    0.001110   0.000000   0.000002  -0.058087  -0.001285   0.000613
    18  S    0.000235  -0.000001   0.000011   0.315426  -0.001819  -0.018329
    19  H   -0.000277   0.000000   0.000000   0.000000   0.000010   0.000000
    20  H    0.000226   0.000000   0.000000   0.000000  -0.000057   0.000000
    21  H    0.004185   0.000000   0.000000   0.000000  -0.000088   0.000000
    22  H   -0.003658   0.000000   0.000000   0.000000  -0.000092   0.000008
    23  H   -0.003907   0.000000   0.000000   0.000000  -0.000111   0.000002
    24  H    0.004343   0.000000   0.000000   0.000000  -0.000090   0.000001
    25  H   -0.047732   0.000000  -0.000078   0.000000  -0.003851   0.000087
    26  H   -0.034458   0.000000  -0.000081   0.000011  -0.003416  -0.000409
    27  H   -0.038611   0.000000   0.000000   0.000000  -0.004326  -0.000098
    28  H   -0.045300   0.000000   0.000000   0.000000  -0.004524  -0.000037
    29  H    0.397915   0.000000  -0.000003   0.000060  -0.040151  -0.004024
    30  H    0.000000   0.398748  -0.002723   0.000000   0.000033  -0.000058
    31  H    0.000000   0.395330   0.003062   0.000000  -0.000023   0.000569
    32  H    0.000000   0.398991  -0.001246   0.000000  -0.000003  -0.000077
    33  H    0.000000  -0.000843   0.399198   0.000000  -0.000017  -0.000079
    34  H   -0.000098   0.003302   0.398558   0.000000  -0.001328   0.000064
    35  H   -0.000005  -0.002620   0.399645   0.000000   0.000184  -0.000236
    36  H    0.000000   0.000000   0.000000   0.367772   0.000002  -0.000022
    37  H    0.000000   0.000000   0.000000   0.355443   0.000003  -0.000028
    38  H    0.000002   0.000000   0.000000   0.356137   0.000000  -0.000140
    39  H   -0.037868   0.000004  -0.000032   0.000002   0.398406  -0.041955
    40  H   -0.035445  -0.000065  -0.000637   0.000001   0.384372  -0.043862
    41  H   -0.002543  -0.000098  -0.004142   0.000084  -0.032642   0.403605
    42  H   -0.000131  -0.000004  -0.000024  -0.000381   0.000219  -0.020416
             13         14         15         16         17         18
     1  C   -0.059514   0.302529   0.566928  -0.000049   0.000041  -0.000165
     2  C    0.000000   0.000000   0.000000   0.000000   0.000000   0.000004
     3  C   -0.000001   0.000000   0.000000   0.000002  -0.000159  -0.000027
     4  C    0.000003   0.000000   0.000000  -0.000001   0.000000  -0.000009
     5  C    0.000090   0.000017  -0.000002   0.000010  -0.002204  -0.000265
     6  C   -0.000128   0.000000  -0.000001   0.000021   0.000015   0.000040
     7  C    0.002266  -0.000044   0.000002  -0.003596   0.001110   0.000235
     8  C   -0.000104   0.215957  -0.007730   0.000000   0.000000  -0.000001
     9  C    0.000294   0.220770   0.001672   0.000000   0.000002   0.000011
    10  C   -0.066080   0.000000   0.000002  -0.064669  -0.058087   0.315426
    11  C   -0.068860   0.000070  -0.001037   0.000773  -0.001285  -0.001819
    12  C    0.216573  -0.094823  -0.080941  -0.000413   0.000613  -0.018329
    13  N    7.537203   0.001221  -0.006122  -0.052294  -0.054304   0.191338
    14  N    0.001221   7.370752  -0.091624   0.000000  -0.000003  -0.000100
    15  O   -0.006122  -0.091624   8.242560   0.000000  -0.000002  -0.000444
    16  O   -0.052294   0.000000   0.000000   8.362376  -0.036124   0.475149
    17  O   -0.054304  -0.000003  -0.000002  -0.036124   8.381934   0.469941
    18  S    0.191338  -0.000100  -0.000444   0.475149   0.469941  12.981709
    19  H    0.000000   0.000000   0.000000   0.000000   0.000000   0.000000
    20  H    0.000000   0.000000   0.000000   0.000000   0.000000   0.000000
    21  H    0.000000   0.000000   0.000000   0.000000  -0.000003  -0.000001
    22  H   -0.000004   0.000000   0.000000  -0.000004   0.000382   0.000090
    23  H   -0.000001   0.000000   0.000000  -0.000001   0.000000  -0.000017
    24  H    0.000000   0.000000   0.000000   0.000000   0.000000   0.000000
    25  H   -0.000009  -0.000005   0.000000  -0.000001   0.000075   0.000006
    26  H    0.000286  -0.000003  -0.000001   0.000003   0.003346  -0.000135
    27  H    0.000022   0.000000  -0.000001   0.000001   0.000000   0.000012
    28  H   -0.000002   0.000000   0.000000   0.000000   0.000000  -0.000006
    29  H    0.000479  -0.000001   0.000007   0.007797  -0.001572   0.003685
    30  H    0.000000  -0.047811   0.000409   0.000000   0.000000   0.000000
    31  H   -0.000016  -0.030198   0.011434   0.000000   0.000000   0.000000
    32  H    0.000006  -0.048504   0.000442   0.000000   0.000000   0.000000
    33  H    0.000019  -0.049362  -0.000008   0.000000   0.000000   0.000003
    34  H    0.000101  -0.033540   0.000035   0.000000  -0.000040   0.000002
    35  H   -0.000008  -0.047545  -0.000020   0.000000   0.000000  -0.000001
    36  H    0.002537   0.000000   0.000000   0.000733   0.000142  -0.020508
    37  H    0.000363   0.000000  -0.000001   0.000339   0.001464  -0.009131
    38  H    0.001398   0.000000   0.000001   0.001661   0.000720  -0.013080
    39  H   -0.001651   0.000404   0.003261  -0.000003  -0.000005  -0.000341
    40  H    0.004151   0.001089   0.000085  -0.000002  -0.000018   0.000090
    41  H   -0.036817   0.003262   0.001886  -0.000004   0.006640  -0.003048
    42  H    0.299884   0.000443   0.013061   0.000476   0.000877  -0.004421
             19         20         21         22         23         24
     1  C    0.000000   0.000000   0.000000   0.000000   0.000000   0.000000
     2  C    0.403114   0.393554  -0.038023  -0.042572  -0.042625  -0.037250
     3  C   -0.037394  -0.043239   0.402393   0.398759  -0.002657   0.004349
     4  C   -0.037555  -0.043792   0.004427  -0.002814   0.397807   0.402135
     5  C    0.004417  -0.002983  -0.038326  -0.042285   0.000431  -0.000374
     6  C    0.004429  -0.003039  -0.000346   0.000459  -0.042442  -0.038479
     7  C   -0.000277   0.000226   0.004185  -0.003658  -0.003907   0.004343
     8  C    0.000000   0.000000   0.000000   0.000000   0.000000   0.000000
     9  C    0.000000   0.000000   0.000000   0.000000   0.000000   0.000000
    10  C    0.000000   0.000000   0.000000   0.000000   0.000000   0.000000
    11  C    0.000010  -0.000057  -0.000088  -0.000092  -0.000111  -0.000090
    12  C    0.000000   0.000000   0.000000   0.000008   0.000002   0.000001
    13  N    0.000000   0.000000   0.000000  -0.000004  -0.000001   0.000000
    14  N    0.000000   0.000000   0.000000   0.000000   0.000000   0.000000
    15  O    0.000000   0.000000   0.000000   0.000000   0.000000   0.000000
    16  O    0.000000   0.000000   0.000000  -0.000004  -0.000001   0.000000
    17  O    0.000000   0.000000  -0.000003   0.000382   0.000000   0.000000
    18  S    0.000000   0.000000  -0.000001   0.000090  -0.000017   0.000000
    19  H    0.542338  -0.029299  -0.002210  -0.002976  -0.003092  -0.002200
    20  H   -0.029299   0.574988  -0.003137   0.004475   0.004580  -0.003159
    21  H   -0.002210  -0.003137   0.546115  -0.027562  -0.000081  -0.000091
    22  H   -0.002976   0.004475  -0.027562   0.541047   0.002648  -0.000078
    23  H   -0.003092   0.004580  -0.000081   0.002648   0.551144  -0.028380
    24  H   -0.002200  -0.003159  -0.000091  -0.000078  -0.028380   0.545575
    25  H   -0.000090   0.002908  -0.003152   0.004582   0.000076  -0.000040
    26  H   -0.000076  -0.000096  -0.002341  -0.003154  -0.000041   0.000010
    27  H   -0.000084  -0.000088   0.000011  -0.000039  -0.002971  -0.002496
    28  H   -0.000090   0.002882  -0.000039   0.000068   0.004503  -0.003093
    29  H   -0.000048   0.000076  -0.000051   0.002328   0.002735  -0.000071
    30  H    0.000000   0.000000   0.000000   0.000000   0.000000   0.000000
    31  H    0.000000   0.000000   0.000000   0.000000   0.000000   0.000000
    32  H    0.000000   0.000000   0.000000   0.000000   0.000000   0.000000
    33  H    0.000000   0.000000   0.000000   0.000000   0.000000   0.000000
    34  H    0.000000   0.000000  -0.000001   0.000000   0.000000   0.000000
    35  H    0.000000   0.000000   0.000000   0.000000   0.000000   0.000000
    36  H    0.000000   0.000000   0.000000   0.000000   0.000000   0.000000
    37  H    0.000000   0.000000   0.000000   0.000000   0.000000   0.000000
    38  H    0.000000   0.000000   0.000000   0.000000   0.000000   0.000000
    39  H    0.000000   0.000001   0.000001   0.000001   0.000008  -0.000007
    40  H    0.000000  -0.000006   0.000000   0.000000  -0.000002   0.000002
    41  H    0.000000   0.000000   0.000003   0.000001   0.000000   0.000000
    42  H    0.000000   0.000000   0.000000   0.000000   0.000000   0.000000
             25         26         27         28         29         30
     1  C   -0.000039   0.000109  -0.000003  -0.000006  -0.000181   0.001856
     2  C   -0.003208   0.003955   0.004150  -0.003088   0.000041   0.000000
     3  C   -0.041744  -0.032121  -0.000345   0.000420  -0.001775   0.000000
     4  C    0.000377  -0.000321  -0.034771  -0.041538  -0.001951   0.000000
     5  C    0.385718   0.400244   0.004395  -0.003360  -0.042296   0.000000
     6  C   -0.003250   0.003920   0.400024   0.391937  -0.042267   0.000000
     7  C   -0.047732  -0.034458  -0.038611  -0.045300   0.397915   0.000000
     8  C    0.000000   0.000000   0.000000   0.000000   0.000000   0.398748
     9  C   -0.000078  -0.000081   0.000000   0.000000  -0.000003  -0.002723
    10  C    0.000000   0.000011   0.000000   0.000000   0.000060   0.000000
    11  C   -0.003851  -0.003416  -0.004326  -0.004524  -0.040151   0.000033
    12  C    0.000087  -0.000409  -0.000098  -0.000037  -0.004024  -0.000058
    13  N   -0.000009   0.000286   0.000022  -0.000002   0.000479   0.000000
    14  N   -0.000005  -0.000003   0.000000   0.000000  -0.000001  -0.047811
    15  O    0.000000  -0.000001  -0.000001   0.000000   0.000007   0.000409
    16  O   -0.000001   0.000003   0.000001   0.000000   0.007797   0.000000
    17  O    0.000075   0.003346   0.000000   0.000000  -0.001572   0.000000
    18  S    0.000006  -0.000135   0.000012  -0.000006   0.003685   0.000000
    19  H   -0.000090  -0.000076  -0.000084  -0.000090  -0.000048   0.000000
    20  H    0.002908  -0.000096  -0.000088   0.002882   0.000076   0.000000
    21  H   -0.003152  -0.002341   0.000011  -0.000039  -0.000051   0.000000
    22  H    0.004582  -0.003154  -0.000039   0.000068   0.002328   0.000000
    23  H    0.000076  -0.000041  -0.002971   0.004503   0.002735   0.000000
    24  H   -0.000040   0.000010  -0.002496  -0.003093  -0.000071   0.000000
    25  H    0.594336  -0.028613  -0.000089   0.003077   0.004458   0.000000
    26  H   -0.028613   0.500666  -0.000085  -0.000090  -0.002655   0.000000
    27  H   -0.000089  -0.000085   0.542119  -0.029530  -0.002486   0.000000
    28  H    0.003077  -0.000090  -0.029530   0.576594   0.004494   0.000000
    29  H    0.004458  -0.002655  -0.002486   0.004494   0.510674   0.000000
    30  H    0.000000   0.000000   0.000000   0.000000   0.000000   0.540148
    31  H    0.000000   0.000000   0.000000   0.000000   0.000000  -0.021230
    32  H    0.000000   0.000000   0.000000   0.000000   0.000000  -0.039835
    33  H   -0.000001   0.000002   0.000000   0.000000   0.000000  -0.000764
    34  H    0.000458   0.000355   0.000000  -0.000001   0.000007  -0.000018
    35  H    0.000013  -0.000002   0.000000   0.000000   0.000000   0.004128
    36  H    0.000000   0.000000   0.000000   0.000000  -0.000001   0.000000
    37  H    0.000000   0.000000   0.000000   0.000000   0.000002   0.000000
    38  H    0.000000  -0.000001   0.000000   0.000000  -0.000002   0.000000
    39  H   -0.000035  -0.000126   0.002666   0.000307  -0.000612   0.000000
    40  H    0.003225   0.000208   0.000248   0.002328   0.003857  -0.000013
    41  H   -0.000018  -0.000289  -0.000003   0.000007   0.000463   0.000000
    42  H    0.000000  -0.000011  -0.000002   0.000000   0.000137   0.000000
             31         32         33         34         35         36
     1  C   -0.004897   0.000653   0.000081  -0.003110   0.001231   0.000000
     2  C    0.000000   0.000000   0.000000   0.000001   0.000000   0.000000
     3  C    0.000000   0.000000   0.000000  -0.000010   0.000000   0.000000
     4  C    0.000000   0.000000   0.000000   0.000000   0.000000   0.000000
     5  C    0.000000   0.000000   0.000001   0.000649  -0.000001   0.000000
     6  C    0.000000   0.000000   0.000000   0.000002   0.000000   0.000000
     7  C    0.000000   0.000000   0.000000  -0.000098  -0.000005   0.000000
     8  C    0.395330   0.398991  -0.000843   0.003302  -0.002620   0.000000
     9  C    0.003062  -0.001246   0.399198   0.398558   0.399645   0.000000
    10  C    0.000000   0.000000   0.000000   0.000000   0.000000   0.367772
    11  C   -0.000023  -0.000003  -0.000017  -0.001328   0.000184   0.000002
    12  C    0.000569  -0.000077  -0.000079   0.000064  -0.000236  -0.000022
    13  N   -0.000016   0.000006   0.000019   0.000101  -0.000008   0.002537
    14  N   -0.030198  -0.048504  -0.049362  -0.033540  -0.047545   0.000000
    15  O    0.011434   0.000442  -0.000008   0.000035  -0.000020   0.000000
    16  O    0.000000   0.000000   0.000000   0.000000   0.000000   0.000733
    17  O    0.000000   0.000000   0.000000  -0.000040   0.000000   0.000142
    18  S    0.000000   0.000000   0.000003   0.000002  -0.000001  -0.020508
    19  H    0.000000   0.000000   0.000000   0.000000   0.000000   0.000000
    20  H    0.000000   0.000000   0.000000   0.000000   0.000000   0.000000
    21  H    0.000000   0.000000   0.000000  -0.000001   0.000000   0.000000
    22  H    0.000000   0.000000   0.000000   0.000000   0.000000   0.000000
    23  H    0.000000   0.000000   0.000000   0.000000   0.000000   0.000000
    24  H    0.000000   0.000000   0.000000   0.000000   0.000000   0.000000
    25  H    0.000000   0.000000  -0.000001   0.000458   0.000013   0.000000
    26  H    0.000000   0.000000   0.000002   0.000355  -0.000002   0.000000
    27  H    0.000000   0.000000   0.000000   0.000000   0.000000   0.000000
    28  H    0.000000   0.000000   0.000000  -0.000001   0.000000   0.000000
    29  H    0.000000   0.000000   0.000000   0.000007   0.000000  -0.000001
    30  H   -0.021230  -0.039835  -0.000764  -0.000018   0.004128   0.000000
    31  H    0.426639  -0.021516  -0.000077  -0.000087   0.000010   0.000000
    32  H   -0.021516   0.542465   0.003681  -0.000048  -0.001342   0.000000
    33  H   -0.000077   0.003681   0.534523  -0.026392  -0.039611   0.000000
    34  H   -0.000087  -0.000048  -0.026392   0.493138  -0.024059   0.000000
    35  H    0.000010  -0.001342  -0.039611  -0.024059   0.529662   0.000000
    36  H    0.000000   0.000000   0.000000   0.000000   0.000000   0.451044
    37  H    0.000000   0.000000   0.000000   0.000000   0.000000  -0.016854
    38  H    0.000000   0.000000   0.000000   0.000000   0.000000  -0.016012
    39  H   -0.000003   0.000000  -0.000002  -0.000006   0.000010   0.000000
    40  H   -0.000004   0.000003   0.000073   0.000025  -0.000143   0.000000
    41  H   -0.000014  -0.000007  -0.000034  -0.001734   0.000242  -0.000004
    42  H   -0.000006   0.000000   0.000001  -0.000005   0.000000  -0.000024
             37         38         39         40         41         42
     1  C    0.000010   0.000048  -0.003157  -0.000056  -0.032313  -0.004737
     2  C    0.000000   0.000000   0.000002   0.000009   0.000000   0.000000
     3  C    0.000000   0.000000  -0.000077  -0.000049  -0.000015   0.000000
     4  C    0.000000   0.000000   0.000030  -0.000046   0.000000   0.000000
     5  C    0.000000   0.000000   0.003934  -0.004102   0.001134   0.000000
     6  C    0.000000   0.000000  -0.004569  -0.003424  -0.000040  -0.000009
     7  C    0.000000   0.000002  -0.037868  -0.035445  -0.002543  -0.000131
     8  C    0.000000   0.000000   0.000004  -0.000065  -0.000098  -0.000004
     9  C    0.000000   0.000000  -0.000032  -0.000637  -0.004142  -0.000024
    10  C    0.355443   0.356137   0.000002   0.000001   0.000084  -0.000381
    11  C    0.000003   0.000000   0.398406   0.384372  -0.032642   0.000219
    12  C   -0.000028  -0.000140  -0.041955  -0.043862   0.403605  -0.020416
    13  N    0.000363   0.001398  -0.001651   0.004151  -0.036817   0.299884
    14  N    0.000000   0.000000   0.000404   0.001089   0.003262   0.000443
    15  O   -0.000001   0.000001   0.003261   0.000085   0.001886   0.013061
    16  O    0.000339   0.001661  -0.000003  -0.000002  -0.000004   0.000476
    17  O    0.001464   0.000720  -0.000005  -0.000018   0.006640   0.000877
    18  S   -0.009131  -0.013080  -0.000341   0.000090  -0.003048  -0.004421
    19  H    0.000000   0.000000   0.000000   0.000000   0.000000   0.000000
    20  H    0.000000   0.000000   0.000001  -0.000006   0.000000   0.000000
    21  H    0.000000   0.000000   0.000001   0.000000   0.000003   0.000000
    22  H    0.000000   0.000000   0.000001   0.000000   0.000001   0.000000
    23  H    0.000000   0.000000   0.000008  -0.000002   0.000000   0.000000
    24  H    0.000000   0.000000  -0.000007   0.000002   0.000000   0.000000
    25  H    0.000000   0.000000  -0.000035   0.003225  -0.000018   0.000000
    26  H    0.000000  -0.000001  -0.000126   0.000208  -0.000289  -0.000011
    27  H    0.000000   0.000000   0.002666   0.000248  -0.000003  -0.000002
    28  H    0.000000   0.000000   0.000307   0.002328   0.000007   0.000000
    29  H    0.000002  -0.000002  -0.000612   0.003857   0.000463   0.000137
    30  H    0.000000   0.000000   0.000000  -0.000013   0.000000   0.000000
    31  H    0.000000   0.000000  -0.000003  -0.000004  -0.000014  -0.000006
    32  H    0.000000   0.000000   0.000000   0.000003  -0.000007   0.000000
    33  H    0.000000   0.000000  -0.000002   0.000073  -0.000034   0.000001
    34  H    0.000000   0.000000  -0.000006   0.000025  -0.001734  -0.000005
    35  H    0.000000   0.000000   0.000010  -0.000143   0.000242   0.000000
    36  H   -0.016854  -0.016012   0.000000   0.000000  -0.000004  -0.000024
    37  H    0.465224  -0.018866   0.000000   0.000000  -0.000008   0.000032
    38  H   -0.018866   0.462552   0.000000   0.000000   0.000024   0.000076
    39  H    0.000000   0.000000   0.512455  -0.023758   0.003362   0.002579
    40  H    0.000000   0.000000  -0.023758   0.545649  -0.000091  -0.000019
    41  H   -0.000008   0.000024   0.003362  -0.000091   0.449975   0.003041
    42  H    0.000032   0.000076   0.002579  -0.000019   0.003041   0.283830
 Mulliken atomic charges:
              1
     1  C    0.826354
     2  C   -0.309043
     3  C   -0.312809
     4  C   -0.312996
     5  C   -0.321221
     6  C   -0.302633
     7  C   -0.191452
     8  C   -0.297401
     9  C   -0.288215
    10  C   -0.697832
    11  C   -0.320557
    12  C   -0.079436
    13  N   -0.912321
    14  N   -0.672955
    15  O   -0.653851
    16  O   -0.692182
    17  O   -0.713498
    18  S    1.634103
    19  H    0.161082
    20  H    0.145206
    21  H    0.158315
    22  H    0.170389
    23  H    0.162394
    24  H    0.159392
    25  H    0.132560
    26  H    0.195410
    27  H    0.162378
    28  H    0.144086
    29  H    0.200933
    30  H    0.167130
    31  H    0.241027
    32  H    0.166338
    33  H    0.179607
    34  H    0.193777
    35  H    0.180466
    36  H    0.231194
    37  H    0.222010
    38  H    0.225480
    39  H    0.186775
    40  H    0.166328
    41  H    0.240136
    42  H    0.425531
 Sum of Mulliken atomic charges =   0.00000
 Mulliken charges with hydrogens summed into heavy atoms:
              1
     1  C    0.826354
     2  C   -0.002755
     3  C    0.015895
     4  C    0.008791
     5  C    0.006749
     6  C    0.003831
     7  C    0.009481
     8  C    0.277094
     9  C    0.265636
    10  C   -0.019148
    11  C    0.032546
    12  C    0.160700
    13  N   -0.486790
    14  N   -0.672955
    15  O   -0.653851
    16  O   -0.692182
    17  O   -0.713498
    18  S    1.634103
 Sum of Mulliken charges with hydrogens summed into heavy atoms =   0.00000
 DipInt: DoE/N= T F RetVal/Mat= T F Init=T NMatP=  1 IDeriv=0 Min/MaxMlt=  0  4
 Entering OneElI...
 OneElI was handed    33286819 working-precision words.
 Multipole integrals L=0 to 4 MinM= 0 MaxM= 0.
 Requested accuracy = 0.1000D-12
 PrsmSu:  NPrtUS=   1 ThrOK=F IAlg=1 NPAlg=1 LenDen=           0.
 Prism:   IPart=     0 DynPar=F LinDyn=F Incr=          61.
 PRISM was handed    32793544 working-precision words and  6117 shell-pairs
 IPart=  0 NShTot=        6117 NBatch=          90 AvBLen=        68.0
 PrSmSu:  NxtVal=             62.
 Electronic moments (au):
       -150.00000000         -1.23732397         -0.83447145          0.75207590
      -3321.84603034      -2029.37734502       -627.10504535         -3.77340933
         -6.31415291         -2.01835481      -2918.73375226      -4075.12378080
       -172.07206954       2285.54022562       7542.78345629        214.36909203
       -351.65442556        540.41343460       -580.68115060       -466.66610171
    -164564.03582074     -60323.84926017      -6623.56654027      -3028.70674807
      -1444.78845001       -625.08349984        557.61361418        393.96820858
        177.16574020     -35842.34052904     -15047.08727566      -6744.76734876
        988.82840212       4076.06495979         72.65593870
 Electronic spatial extent (au):  <R**2>=           5978.3284
 DipInt: DoE/N= F T RetVal/Mat= T F Init=T NMatP=  1 IDeriv=0 Min/MaxMlt=  0  4
 Nuclear    moments (au):
        150.00000000          0.00000000          0.00000000          0.00000000
       3233.46666769       1948.53125960        534.45209920          0.00000000
          0.00000000          0.00000000       2872.18441869       4138.97717714
        169.56873513      -2378.06094213      -7558.22594636       -175.36057826
        344.65644867       -541.91370883        600.29058550        481.90480195
     152790.91383238      53863.52166736       4448.81688451       3367.54707224
       1270.42672714        482.58279760       -441.80263272       -438.02836408
       -254.66982937      32859.87811646      12617.90900470       5177.79446506
      -1004.79445735      -4058.18649917        -83.71998215
 Total      moments (au):
          0.00000000         -1.23732397         -0.83447145          0.75207590
        -88.37936265        -80.84608542        -92.65294615         -3.77340933
         -6.31415291         -2.01835481        -46.54933357         63.85339634
         -2.50333441        -92.52071651        -15.44249006         39.00851378
         -6.99797689         -1.50027422         19.60943490         15.23870024
     -11773.12198835      -6460.32759281      -2174.74965576        338.84032417
       -174.36172287       -142.50070224        115.81098146        -44.06015550
        -77.50408917      -2982.46241258      -2429.17827096      -1566.97288371
        -15.96605523         17.87846062        -11.06404345
 Traceless Quadrup. (au):
         -1.08656458          6.44671265         -5.36014808         -3.77340933
         -6.31415291         -2.01835481
 Charge=              0.0000 electrons
 Dipole moment (field-independent basis, Debye):
    X=             -3.1450    Y=             -2.1210    Z=              1.9116  Tot=              4.2478
 Quadrupole moment (field-independent basis, Debye-Ang):
   XX=           -118.8733   YY=           -108.7407   ZZ=           -124.6214
   XY=             -5.0754   XZ=             -8.4928   YZ=             -2.7148
 Traceless Quadrupole moment (field-independent basis, Debye-Ang):
   XX=             -1.4615   YY=              8.6710   ZZ=             -7.2096
   XY=             -5.0754   XZ=             -8.4928   YZ=             -2.7148
 Octapole moment (field-independent basis, Debye-Ang**2):
  XXX=            -33.1320  YYY=             45.4484  ZZZ=             -1.7818  XYY=            -65.8527
  XXY=            -10.9914  XXZ=             27.7648  XZZ=             -4.9809  YZZ=             -1.0678
  YYZ=             13.9572  XYZ=             10.8463
 Hexadecapole moment (field-independent basis, Debye-Ang**3):
 XXXX=          -4434.3220 YYYY=          -2433.2690 ZZZZ=           -819.1149 XXXY=            127.6235
 XXXZ=            -65.6730 YYYX=            -53.6726 YYYZ=             43.6200 ZZZX=            -16.5952
 ZZZY=            -29.1918 XXYY=          -1123.3383 XXZZ=           -914.9450 YYZZ=           -590.1971
 XXYZ=             -6.0136 YYXZ=              6.7339 ZZXY=             -4.1672
 N-N= 1.654808948563D+03 E-N=-6.129898597825D+03  KE= 1.196856955557D+03
 Entering OneElI...
 OneElI was handed    33078079 working-precision words.
 Calculate electrostatic properties
    NBasis =   322  MinDer = 0  MaxDer = 0
    NGrid  =    42  NMatD  =   1
 Requested accuracy = 0.1000D-12
 PrsmSu:  NPrtUS=   2 ThrOK=T IAlg=1 NPAlg=1 LenDen=           0.
 Prism:   IPart=     0 DynPar=F LinDyn=F Incr=         512.
 PRISM was handed    16248165 working-precision words and  5330 shell-pairs
 PRISM was handed    16248165 working-precision words and  5330 shell-pairs
 IPart=  1 NShTot=      111342 NBatch=        2651 AvBLen=        42.0
 IPart=  0 NShTot=      112518 NBatch=        2680 AvBLen=        42.0
 PrSmSu:  NxtVal=           1025.
 --------------------------------------------------------
       Center         ----      EFG at Nuclei      ----
                      3XX-RR        3YY-RR        3ZZ-RR
 --------------------------------------------------------
     1   Atom        0.107672     -0.196660      0.088988
     2   Atom        0.004377     -0.004321     -0.000056
     3   Atom       -0.017754      0.017321      0.000433
     4   Atom       -0.015296      0.014763      0.000533
     5   Atom        0.008503     -0.005656     -0.002847
     6   Atom        0.011302     -0.009146     -0.002156
     7   Atom       -0.060826      0.042072      0.018755
     8   Atom       -0.206372      0.054069      0.152303
     9   Atom        0.087372      0.081825     -0.169197
    10   Atom       -0.042129     -0.071248      0.113377
    11   Atom        0.001984     -0.017562      0.015577
    12   Atom        0.095563     -0.268764      0.173201
    13   Atom        0.801279     -0.587326     -0.213953
    14   Atom       -0.131246      0.286175     -0.154929
    15   Atom        0.621174      0.257353     -0.878527
    16   Atom       -0.272234      0.579264     -0.307030
    17   Atom        0.669558      0.602681     -1.272239
    18   Atom       -0.041030     -0.164972      0.206001
    19   Atom       -0.250065      0.120810      0.129256
    20   Atom        0.142886     -0.270982      0.128096
    21   Atom        0.123208      0.126335     -0.249543
    22   Atom        0.130897     -0.271273      0.140375
    23   Atom        0.128527     -0.253502      0.124976
    24   Atom       -0.005842      0.022117     -0.016274
    25   Atom        0.127072     -0.253621      0.126549
    26   Atom       -0.007463      0.028868     -0.021405
    27   Atom        0.120100      0.127126     -0.247226
    28   Atom        0.128505     -0.268867      0.140362
    29   Atom        0.124528     -0.255583      0.131055
    30   Atom        0.131203     -0.278854      0.147652
    31   Atom        0.097660      0.080226     -0.177887
    32   Atom       -0.067952      0.136553     -0.068601
    33   Atom        0.003162      0.110660     -0.113822
    34   Atom       -0.238288      0.105471      0.132817
    35   Atom        0.148453     -0.285135      0.136682
    36   Atom        0.040557     -0.131554      0.090997
    37   Atom        0.088059      0.123666     -0.211725
    38   Atom       -0.081503      0.097540     -0.016037
    39   Atom        0.128521      0.144454     -0.272975
    40   Atom        0.124090     -0.245993      0.121903
    41   Atom        0.145605      0.132377     -0.277982
    42   Atom        0.210617      0.143724     -0.354341
 --------------------------------------------------------
                        XY            XZ            YZ
 --------------------------------------------------------
     1   Atom        0.272401      0.282456     -0.245138
     2   Atom        0.006663     -0.004164      0.005788
     3   Atom       -0.001924     -0.003100     -0.011397
     4   Atom       -0.006485     -0.000216      0.002448
     5   Atom       -0.021248     -0.006380      0.032658
     6   Atom       -0.001515      0.004946     -0.013772
     7   Atom       -0.004321     -0.013403     -0.008218
     8   Atom       -0.155703     -0.072153     -0.087107
     9   Atom        0.058450     -0.123922      0.123137
    10   Atom        0.183397      0.023001     -0.035090
    11   Atom        0.042347      0.049873     -0.034194
    12   Atom       -0.050307     -0.004839      0.145582
    13   Atom       -0.540941     -0.647703      0.073380
    14   Atom       -0.548609     -0.372683      0.572135
    15   Atom        1.098643     -0.357260     -0.077292
    16   Atom       -0.609542      0.997282      0.561457
    17   Atom        0.153449     -0.587784      0.685157
    18   Atom       -0.346721     -0.246743     -0.349300
    19   Atom       -0.104915     -0.073790     -0.020705
    20   Atom       -0.031637      0.006516      0.073875
    21   Atom        0.022107     -0.086571      0.095874
    22   Atom       -0.065250      0.007348      0.041514
    23   Atom       -0.075012      0.013530      0.085230
    24   Atom        0.138313      0.153365     -0.143855
    25   Atom       -0.076224      0.011451      0.079884
    26   Atom        0.133505      0.150831     -0.143032
    27   Atom        0.022946     -0.088314      0.092438
    28   Atom       -0.066345      0.009380      0.044742
    29   Atom       -0.052073      0.010463      0.068727
    30   Atom        0.038034     -0.001629     -0.048240
    31   Atom        0.047286     -0.121046      0.148937
    32   Atom        0.045966      0.205888     -0.059290
    33   Atom        0.077315      0.182151     -0.093165
    34   Atom       -0.139089     -0.066089     -0.009406
    35   Atom        0.006794     -0.009068     -0.001397
    36   Atom       -0.159799     -0.082079     -0.136354
    37   Atom        0.046521     -0.148285      0.084196
    38   Atom       -0.095830      0.201319      0.090419
    39   Atom        0.008817     -0.058371      0.025413
    40   Atom       -0.062190      0.021914      0.101446
    41   Atom       -0.004342     -0.050779     -0.002616
    42   Atom       -0.006786     -0.097232      0.065927
 --------------------------------------------------------


 ---------------------------------------------------------------------------------
              Nuclear Quadrupole in Principal Axis System
 ---------------------------------------------------------------------------------

       Atom             a.u.   MegaHertz   Gauss  10(-4) cm-1        Axes

              Baa    -0.5565   -74.671   -26.645   -24.908 -0.5010  0.7133  0.4901
     1 C(13)  Bbb     0.1737    23.302     8.315     7.773  0.4338  0.6970 -0.5709
              Bcc     0.3828    51.369    18.330    17.135  0.7488  0.0734  0.6587
 
              Baa    -0.0121    -1.623    -0.579    -0.541 -0.4302  0.7465 -0.5076
     2 C(13)  Bbb     0.0040     0.530     0.189     0.177 -0.0727  0.5319  0.8437
              Bcc     0.0081     1.093     0.390     0.365  0.8998  0.3999 -0.1746
 
              Baa    -0.0187    -2.515    -0.897    -0.839  0.9653  0.1242  0.2299
     3 C(13)  Bbb    -0.0043    -0.580    -0.207    -0.194 -0.2612  0.4315  0.8635
              Bcc     0.0231     3.095     1.104     1.032 -0.0080  0.8936 -0.4489
 
              Baa    -0.0166    -2.233    -0.797    -0.745  0.9789  0.2035 -0.0167
     4 C(13)  Bbb     0.0002     0.022     0.008     0.007  0.0470 -0.1449  0.9883
              Bcc     0.0165     2.211     0.789     0.737 -0.1987  0.9683  0.1514
 
              Baa    -0.0397    -5.332    -1.903    -1.779  0.2470  0.7463 -0.6180
     5 C(13)  Bbb    -0.0009    -0.120    -0.043    -0.040  0.8097  0.1914  0.5547
              Bcc     0.0406     5.451     1.945     1.818 -0.5323  0.6375  0.5570
 
              Baa    -0.0200    -2.680    -0.956    -0.894 -0.0603  0.7815  0.6209
     6 C(13)  Bbb     0.0050     0.665     0.237     0.222 -0.5971 -0.5268  0.6050
              Bcc     0.0150     2.015     0.719     0.672  0.7999 -0.3342  0.4984
 
              Baa    -0.0633    -8.497    -3.032    -2.834  0.9847  0.0533  0.1661
     7 C(13)  Bbb     0.0186     2.502     0.893     0.835 -0.1745  0.2971  0.9388
              Bcc     0.0447     5.995     2.139     2.000 -0.0007  0.9533 -0.3019
 
              Baa    -0.3024   -40.579   -14.480   -13.536  0.8725  0.4353  0.2218
     8 C(13)  Bbb     0.0982    13.180     4.703     4.397 -0.4848  0.7146  0.5043
              Bcc     0.2042    27.399     9.777     9.139  0.0610 -0.5475  0.8346
 
              Baa    -0.2717   -36.456   -13.008   -12.160  0.3562 -0.3594  0.8625
     9 C(13)  Bbb     0.1281    17.196     6.136     5.736 -0.4754  0.7250  0.4984
              Bcc     0.1435    19.260     6.873     6.425  0.8044  0.5876 -0.0874
 
              Baa    -0.2454   -32.935   -11.752   -10.986 -0.6725  0.7312  0.1146
    10 C(13)  Bbb     0.1145    15.361     5.481     5.124  0.4162  0.2456  0.8755
              Bcc     0.1310    17.575     6.271     5.862  0.6120  0.6365 -0.4694
 
              Baa    -0.0853   -11.442    -4.083    -3.817 -0.5931  0.6264  0.5058
    11 C(13)  Bbb     0.0261     3.497     1.248     1.166  0.4393  0.7782 -0.4488
              Bcc     0.0592     7.945     2.835     2.650  0.6747  0.0440  0.7368
 
              Baa    -0.3177   -42.634   -15.213   -14.221  0.1127  0.9529 -0.2815
    12 C(13)  Bbb     0.0978    13.129     4.685     4.380  0.9812 -0.0620  0.1828
              Bcc     0.2199    29.505    10.528     9.842 -0.1568  0.2968  0.9420
 
              Baa    -0.8246   -31.802   -11.348   -10.608  0.4160  0.8434  0.3399
    13 N(14)  Bbb    -0.4386   -16.914    -6.035    -5.642  0.2430 -0.4634  0.8522
              Bcc     1.2631    48.717    17.383    16.250  0.8763 -0.2719 -0.3978
 
              Baa    -0.5477   -21.124    -7.538    -7.046 -0.0540 -0.5888  0.8065
    14 N(14)  Bbb    -0.5032   -19.406    -6.925    -6.473  0.8704  0.3680  0.3269
              Bcc     1.0509    40.530    14.462    13.519 -0.4893  0.7196  0.4927
 
              Baa    -1.0079    72.934    26.025    24.328  0.3795 -0.2756  0.8832
    15 O(17)  Bbb    -0.5872    42.488    15.161    14.173 -0.5239  0.7228  0.4507
              Bcc     1.5951  -115.422   -41.185   -38.501  0.7625  0.6337 -0.1299
 
              Baa    -1.6013   115.872    41.346    38.651 -0.6598 -0.3550  0.6623
    16 O(17)  Bbb     0.7002   -50.667   -18.079   -16.901  0.6467  0.1806  0.7410
              Bcc     0.9011   -65.205   -23.267   -21.750 -0.3827  0.9173  0.1104
 
              Baa    -1.6542   119.697    42.711    39.927  0.2525 -0.2968  0.9210
    17 O(17)  Bbb     0.7917   -57.289   -20.442   -19.109  0.6768  0.7344  0.0511
              Bcc     0.8625   -62.408   -22.269   -20.817  0.6915 -0.6104 -0.3863
 
              Baa    -0.6643   -27.235    -9.718    -9.085  0.5633  0.6992  0.4403
    18 S(33)  Bbb     0.2437     9.991     3.565     3.333  0.8147 -0.5588 -0.1549
              Bcc     0.4206    17.244     6.153     5.752 -0.1377 -0.4460  0.8844
 
              Baa    -0.2916  -155.605   -55.524   -51.904  0.9513  0.2510  0.1791
    19 H(1)   Bbb     0.1429    76.265    27.213    25.439 -0.2243  0.1644  0.9606
              Bcc     0.1487    79.340    28.310    26.465 -0.2116  0.9539 -0.2127
 
              Baa    -0.2866  -152.941   -54.573   -51.015  0.0750  0.9815 -0.1760
    20 H(1)   Bbb     0.1412    75.319    26.876    25.124 -0.1960  0.1876  0.9625
              Bcc     0.1455    77.621    27.697    25.892  0.9777 -0.0376  0.2065
 
              Baa    -0.2918  -155.699   -55.557   -51.936  0.2104 -0.2290  0.9504
    21 H(1)   Bbb     0.1422    75.885    27.078    25.312  0.9633 -0.1172 -0.2415
              Bcc     0.1496    79.814    28.480    26.623  0.1667  0.9663  0.1960
 
              Baa    -0.2858  -152.470   -54.405   -50.859  0.1557  0.9829 -0.0984
    22 H(1)   Bbb     0.1411    75.258    26.854    25.103  0.9614 -0.1736 -0.2136
              Bcc     0.1447    77.212    27.551    25.755  0.2270  0.0614  0.9720
 
              Baa    -0.2858  -152.498   -54.415   -50.868  0.1808  0.9618 -0.2055
    23 H(1)   Bbb     0.1404    74.909    26.729    24.987  0.7455  0.0023  0.6665
              Bcc     0.1454    77.589    27.686    25.881 -0.6415  0.2737  0.7166
 
              Baa    -0.2915  -155.529   -55.497   -51.879 -0.5859  0.5369  0.6071
    24 H(1)   Bbb     0.1424    75.960    27.104    25.337  0.7424  0.0552  0.6677
              Bcc     0.1491    79.570    28.392    26.542  0.3249  0.8419 -0.4309
 
              Baa    -0.2841  -151.602   -54.096   -50.569  0.1840  0.9639 -0.1926
    25 H(1)   Bbb     0.1383    73.765    26.321    24.605  0.7462 -0.0094  0.6657
              Bcc     0.1459    77.838    27.774    25.964 -0.6398  0.2662  0.7209
 
              Baa    -0.2867  -152.979   -54.587   -51.028 -0.5849  0.5269  0.6166
    26 H(1)   Bbb     0.1363    72.726    25.950    24.259  0.7673  0.1132  0.6312
              Bcc     0.1504    80.254    28.637    26.770  0.2627  0.8423 -0.4706
 
              Baa    -0.2891  -154.272   -55.048   -51.459  0.2176 -0.2230  0.9502
    27 H(1)   Bbb     0.1399    74.632    26.631    24.895  0.9467 -0.1886 -0.2610
              Bcc     0.1493    79.639    28.417    26.565  0.2374  0.9564  0.1701
 
              Baa    -0.2846  -151.827   -54.176   -50.644  0.1600  0.9813 -0.1069
    28 H(1)   Bbb     0.1386    73.974    26.396    24.675  0.9370 -0.1851 -0.2962
              Bcc     0.1459    77.853    27.780    25.969  0.3104  0.0527  0.9491
 
              Baa    -0.2745  -146.461   -52.261   -48.854  0.1319  0.9768 -0.1689
    29 H(1)   Bbb     0.1314    70.114    25.019    23.388  0.9835 -0.1502 -0.1009
              Bcc     0.1431    76.346    27.242    25.466  0.1239  0.1528  0.9805
 
              Baa    -0.2876  -153.461   -54.759   -51.189 -0.0895  0.9900  0.1094
    30 H(1)   Bbb     0.1329    70.910    25.302    23.653  0.9568  0.0549  0.2854
              Bcc     0.1547    82.552    29.457    27.536 -0.2765 -0.1302  0.9521
 
              Baa    -0.2894  -154.416   -55.099   -51.508  0.3179 -0.3890  0.8646
    31 H(1)   Bbb     0.1370    73.071    26.074    24.374  0.8086  0.5875 -0.0330
              Bcc     0.1525    81.345    29.026    27.134 -0.4951  0.7096  0.5013
 
              Baa    -0.2872  -153.260   -54.687   -51.122 -0.6932  0.1731  0.6997
    32 H(1)   Bbb     0.1326    70.759    25.249    23.603  0.6827  0.4688  0.5604
[...]
  879 Fit      -0.033612
  880 Fit      -0.028330
  881 Fit      -0.010648
  882 Fit      -0.000608
  883 Fit      -0.003584
  884 Fit      -0.005665
  885 Fit      -0.002276
  886 Fit      -0.003244
  887 Fit      -0.005950
  888 Fit      -0.003034
  889 Fit      -0.002040
  890 Fit      -0.002807
  891 Fit      -0.004946
  892 Fit      -0.007585
  893 Fit      -0.004291
  894 Fit      -0.002682
  895 Fit      -0.003040
  896 Fit      -0.004135
  897 Fit      -0.006261
  898 Fit      -0.003359
  899 Fit       0.000418
  900 Fit      -0.001412
  901 Fit       0.003292
  902 Fit       0.001979
  903 Fit      -0.000170
  904 Fit      -0.003061
  905 Fit       0.004682
  906 Fit       0.003201
  907 Fit       0.001450
  908 Fit      -0.000882
  909 Fit      -0.003682
  910 Fit       0.001506
  911 Fit      -0.000511
  912 Fit      -0.002939
  913 Fit      -0.002527
  914 Fit      -0.002680
  915 Fit      -0.005875
  916 Fit      -0.007441
  917 Fit      -0.003468
  918 Fit      -0.000426
  919 Fit      -0.000681
  920 Fit      -0.003881
  921 Fit      -0.006653
  922 Fit      -0.010543
  923 Fit       0.000186
  924 Fit       0.000260
  925 Fit      -0.000862
  926 Fit      -0.002247
  927 Fit      -0.013701
  928 Fit      -0.020192
  929 Fit      -0.010221
  930 Fit      -0.013968
  931 Fit      -0.022662
  932 Fit      -0.008856
  933 Fit      -0.012423
  934 Fit      -0.019927
  935 Fit      -0.033950
  936 Fit      -0.009381
  937 Fit      -0.015770
  938 Fit      -0.029079
  939 Fit      -0.007236
  940 Fit      -0.010490
  941 Fit      -0.007057
  942 Fit      -0.009192
  943 Fit      -0.014877
  944 Fit      -0.025063
  945 Fit      -0.007523
  946 Fit      -0.009764
  947 Fit      -0.015013
  948 Fit      -0.018073
  949 Fit      -0.008475
  950 Fit      -0.010006
  951 Fit      -0.003217
  952 Fit      -0.000442
  953 Fit      -0.000822
  954 Fit      -0.001675
  955 Fit      -0.002494
  956 Fit      -0.005422
  957 Fit      -0.000537
  958 Fit      -0.000050
  959 Fit      -0.000662
  960 Fit      -0.002452
  961 Fit      -0.005442
  962 Fit      -0.001794
  963 Fit      -0.000903
  964 Fit      -0.002961
  965 Fit       0.006374
  966 Fit       0.002168
  967 Fit       0.013117
  968 Fit       0.007822
  969 Fit       0.003857
  970 Fit       0.017738
  971 Fit       0.011145
  972 Fit       0.006754
  973 Fit      -0.006146
  974 Fit      -0.016992
  975 Fit      -0.018198
  976 Fit      -0.001189
  977 Fit       0.002520
  978 Fit      -0.007994
  979 Fit      -0.007814
  980 Fit      -0.001349
  981 Fit      -0.000724
  982 Fit      -0.002149
  983 Fit      -0.002726
  984 Fit      -0.003560
  985 Fit      -0.001924
  986 Fit      -0.000034
  987 Fit      -0.000805
  988 Fit      -0.001720
  989 Fit      -0.001228
  990 Fit       0.010194
  991 Fit       0.006214
  992 Fit       0.003586
  993 Fit       0.007767
  994 Fit       0.005566
  995 Fit       0.003637
  996 Fit       0.001532
  997 Fit       0.002443
  998 Fit       0.001935
  999 Fit       0.000523
 1000 Fit      -0.001292
 1001 Fit      -0.021730
 1002 Fit       0.017837
 1003 Fit       0.014649
 1004 Fit       0.016446
 1005 Fit       0.012571
 1006 Fit       0.013512
 1007 Fit       0.014631
 1008 Fit       0.015763
 1009 Fit       0.010253
 1010 Fit       0.010917
 1011 Fit       0.010782
 1012 Fit       0.009084
 1013 Fit       0.006376
 1014 Fit       0.005192
 1015 Fit      -0.002414
 1016 Fit       0.004152
 1017 Fit      -0.011299
 1018 Fit      -0.000393
 1019 Fit       0.004163
 1020 Fit       0.005703
 1021 Fit      -0.020201
 1022 Fit      -0.004187
 1023 Fit      -0.001656
 1024 Fit      -0.008713
 1025 Fit      -0.016293
 1026 Fit       0.015954
 1027 Fit       0.015704
 1028 Fit       0.016986
 1029 Fit       0.011164
 1030 Fit       0.011643
 1031 Fit       0.012742
 1032 Fit       0.013669
 1033 Fit       0.014517
 1034 Fit       0.004952
 1035 Fit       0.007733
 1036 Fit       0.009982
 1037 Fit       0.011590
 1038 Fit       0.012912
 1039 Fit       0.015831
 1040 Fit       0.015900
 1041 Fit       0.013986
 1042 Fit       0.015254
 1043 Fit       0.016619
 1044 Fit       0.017003
 1045 Fit       0.017333
 1046 Fit       0.012496
 1047 Fit       0.013776
 1048 Fit       0.015411
 1049 Fit       0.017046
 1050 Fit       0.017837
 1051 Fit       0.017863
 1052 Fit       0.013642
 1053 Fit       0.015000
 1054 Fit       0.013578
 1055 Fit       0.012116
 1056 Fit       0.014661
 1057 Fit       0.018240
 1058 Fit       0.018065
 1059 Fit       0.018312
 1060 Fit       0.017999
 1061 Fit       0.017512
 1062 Fit       0.017383
 1063 Fit       0.019737
 1064 Fit       0.018793
 1065 Fit       0.017868
 1066 Fit       0.017067
 1067 Fit       0.017086
 1068 Fit       0.018572
 1069 Fit       0.016741
 1070 Fit       0.016854
 1071 Fit       0.014684
 1072 Fit       0.004641
 1073 Fit      -0.002443
 1074 Fit       0.007932
 1075 Fit       0.011932
 1076 Fit       0.004185
 1077 Fit       0.010168
 1078 Fit       0.013370
 1079 Fit       0.015247
 1080 Fit      -0.001206
 1081 Fit       0.007058
 1082 Fit       0.011786
 1083 Fit       0.014514
 1084 Fit      -0.006484
 1085 Fit       0.005900
 1086 Fit       0.012118
 1087 Fit       0.015723
 1088 Fit       0.016107
 1089 Fit       0.015146
 1090 Fit       0.011690
 1091 Fit       0.007133
 1092 Fit       0.012817
 1093 Fit       0.014778
 1094 Fit       0.014113
 1095 Fit       0.010435
 1096 Fit       0.007006
 1097 Fit       0.012944
 1098 Fit       0.013453
 1099 Fit       0.016564
 1100 Fit       0.011948
 1101 Fit       0.006930
 1102 Fit       0.013159
 1103 Fit       0.013963
 1104 Fit       0.010087
 1105 Fit       0.016045
 1106 Fit       0.016105
 1107 Fit       0.015580
 1108 Fit       0.014298
 1109 Fit       0.016865
 1110 Fit       0.015477
 1111 Fit       0.013296
 1112 Fit       0.010117
 1113 Fit       0.008746
 1114 Fit      -0.002394
 1115 Fit      -0.006798
 1116 Fit      -0.000178
 1117 Fit       0.000826
 1118 Fit      -0.001034
 1119 Fit      -0.010015
 1120 Fit      -0.003276
 1121 Fit       0.000622
 1122 Fit      -0.000647
 1123 Fit       0.017457
 1124 Fit       0.013343
 1125 Fit       0.011545
 1126 Fit       0.005674
 1127 Fit       0.007174
 1128 Fit       0.006397
 1129 Fit       0.012490
 1130 Fit      -0.010886
 1131 Fit       0.003577
 1132 Fit       0.005520
 1133 Fit       0.008424
 1134 Fit      -0.008160
 1135 Fit       0.003495
 1136 Fit       0.003989
 1137 Fit       0.007411
 1138 Fit       0.004386
 1139 Fit      -0.004523
 1140 Fit      -0.005805
 1141 Fit       0.001231
 1142 Fit      -0.003420
 1143 Fit      -0.003421
 1144 Fit      -0.003155
 1145 Fit      -0.011153
 1146 Fit      -0.015891
 1147 Fit      -0.017937
 1148 Fit      -0.006944
 1149 Fit      -0.009868
 1150 Fit       0.000998
 1151 Fit      -0.005780
 1152 Fit      -0.006309
 1153 Fit      -0.006574
 1154 Fit      -0.006177
 1155 Fit       0.001262
 1156 Fit      -0.001656
 1157 Fit      -0.001926
 1158 Fit       0.014150
 1159 Fit      -0.000436
 1160 Fit       0.003157
 1161 Fit       0.011347
 1162 Fit      -0.003478
 1163 Fit       0.002651
 1164 Fit       0.006213
 1165 Fit       0.008238
 1166 Fit       0.009462
 1167 Fit       0.006144
 1168 Fit       0.007375
 1169 Fit       0.004298
 1170 Fit      -0.003492
 1171 Fit      -0.005913
 1172 Fit       0.013764
 1173 Fit       0.015137
 1174 Fit       0.009954
 1175 Fit       0.016374
 1176 Fit       0.015797
 1177 Fit       0.014654
 1178 Fit       0.017015
 1179 Fit       0.015640
 1180 Fit       0.015593
 1181 Fit      -0.000923
 1182 Fit       0.002526
 1183 Fit       0.008182
 1184 Fit       0.012544
 1185 Fit       0.013427
 1186 Fit       0.014281
 1187 Fit       0.013520
 1188 Fit       0.014004
 1189 Fit       0.012595
 1190 Fit       0.013550
 1191 Fit       0.013756
 1192 Fit       0.012565
 1193 Fit       0.008696
 1194 Fit      -0.000892
 1195 Fit      -0.008635
 1196 Fit       0.004533
 1197 Fit       0.000913
 1198 Fit      -0.004188
 1199 Fit       0.009551
 1200 Fit       0.002826
 1201 Fit       0.000583
 1202 Fit      -0.008565
 1203 Fit      -0.010506
 1204 Fit      -0.015087
 1205 Fit      -0.016914
 1206 Fit      -0.017209
 1207 Fit      -0.020936
 1208 Fit      -0.019680
 1209 Fit      -0.007941
 1210 Fit      -0.012309
 1211 Fit      -0.020393
 1212 Fit      -0.023369
 1213 Fit      -0.022446
 1214 Fit      -0.019552
 1215 Fit      -0.018064
 1216 Fit      -0.017138
 1217 Fit      -0.014789
 1218 Fit      -0.016916
 1219 Fit      -0.017160
 1220 Fit      -0.022372
 1221 Fit      -0.024148
 1222 Fit      -0.022642
 1223 Fit      -0.020139
 1224 Fit      -0.022502
 1225 Fit      -0.030472
 1226 Fit      -0.030454
 1227 Fit      -0.025858
 1228 Fit      -0.029981
 1229 Fit      -0.031049
 1230 Fit      -0.029107
 1231 Fit      -0.024146
 1232 Fit      -0.015177
 1233 Fit      -0.029427
 1234 Fit      -0.030372
 1235 Fit      -0.028604
 1236 Fit      -0.024022
 1237 Fit      -0.015695
 1238 Fit      -0.028185
 1239 Fit      -0.028652
 1240 Fit      -0.026390
 1241 Fit      -0.020958
 1242 Fit      -0.011505
 1243 Fit      -0.024647
 1244 Fit      -0.025367
 1245 Fit      -0.024330
 1246 Fit      -0.017056
 1247 Fit      -0.007653
 1248 Fit      -0.009084
 1249 Fit      -0.019745
 1250 Fit      -0.019499
 1251 Fit      -0.020201
 1252 Fit      -0.023882
 1253 Fit      -0.022659
 1254 Fit      -0.017705
 1255 Fit      -0.014827
 1256 Fit      -0.014521
 1257 Fit      -0.019023
 1258 Fit      -0.026645
 1259 Fit      -0.026581
 1260 Fit      -0.022278
 1261 Fit      -0.015269
 1262 Fit      -0.009435
 1263 Fit      -0.006447
 1264 Fit      -0.006240
 1265 Fit      -0.005093
 1266 Fit      -0.003290
 1267 Fit      -0.028656
 1268 Fit      -0.023949
 1269 Fit      -0.017329
 1270 Fit       0.010956
 1271 Fit      -0.028519
 1272 Fit      -0.022204
 1273 Fit      -0.009979
 1274 Fit      -0.001851
 1275 Fit      -0.003718
 1276 Fit      -0.002766
 1277 Fit      -0.003784
 1278 Fit      -0.006255
 1279 Fit      -0.003016
 1280 Fit      -0.002314
 1281 Fit      -0.003055
 1282 Fit      -0.004876
 1283 Fit      -0.007479
 1284 Fit      -0.003471
 1285 Fit      -0.002570
 1286 Fit      -0.002601
 1287 Fit      -0.003392
 1288 Fit      -0.005149
 1289 Fit      -0.007435
 1290 Fit      -0.002742
 1291 Fit      -0.003554
 1292 Fit      -0.004792
 1293 Fit      -0.003228
 1294 Fit       0.000274
 1295 Fit      -0.001251
 1296 Fit       0.002864
 1297 Fit       0.001546
 1298 Fit      -0.000324
 1299 Fit      -0.002576
 1300 Fit       0.004276
 1301 Fit       0.002612
 1302 Fit       0.000890
 1303 Fit      -0.001116
 1304 Fit      -0.003263
 1305 Fit       0.002404
 1306 Fit       0.000698
 1307 Fit      -0.001205
 1308 Fit       0.001043
 1309 Fit      -0.000590
 1310 Fit      -0.002710
 1311 Fit      -0.002790
 1312 Fit      -0.005405
 1313 Fit      -0.006570
 1314 Fit      -0.003233
 1315 Fit      -0.000682
 1316 Fit      -0.001015
 1317 Fit      -0.003502
 1318 Fit      -0.005856
 1319 Fit      -0.009067
 1320 Fit      -0.012594
 1321 Fit       0.000536
 1322 Fit       0.000400
 1323 Fit      -0.000649
 1324 Fit      -0.001943
 1325 Fit      -0.004378
 1326 Fit      -0.000632
 1327 Fit      -0.010038
 1328 Fit      -0.013627
 1329 Fit      -0.021195
 1330 Fit      -0.008627
 1331 Fit      -0.011567
 1332 Fit      -0.017168
 1333 Fit      -0.028169
 1334 Fit      -0.008446
 1335 Fit      -0.012197
 1336 Fit      -0.019554
 1337 Fit      -0.016423
 1338 Fit      -0.006742
 1339 Fit      -0.009152
 1340 Fit      -0.014400
 1341 Fit      -0.025025
 1342 Fit      -0.006976
 1343 Fit      -0.008883
 1344 Fit      -0.013503
 1345 Fit      -0.022460
 1346 Fit      -0.007470
 1347 Fit      -0.009742
 1348 Fit      -0.014123
 1349 Fit      -0.016206
 1350 Fit      -0.008212
 1351 Fit      -0.009359
 1352 Fit      -0.003454
 1353 Fit      -0.000841
 1354 Fit      -0.001738
 1355 Fit      -0.002546
 1356 Fit      -0.002930
 1357 Fit      -0.004991
 1358 Fit      -0.000304
 1359 Fit      -0.000316
 1360 Fit      -0.000693
 1361 Fit      -0.001523
 1362 Fit      -0.002612
 1363 Fit      -0.004915
 1364 Fit      -0.000783
 1365 Fit      -0.000496
 1366 Fit      -0.001094
 1367 Fit      -0.002692
 1368 Fit      -0.004895
 1369 Fit      -0.001920
 1370 Fit      -0.001422
 1371 Fit      -0.002992
 1372 Fit       0.005755
 1373 Fit       0.002094
 1374 Fit       0.011918
 1375 Fit       0.007025
 1376 Fit       0.003407
 1377 Fit       0.014586
 1378 Fit       0.009121
 1379 Fit       0.005443
 1380 Fit       0.009462
 1381 Fit       0.005788
 1382 Fit      -0.005696
 1383 Fit      -0.014598
 1384 Fit      -0.014871
 1385 Fit      -0.001824
 1386 Fit       0.001876
 1387 Fit      -0.014464
 1388 Fit      -0.007257
 1389 Fit      -0.006980
 1390 Fit      -0.002310
 1391 Fit      -0.000847
 1392 Fit      -0.001593
 1393 Fit      -0.002804
 1394 Fit      -0.003683
 1395 Fit      -0.002521
 1396 Fit      -0.000987
 1397 Fit      -0.001164
 1398 Fit      -0.001803
 1399 Fit      -0.001797
 1400 Fit       0.006230
 1401 Fit       0.008489
 1402 Fit       0.005634
 1403 Fit       0.003514
 1404 Fit       0.004813
 1405 Fit       0.003588
 1406 Fit       0.002149
 1407 Fit       0.000577
 1408 Fit       0.001244
 1409 Fit       0.000951
 1410 Fit      -0.000079
 1411 Fit      -0.018751
 1412 Fit       0.014163
 1413 Fit       0.015871
 1414 Fit       0.012350
 1415 Fit       0.013343
 1416 Fit       0.014863
 1417 Fit       0.010523
 1418 Fit       0.011190
 1419 Fit       0.011774
 1420 Fit       0.012102
 1421 Fit       0.011731
 1422 Fit       0.008034
 1423 Fit       0.008432
 1424 Fit       0.008076
 1425 Fit       0.006278
 1426 Fit       0.004515
 1427 Fit       0.003262
 1428 Fit      -0.008706
 1429 Fit      -0.000453
 1430 Fit       0.003959
 1431 Fit      -0.012612
 1432 Fit      -0.002587
 1433 Fit       0.001754
 1434 Fit       0.003225
 1435 Fit      -0.006000
 1436 Fit      -0.003530
 1437 Fit      -0.009616
 1438 Fit      -0.015829
 1439 Fit       0.015269
 1440 Fit       0.014669
 1441 Fit       0.016088
 1442 Fit       0.011970
 1443 Fit       0.011516
 1444 Fit       0.012046
 1445 Fit       0.012788
 1446 Fit       0.013767
 1447 Fit       0.006676
 1448 Fit       0.007874
 1449 Fit       0.009285
 1450 Fit       0.010505
 1451 Fit       0.011521
 1452 Fit       0.012667
 1453 Fit       0.003563
 1454 Fit       0.006540
 1455 Fit       0.008636
 1456 Fit       0.013931
 1457 Fit       0.013795
 1458 Fit       0.012285
 1459 Fit       0.013373
 1460 Fit       0.014606
 1461 Fit       0.015093
 1462 Fit       0.015186
 1463 Fit       0.010401
 1464 Fit       0.012039
 1465 Fit       0.013658
 1466 Fit       0.014967
 1467 Fit       0.015703
 1468 Fit       0.015975
 1469 Fit       0.012458
 1470 Fit       0.013278
 1471 Fit       0.015200
 1472 Fit       0.017530
 1473 Fit       0.011568
 1474 Fit       0.010106
 1475 Fit       0.012616
 1476 Fit       0.016521
 1477 Fit       0.016034
 1478 Fit       0.015648
 1479 Fit       0.015717
 1480 Fit       0.016972
 1481 Fit       0.016317
 1482 Fit       0.015693
 1483 Fit       0.015213
 1484 Fit       0.015457
 1485 Fit       0.016712
 1486 Fit       0.015539
 1487 Fit       0.014971
 1488 Fit       0.015673
 1489 Fit       0.014571
 1490 Fit       0.015145
 1491 Fit      -0.004632
 1492 Fit       0.005037
 1493 Fit       0.009110
 1494 Fit       0.001579
 1495 Fit       0.007331
 1496 Fit       0.010550
 1497 Fit       0.012596
 1498 Fit      -0.002490
 1499 Fit       0.004562
 1500 Fit       0.008947
 1501 Fit       0.011621
 1502 Fit       0.013648
 1503 Fit       0.001834
 1504 Fit       0.007663
 1505 Fit       0.011238
 1506 Fit       0.002578
 1507 Fit       0.012053
 1508 Fit       0.013088
 1509 Fit       0.012729
 1510 Fit       0.010412
 1511 Fit       0.004323
 1512 Fit       0.004383
 1513 Fit       0.009848
 1514 Fit       0.011751
 1515 Fit       0.011138
 1516 Fit       0.007818
 1517 Fit       0.004679
 1518 Fit       0.009798
 1519 Fit       0.010286
 1520 Fit       0.012458
 1521 Fit       0.008688
 1522 Fit       0.004765
 1523 Fit       0.010414
 1524 Fit       0.011056
 1525 Fit       0.007387
 1526 Fit       0.013403
 1527 Fit       0.013533
 1528 Fit       0.013204
 1529 Fit       0.012111
 1530 Fit       0.014018
 1531 Fit       0.013117
 1532 Fit       0.011817
 1533 Fit       0.011075
 1534 Fit       0.011185
 1535 Fit       0.006768
 1536 Fit      -0.002908
 1537 Fit      -0.007378
 1538 Fit      -0.001123
 1539 Fit      -0.000580
 1540 Fit      -0.002718
 1541 Fit      -0.008987
 1542 Fit      -0.003832
 1543 Fit      -0.000322
 1544 Fit      -0.001798
 1545 Fit       0.014460
 1546 Fit       0.011536
 1547 Fit       0.009549
 1548 Fit       0.008351
 1549 Fit       0.002866
 1550 Fit       0.004782
 1551 Fit       0.004606
 1552 Fit       0.010830
 1553 Fit       0.007525
 1554 Fit       0.001004
 1555 Fit       0.002359
 1556 Fit       0.004150
 1557 Fit      -0.008053
 1558 Fit       0.000246
 1559 Fit       0.000700
 -----------------------------------------------------------------
 Leave Link  602 at Sat Feb 17 21:02:32 2018, MaxMem=   33554432 cpu:       0.8

 Test job not archived.
 1\1\GINC-NODE040\SP\RHF\6-31G(d)\C12H24N2O3S1\WULSDORT\17-Feb-2018\0\\
 #HF/6-31G* Geom=AllCheck Guess=Read Pop=(MK,ReadRadii) Integral=(Grid=
 UltraFine) iop(6/33=2)\\Optimization for frag26-conf0\\0,1\C,0,5.72238
 2881,-2.6627622413,-3.0195966582\C,0,-0.7217141709,-2.5850207343,-0.85
 46928172\C,0,0.4105809249,-1.7312038792,-0.2667101142\C,0,-0.242718723
 4,-4.0142206611,-1.147603334\C,0,1.6575426541,-1.740148942,-1.16561357
 93\C,0,1.0026966109,-4.0178603898,-2.0471661719\C,0,2.1497512789,-3.17
 16906286,-1.4560926989\C,0,6.7909633396,-1.6414241928,-4.9512692906\C,
 0,5.1139357739,-0.3231648325,-3.7320612663\C,0,6.5616469753,-3.1449508
 849,1.5901281479\C,0,3.363602343,-3.2028081657,-2.4013489016\C,0,4.696
 9045055,-2.6195280046,-1.8668750512\N,0,5.3108666139,-3.3945832899,-0.
 7825614948\N,0,5.8363047778,-1.5806690768,-3.8505854239\O,0,6.36988885
 64,-3.6952805351,-3.1878073946\O,0,4.2284606116,-4.343102402,1.3642311
 975\O,0,4.3467483751,-1.827520117,0.9406243993\S,0,4.9291285004,-3.170
 8741374,0.8256560127\H,0,-1.5798832743,-2.6042071844,-0.1705624401\H,0
 ,-1.0767801248,-2.123867885,-1.788905382\H,0,0.0694884949,-0.699447673
 4,-0.1117597331\H,0,0.6856243938,-2.1204110738,0.723708087\H,0,-0.0022
 434773,-4.5164233523,-0.1993707482\H,0,-1.0454420128,-4.5984899003,-1.
 6159285019\H,0,1.4176318908,-1.2475654812,-2.1225048195\H,0,2.45008380
 54,-1.1556407276,-0.6859246534\H,0,1.3468867503,-5.0482186424,-2.20925
 03128\H,0,0.7354540881,-3.6190624871,-3.038721631\H,0,2.4360806678,-3.
 6366893341,-0.5023575226\H,0,6.2760347138,-1.5068431915,-5.9111586043\
 H,0,7.2804162924,-2.6136435191,-4.9314110926\H,0,7.5425972698,-0.84797
 24786,-4.84765374\H,0,5.7896302025,0.4931948227,-3.4413234796\H,0,4.30
 96138673,-0.3839866989,-3.0016051349\H,0,4.6674962073,-0.0634958118,-4
 .7001884214\H,0,6.4107247267,-3.0257853104,2.6655857663\H,0,7.06547842
 19,-4.0918232849,1.3855804071\H,0,7.1278689572,-2.3070368433,1.1820468
 46\H,0,3.5693997785,-4.2380594035,-2.7063304574\H,0,3.1044976312,-2.66
 44351088,-3.3256792132\H,0,4.5540936589,-1.6148216717,-1.4709344272\H,
 0,5.5403042092,-4.352088436,-1.0354067115\\Version=AM64L-G09RevC.01\St
 ate=1-A\HF=-1199.325588\RMSD=4.782e-09\Dipole=0.787671,1.0933758,-0.98
 84509\Quadrupole=2.4966938,-2.2395359,-0.2571578,3.524532,6.6991167,-5
 .5640635\PG=C01 [X(C12H24N2O3S1)]\\@


 THE MOST SERIOUS THREAT TO THE SURVIVAL OF MANKIND IS NOT NOW
 IGNORANCE IN THE TRADITIONAL SENSE,
 BUT A MORALLY NEUTRAL, AN INSENSITIVE OR INHIBITED HUMAN INTELLIGENCE.

                     -- MARGO JEFFERSON IN NEWSWEEK, SEPTEMBER 2, 1974
 Job cpu time:  0 days  0 hours  6 minutes  7.6 seconds.
 File lengths (MBytes):  RWF=     58 Int=      0 D2E=      0 Chk=      9 Scr=      1
 Normal termination of Gaussian 09 at Sat Feb 17 21:02:32 2018.
