 Entering Gaussian System, Link 0=g09
 Initial command:
 /home/fb_chem/chemsoft/lx24-amd64/Gaussian_09_C.01_NBO_3.1_64_istanbul-64/g09/l1.exe /local/2397342.1.parallel/Gau-23494.inp -scrdir=/local/2397342.1.parallel/
 Entering Link 1 = /home/fb_chem/chemsoft/lx24-amd64/Gaussian_09_C.01_NBO_3.1_64_istanbul-64/g09/l1.exe PID=     23495.
  
 Copyright (c) 1988,1990,1992,1993,1995,1998,2003,2009,2011,
            Gaussian, Inc.  All Rights Reserved.
  
 This is part of the Gaussian(R) 09 program.  It is based on
 the Gaussian(R) 03 system (copyright 2003, Gaussian, Inc.),
 the Gaussian(R) 98 system (copyright 1998, Gaussian, Inc.),
 the Gaussian(R) 94 system (copyright 1995, Gaussian, Inc.),
 the Gaussian 92(TM) system (copyright 1992, Gaussian, Inc.),
 the Gaussian 90(TM) system (copyright 1990, Gaussian, Inc.),
 the Gaussian 88(TM) system (copyright 1988, Gaussian, Inc.),
 the Gaussian 86(TM) system (copyright 1986, Carnegie Mellon
 University), and the Gaussian 82(TM) system (copyright 1983,
 Carnegie Mellon University). Gaussian is a federally registered
 trademark of Gaussian, Inc.
  
 This software contains proprietary and confidential information,
 including trade secrets, belonging to Gaussian, Inc.
  
 This software is provided under written license and may be
 used, copied, transmitted, or stored only in accord with that
 written license.
  
 The following legend is applicable only to US Government
 contracts under FAR:
  
                    RESTRICTED RIGHTS LEGEND
  
 Use, reproduction and disclosure by the US Government is
 subject to restrictions as set forth in subparagraphs (a)
 and (c) of the Commercial Computer Software - Restricted
 Rights clause in FAR 52.227-19.
  
 Gaussian, Inc.
 340 Quinnipiac St., Bldg. 40, Wallingford CT 06492
  
  
 ---------------------------------------------------------------
 Warning -- This program may not be used in any manner that
 competes with the business of Gaussian, Inc. or will provide
 assistance to any competitor of Gaussian, Inc.  The licensee
 of this program is prohibited from giving any competitor of
 Gaussian, Inc. access to this program.  By using this program,
 the user acknowledges that Gaussian, Inc. is engaged in the
 business of creating and licensing software in the field of
 computational chemistry and represents and warrants to the
 licensee that it is not a competitor of Gaussian, Inc. and that
 it will not use this program in any manner prohibited above.
 ---------------------------------------------------------------
  

 Cite this work as:
 Gaussian 09, Revision C.01,
 M. J. Frisch, G. W. Trucks, H. B. Schlegel, G. E. Scuseria, 
 M. A. Robb, J. R. Cheeseman, G. Scalmani, V. Barone, B. Mennucci, 
 G. A. Petersson, H. Nakatsuji, M. Caricato, X. Li, H. P. Hratchian, 
 A. F. Izmaylov, J. Bloino, G. Zheng, J. L. Sonnenberg, M. Hada, 
 M. Ehara, K. Toyota, R. Fukuda, J. Hasegawa, M. Ishida, T. Nakajima, 
 Y. Honda, O. Kitao, H. Nakai, T. Vreven, J. A. Montgomery, Jr., 
 J. E. Peralta, F. Ogliaro, M. Bearpark, J. J. Heyd, E. Brothers, 
 K. N. Kudin, V. N. Staroverov, T. Keith, R. Kobayashi, J. Normand, 
 K. Raghavachari, A. Rendell, J. C. Burant, S. S. Iyengar, J. Tomasi, 
 M. Cossi, N. Rega, J. M. Millam, M. Klene, J. E. Knox, J. B. Cross, 
 V. Bakken, C. Adamo, J. Jaramillo, R. Gomperts, R. E. Stratmann, 
 O. Yazyev, A. J. Austin, R. Cammi, C. Pomelli, J. W. Ochterski, 
 R. L. Martin, K. Morokuma, V. G. Zakrzewski, G. A. Voth, 
 P. Salvador, J. J. Dannenberg, S. Dapprich, A. D. Daniels, 
 O. Farkas, J. B. Foresman, J. V. Ortiz, J. Cioslowski, 
 and D. J. Fox, Gaussian, Inc., Wallingford CT, 2010.
 
 ******************************************
 Gaussian 09:  AM64L-G09RevC.01 23-Sep-2011
                16-Feb-2018 
 ******************************************
 %nprocs=4
 Will use up to    4 processors via shared memory.
 %chk=frag17-conf2.chk
 ---------------------------------------------------------
 #B3LYP/6-31G* Integral=(Grid=UltraFine) freq Opt pop=none
 ---------------------------------------------------------
 1/14=-1,18=20,19=15,26=3,38=1/1,3;
 2/9=110,12=2,17=6,18=5,40=1/2;
 3/5=1,6=6,7=1,11=2,16=1,25=1,30=1,71=1,74=-5,75=-5/1,2,3;
 4//1;
 5/5=2,38=5/2;
 7//1,2,3,16;
 1/14=-1,18=20,19=15/3(2);
 2/9=110/2;
 99//99;
 2/9=110/2;
 3/5=1,6=6,7=1,11=2,16=1,25=1,30=1,71=1,74=-5,75=-5/1,2,3;
 4/5=5,16=3/1;
 5/5=2,38=5/2;
 7//1,2,3,16;
 1/14=-1,18=20,19=15/3(-5);
 2/9=110/2;
 99/9=1/99;
 -----------------------------
 Optimization for frag17-conf2
 -----------------------------
 Charge =  0 Multiplicity = 1
 Symbolic Z-Matrix:
 C                    -1.88793  -1.96522   5.60565 
 C                    -0.63063  -1.49919   5.23287 
 C                    -2.44199  -3.00953   4.88607 
 C                    -0.60423  -3.12787   3.49369 
 C                     0.03987  -2.09005   4.15785 
 C                     2.3742    0.18575   2.33928 
 C                     2.06569   1.44991   1.58474 
 C                     1.38654  -1.60409   3.71284 
 N                    -1.82838  -3.60315   3.83511 
 N                     1.27962  -0.39625   2.92566 
 O                     3.51371  -0.26452   2.43994 
 H                    -2.42485  -1.52226   6.43884 
 H                    -0.17675  -0.67566   5.78187 
 H                    -3.42242  -3.40272   5.14567 
 H                    -0.14012  -3.61993   2.64062 
 H                     2.09835   2.29724   2.27464 
 H                     2.80897   1.59306   0.79562 
 H                     1.07567   1.39739   1.12291 
 H                     2.02274  -1.39504   4.58119 
 H                     1.90531  -2.36443   3.11692 
 H                     0.37133   0.05053   2.83301 
 

 GradGradGradGradGradGradGradGradGradGradGradGradGradGradGradGradGradGrad
 Berny optimization.
 Initialization pass.
                           ----------------------------
                           !    Initial Parameters    !
                           ! (Angstroms and Degrees)  !
 --------------------------                            --------------------------
 ! Name  Definition              Value          Derivative Info.                !
 --------------------------------------------------------------------------------
 ! R1    R(1,2)                  1.3917         estimate D2E/DX2                !
 ! R2    R(1,3)                  1.384          estimate D2E/DX2                !
 ! R3    R(1,12)                 1.0857         estimate D2E/DX2                !
 ! R4    R(2,5)                  1.398          estimate D2E/DX2                !
 ! R5    R(2,13)                 1.0889         estimate D2E/DX2                !
 ! R6    R(3,9)                  1.354          estimate D2E/DX2                !
 ! R7    R(3,14)                 1.0878         estimate D2E/DX2                !
 ! R8    R(4,5)                  1.3903         estimate D2E/DX2                !
 ! R9    R(4,9)                  1.3568         estimate D2E/DX2                !
 ! R10   R(4,15)                 1.0887         estimate D2E/DX2                !
 ! R11   R(5,8)                  1.4992         estimate D2E/DX2                !
 ! R12   R(6,7)                  1.5042         estimate D2E/DX2                !
 ! R13   R(6,10)                 1.3714         estimate D2E/DX2                !
 ! R14   R(6,11)                 1.2294         estimate D2E/DX2                !
 ! R15   R(7,16)                 1.0932         estimate D2E/DX2                !
 ! R16   R(7,17)                 1.0935         estimate D2E/DX2                !
 ! R17   R(7,18)                 1.0937         estimate D2E/DX2                !
 ! R18   R(8,10)                 1.4457         estimate D2E/DX2                !
 ! R19   R(8,19)                 1.0966         estimate D2E/DX2                !
 ! R20   R(8,20)                 1.0965         estimate D2E/DX2                !
 ! R21   R(10,21)                1.0165         estimate D2E/DX2                !
 ! A1    A(2,1,3)              118.3638         estimate D2E/DX2                !
 ! A2    A(2,1,12)             121.0455         estimate D2E/DX2                !
 ! A3    A(3,1,12)             120.5907         estimate D2E/DX2                !
 ! A4    A(1,2,5)              119.8505         estimate D2E/DX2                !
 ! A5    A(1,2,13)             119.6548         estimate D2E/DX2                !
 ! A6    A(5,2,13)             120.4947         estimate D2E/DX2                !
 ! A7    A(1,3,9)              123.5699         estimate D2E/DX2                !
 ! A8    A(1,3,14)             120.6306         estimate D2E/DX2                !
 ! A9    A(9,3,14)             115.7994         estimate D2E/DX2                !
 ! A10   A(5,4,9)              124.0027         estimate D2E/DX2                !
 ! A11   A(5,4,15)             120.9433         estimate D2E/DX2                !
 ! A12   A(9,4,15)             115.0538         estimate D2E/DX2                !
 ! A13   A(2,5,4)              117.428          estimate D2E/DX2                !
 ! A14   A(2,5,8)              121.4712         estimate D2E/DX2                !
 ! A15   A(4,5,8)              121.0833         estimate D2E/DX2                !
 ! A16   A(7,6,10)             114.0446         estimate D2E/DX2                !
 ! A17   A(7,6,11)             122.6153         estimate D2E/DX2                !
 ! A18   A(10,6,11)            123.3239         estimate D2E/DX2                !
 ! A19   A(6,7,16)             109.1908         estimate D2E/DX2                !
 ! A20   A(6,7,17)             109.4275         estimate D2E/DX2                !
 ! A21   A(6,7,18)             110.9232         estimate D2E/DX2                !
 ! A22   A(16,7,17)            109.4914         estimate D2E/DX2                !
 ! A23   A(16,7,18)            109.3151         estimate D2E/DX2                !
 ! A24   A(17,7,18)            108.4734         estimate D2E/DX2                !
 ! A25   A(5,8,10)             111.4695         estimate D2E/DX2                !
 ! A26   A(5,8,19)             110.3571         estimate D2E/DX2                !
 ! A27   A(5,8,20)             111.1933         estimate D2E/DX2                !
 ! A28   A(10,8,19)            108.3499         estimate D2E/DX2                !
 ! A29   A(10,8,20)            108.5667         estimate D2E/DX2                !
 ! A30   A(19,8,20)            106.7417         estimate D2E/DX2                !
 ! A31   A(3,9,4)              116.7819         estimate D2E/DX2                !
 ! A32   A(6,10,8)             121.8951         estimate D2E/DX2                !
 ! A33   A(6,10,21)            119.1901         estimate D2E/DX2                !
 ! A34   A(8,10,21)            118.8788         estimate D2E/DX2                !
 ! D1    D(3,1,2,5)             -0.2383         estimate D2E/DX2                !
 ! D2    D(3,1,2,13)           179.7437         estimate D2E/DX2                !
 ! D3    D(12,1,2,5)           179.8516         estimate D2E/DX2                !
 ! D4    D(12,1,2,13)           -0.1664         estimate D2E/DX2                !
 ! D5    D(2,1,3,9)             -0.1267         estimate D2E/DX2                !
 ! D6    D(2,1,3,14)           179.9892         estimate D2E/DX2                !
 ! D7    D(12,1,3,9)           179.7838         estimate D2E/DX2                !
 ! D8    D(12,1,3,14)           -0.1002         estimate D2E/DX2                !
 ! D9    D(1,2,5,4)              0.6092         estimate D2E/DX2                !
 ! D10   D(1,2,5,8)            179.1042         estimate D2E/DX2                !
 ! D11   D(13,2,5,4)          -179.3727         estimate D2E/DX2                !
 ! D12   D(13,2,5,8)            -0.8777         estimate D2E/DX2                !
 ! D13   D(1,3,9,4)              0.0895         estimate D2E/DX2                !
 ! D14   D(14,3,9,4)           179.9786         estimate D2E/DX2                !
 ! D15   D(9,4,5,2)             -0.6755         estimate D2E/DX2                !
 ! D16   D(9,4,5,8)           -179.1767         estimate D2E/DX2                !
 ! D17   D(15,4,5,2)           179.19           estimate D2E/DX2                !
 ! D18   D(15,4,5,8)             0.6888         estimate D2E/DX2                !
 ! D19   D(5,4,9,3)              0.3278         estimate D2E/DX2                !
 ! D20   D(15,4,9,3)          -179.5449         estimate D2E/DX2                !
 ! D21   D(2,5,8,10)           -78.3            estimate D2E/DX2                !
 ! D22   D(2,5,8,19)            42.1482         estimate D2E/DX2                !
 ! D23   D(2,5,8,20)           160.4037         estimate D2E/DX2                !
 ! D24   D(4,5,8,10)           100.1402         estimate D2E/DX2                !
 ! D25   D(4,5,8,19)          -139.4116         estimate D2E/DX2                !
 ! D26   D(4,5,8,20)           -21.1561         estimate D2E/DX2                !
 ! D27   D(10,6,7,16)           86.6108         estimate D2E/DX2                !
 ! D28   D(10,6,7,17)         -153.562          estimate D2E/DX2                !
 ! D29   D(10,6,7,18)          -33.9213         estimate D2E/DX2                !
 ! D30   D(11,6,7,16)          -91.97           estimate D2E/DX2                !
 ! D31   D(11,6,7,17)           27.8572         estimate D2E/DX2                !
 ! D32   D(11,6,7,18)          147.4979         estimate D2E/DX2                !
 ! D33   D(7,6,10,8)          -178.8398         estimate D2E/DX2                !
 ! D34   D(7,6,10,21)           -1.0477         estimate D2E/DX2                !
 ! D35   D(11,6,10,8)           -0.2704         estimate D2E/DX2                !
 ! D36   D(11,6,10,21)         177.5217         estimate D2E/DX2                !
 ! D37   D(5,8,10,6)          -175.8496         estimate D2E/DX2                !
 ! D38   D(5,8,10,21)            6.3516         estimate D2E/DX2                !
 ! D39   D(19,8,10,6)           62.5304         estimate D2E/DX2                !
 ! D40   D(19,8,10,21)        -115.2684         estimate D2E/DX2                !
 ! D41   D(20,8,10,6)          -53.0364         estimate D2E/DX2                !
 ! D42   D(20,8,10,21)         129.1649         estimate D2E/DX2                !
 --------------------------------------------------------------------------------
 Trust Radius=3.00D-01 FncErr=1.00D-07 GrdErr=1.00D-06
 Number of steps in this run=    107 maximum allowed number of steps=    126.
 GradGradGradGradGradGradGradGradGradGradGradGradGradGradGradGradGradGrad

                          Input orientation:                          
 ---------------------------------------------------------------------
 Center     Atomic      Atomic             Coordinates (Angstroms)
 Number     Number       Type             X           Y           Z
 ---------------------------------------------------------------------
      1          6           0       -1.887927   -1.965217    5.605653
      2          6           0       -0.630627   -1.499192    5.232868
      3          6           0       -2.441987   -3.009531    4.886065
      4          6           0       -0.604229   -3.127872    3.493692
      5          6           0        0.039872   -2.090048    4.157852
      6          6           0        2.374203    0.185750    2.339279
      7          6           0        2.065688    1.449909    1.584738
      8          6           0        1.386538   -1.604088    3.712837
      9          7           0       -1.828383   -3.603148    3.835112
     10          7           0        1.279617   -0.396254    2.925661
     11          8           0        3.513709   -0.264517    2.439944
     12          1           0       -2.424849   -1.522261    6.438843
     13          1           0       -0.176747   -0.675662    5.781875
     14          1           0       -3.422421   -3.402717    5.145665
     15          1           0       -0.140118   -3.619925    2.640623
     16          1           0        2.098349    2.297235    2.274644
     17          1           0        2.808968    1.593065    0.795624
     18          1           0        1.075675    1.397387    1.122911
     19          1           0        2.022736   -1.395045    4.581186
     20          1           0        1.905313   -2.364433    3.116915
     21          1           0        0.371330    0.050528    2.833011
 ---------------------------------------------------------------------
                    Distance matrix (angstroms):
                    1          2          3          4          5
     1  C    0.000000
     2  C    1.391744   0.000000
     3  C    1.383973   2.383783   0.000000
     4  C    2.731305   2.382861   2.308693   0.000000
     5  C    2.414150   1.397977   2.745062   1.390343   0.000000
     6  C    5.784601   4.498987   6.315982   4.602588   3.733037
     7  C    6.592565   5.410745   7.148741   5.632819   4.822462
     8  C    3.799379   2.527934   4.243741   2.516565   1.499235
     9  N    2.412711   2.795526   1.354028   1.356837   2.425697
    10  N    4.435914   3.191976   4.952044   3.366493   2.433968
    11  O    6.487817   5.147851   6.999209   5.125096   4.283844
    12  H    1.085680   2.161976   2.150205   3.816616   3.405899
    13  H    2.149916   1.088860   3.373533   3.381102   2.164454
    14  H    2.152363   3.380107   1.087768   3.278225   3.832277
    15  H    3.818939   3.384943   3.273101   1.088688   2.162153
    16  H    6.719711   5.532744   7.456268   6.182378   5.199236
    17  H    7.606482   6.409524   8.092473   6.420026   5.704190
    18  H    6.339165   5.309744   6.779100   5.377793   4.737716
    19  H    4.082636   2.734204   4.757444   3.329607   2.143360
    20  H    4.554323   3.414219   4.737622   2.650020   2.153766
    21  H    4.105486   3.027353   4.636135   3.389756   2.539121
                    6          7          8          9         10
     6  C    0.000000
     7  C    1.504199   0.000000
     8  C    2.462856   3.783775   0.000000
     9  N    5.852776   6.764714   3.787731   0.000000
    10  N    1.371383   2.413359   1.445663   4.557514   0.000000
    11  O    1.229368   2.401541   2.817723   6.452201   2.290075
    12  H    6.538702   7.249900   4.686627   3.386041   5.228136
    13  H    4.370451   5.211768   2.754406   3.884321   3.218233
    14  H    7.372499   8.145399   5.330492   2.073326   6.006363
    15  H    4.571190   5.628827   2.746620   2.068169   3.533971
    16  H    2.130410   1.093160   4.218459   7.257327   2.889468
    17  H    2.133642   1.093462   4.555790   7.598956   3.291407
    18  H    2.152625   1.093695   3.976582   6.387091   2.551205
    19  H    2.765607   4.132107   1.096575   4.501496   2.071370
    20  H    2.707029   4.113696   1.096529   3.998838   2.074079
    21  H    2.067258   2.527311   2.131313   4.380901   1.016456
                   11         12         13         14         15
    11  O    0.000000
    12  H    7.269084   0.000000
    13  H    4.995699   2.490441   0.000000
    14  H    8.079550   2.490697   4.286722   0.000000
    15  H    4.964825   4.903740   4.305518   4.134722   0.000000
    16  H    2.931406   7.237984   5.129800   8.438668   6.336992
    17  H    2.578964   8.303253   6.238935   9.094553   6.267088
    18  H    3.231178   7.002652   5.250908   7.710798   5.380988
    19  H    2.843591   4.821627   2.607085   5.830877   3.659756
    20  H    2.730362   5.522206   3.780070   5.794706   2.446815
    21  H    3.182499   4.826417   3.086023   5.627239   3.710906
                   16         17         18         19         20
    16  H    0.000000
    17  H    1.785591   0.000000
    18  H    1.783838   1.774743   0.000000
    19  H    4.354168   4.886454   4.544696   0.000000
    20  H    4.741080   4.676192   4.337700   1.759997   0.000000
    21  H    2.888262   3.531634   2.287919   2.805876   2.875021
                   21
    21  H    0.000000
 Stoichiometry    C8H10N2O
 Framework group  C1[X(C8H10N2O)]
 Deg. of freedom    57
 Full point group                 C1      NOp   1
 Largest Abelian subgroup         C1      NOp   1
 Largest concise Abelian subgroup C1      NOp   1
                         Standard orientation:                         
 ---------------------------------------------------------------------
 Center     Atomic      Atomic             Coordinates (Angstroms)
 Number     Number       Type             X           Y           Z
 ---------------------------------------------------------------------
      1          6           0        2.835930    1.188502   -0.315857
      2          6           0        1.516921    0.964382   -0.699182
      3          6           0        3.490276    0.199643    0.397843
      4          6           0        1.629744   -1.166777    0.360752
      5          6           0        0.890153   -0.239668   -0.364870
      6          6           0       -2.812643   -0.004637    0.046984
      7          6           0       -3.604065    0.801563    1.040114
      8          6           0       -0.535241   -0.511167   -0.742022
      9          7           0        2.916354   -0.975966    0.747057
     10          7           0       -1.455217    0.163666    0.145777
     11          8           0       -3.344207   -0.727020   -0.793817
     12          1           0        3.342257    2.115411   -0.567199
     13          1           0        0.980729    1.729945   -1.257775
     14          1           0        4.521547    0.335927    0.715877
     15          1           0        1.193859   -2.117562    0.662837
     16          1           0       -3.789171    1.797244    0.628589
     17          1           0       -4.558145    0.303997    1.234584
     18          1           0       -3.063271    0.895900    1.986060
     19          1           0       -0.730544   -0.170156   -1.765763
     20          1           0       -0.753388   -1.585551   -0.719949
     21          1           0       -1.084624    0.806073    0.840871
 ---------------------------------------------------------------------
 Rotational constants (GHZ):      3.1399158      0.4869021      0.4709388
 Standard basis: 6-31G(d) (6D, 7F)
 There are   185 symmetry adapted basis functions of A   symmetry.
 Integral buffers will be    131072 words long.
 Raffenetti 2 integral format.
 Two-electron integral symmetry is turned on.
   185 basis functions,   348 primitive gaussians,   185 cartesian basis functions
    40 alpha electrons       40 beta electrons
       nuclear repulsion energy       563.3120589688 Hartrees.
 NAtoms=   21 NActive=   21 NUniq=   21 SFac= 1.00D+00 NAtFMM=   60 NAOKFM=F Big=F
 One-electron integrals computed using PRISM.
 NBasis=   185 RedAO= T  NBF=   185
 NBsUse=   185 1.00D-06 NBFU=   185
 Harris functional with IExCor=  402 diagonalized for initial guess.
 ExpMin= 1.61D-01 ExpMax= 5.48D+03 ExpMxC= 8.25D+02 IAcc=3 IRadAn=         5 AccDes= 0.00D+00
 HarFok:  IExCor=  402 AccDes= 0.00D+00 IRadAn=         5 IDoV= 1
 ScaDFX=  1.000000  1.000000  1.000000  1.000000
 FoFCou: FMM=F IPFlag=           0 FMFlag=      100000 FMFlg1=           0
         NFxFlg=           0 DoJE=T BraDBF=F KetDBF=T FulRan=T
         Omega=  0.000000  0.000000  1.000000  0.000000  0.000000 ICntrl=     500 IOpCl=  0
         NMat0=    1 NMatS0=    1 NMatT0=    0 NMatD0=    1 NMtDS0=    0 NMtDT0=    0
         I1Cent=           4 NGrid=           0.
 Petite list used in FoFCou.
 Initial guess orbital symmetries:
       Occupied  (A) (A) (A) (A) (A) (A) (A) (A) (A) (A) (A) (A)
                 (A) (A) (A) (A) (A) (A) (A) (A) (A) (A) (A) (A)
                 (A) (A) (A) (A) (A) (A) (A) (A) (A) (A) (A) (A)
                 (A) (A) (A) (A)
       Virtual   (A) (A) (A) (A) (A) (A) (A) (A) (A) (A) (A) (A)
                 (A) (A) (A) (A) (A) (A) (A) (A) (A) (A) (A) (A)
                 (A) (A) (A) (A) (A) (A) (A) (A) (A) (A) (A) (A)
                 (A) (A) (A) (A) (A) (A) (A) (A) (A) (A) (A) (A)
                 (A) (A) (A) (A) (A) (A) (A) (A) (A) (A) (A) (A)
                 (A) (A) (A) (A) (A) (A) (A) (A) (A) (A) (A) (A)
                 (A) (A) (A) (A) (A) (A) (A) (A) (A) (A) (A) (A)
                 (A) (A) (A) (A) (A) (A) (A) (A) (A) (A) (A) (A)
                 (A) (A) (A) (A) (A) (A) (A) (A) (A) (A) (A) (A)
                 (A) (A) (A) (A) (A) (A) (A) (A) (A) (A) (A) (A)
                 (A) (A) (A) (A) (A) (A) (A) (A) (A) (A) (A) (A)
                 (A) (A) (A) (A) (A) (A) (A) (A) (A) (A) (A) (A)
                 (A)
 The electronic state of the initial guess is 1-A.
 Requested convergence on RMS density matrix=1.00D-08 within 128 cycles.
 Requested convergence on MAX density matrix=1.00D-06.
 Requested convergence on             energy=1.00D-06.
 No special actions if energy rises.
 Integral accuracy reduced to 1.0D-05 until final iterations.
 Initial convergence to 1.0D-05 achieved.  Increase integral accuracy.
 SCF Done:  E(RB3LYP) =  -495.608064224     A.U. after   15 cycles
             Convg  =    0.4596D-08             -V/T =  2.0095
 Calling FoFJK, ICntrl=      2127 FMM=F ISym2X=0 I1Cent= 0 IOpClX= 0 NMat=1 NMatS=1 NMatT=0.
 ***** Axes restored to original set *****
 -------------------------------------------------------------------
 Center     Atomic                   Forces (Hartrees/Bohr)
 Number     Number              X              Y              Z
 -------------------------------------------------------------------
      1        6           0.003345505    0.006017663    0.003194307
      2        6          -0.000196774    0.002893512    0.003275826
      3        6           0.003054313   -0.013122974   -0.015809864
      4        6          -0.021662622   -0.011103821    0.003017127
      5        6          -0.000214873    0.003313546    0.001995393
      6        6           0.006494562   -0.005936527    0.003385998
      7        6          -0.001848996    0.002777183   -0.007131233
      8        6           0.008130717   -0.003197129    0.004034054
      9        7           0.007299376    0.010719617    0.005933905
     10        7          -0.002608412    0.010050658   -0.007868395
     11        8          -0.008955129   -0.001843262    0.002149870
     12        1          -0.000040192    0.000054934    0.000342062
     13        1           0.001378818   -0.000883376   -0.000719203
     14        1          -0.000320421   -0.000723632   -0.000324158
     15        1           0.001412581    0.000371757    0.000310258
     16        1          -0.000009658    0.003221339   -0.000954279
     17        1           0.000368597    0.000884019    0.002567330
     18        1          -0.001716644    0.003429286   -0.000155498
     19        1           0.001474224   -0.002418398    0.001586680
     20        1          -0.000265978   -0.000703930    0.001025467
     21        1           0.004881005   -0.003800466    0.000144352
 -------------------------------------------------------------------
 Cartesian Forces:  Max     0.021662622 RMS     0.005520520

 GradGradGradGradGradGradGradGradGradGradGradGradGradGradGradGradGradGrad
 Berny optimization.
 Internal  Forces:  Max     0.015157232 RMS     0.003718886
 Search for a local minimum.
 Step number   1 out of a maximum of  107
 All quantities printed in internal units (Hartrees-Bohrs-Radians)
 Mixed Optimization -- RFO/linear search
 Second derivative matrix not updated -- first step.
 ITU=  0
     Eigenvalues ---    0.00710   0.00776   0.01088   0.01261   0.01485
     Eigenvalues ---    0.01585   0.02070   0.02151   0.02170   0.02230
     Eigenvalues ---    0.02238   0.02247   0.02286   0.02301   0.05218
     Eigenvalues ---    0.06619   0.07349   0.07512   0.09955   0.13234
     Eigenvalues ---    0.15992   0.16000   0.16000   0.16000   0.16000
     Eigenvalues ---    0.16000   0.16000   0.16000   0.21954   0.22000
     Eigenvalues ---    0.22002   0.23180   0.23447   0.24991   0.24993
     Eigenvalues ---    0.25000   0.31941   0.32458   0.34064   0.34069
     Eigenvalues ---    0.34389   0.34416   0.34450   0.34945   0.34965
     Eigenvalues ---    0.35072   0.35317   0.38819   0.43227   0.44052
     Eigenvalues ---    0.44908   0.46806   0.47935   0.50712   0.52074
     Eigenvalues ---    0.53318   0.91350
 RFO step:  Lambda=-3.87956460D-03 EMin= 7.10403161D-03
 Linear search not attempted -- first point.
 Iteration  1 RMS(Cart)=  0.03638181 RMS(Int)=  0.00053588
 Iteration  2 RMS(Cart)=  0.00066644 RMS(Int)=  0.00005071
 Iteration  3 RMS(Cart)=  0.00000037 RMS(Int)=  0.00005071
 Variable       Old X    -DE/DX   Delta X   Delta X   Delta X     New X
                                 (Linear)    (Quad)   (Total)
    R1        2.63001   0.00035   0.00000   0.00238   0.00239   2.63241
    R2        2.61533   0.01030   0.00000   0.02137   0.02136   2.63669
    R3        2.05164   0.00031   0.00000   0.00085   0.00085   2.05249
    R4        2.64179   0.00007   0.00000   0.00152   0.00154   2.64333
    R5        2.05765  -0.00046   0.00000  -0.00129  -0.00129   2.05636
    R6        2.55874  -0.01369   0.00000  -0.02622  -0.02624   2.53250
    R7        2.05558   0.00047   0.00000   0.00133   0.00133   2.05692
    R8        2.62737   0.00813   0.00000   0.01668   0.01669   2.64406
    R9        2.56405  -0.01516   0.00000  -0.02951  -0.02952   2.53453
   R10        2.05732   0.00019   0.00000   0.00054   0.00054   2.05786
   R11        2.83314   0.00650   0.00000   0.01979   0.01979   2.85293
   R12        2.84252   0.01217   0.00000   0.03764   0.03764   2.88017
   R13        2.59154  -0.00339   0.00000  -0.00663  -0.00663   2.58491
   R14        2.32317  -0.00745   0.00000  -0.00812  -0.00812   2.31505
   R15        2.06577   0.00189   0.00000   0.00544   0.00544   2.07121
   R16        2.06634  -0.00149   0.00000  -0.00427  -0.00427   2.06207
   R17        2.06678   0.00145   0.00000   0.00418   0.00418   2.07097
   R18        2.73191   0.01187   0.00000   0.03027   0.03027   2.76218
   R19        2.07223   0.00165   0.00000   0.00479   0.00479   2.07702
   R20        2.07214  -0.00020   0.00000  -0.00057  -0.00057   2.07157
   R21        1.92082  -0.00605   0.00000  -0.01335  -0.01335   1.90748
    A1        2.06584  -0.00045   0.00000   0.00250   0.00249   2.06833
    A2        2.11264   0.00017   0.00000  -0.00160  -0.00161   2.11103
    A3        2.10471   0.00028   0.00000  -0.00089  -0.00091   2.10380
    A4        2.09179  -0.00410   0.00000  -0.01155  -0.01153   2.08026
    A5        2.08837   0.00367   0.00000   0.01566   0.01563   2.10400
    A6        2.10303   0.00043   0.00000  -0.00411  -0.00414   2.09889
    A7        2.15670   0.00092   0.00000   0.00224   0.00221   2.15891
    A8        2.10540   0.00026   0.00000   0.00327   0.00327   2.10868
    A9        2.02108  -0.00118   0.00000  -0.00550  -0.00549   2.01559
   A10        2.16426   0.00372   0.00000   0.01287   0.01287   2.17712
   A11        2.11086  -0.00327   0.00000  -0.01505  -0.01506   2.09580
   A12        2.00807  -0.00045   0.00000   0.00220   0.00219   2.01025
   A13        2.04951  -0.00177   0.00000  -0.00460  -0.00458   2.04493
   A14        2.12007   0.00052   0.00000   0.00098   0.00095   2.12102
   A15        2.11330   0.00125   0.00000   0.00387   0.00383   2.11714
   A16        1.99045   0.00693   0.00000   0.02730   0.02730   2.01775
   A17        2.14004   0.00315   0.00000   0.01240   0.01240   2.15244
   A18        2.15241  -0.01007   0.00000  -0.03968  -0.03968   2.11273
   A19        1.90574   0.00268   0.00000   0.01246   0.01232   1.91806
   A20        1.90987  -0.00148   0.00000  -0.00976  -0.00982   1.90005
   A21        1.93598   0.00447   0.00000   0.03192   0.03174   1.96772
   A22        1.91098  -0.00239   0.00000  -0.02408  -0.02409   1.88690
   A23        1.90791  -0.00334   0.00000  -0.01877  -0.01902   1.88889
   A24        1.89322  -0.00004   0.00000   0.00742   0.00733   1.90055
   A25        1.94551  -0.00200   0.00000  -0.00695  -0.00698   1.93853
   A26        1.92609  -0.00024   0.00000  -0.00038  -0.00043   1.92567
   A27        1.94069  -0.00027   0.00000  -0.01076  -0.01080   1.92988
   A28        1.89106   0.00282   0.00000   0.02737   0.02734   1.91840
   A29        1.89485   0.00092   0.00000   0.00273   0.00264   1.89749
   A30        1.86299  -0.00108   0.00000  -0.01114  -0.01124   1.85176
   A31        2.03823   0.00169   0.00000  -0.00136  -0.00141   2.03682
   A32        2.12747  -0.00188   0.00000  -0.00839  -0.00839   2.11908
   A33        2.08026   0.00173   0.00000   0.00903   0.00903   2.08929
   A34        2.07483   0.00015   0.00000  -0.00059  -0.00059   2.07424
    D1       -0.00416   0.00012   0.00000   0.00541   0.00543   0.00127
    D2        3.13712   0.00035   0.00000   0.01489   0.01499  -3.13108
    D3        3.13900  -0.00011   0.00000  -0.00366  -0.00367   3.13533
    D4       -0.00290   0.00013   0.00000   0.00583   0.00588   0.00298
    D5       -0.00221   0.00002   0.00000   0.00102   0.00102  -0.00119
    D6        3.14140  -0.00016   0.00000  -0.00647  -0.00650   3.13490
    D7        3.13782   0.00024   0.00000   0.01004   0.01008  -3.13528
    D8       -0.00175   0.00006   0.00000   0.00255   0.00256   0.00081
    D9        0.01063  -0.00027   0.00000  -0.01061  -0.01055   0.00008
   D10        3.12596  -0.00003   0.00000   0.00028   0.00030   3.12625
   D11       -3.13064  -0.00051   0.00000  -0.02018  -0.02008   3.13246
   D12       -0.01532  -0.00027   0.00000  -0.00929  -0.00923  -0.02455
   D13        0.00156  -0.00004   0.00000  -0.00188  -0.00191  -0.00035
   D14        3.14122   0.00014   0.00000   0.00529   0.00525  -3.13671
   D15       -0.01179   0.00021   0.00000   0.00998   0.01004  -0.00175
   D16       -3.12722  -0.00001   0.00000  -0.00082  -0.00074  -3.12797
   D17        3.12746   0.00045   0.00000   0.01843   0.01841  -3.13732
   D18        0.01202   0.00023   0.00000   0.00763   0.00764   0.01966
   D19        0.00572  -0.00009   0.00000  -0.00385  -0.00384   0.00188
   D20       -3.13365  -0.00031   0.00000  -0.01183  -0.01183   3.13770
   D21       -1.36659  -0.00109   0.00000  -0.03231  -0.03228  -1.39887
   D22        0.73562   0.00099   0.00000  -0.00262  -0.00266   0.73297
   D23        2.79957  -0.00068   0.00000  -0.02349  -0.02350   2.77607
   D24        1.74778  -0.00089   0.00000  -0.02115  -0.02111   1.72667
   D25       -2.43319   0.00119   0.00000   0.00853   0.00851  -2.42468
   D26       -0.36924  -0.00048   0.00000  -0.01233  -0.01233  -0.38158
   D27        1.51164   0.00088   0.00000   0.01616   0.01627   1.52791
   D28       -2.68016  -0.00131   0.00000  -0.01156  -0.01159  -2.69175
   D29       -0.59204   0.00049   0.00000   0.01128   0.01123  -0.58081
   D30       -1.60518   0.00095   0.00000   0.01558   0.01567  -1.58951
   D31        0.48620  -0.00124   0.00000  -0.01214  -0.01219   0.47401
   D32        2.57432   0.00055   0.00000   0.01070   0.01063   2.58495
   D33       -3.12134   0.00049   0.00000   0.02175   0.02176  -3.09958
   D34       -0.01829   0.00050   0.00000   0.02302   0.02304   0.00475
   D35       -0.00472   0.00064   0.00000   0.02318   0.02316   0.01844
   D36        3.09834   0.00064   0.00000   0.02445   0.02443   3.12277
   D37       -3.06915   0.00029   0.00000  -0.00125  -0.00123  -3.07038
   D38        0.11086   0.00025   0.00000  -0.00273  -0.00270   0.10816
   D39        1.09136  -0.00003   0.00000  -0.01462  -0.01461   1.07675
   D40       -2.01181  -0.00006   0.00000  -0.01610  -0.01609  -2.02790
   D41       -0.92566  -0.00073   0.00000  -0.01745  -0.01749  -0.94315
   D42        2.25435  -0.00077   0.00000  -0.01893  -0.01896   2.23539
         Item               Value     Threshold  Converged?
 Maximum Force            0.015157     0.000450     NO 
 RMS     Force            0.003719     0.000300     NO 
 Maximum Displacement     0.161916     0.001800     NO 
 RMS     Displacement     0.036526     0.001200     NO 
 Predicted change in Energy=-1.979570D-03
 GradGradGradGradGradGradGradGradGradGradGradGradGradGradGradGradGradGrad

                          Input orientation:                          
 ---------------------------------------------------------------------
 Center     Atomic      Atomic             Coordinates (Angstroms)
 Number     Number       Type             X           Y           Z
 ---------------------------------------------------------------------
      1          6           0       -1.893496   -1.984044    5.620283
      2          6           0       -0.635848   -1.505338    5.260227
      3          6           0       -2.444547   -3.030702    4.880255
      4          6           0       -0.623551   -3.126654    3.507335
      5          6           0        0.029346   -2.084381    4.174482
      6          6           0        2.357405    0.189864    2.325071
      7          6           0        2.088661    1.475261    1.551465
      8          6           0        1.385134   -1.594011    3.726611
      9          7           0       -1.832394   -3.605781    3.835972
     10          7           0        1.264314   -0.386979    2.911142
     11          8           0        3.473444   -0.299680    2.449979
     12          1           0       -2.432944   -1.559394    6.461919
     13          1           0       -0.170594   -0.696749    5.820452
     14          1           0       -3.421962   -3.437867    5.132548
     15          1           0       -0.147195   -3.614128    2.658030
     16          1           0        2.148187    2.336450    2.226821
     17          1           0        2.855711    1.592217    0.784210
     18          1           0        1.103174    1.483070    1.072123
     19          1           0        2.026030   -1.395156    4.597102
     20          1           0        1.899175   -2.364617    3.140397
     21          1           0        0.356662    0.042584    2.808575
 ---------------------------------------------------------------------
                    Distance matrix (angstroms):
                    1          2          3          4          5
     1  C    0.000000
     2  C    1.393011   0.000000
     3  C    1.395274   2.396353   0.000000
     4  C    2.717143   2.387771   2.282574   0.000000
     5  C    2.407848   1.398791   2.741129   1.399176   0.000000
     6  C    5.801246   4.521992   6.321372   4.613365   3.743310
     7  C    6.661806   5.482868   7.206561   5.688511   4.877710
     8  C    3.806249   2.538544   4.249874   2.536118   1.509706
     9  N    2.411956   2.805724   1.340140   1.341218   2.428029
    10  N    4.456660   3.221729   4.962088   3.380133   2.449968
    11  O    6.456931   5.122244   6.956101   5.088728   4.245100
    12  H    1.086132   2.162531   2.160218   3.802601   3.401596
    13  H    2.159998   1.088178   3.391485   3.385280   2.162110
    14  H    2.165108   3.393140   1.088474   3.251042   3.829013
    15  H    3.805481   3.384849   3.249076   1.088974   2.161231
    16  H    6.820371   5.631318   7.545875   6.258415   5.275094
    17  H    7.663695   6.466882   8.138900   6.464396   5.744532
    18  H    6.456522   5.430930   6.889291   5.491939   4.848138
    19  H    4.093455   2.745445   4.768778   3.347530   2.154155
    20  H    4.547419   3.414437   4.726383   2.660731   2.155022
    21  H    4.132329   3.064594   4.645828   3.390156   2.548886
                    6          7          8          9         10
     6  C    0.000000
     7  C    1.524118   0.000000
     8  C    2.468164   3.827094   0.000000
     9  N    5.851851   6.812535   3.796270   0.000000
    10  N    1.367873   2.448717   1.461681   4.561314   0.000000
    11  O    1.225071   2.423916   2.768776   6.403374   2.258440
    12  H    6.566648   7.332572   4.696896   3.382892   5.258544
    13  H    4.403924   5.295858   2.758539   3.893869   3.258681
    14  H    7.378579   8.205483   5.337099   2.058162   6.016954
    15  H    4.566644   5.667929   2.751504   2.056091   3.531417
    16  H    2.158995   1.096036   4.275529   7.331064   2.943909
    17  H    2.142231   1.091203   4.579560   7.636148   3.312643
    18  H    2.194392   1.095909   4.073603   6.492520   2.627745
    19  H    2.790022   4.185586   1.099111   4.511498   2.106915
    20  H    2.720313   4.159961   1.096229   3.993609   2.089655
    21  H    2.063598   2.575405   2.139857   4.376994   1.009394
                   11         12         13         14         15
    11  O    0.000000
    12  H    7.250377   0.000000
    13  H    4.979635   2.504769   0.000000
    14  H    8.036853   2.504803   4.307939   0.000000
    15  H    4.913031   4.890414   4.302623   4.108333   0.000000
    16  H    2.958934   7.355299   5.243207   8.533026   6.392503
    17  H    2.595314   8.374898   6.305681   9.144340   6.295607
    18  H    3.270301   7.128157   5.377799   7.821734   5.482695
    19  H    2.811621   4.836008   2.609505   5.842943   3.661522
    20  H    2.686813   5.517984   3.774708   5.782303   2.445728
    21  H    3.155957   4.867768   3.145793   5.638474   3.694330
                   16         17         18         19         20
    16  H    0.000000
    17  H    1.770762   0.000000
    18  H    1.775849   1.779380   0.000000
    19  H    4.422448   4.914358   4.643418   0.000000
    20  H    4.795484   4.703521   4.440278   1.754405   0.000000
    21  H    2.968134   3.569966   2.376456   2.837731   2.878205
                   21
    21  H    0.000000
 Stoichiometry    C8H10N2O
 Framework group  C1[X(C8H10N2O)]
 Deg. of freedom    57
 Full point group                 C1      NOp   1
 Largest Abelian subgroup         C1      NOp   1
 Largest concise Abelian subgroup C1      NOp   1
                         Standard orientation:                         
 ---------------------------------------------------------------------
 Center     Atomic      Atomic             Coordinates (Angstroms)
 Number     Number       Type             X           Y           Z
 ---------------------------------------------------------------------
      1          6           0        2.848633    1.188412   -0.302207
      2          6           0        1.530534    0.981965   -0.702802
      3          6           0        3.491026    0.181255    0.418733
      4          6           0        1.641432   -1.154904    0.356887
      5          6           0        0.896761   -0.219879   -0.370358
      6          6           0       -2.816774   -0.008659    0.050846
      7          6           0       -3.663430    0.781135    1.041974
      8          6           0       -0.536236   -0.490899   -0.760589
      9          7           0        2.911131   -0.980037    0.752048
     10          7           0       -1.464233    0.164563    0.159032
     11          8           0       -3.293630   -0.736464   -0.811539
     12          1           0        3.370157    2.108422   -0.549749
     13          1           0        1.000956    1.741150   -1.274917
     14          1           0        4.522571    0.300293    0.745107
     15          1           0        1.195979   -2.108153    0.637515
     16          1           0       -3.881188    1.775979    0.636804
     17          1           0       -4.610844    0.260400    1.190176
     18          1           0       -3.171800    0.906741    2.013333
     19          1           0       -0.723398   -0.148981   -1.788260
     20          1           0       -0.739360   -1.568139   -0.756915
     21          1           0       -1.093993    0.781754    0.866756
 ---------------------------------------------------------------------
 Rotational constants (GHZ):      3.1251458      0.4842995      0.4693920
 Standard basis: 6-31G(d) (6D, 7F)
 There are   185 symmetry adapted basis functions of A   symmetry.
 Integral buffers will be    131072 words long.
 Raffenetti 2 integral format.
 Two-electron integral symmetry is turned on.
   185 basis functions,   348 primitive gaussians,   185 cartesian basis functions
    40 alpha electrons       40 beta electrons
       nuclear repulsion energy       562.3987589077 Hartrees.
 NAtoms=   21 NActive=   21 NUniq=   21 SFac= 1.00D+00 NAtFMM=   60 NAOKFM=F Big=F
 One-electron integrals computed using PRISM.
 NBasis=   185 RedAO= T  NBF=   185
 NBsUse=   185 1.00D-06 NBFU=   185
 Initial guess read from the read-write file.
 B after Tr=     0.000000    0.000000    0.000000
         Rot=    1.000000    0.000000    0.000000    0.000000 Ang=   0.00 deg.
 Initial guess orbital symmetries:
       Occupied  (A) (A) (A) (A) (A) (A) (A) (A) (A) (A) (A) (A)
                 (A) (A) (A) (A) (A) (A) (A) (A) (A) (A) (A) (A)
                 (A) (A) (A) (A) (A) (A) (A) (A) (A) (A) (A) (A)
                 (A) (A) (A) (A)
       Virtual   (A) (A) (A) (A) (A) (A) (A) (A) (A) (A) (A) (A)
                 (A) (A) (A) (A) (A) (A) (A) (A) (A) (A) (A) (A)
                 (A) (A) (A) (A) (A) (A) (A) (A) (A) (A) (A) (A)
                 (A) (A) (A) (A) (A) (A) (A) (A) (A) (A) (A) (A)
                 (A) (A) (A) (A) (A) (A) (A) (A) (A) (A) (A) (A)
                 (A) (A) (A) (A) (A) (A) (A) (A) (A) (A) (A) (A)
                 (A) (A) (A) (A) (A) (A) (A) (A) (A) (A) (A) (A)
                 (A) (A) (A) (A) (A) (A) (A) (A) (A) (A) (A) (A)
                 (A) (A) (A) (A) (A) (A) (A) (A) (A) (A) (A) (A)
                 (A) (A) (A) (A) (A) (A) (A) (A) (A) (A) (A) (A)
                 (A) (A) (A) (A) (A) (A) (A) (A) (A) (A) (A) (A)
                 (A) (A) (A) (A) (A) (A) (A) (A) (A) (A) (A) (A)
                 (A)
 Harris functional with IExCor=  402 diagonalized for initial guess.
 ExpMin= 1.61D-01 ExpMax= 5.48D+03 ExpMxC= 8.25D+02 IAcc=3 IRadAn=         5 AccDes= 0.00D+00
 HarFok:  IExCor=  402 AccDes= 0.00D+00 IRadAn=         5 IDoV= 1
 ScaDFX=  1.000000  1.000000  1.000000  1.000000
 FoFCou: FMM=F IPFlag=           0 FMFlag=      100000 FMFlg1=           0
         NFxFlg=           0 DoJE=T BraDBF=F KetDBF=T FulRan=T
         Omega=  0.000000  0.000000  1.000000  0.000000  0.000000 ICntrl=     500 IOpCl=  0
         NMat0=    1 NMatS0=    1 NMatT0=    0 NMatD0=    1 NMtDS0=    0 NMtDT0=    0
         I1Cent=           4 NGrid=           0.
 Petite list used in FoFCou.
 Requested convergence on RMS density matrix=1.00D-08 within 128 cycles.
 Requested convergence on MAX density matrix=1.00D-06.
 Requested convergence on             energy=1.00D-06.
 No special actions if energy rises.
 Integral accuracy reduced to 1.0D-05 until final iterations.
 Initial convergence to 1.0D-05 achieved.  Increase integral accuracy.
 SCF Done:  E(RB3LYP) =  -495.609890841     A.U. after   12 cycles
             Convg  =    0.5931D-08             -V/T =  2.0095
 Calling FoFJK, ICntrl=      2127 FMM=F ISym2X=0 I1Cent= 0 IOpClX= 0 NMat=1 NMatS=1 NMatT=0.
 ***** Axes restored to original set *****
 -------------------------------------------------------------------
 Center     Atomic                   Forces (Hartrees/Bohr)
 Number     Number              X              Y              Z
 -------------------------------------------------------------------
      1        6           0.000216779    0.000742829    0.000737457
      2        6          -0.000877693   -0.000312890    0.000523557
      3        6          -0.000795820   -0.002292083   -0.001776227
      4        6          -0.003324384   -0.003084628   -0.001262980
      5        6           0.000529341    0.001327714   -0.000222501
      6        6           0.000867385   -0.002981854    0.002115453
      7        6          -0.000621090   -0.000974155   -0.000602547
      8        6           0.001143149   -0.001950396    0.000036917
      9        7           0.003071799    0.003656178    0.001918883
     10        7          -0.001412419    0.003070119   -0.001024138
     11        8           0.001096339    0.001810110   -0.001285524
     12        1          -0.000270677   -0.000289391   -0.000089107
     13        1           0.000114332   -0.000160213   -0.000182662
     14        1          -0.000370933    0.000772764    0.000840150
     15        1           0.001438904    0.000604954   -0.000353763
     16        1           0.000144398    0.000082020    0.000270578
     17        1           0.000698520   -0.000313856    0.000275404
     18        1          -0.000114117   -0.000023110    0.000756359
     19        1          -0.000342974    0.001038968   -0.000910326
     20        1          -0.000151488    0.000324016   -0.000131292
     21        1          -0.001039351   -0.001047096    0.000366309
 -------------------------------------------------------------------
 Cartesian Forces:  Max     0.003656178 RMS     0.001331343

 GradGradGradGradGradGradGradGradGradGradGradGradGradGradGradGradGradGrad
 Berny optimization.
 Using GEDIIS/GDIIS optimizer.
 Internal  Forces:  Max     0.003767246 RMS     0.000796962
 Search for a local minimum.
 Step number   2 out of a maximum of  107
 All quantities printed in internal units (Hartrees-Bohrs-Radians)
 Mixed Optimization -- En-DIIS/RFO-DIIS
 Update second derivatives using D2CorX and points    1    2
 DE= -1.83D-03 DEPred=-1.98D-03 R= 9.23D-01
 SS=  1.41D+00  RLast= 1.43D-01 DXNew= 5.0454D-01 4.2999D-01
 Trust test= 9.23D-01 RLast= 1.43D-01 DXMaxT set to 4.30D-01
 ITU=  1  0
 Use linear search instead of GDIIS.
     Eigenvalues ---    0.00709   0.00773   0.01084   0.01240   0.01487
     Eigenvalues ---    0.01583   0.02075   0.02152   0.02171   0.02232
     Eigenvalues ---    0.02238   0.02247   0.02286   0.02302   0.05268
     Eigenvalues ---    0.06664   0.07055   0.07441   0.10019   0.13234
     Eigenvalues ---    0.15180   0.15995   0.15999   0.16000   0.16000
     Eigenvalues ---    0.16000   0.16000   0.16396   0.21594   0.21953
     Eigenvalues ---    0.22038   0.23309   0.23454   0.24943   0.24997
     Eigenvalues ---    0.27469   0.32338   0.33292   0.34066   0.34212
     Eigenvalues ---    0.34401   0.34423   0.34561   0.34941   0.35006
     Eigenvalues ---    0.35068   0.35319   0.39566   0.43139   0.43411
     Eigenvalues ---    0.45120   0.46845   0.47417   0.50265   0.50783
     Eigenvalues ---    0.53501   0.91344
 RFO step:  Lambda=-2.78945292D-04 EMin= 7.09383290D-03
 Quartic linear search produced a step of -0.05367.
 Iteration  1 RMS(Cart)=  0.01373459 RMS(Int)=  0.00008466
 Iteration  2 RMS(Cart)=  0.00010238 RMS(Int)=  0.00000914
 Iteration  3 RMS(Cart)=  0.00000001 RMS(Int)=  0.00000914
 Variable       Old X    -DE/DX   Delta X   Delta X   Delta X     New X
                                 (Linear)    (Quad)   (Total)
    R1        2.63241   0.00003  -0.00013   0.00049   0.00036   2.63277
    R2        2.63669   0.00016  -0.00115   0.00296   0.00182   2.63850
    R3        2.05249  -0.00005  -0.00005  -0.00002  -0.00007   2.05242
    R4        2.64333   0.00096  -0.00008   0.00228   0.00219   2.64552
    R5        2.05636  -0.00016   0.00007  -0.00060  -0.00053   2.05582
    R6        2.53250  -0.00065   0.00141  -0.00447  -0.00306   2.52944
    R7        2.05692   0.00024  -0.00007   0.00081   0.00074   2.05765
    R8        2.64406   0.00040  -0.00090   0.00282   0.00192   2.64598
    R9        2.53453  -0.00221   0.00158  -0.00765  -0.00607   2.52847
   R10        2.05786   0.00063  -0.00003   0.00178   0.00175   2.05961
   R11        2.85293  -0.00003  -0.00106   0.00234   0.00128   2.85421
   R12        2.88017  -0.00141  -0.00202   0.00047  -0.00155   2.87861
   R13        2.58491  -0.00001   0.00036  -0.00084  -0.00048   2.58442
   R14        2.31505   0.00014   0.00044  -0.00085  -0.00041   2.31464
   R15        2.07121   0.00024  -0.00029   0.00132   0.00103   2.07224
   R16        2.06207   0.00026   0.00023   0.00020   0.00043   2.06250
   R17        2.07097  -0.00023  -0.00022  -0.00011  -0.00034   2.07063
   R18        2.76218  -0.00077  -0.00162   0.00186   0.00024   2.76241
   R19        2.07702  -0.00073  -0.00026  -0.00144  -0.00170   2.07532
   R20        2.07157  -0.00023   0.00003  -0.00070  -0.00067   2.07090
   R21        1.90748   0.00045   0.00072  -0.00069   0.00002   1.90750
    A1        2.06833  -0.00053  -0.00013  -0.00142  -0.00155   2.06678
    A2        2.11103   0.00068   0.00009   0.00311   0.00319   2.11423
    A3        2.10380  -0.00015   0.00005  -0.00169  -0.00164   2.10216
    A4        2.08026   0.00037   0.00062   0.00091   0.00152   2.08178
    A5        2.10400   0.00003  -0.00084   0.00203   0.00119   2.10519
    A6        2.09889  -0.00040   0.00022  -0.00294  -0.00272   2.09617
    A7        2.15891  -0.00084  -0.00012  -0.00332  -0.00344   2.15547
    A8        2.10868  -0.00078  -0.00018  -0.00488  -0.00505   2.10362
    A9        2.01559   0.00162   0.00029   0.00820   0.00850   2.02409
   A10        2.17712  -0.00123  -0.00069  -0.00380  -0.00449   2.17263
   A11        2.09580  -0.00090   0.00081  -0.00809  -0.00728   2.08851
   A12        2.01025   0.00213  -0.00012   0.01189   0.01177   2.02203
   A13        2.04493  -0.00010   0.00025  -0.00055  -0.00031   2.04462
   A14        2.12102   0.00067  -0.00005   0.00246   0.00242   2.12343
   A15        2.11714  -0.00057  -0.00021  -0.00188  -0.00208   2.11505
   A16        2.01775  -0.00181  -0.00147  -0.00345  -0.00491   2.01284
   A17        2.15244  -0.00196  -0.00067  -0.00584  -0.00651   2.14594
   A18        2.11273   0.00377   0.00213   0.00938   0.01150   2.12424
   A19        1.91806  -0.00023  -0.00066  -0.00093  -0.00159   1.91647
   A20        1.90005  -0.00075   0.00053  -0.00518  -0.00465   1.89540
   A21        1.96772  -0.00017  -0.00170   0.00356   0.00187   1.96959
   A22        1.88690   0.00022   0.00129  -0.00305  -0.00177   1.88512
   A23        1.88889   0.00009   0.00102  -0.00264  -0.00161   1.88728
   A24        1.90055   0.00087  -0.00039   0.00809   0.00771   1.90825
   A25        1.93853  -0.00082   0.00037  -0.00557  -0.00519   1.93333
   A26        1.92567   0.00072   0.00002   0.00370   0.00369   1.92936
   A27        1.92988   0.00048   0.00058   0.00358   0.00415   1.93404
   A28        1.91840  -0.00066  -0.00147  -0.00504  -0.00651   1.91189
   A29        1.89749   0.00011  -0.00014   0.00030   0.00017   1.89766
   A30        1.85176   0.00020   0.00060   0.00336   0.00395   1.85571
   A31        2.03682   0.00232   0.00008   0.00818   0.00826   2.04508
   A32        2.11908  -0.00146   0.00045  -0.00724  -0.00680   2.11228
   A33        2.08929   0.00204  -0.00048   0.01208   0.01158   2.10087
   A34        2.07424  -0.00058   0.00003  -0.00460  -0.00458   2.06966
    D1        0.00127  -0.00001  -0.00029   0.00053   0.00023   0.00151
    D2       -3.13108  -0.00001  -0.00080   0.00178   0.00097  -3.13011
    D3        3.13533   0.00002   0.00020   0.00068   0.00087   3.13620
    D4        0.00298   0.00003  -0.00032   0.00192   0.00160   0.00458
    D5       -0.00119   0.00005  -0.00005   0.00222   0.00217   0.00097
    D6        3.13490   0.00011   0.00035   0.00346   0.00381   3.13871
    D7       -3.13528   0.00002  -0.00054   0.00206   0.00151  -3.13377
    D8        0.00081   0.00007  -0.00014   0.00330   0.00316   0.00397
    D9        0.00008  -0.00004   0.00057  -0.00306  -0.00249  -0.00242
   D10        3.12625  -0.00002  -0.00002  -0.00054  -0.00056   3.12570
   D11        3.13246  -0.00004   0.00108  -0.00427  -0.00320   3.12926
   D12       -0.02455  -0.00002   0.00050  -0.00176  -0.00127  -0.02582
   D13       -0.00035  -0.00005   0.00010  -0.00212  -0.00202  -0.00237
   D14       -3.13671  -0.00009  -0.00028  -0.00327  -0.00355  -3.14026
   D15       -0.00175   0.00005  -0.00054   0.00332   0.00278   0.00103
   D16       -3.12797   0.00002   0.00004   0.00077   0.00081  -3.12715
   D17       -3.13732   0.00002  -0.00099   0.00325   0.00226  -3.13505
   D18        0.01966  -0.00001  -0.00041   0.00070   0.00029   0.01995
   D19        0.00188   0.00000   0.00021  -0.00075  -0.00054   0.00134
   D20        3.13770   0.00001   0.00064  -0.00073  -0.00010   3.13761
   D21       -1.39887   0.00011   0.00173  -0.01878  -0.01705  -1.41592
   D22        0.73297  -0.00078   0.00014  -0.02642  -0.02629   0.70668
   D23        2.77607   0.00019   0.00126  -0.01786  -0.01658   2.75949
   D24        1.72667   0.00013   0.00113  -0.01615  -0.01502   1.71165
   D25       -2.42468  -0.00076  -0.00046  -0.02379  -0.02426  -2.44894
   D26       -0.38158   0.00021   0.00066  -0.01523  -0.01455  -0.39613
   D27        1.52791   0.00020  -0.00087   0.01826   0.01737   1.54528
   D28       -2.69175  -0.00011   0.00062   0.01094   0.01156  -2.68019
   D29       -0.58081   0.00036  -0.00060   0.01990   0.01929  -0.56152
   D30       -1.58951   0.00011  -0.00084   0.01373   0.01289  -1.57662
   D31        0.47401  -0.00020   0.00065   0.00641   0.00708   0.48110
   D32        2.58495   0.00027  -0.00057   0.01537   0.01481   2.59976
   D33       -3.09958  -0.00004  -0.00117  -0.00248  -0.00368  -3.10326
   D34        0.00475   0.00005  -0.00124   0.00483   0.00360   0.00835
   D35        0.01844  -0.00003  -0.00124   0.00172   0.00047   0.01891
   D36        3.12277   0.00005  -0.00131   0.00902   0.00775   3.13052
   D37       -3.07038  -0.00015   0.00007  -0.01123  -0.01116  -3.08155
   D38        0.10816  -0.00029   0.00015  -0.01882  -0.01865   0.08950
   D39        1.07675  -0.00007   0.00078  -0.00870  -0.00794   1.06881
   D40       -2.02790  -0.00021   0.00086  -0.01629  -0.01543  -2.04333
   D41       -0.94315  -0.00001   0.00094  -0.01012  -0.00919  -0.95233
   D42        2.23539  -0.00014   0.00102  -0.01771  -0.01667   2.21872
         Item               Value     Threshold  Converged?
 Maximum Force            0.003767     0.000450     NO 
 RMS     Force            0.000797     0.000300     NO 
 Maximum Displacement     0.039892     0.001800     NO 
 RMS     Displacement     0.013733     0.001200     NO 
 Predicted change in Energy=-1.464330D-04
 GradGradGradGradGradGradGradGradGradGradGradGradGradGradGradGradGradGrad

                          Input orientation:                          
 ---------------------------------------------------------------------
 Center     Atomic      Atomic             Coordinates (Angstroms)
 Number     Number       Type             X           Y           Z
 ---------------------------------------------------------------------
      1          6           0       -1.891390   -1.989008    5.627072
      2          6           0       -0.632151   -1.511980    5.269627
      3          6           0       -2.447107   -3.026022    4.875238
      4          6           0       -0.626276   -3.116309    3.498937
      5          6           0        0.030463   -2.081310    4.175705
      6          6           0        2.358339    0.190177    2.332879
      7          6           0        2.084713    1.466489    1.547649
      8          6           0        1.387854   -1.592405    3.728804
      9          7           0       -1.833986   -3.589485    3.827272
     10          7           0        1.261154   -0.389768    2.907530
     11          8           0        3.480434   -0.282498    2.466084
     12          1           0       -2.430205   -1.572779    6.473262
     13          1           0       -0.160956   -0.712336    5.837129
     14          1           0       -3.427984   -3.426843    5.125927
     15          1           0       -0.145089   -3.593018    2.645068
     16          1           0        2.144660    2.333900    2.215855
     17          1           0        2.855056    1.576228    0.782309
     18          1           0        1.097624    1.470027    1.071972
     19          1           0        2.025612   -1.378884    4.596986
     20          1           0        1.907026   -2.362563    3.147208
     21          1           0        0.346920    0.022352    2.792487
 ---------------------------------------------------------------------
                    Distance matrix (angstroms):
                    1          2          3          4          5
     1  C    0.000000
     2  C    1.393200   0.000000
     3  C    1.396236   2.396232   0.000000
     4  C    2.720345   2.389403   2.284246   0.000000
     5  C    2.410084   1.399950   2.742295   1.400194   0.000000
     6  C    5.801789   4.523810   6.316632   4.604397   3.738271
     7  C    6.662698   5.486870   7.196728   5.670893   4.869650
     8  C    3.809745   2.541855   4.251646   2.536108   1.510384
     9  N    2.409171   2.800147   1.338522   1.338007   2.423256
    10  N    4.460046   3.228539   4.957107   3.368410   2.446259
    11  O    6.462238   5.126874   6.961802   5.095325   4.249803
    12  H    1.086096   2.164585   2.160065   3.805687   3.404741
    13  H    2.160653   1.087895   3.391883   3.385669   2.161265
    14  H    2.163247   3.391759   1.088863   3.254703   3.830697
    15  H    3.809824   3.384709   3.254908   1.089901   2.158455
    16  H    6.827418   5.641543   7.542242   6.247333   5.273037
    17  H    7.662336   6.467895   8.126851   6.443574   5.733328
    18  H    6.453531   5.431832   6.873457   5.467766   4.835699
    19  H    4.095880   2.744789   4.774484   3.355126   2.156734
    20  H    4.551619   3.416954   4.731251   2.666358   2.158332
    21  H    4.134063   3.073919   4.630014   3.361157   2.537485
                    6          7          8          9         10
     6  C    0.000000
     7  C    1.523295   0.000000
     8  C    2.463341   3.820979   0.000000
     9  N    5.839063   6.790859   3.791870   0.000000
    10  N    1.367617   2.444016   1.461807   4.545768   0.000000
    11  O    1.224852   2.418784   2.772942   6.405627   2.265301
    12  H    6.571220   7.340524   4.702128   3.379918   5.266886
    13  H    4.409212   5.309420   2.760139   3.888001   3.272460
    14  H    7.373296   8.193815   5.339421   2.062471   6.011084
    15  H    4.547217   5.636928   2.743510   2.061551   3.508164
    16  H    2.157522   1.096583   4.275236   7.315244   2.945737
    17  H    2.138255   1.091429   4.568889   7.612064   3.304880
    18  H    2.194836   1.095731   4.064662   6.464107   2.618177
    19  H    2.774679   4.171103   1.098211   4.513947   2.101668
    20  H    2.717223   4.153529   1.095873   3.995372   2.089622
    21  H    2.070075   2.579743   2.137211   4.344250   1.009406
                   11         12         13         14         15
    11  O    0.000000
    12  H    7.256580   0.000000
    13  H    4.980806   2.508888   0.000000
    14  H    8.042880   2.499686   4.306720   0.000000
    15  H    4.912840   4.894710   4.299748   4.118212   0.000000
    16  H    2.948295   7.370010   5.263939   8.526960   6.368323
    17  H    2.584775   8.380762   6.315462   9.130955   6.260339
    18  H    3.269966   7.132894   5.390126   7.803526   5.445493
    19  H    2.803447   4.838627   2.600639   5.849413   3.663921
    20  H    2.695592   5.522496   3.772993   5.788812   2.444859
    21  H    3.165183   4.879034   3.172941   5.620658   3.651672
                   16         17         18         19         20
    16  H    0.000000
    17  H    1.770249   0.000000
    18  H    1.775114   1.784307   0.000000
    19  H    4.412338   4.896165   4.626357   0.000000
    20  H    4.793815   4.691011   4.432886   1.756002   0.000000
    21  H    2.984565   3.570167   2.370546   2.835081   2.871859
                   21
    21  H    0.000000
 Stoichiometry    C8H10N2O
 Framework group  C1[X(C8H10N2O)]
 Deg. of freedom    57
 Full point group                 C1      NOp   1
 Largest Abelian subgroup         C1      NOp   1
 Largest concise Abelian subgroup C1      NOp   1
                         Standard orientation:                         
 ---------------------------------------------------------------------
 Center     Atomic      Atomic             Coordinates (Angstroms)
 Number     Number       Type             X           Y           Z
 ---------------------------------------------------------------------
      1          6           0        2.854601    1.187486   -0.289790
      2          6           0        1.536804    0.989069   -0.696050
      3          6           0        3.489843    0.170223    0.425136
      4          6           0        1.634583   -1.159890    0.343979
      5          6           0        0.895340   -0.213370   -0.375858
      6          6           0       -2.813048   -0.006039    0.047862
      7          6           0       -3.654564    0.754389    1.064734
      8          6           0       -0.538240   -0.477052   -0.771555
      9          7           0        2.900675   -0.989232    0.741658
     10          7           0       -1.460597    0.157394    0.168453
     11          8           0       -3.301379   -0.701403   -0.834331
     12          1           0        3.382774    2.106624   -0.526057
     13          1           0        1.011055    1.753509   -1.264149
     14          1           0        4.520169    0.287790    0.757144
     15          1           0        1.177291   -2.112857    0.609729
     16          1           0       -3.878706    1.758417    0.685020
     17          1           0       -4.599864    0.225685    1.199264
     18          1           0       -3.156703    0.860058    2.035092
     19          1           0       -0.732965   -0.103782   -1.785862
     20          1           0       -0.744202   -1.553151   -0.794526
     21          1           0       -1.080276    0.742894    0.897457
 ---------------------------------------------------------------------
 Rotational constants (GHZ):      3.1262776      0.4842654      0.4704370
 Standard basis: 6-31G(d) (6D, 7F)
 There are   185 symmetry adapted basis functions of A   symmetry.
 Integral buffers will be    131072 words long.
 Raffenetti 2 integral format.
 Two-electron integral symmetry is turned on.
   185 basis functions,   348 primitive gaussians,   185 cartesian basis functions
    40 alpha electrons       40 beta electrons
       nuclear repulsion energy       562.5650083861 Hartrees.
 NAtoms=   21 NActive=   21 NUniq=   21 SFac= 1.00D+00 NAtFMM=   60 NAOKFM=F Big=F
 One-electron integrals computed using PRISM.
 NBasis=   185 RedAO= T  NBF=   185
 NBsUse=   185 1.00D-06 NBFU=   185
 Initial guess read from the read-write file.
 B after Tr=     0.000000    0.000000    0.000000
         Rot=    1.000000    0.000000    0.000000    0.000000 Ang=   0.00 deg.
 Initial guess orbital symmetries:
       Occupied  (A) (A) (A) (A) (A) (A) (A) (A) (A) (A) (A) (A)
                 (A) (A) (A) (A) (A) (A) (A) (A) (A) (A) (A) (A)
                 (A) (A) (A) (A) (A) (A) (A) (A) (A) (A) (A) (A)
                 (A) (A) (A) (A)
       Virtual   (A) (A) (A) (A) (A) (A) (A) (A) (A) (A) (A) (A)
                 (A) (A) (A) (A) (A) (A) (A) (A) (A) (A) (A) (A)
                 (A) (A) (A) (A) (A) (A) (A) (A) (A) (A) (A) (A)
                 (A) (A) (A) (A) (A) (A) (A) (A) (A) (A) (A) (A)
                 (A) (A) (A) (A) (A) (A) (A) (A) (A) (A) (A) (A)
                 (A) (A) (A) (A) (A) (A) (A) (A) (A) (A) (A) (A)
                 (A) (A) (A) (A) (A) (A) (A) (A) (A) (A) (A) (A)
                 (A) (A) (A) (A) (A) (A) (A) (A) (A) (A) (A) (A)
                 (A) (A) (A) (A) (A) (A) (A) (A) (A) (A) (A) (A)
                 (A) (A) (A) (A) (A) (A) (A) (A) (A) (A) (A) (A)
                 (A) (A) (A) (A) (A) (A) (A) (A) (A) (A) (A) (A)
                 (A) (A) (A) (A) (A) (A) (A) (A) (A) (A) (A) (A)
                 (A)
 Harris functional with IExCor=  402 diagonalized for initial guess.
 ExpMin= 1.61D-01 ExpMax= 5.48D+03 ExpMxC= 8.25D+02 IAcc=3 IRadAn=         5 AccDes= 0.00D+00
 HarFok:  IExCor=  402 AccDes= 0.00D+00 IRadAn=         5 IDoV= 1
 ScaDFX=  1.000000  1.000000  1.000000  1.000000
 FoFCou: FMM=F IPFlag=           0 FMFlag=      100000 FMFlg1=           0
         NFxFlg=           0 DoJE=T BraDBF=F KetDBF=T FulRan=T
         Omega=  0.000000  0.000000  1.000000  0.000000  0.000000 ICntrl=     500 IOpCl=  0
         NMat0=    1 NMatS0=    1 NMatT0=    0 NMatD0=    1 NMtDS0=    0 NMtDT0=    0
         I1Cent=           4 NGrid=           0.
 Petite list used in FoFCou.
 Requested convergence on RMS density matrix=1.00D-08 within 128 cycles.
 Requested convergence on MAX density matrix=1.00D-06.
 Requested convergence on             energy=1.00D-06.
 No special actions if energy rises.
 Integral accuracy reduced to 1.0D-05 until final iterations.
 Initial convergence to 1.0D-05 achieved.  Increase integral accuracy.
 SCF Done:  E(RB3LYP) =  -495.610065183     A.U. after   12 cycles
             Convg  =    0.4117D-08             -V/T =  2.0095
 Calling FoFJK, ICntrl=      2127 FMM=F ISym2X=0 I1Cent= 0 IOpClX= 0 NMat=1 NMatS=1 NMatT=0.
 ***** Axes restored to original set *****
 -------------------------------------------------------------------
 Center     Atomic                   Forces (Hartrees/Bohr)
 Number     Number              X              Y              Z
 -------------------------------------------------------------------
      1        6           0.000133989    0.000099301   -0.000014155
      2        6          -0.000080055   -0.000424107   -0.000140875
      3        6          -0.000066271   -0.000186791   -0.000196886
      4        6          -0.000629214   -0.000484911   -0.000422980
      5        6           0.000535527    0.000477935    0.000526163
      6        6          -0.000564863   -0.000316075   -0.000210366
      7        6          -0.000076347   -0.000025457   -0.000064436
      8        6          -0.000263475   -0.000851245    0.000422822
      9        7           0.000416387    0.000458303    0.000135982
     10        7           0.000636564    0.000872570   -0.000070223
     11        8          -0.000006845    0.000350753    0.000238089
     12        1          -0.000020925   -0.000068525   -0.000027393
     13        1           0.000027850    0.000057653   -0.000005035
     14        1           0.000018920    0.000173690    0.000171951
     15        1           0.000211099    0.000096172   -0.000011610
     16        1           0.000159077   -0.000087930    0.000082771
     17        1           0.000066912   -0.000044720   -0.000098409
     18        1           0.000116685   -0.000049180    0.000273815
     19        1          -0.000140800    0.000321636   -0.000354651
     20        1          -0.000196868   -0.000128182    0.000021187
     21        1          -0.000277348   -0.000240890   -0.000255761
 -------------------------------------------------------------------
 Cartesian Forces:  Max     0.000872570 RMS     0.000305771

 GradGradGradGradGradGradGradGradGradGradGradGradGradGradGradGradGradGrad
 Berny optimization.
 Using GEDIIS/GDIIS optimizer.
 Internal  Forces:  Max     0.000551856 RMS     0.000160514
 Search for a local minimum.
 Step number   3 out of a maximum of  107
 All quantities printed in internal units (Hartrees-Bohrs-Radians)
 Mixed Optimization -- En-DIIS/RFO-DIIS
 Swaping is turned off.
 Update second derivatives using D2CorX and points    1    2    3
 DE= -1.74D-04 DEPred=-1.46D-04 R= 1.19D+00
 SS=  1.41D+00  RLast= 7.71D-02 DXNew= 7.2315D-01 2.3121D-01
 Trust test= 1.19D+00 RLast= 7.71D-02 DXMaxT set to 4.30D-01
 ITU=  1  1  0
     Eigenvalues ---    0.00592   0.00740   0.01025   0.01268   0.01476
     Eigenvalues ---    0.01590   0.02080   0.02154   0.02170   0.02232
     Eigenvalues ---    0.02237   0.02247   0.02286   0.02304   0.05297
     Eigenvalues ---    0.06616   0.07029   0.07497   0.09962   0.13097
     Eigenvalues ---    0.15183   0.15997   0.15999   0.16000   0.16000
     Eigenvalues ---    0.16000   0.16056   0.16173   0.21862   0.21958
     Eigenvalues ---    0.22022   0.23174   0.23449   0.24829   0.24998
     Eigenvalues ---    0.28632   0.32735   0.32920   0.34004   0.34074
     Eigenvalues ---    0.34386   0.34420   0.34465   0.34944   0.34963
     Eigenvalues ---    0.35085   0.35317   0.39922   0.43161   0.44539
     Eigenvalues ---    0.45068   0.46904   0.47383   0.49912   0.51141
     Eigenvalues ---    0.53454   0.91339
 En-DIIS/RFO-DIIS IScMMF=        0 using points:     3    2
 RFO step:  Lambda=-9.52872110D-06.
 DidBck=F Rises=F RFO-DIIS coefs:    1.25055   -0.25055
 Iteration  1 RMS(Cart)=  0.01745970 RMS(Int)=  0.00015951
 Iteration  2 RMS(Cart)=  0.00020047 RMS(Int)=  0.00000842
 Iteration  3 RMS(Cart)=  0.00000001 RMS(Int)=  0.00000842
 Variable       Old X    -DE/DX   Delta X   Delta X   Delta X     New X
                                  (DIIS)     (GDIIS)  (Total)
    R1        2.63277  -0.00023   0.00009  -0.00060  -0.00051   2.63225
    R2        2.63850  -0.00012   0.00046   0.00018   0.00064   2.63914
    R3        2.05242  -0.00004  -0.00002  -0.00011  -0.00012   2.05230
    R4        2.64552  -0.00030   0.00055  -0.00087  -0.00032   2.64520
    R5        2.05582   0.00005  -0.00013   0.00018   0.00004   2.05587
    R6        2.52944  -0.00002  -0.00077  -0.00065  -0.00142   2.52802
    R7        2.05765  -0.00004   0.00018  -0.00014   0.00004   2.05769
    R8        2.64598   0.00026   0.00048   0.00111   0.00160   2.64758
    R9        2.52847  -0.00035  -0.00152  -0.00137  -0.00289   2.52557
   R10        2.05961   0.00006   0.00044   0.00016   0.00059   2.06021
   R11        2.85421  -0.00055   0.00032  -0.00165  -0.00133   2.85289
   R12        2.87861  -0.00032  -0.00039  -0.00014  -0.00053   2.87808
   R13        2.58442  -0.00041  -0.00012  -0.00119  -0.00131   2.58311
   R14        2.31464  -0.00012  -0.00010  -0.00037  -0.00047   2.31416
   R15        2.07224  -0.00001   0.00026   0.00007   0.00033   2.07257
   R16        2.06250   0.00011   0.00011   0.00027   0.00038   2.06288
   R17        2.07063  -0.00022  -0.00008  -0.00069  -0.00077   2.06986
   R18        2.76241   0.00043   0.00006   0.00225   0.00231   2.76472
   R19        2.07532  -0.00030  -0.00043  -0.00090  -0.00133   2.07399
   R20        2.07090  -0.00001  -0.00017  -0.00004  -0.00021   2.07069
   R21        1.90750   0.00018   0.00001   0.00013   0.00014   1.90764
    A1        2.06678  -0.00002  -0.00039  -0.00007  -0.00046   2.06632
    A2        2.11423   0.00008   0.00080   0.00043   0.00123   2.11546
    A3        2.10216  -0.00005  -0.00041  -0.00036  -0.00077   2.10139
    A4        2.08178   0.00006   0.00038  -0.00006   0.00032   2.08210
    A5        2.10519  -0.00001   0.00030   0.00041   0.00071   2.10590
    A6        2.09617  -0.00006  -0.00068  -0.00035  -0.00103   2.09515
    A7        2.15547  -0.00004  -0.00086  -0.00004  -0.00090   2.15458
    A8        2.10362  -0.00023  -0.00127  -0.00153  -0.00280   2.10083
    A9        2.02409   0.00027   0.00213   0.00156   0.00369   2.02778
   A10        2.17263  -0.00022  -0.00112  -0.00056  -0.00168   2.17095
   A11        2.08851  -0.00012  -0.00182  -0.00136  -0.00319   2.08533
   A12        2.02203   0.00034   0.00295   0.00193   0.00487   2.02690
   A13        2.04462   0.00006  -0.00008   0.00024   0.00016   2.04478
   A14        2.12343   0.00008   0.00061   0.00030   0.00091   2.12434
   A15        2.11505  -0.00015  -0.00052  -0.00059  -0.00112   2.11393
   A16        2.01284   0.00019  -0.00123   0.00185   0.00059   2.01343
   A17        2.14594  -0.00024  -0.00163  -0.00069  -0.00235   2.14358
   A18        2.12424   0.00005   0.00288  -0.00145   0.00140   2.12563
   A19        1.91647  -0.00021  -0.00040  -0.00148  -0.00188   1.91459
   A20        1.89540   0.00002  -0.00117   0.00028  -0.00088   1.89451
   A21        1.96959  -0.00013   0.00047  -0.00012   0.00035   1.96994
   A22        1.88512   0.00006  -0.00044  -0.00029  -0.00074   1.88438
   A23        1.88728   0.00014  -0.00040   0.00028  -0.00013   1.88715
   A24        1.90825   0.00012   0.00193   0.00133   0.00326   1.91151
   A25        1.93333   0.00007  -0.00130   0.00003  -0.00127   1.93206
   A26        1.92936   0.00011   0.00092   0.00057   0.00148   1.93084
   A27        1.93404  -0.00010   0.00104  -0.00088   0.00016   1.93420
   A28        1.91189  -0.00026  -0.00163  -0.00210  -0.00373   1.90816
   A29        1.89766   0.00006   0.00004   0.00085   0.00090   1.89856
   A30        1.85571   0.00012   0.00099   0.00156   0.00255   1.85825
   A31        2.04508   0.00015   0.00207   0.00048   0.00255   2.04764
   A32        2.11228  -0.00006  -0.00170  -0.00025  -0.00197   2.11031
   A33        2.10087   0.00016   0.00290   0.00104   0.00392   2.10479
   A34        2.06966  -0.00010  -0.00115  -0.00057  -0.00174   2.06792
    D1        0.00151  -0.00001   0.00006  -0.00077  -0.00071   0.00080
    D2       -3.13011  -0.00004   0.00024  -0.00178  -0.00154  -3.13165
    D3        3.13620   0.00000   0.00022  -0.00056  -0.00034   3.13586
    D4        0.00458  -0.00003   0.00040  -0.00157  -0.00117   0.00342
    D5        0.00097   0.00001   0.00054   0.00040   0.00094   0.00191
    D6        3.13871   0.00001   0.00095   0.00015   0.00110   3.13981
    D7       -3.13377   0.00000   0.00038   0.00018   0.00056  -3.13321
    D8        0.00397   0.00000   0.00079  -0.00007   0.00072   0.00469
    D9       -0.00242   0.00000  -0.00063   0.00049  -0.00014  -0.00255
   D10        3.12570  -0.00006  -0.00014  -0.00383  -0.00397   3.12173
   D11        3.12926   0.00002  -0.00080   0.00150   0.00070   3.12995
   D12       -0.02582  -0.00003  -0.00032  -0.00282  -0.00314  -0.02895
   D13       -0.00237   0.00000  -0.00051   0.00027  -0.00023  -0.00260
   D14       -3.14026   0.00000  -0.00089   0.00052  -0.00038  -3.14064
   D15        0.00103   0.00001   0.00070   0.00021   0.00090   0.00193
   D16       -3.12715   0.00007   0.00020   0.00450   0.00470  -3.12246
   D17       -3.13505  -0.00001   0.00057  -0.00061  -0.00005  -3.13510
   D18        0.01995   0.00005   0.00007   0.00368   0.00375   0.02370
   D19        0.00134  -0.00001  -0.00014  -0.00058  -0.00072   0.00061
   D20        3.13761   0.00000  -0.00002   0.00020   0.00018   3.13778
   D21       -1.41592  -0.00001  -0.00427  -0.01727  -0.02154  -1.43746
   D22        0.70668  -0.00022  -0.00659  -0.01952  -0.02611   0.68056
   D23        2.75949  -0.00007  -0.00416  -0.01778  -0.02193   2.73755
   D24        1.71165  -0.00007  -0.00376  -0.02175  -0.02551   1.68614
   D25       -2.44894  -0.00028  -0.00608  -0.02401  -0.03009  -2.47902
   D26       -0.39613  -0.00013  -0.00365  -0.02226  -0.02591  -0.42203
   D27        1.54528   0.00002   0.00435   0.01069   0.01504   1.56032
   D28       -2.68019  -0.00001   0.00290   0.00966   0.01256  -2.66763
   D29       -0.56152   0.00008   0.00483   0.01146   0.01629  -0.54523
   D30       -1.57662   0.00018   0.00323   0.02689   0.03012  -1.54650
   D31        0.48110   0.00015   0.00178   0.02586   0.02763   0.50873
   D32        2.59976   0.00023   0.00371   0.02766   0.03137   2.63113
   D33       -3.10326   0.00001  -0.00092   0.00317   0.00224  -3.10102
   D34        0.00835   0.00011   0.00090   0.01178   0.01270   0.02105
   D35        0.01891  -0.00015   0.00012  -0.01281  -0.01271   0.00620
   D36        3.13052  -0.00005   0.00194  -0.00420  -0.00225   3.12827
   D37       -3.08155  -0.00007  -0.00280  -0.01161  -0.01441  -3.09596
   D38        0.08950  -0.00018  -0.00467  -0.02009  -0.02475   0.06475
   D39        1.06881  -0.00008  -0.00199  -0.01093  -0.01293   1.05587
   D40       -2.04333  -0.00018  -0.00387  -0.01941  -0.02327  -2.06660
   D41       -0.95233  -0.00011  -0.00230  -0.01212  -0.01443  -0.96676
   D42        2.21872  -0.00022  -0.00418  -0.02060  -0.02477   2.19395
         Item               Value     Threshold  Converged?
 Maximum Force            0.000552     0.000450     NO 
 RMS     Force            0.000161     0.000300     YES
 Maximum Displacement     0.066363     0.001800     NO 
 RMS     Displacement     0.017456     0.001200     NO 
 Predicted change in Energy=-3.735699D-05
 GradGradGradGradGradGradGradGradGradGradGradGradGradGradGradGradGradGrad

                          Input orientation:                          
 ---------------------------------------------------------------------
 Center     Atomic      Atomic             Coordinates (Angstroms)
[...]
 001209,0.05384500,-0.13750508,0.00193634,-0.00033967,-0.00025501,0.286
 85666,-0.02327907,0.67678449,-0.00024811,-0.00054139,-0.00039318,-0.00
 058479,0.00025017,0.00129721,-0.00005553,0.00017226,0.00009005,0.00012
 878,0.00028338,0.00020314,0.00091713,-0.00059490,0.00093064,-0.1618544
 2,-0.01770538,-0.20534989,0.01147158,0.00210262,-0.01420958,-0.0030653
 0,0.00533102,-0.00147334,-0.00038381,-0.00017264,-0.00003654,0.0002724
 6,-0.02332240,-0.03777120,0.14484552,-0.00025779,-0.00029566,-0.000254
 66,-0.00067366,0.00029674,0.00059943,-0.00007119,0.00006076,0.00014853
 ,-0.00012039,0.00015412,0.00027519,0.00131050,0.00083370,-0.00053089,-
 0.02001600,-0.11105317,-0.03078966,0.01009487,0.01160673,0.02911196,0.
 00284963,0.00166119,-0.00236356,-0.00035932,-0.00016315,0.00021965,-0.
 02719084,-0.00214625,-0.05598453,0.04078179,0.10769738,0.00045557,0.00
 159427,0.00101340,-0.00115298,-0.00307468,-0.00307965,-0.00003233,-0.0
 0044929,-0.00037564,-0.00028939,0.00010096,0.00083805,0.00158871,-0.00
 161511,0.00141448,-0.20172241,-0.02136857,-0.59355916,-0.01869921,0.00
 969635,-0.04092270,-0.00140984,0.00906781,-0.00760688,-0.00057099,0.00
 047045,0.00029423,-0.03477835,-0.05200394,-0.04673661,0.25973147,0.059
 99408,0.68124371,-0.08334734,0.04308938,0.07360010,-0.00412300,0.01796
 060,0.02178534,0.01059742,-0.00899101,-0.01567837,-0.00170811,-0.00081
 485,0.00036094,-0.00282547,-0.00416199,0.00387273,0.00022779,0.0003480
 6,0.00033325,-0.00001279,-0.00002509,-0.00001258,0.00033091,0.00122827
 ,0.00080117,0.00018522,-0.00558818,-0.00003303,-0.00009027,-0.00030489
 ,-0.00012766,-0.00008569,-0.00013199,-0.00026420,0.08137951,0.04306893
 ,-0.14225807,-0.13145393,-0.00212607,0.00708088,0.00598641,0.01235059,
 -0.00878633,-0.01708973,-0.00157948,-0.00007118,0.00095957,-0.00349122
 ,0.00372990,-0.00220233,-0.00002043,-0.00001764,0.00004272,-0.00000799
 ,0.00001519,0.00000173,-0.00029202,0.00045374,0.00026117,-0.00529296,-
 0.00081119,-0.00476346,0.00008853,-0.00002327,-0.00003297,0.00004764,0
 .00001955,-0.00004706,-0.04570172,0.14327346,0.07349567,-0.13170663,-0
 .21264976,0.00231586,-0.00782181,-0.00673408,0.00493761,-0.00226023,-0
 .00529804,-0.00045807,0.00049191,0.00079249,0.00436028,-0.00155437,0.0
 0397382,-0.00012264,-0.00034605,-0.00015798,0.00000435,0.00002490,-0.0
 0000141,-0.00021408,-0.00088812,0.00001259,0.00028765,-0.00461674,0.00
 328271,0.00008681,0.00035992,-0.00001134,0.00007040,0.00014016,0.00009
 976,-0.08188668,0.14411236,0.22001340,-0.01061488,-0.02097080,-0.00942
 251,-0.15859709,-0.13027194,-0.04723017,-0.00225387,-0.00195472,0.0059
 3149,0.00148907,-0.00025961,0.00430170,0.01019594,0.00743636,0.0040292
 7,0.00068103,0.00062207,0.00193302,-0.00025200,0.00009475,-0.00017702,
 0.00038832,0.00135288,-0.00116919,-0.00079100,0.00145252,-0.00085504,0
 .00009211,-0.00061899,-0.00045057,-0.00077016,-0.00055946,-0.00115912,
 0.00017104,0.00167306,-0.00138907,0.16088529,-0.00132982,0.00193253,-0
 .00181707,-0.12880715,-0.20917246,-0.07219284,-0.00238506,0.00464017,-
 0.00272055,0.00014473,0.00224401,-0.00581550,-0.01250633,-0.00893847,-
 0.00564247,-0.00012291,0.00039874,0.00065597,-0.00003466,0.00000331,0.
 00009849,0.00021991,-0.00056866,0.00186568,0.00145465,-0.00126246,0.00
 169298,-0.00001250,-0.00062117,-0.00029769,-0.00063895,-0.00106184,0.0
 0015857,0.00117723,-0.00117152,0.00209925,0.14215539,0.21450218,0.0091
 2028,0.01114307,0.00938608,-0.04532825,-0.07083826,-0.08009903,0.00543
 686,-0.00299410,0.00255857,0.00485638,-0.00540484,-0.00019596,-0.01537
 162,-0.01889903,-0.00227210,-0.00024485,-0.00034844,-0.00328863,0.0001
 4402,-0.00000015,0.00004178,-0.00176526,0.00079893,-0.00041531,-0.0008
 4897,0.00167348,-0.00187582,0.00030301,0.00144605,0.00013330,-0.000588
 71,-0.00009147,0.00192959,-0.00180824,0.00178265,-0.00123747,0.0465538
 7,0.08186378,0.07553653,-0.01085577,-0.00216608,0.00927099,0.00069371,
 -0.00468943,-0.00019825,-0.27317865,-0.06060616,0.09932396,0.00400462,
 -0.00195316,0.00267183,0.00034069,-0.00010866,-0.00037903,0.00004311,0
 .00014180,-0.00015056,0.00000209,-0.00002343,0.00001161,-0.00041058,0.
 00046926,-0.00064150,-0.00643946,0.00732299,0.00818908,0.00007714,0.00
 003487,-0.00003518,-0.00009697,-0.00011411,0.00012796,-0.00013914,0.00
 064304,-0.00122681,-0.00070824,0.00019129,0.00036640,0.28690431,-0.021
 81723,0.00087939,0.01002266,-0.00380489,-0.00102948,-0.00510348,-0.061
 03544,-0.06519796,0.01797120,-0.00071710,0.00282278,-0.00698779,0.0003
 7900,-0.00042875,-0.00060914,-0.00003732,0.00001858,-0.00011191,0.0000
 1151,-0.00001417,0.00000359,0.00073413,-0.00047668,0.00084177,0.024264
 55,0.00180076,-0.01026236,-0.00021197,-0.00015292,0.00012800,-0.000084
 58,-0.00002936,0.00014188,0.00137055,-0.00066651,0.00116251,-0.0008840
 5,-0.00017719,0.00080327,0.06118043,0.06221727,-0.00936106,-0.00323776
 ,0.00912432,0.00053989,-0.00449913,0.00238570,0.09891158,0.01748649,-0
 .09100794,0.00395787,-0.00619072,0.00217604,0.00015142,-0.00025442,-0.
 00045557,-0.00010299,-0.00021897,-0.00023357,0.00000185,0.00002911,0.0
 0001430,-0.00062486,0.00072002,-0.00057667,0.02423287,0.00142974,-0.01
 964982,0.00035174,0.00042592,-0.00009738,0.00003871,0.00004798,0.00014
 122,-0.00053830,0.00167219,-0.00089141,-0.00069013,0.00005990,0.000101
 93,-0.11768590,-0.00739687,0.09900564,-0.00062776,0.00010922,0.0004172
 3,-0.00132302,-0.00475585,0.00082591,-0.00144743,-0.00303574,0.0050428
 6,-0.06409784,0.03158256,0.04552032,0.00730768,-0.01239713,-0.01252052
 ,-0.00015610,-0.00019304,-0.00026106,0.00001308,0.00003637,0.00002429,
 0.00082227,-0.00048051,-0.00241079,-0.01733312,0.01949077,0.02696200,0
 .00020176,0.00061521,0.00005271,0.00003001,0.00006036,0.00015917,-0.00
 015508,0.00072843,-0.00046292,0.00044494,-0.00048473,-0.00094769,-0.00
 014128,0.00050480,0.00097970,0.07663072,-0.00055524,0.00001205,0.00053
 347,-0.00552973,-0.00040681,-0.00282828,-0.00431296,0.00520473,-0.0019
 0421,0.03095050,-0.16023937,-0.13343188,0.00655082,-0.00950707,-0.0189
 9435,-0.00014969,-0.00023447,-0.00023743,0.00005806,-0.00001112,-0.000
 02395,0.00267871,-0.00086267,0.00053562,0.00290069,0.00660291,0.008536
 54,-0.00039486,-0.00004983,0.00035465,-0.00002682,0.00014954,0.0002941
 6,0.00060197,-0.00070703,0.00067980,0.00065154,-0.00071079,-0.00086426
 ,-0.00023858,0.00035218,-0.00004976,-0.03218110,0.15984794,-0.00023852
 ,0.00009140,0.00007875,0.00013025,-0.00355761,0.00325874,0.00399322,-0
 .00280749,0.00517561,0.04513840,-0.13309497,-0.19583453,0.00470481,-0.
 00656384,-0.00300766,-0.00005576,-0.00000919,-0.00031021,0.00001986,0.
 00001809,0.00002063,-0.00013317,0.00167033,-0.00138038,0.01137097,-0.0
 0275838,-0.01481644,0.00011419,0.00035246,0.00039146,-0.00004309,-0.00
 000104,0.00018666,-0.00060427,0.00063621,-0.00090042,0.00016690,-0.000
 02585,-0.00046304,0.00026366,-0.00056181,-0.00013297,-0.06387432,0.146
 69466,0.20702297,-0.00001968,0.00001960,0.00000335,-0.00000663,0.00002
 897,-0.00001005,-0.00001196,0.00000110,0.00001098,-0.00003808,-0.00002
 018,-0.00000818,0.00004864,-0.00006583,0.00002633,0.00036704,-0.001805
 98,0.00034404,-0.14413307,0.11460689,0.06399780,-0.00038975,-0.0000698
 0,0.00027609,0.00001130,0.00000875,-0.00001648,-0.00050835,-0.00064920
 ,0.00011668,0.00061404,-0.00011858,-0.00126192,0.00000263,-0.00000249,
 0.00000261,0.00001315,-0.00000498,0.00003999,0.00000503,-0.00000133,0.
 00000222,0.00000032,-0.00000072,0.00000347,0.15358867,-0.00003167,0.00
 003010,-0.00000875,-0.00009609,-0.00007629,-0.00005968,-0.00003554,-0.
 00002875,0.00000609,-0.00006403,0.00000860,0.00010972,0.00024603,-0.00
 038482,0.00010349,0.01699222,-0.02122616,-0.01239470,0.11613123,-0.175
 00410,-0.07529261,-0.00141089,0.00012435,0.00010201,-0.00009121,0.0000
 2951,-0.00000912,-0.00057406,-0.00241679,0.00356955,-0.00291648,0.0027
 3067,0.00026468,-0.00001692,-0.00000399,0.00002556,0.00007925,-0.00001
 716,0.00001960,-0.00000058,-0.00000358,0.00001366,0.00001225,0.0000031
 5,0.00001511,-0.12421002,0.19029896,0.00000186,0.00000847,0.00001527,0
 .00003825,0.00001757,0.00000965,0.00001218,0.00000409,-0.00000364,0.00
 005353,-0.00001601,-0.00006352,-0.00009268,0.00019245,0.00000296,-0.01
 575164,0.01461134,0.00945758,0.06333833,-0.07425168,-0.09124608,0.0008
 3035,0.00012880,-0.00011957,0.00002284,0.00000253,0.00001029,0.0003815
 7,0.00118436,-0.00115800,0.00219062,-0.00091675,-0.00072599,0.00000993
 ,0.00000107,-0.00000848,-0.00007432,0.00000763,0.00002636,0.00000154,0
 .00000088,-0.00000279,-0.00000328,0.00000553,-0.00000291,-0.07159533,0
 .08003595,0.09538713,0.00000962,-0.00000361,0.00000489,-0.00001399,-0.
 00002477,-0.00002232,0.00001055,0.00000341,-0.00000668,-0.00000058,0.0
 0001576,0.00001854,-0.00000204,-0.00003958,0.00002531,0.00329969,0.001
 01803,-0.00158922,-0.27496904,-0.10117513,0.01809668,-0.00012445,0.000
 30787,0.00004620,-0.00001127,-0.00000855,0.00000671,-0.00006668,0.0004
 9200,0.00049660,0.00085982,0.00053550,0.00022833,-0.00000323,0.0000032
 2,-0.00000241,-0.00001747,0.00000354,0.00000141,-0.00000302,0.00000143
 ,0.00000094,-0.00000004,0.00000183,-0.00000135,-0.01788405,-0.00834399
 ,0.00095780,0.29628637,-0.00001635,0.00000351,0.00001198,-0.00001905,-
 0.00003154,-0.00003289,-0.00000327,0.00001035,0.00000841,-0.00002678,0
 .00000676,0.00001413,0.00014830,0.00019441,-0.00017132,-0.02831622,-0.
 01402010,0.00163457,-0.10194799,-0.08742635,0.00908590,0.00090976,-0.0
 0100358,-0.00099200,-0.00002036,-0.00000855,0.00000510,0.00143586,-0.0
 0299124,0.00316305,0.00294318,0.00197893,-0.00241257,-0.00000936,-0.00
 000081,0.00001069,-0.00003503,-0.00001443,0.00002425,-0.00000437,-0.00
 000014,0.00000626,0.00000856,0.00001295,0.00000681,0.02210933,0.010744
 99,-0.00144271,0.10930286,0.09623802,0.00000239,0.00000954,0.00000149,
 0.00000285,0.00000515,-0.00000499,-0.00000135,-0.00000460,-0.00000230,
 -0.00000367,-0.00001540,-0.00001055,-0.00006983,-0.00006979,0.00004114
 ,0.02103952,0.00684482,-0.00122737,0.01789071,0.00833722,-0.05072847,-
 0.00012147,0.00054925,0.00077979,0.00003488,0.00000990,-0.00000212,-0.
 00103436,0.00135323,-0.00178876,-0.00270442,-0.00038416,0.00074431,0.0
 0000596,-0.00000065,-0.00000598,0.00000438,-0.00000931,0.00003136,0.00
 000543,0.00000208,-0.00000335,-0.00000740,-0.00000164,-0.00000249,0.01
 243814,0.00585439,-0.00134154,-0.01929426,-0.01080510,0.04921394,-0.00
 000043,0.00002425,0.00001305,-0.00000504,-0.00001674,-0.00002446,-0.00
 000417,-0.00000839,-0.00000201,0.00000410,-0.00001763,-0.00001861,-0.0
 0001310,-0.00001232,0.00003444,-0.00441898,-0.00106756,0.00011939,-0.0
 7840979,-0.02189281,-0.08019267,-0.00003217,0.00028344,-0.00002778,-0.
 00000439,0.00001567,0.00000139,-0.00035352,-0.00019745,0.00069457,0.00
 281749,0.00064160,-0.00071462,0.00000076,-0.00000185,0.00000032,-0.000
 02839,0.00000784,0.00002738,0.00000423,0.00000052,0.00000121,0.0000009
 8,0.00000204,0.00000439,0.00800534,0.00352613,0.01926942,-0.00745493,-
 0.00615329,-0.02827981,0.07880147,-0.00000532,-0.00002663,-0.00002729,
 0.00001240,0.00007137,0.00006237,-0.00000120,0.00000040,0.00000547,0.0
 0002405,0.00000558,-0.00000153,-0.00003892,0.00005196,-0.00002934,0.01
 003935,0.01315845,0.02135872,-0.02314895,-0.06836748,-0.06042525,-0.00
 008248,0.00055059,-0.00020628,0.00000680,-0.00000833,-0.00000285,-0.00
 030020,-0.00060212,-0.00134160,0.00089473,-0.00524509,0.00685171,0.000
 00093,-0.00000051,0.00000021,0.00007784,-0.00002059,-0.00005209,-0.000
 00183,-0.00000325,-0.00000357,-0.00000413,-0.00000814,-0.00000620,-0.0
 0984080,-0.00474110,-0.01988581,-0.00237212,-0.00369261,-0.01214693,0.
 02520189,0.07025590,0.00002118,0.00006274,0.00003492,-0.00003485,-0.00
 012836,-0.00010517,0.00000185,-0.00001736,-0.00002342,-0.00000291,-0.0
 0002551,-0.00001965,-0.00005765,-0.00000622,0.00005640,-0.00693692,-0.
 01414433,-0.01610403,-0.07958710,-0.05720714,-0.27095367,0.00027019,0.
 00042634,0.00027320,0.00003616,0.00003699,0.00002753,0.00017172,-0.000
 16672,0.00203039,-0.00043987,0.00634279,-0.00288274,-0.00000639,-0.000
 00273,-0.00000437,-0.00008146,0.00000022,0.00009415,0.00001200,0.00000
 682,0.00000125,-0.00000523,0.00001803,0.00000857,-0.00414445,-0.002084
 81,-0.01024983,0.00097472,0.00089363,0.00442653,0.08891360,0.06472554,
 0.29272413,0.00000624,-0.00079872,0.00056034,0.00203027,-0.00109971,-0
 .00102821,0.00011225,-0.00000163,-0.00012134,-0.00289974,0.00198089,0.
 00226123,-0.02419922,-0.00588594,-0.01582517,0.00024156,-0.00119346,-0
 .00131412,-0.00011113,-0.00001930,-0.00008678,-0.19801636,-0.01374782,
 -0.13355117,-0.00031929,-0.00146679,0.00051409,0.00272279,0.00282278,-
 0.00146010,-0.00070104,-0.00172190,0.00119513,0.00002740,0.00003533,0.
 00000226,-0.00028223,0.00090966,0.00014431,-0.00012071,0.00021758,-0.0
 0010109,-0.00005022,-0.00000379,-0.00018645,0.00000378,0.00001206,0.00
 003440,-0.00000360,-0.00002009,-0.00000058,0.00005976,0.00010497,0.000
 04301,0.21388053,-0.00026027,-0.00035459,0.00008897,0.00074720,0.00029
 903,-0.00018950,0.00002447,0.00003730,0.00008134,-0.00073983,0.0000061
 3,-0.00003499,-0.00304696,0.00048617,-0.00134846,0.00309879,0.00185454
 ,0.00564136,-0.00064534,0.00018858,-0.00037084,-0.02153038,-0.05062327
 ,-0.02396618,0.00003580,-0.00022404,0.00052208,0.02240547,-0.00324767,
 0.02771356,-0.00216867,-0.00034211,-0.00337025,-0.00001165,0.00002213,
 -0.00000355,0.00010387,0.00005696,-0.00016221,-0.00007920,0.00007086,-
 0.00004164,-0.00006134,0.00042890,-0.00007547,0.00002516,0.00004651,-0
 .00006463,-0.00008161,-0.00011983,-0.00010599,0.00002207,0.00033108,-0
 .00035245,0.02099547,0.05679149,-0.00066280,0.00009404,0.00013437,0.00
 076823,0.00046035,0.00036158,0.00038775,0.00052975,0.00034744,0.001353
 83,-0.00079934,-0.00088098,0.01370782,0.00125112,0.01259487,-0.0018577
 2,-0.00226663,-0.00221264,-0.00006471,0.00015721,-0.00039480,-0.129802
 24,-0.01653839,-0.16686505,0.00043008,0.00086287,-0.00105381,-0.013774
 22,0.00551729,-0.02090786,0.00086057,-0.00203852,0.00147910,-0.0000233
 8,-0.00001152,-0.00003591,-0.00006499,-0.00022130,-0.00012673,0.000043
 90,-0.00009147,0.00005268,0.00009403,0.00008509,0.00014940,-0.00000726
 ,0.00000840,0.00005342,0.00002852,0.00006641,0.00004268,0.00005632,0.0
 0008744,0.00013903,0.14198436,0.01039492,0.18847805,0.00044122,0.00094
 538,0.00114146,-0.00513164,-0.00219889,0.00168583,-0.00003694,-0.00016
 461,-0.00013506,0.00125444,0.00216648,0.00128336,-0.00691864,0.0227128
 4,0.02034745,-0.00062348,-0.00110551,-0.00184642,0.00015407,-0.0000670
 8,-0.00004874,-0.06261266,0.03831399,0.02943120,0.00034809,0.00000215,
 -0.00031194,0.00139495,0.00057378,-0.00181309,0.00010668,-0.00150926,0
 .00110999,-0.00043010,-0.00010273,0.00017919,-0.00010071,0.00009617,-0
 .00011374,-0.00000606,-0.00005268,-0.00007957,-0.00020523,-0.00094792,
 -0.00082290,-0.00000472,-0.00002167,0.00001963,0.00001553,0.00001035,-
 0.00000671,0.00002843,0.00002845,0.00003396,0.00746583,-0.01931850,-0.
 01283034,0.06478741,-0.00021547,-0.00014256,0.00030076,-0.00077341,0.0
 0049746,-0.00002745,-0.00009848,0.00019108,0.00016471,-0.00167424,-0.0
 0007155,0.00122537,-0.00062362,0.00409460,0.00059817,0.00506014,-0.000
 24708,0.00483961,-0.00137549,-0.00056134,-0.00031437,0.04039693,-0.200
 08445,-0.12078631,0.00047198,0.00022423,-0.00006241,-0.00097040,-0.033
 49204,-0.01203639,-0.00034809,0.00036089,-0.00127094,-0.00000177,-0.00
 007531,0.00008964,-0.00008232,0.00002898,0.00005998,-0.00000277,0.0000
 2569,0.00000852,0.00042229,0.00036503,0.00002618,0.00004248,-0.0000317
 0,0.00002067,0.00005276,-0.00042380,0.00023481,0.00004447,0.00005112,0
 .00005032,-0.00065527,-0.00034197,-0.00106172,-0.03959597,0.22909004,-
 0.00027383,-0.00071315,-0.00054801,0.00361502,0.00068392,-0.00005192,-
 0.00014895,0.00013304,0.00033645,-0.00186693,-0.00099758,-0.00008142,0
 .00279534,-0.01124195,-0.00948571,-0.00316852,0.00100029,-0.00475356,0
 .00129825,0.00032586,0.00005448,0.02974033,-0.12643933,-0.14865212,0.0
 0054677,0.00048177,-0.00013764,-0.00188077,0.02603226,0.01340678,0.000
 28269,-0.00154405,0.00235250,0.00022189,0.00013451,-0.00023362,-0.0001
 1968,0.00021083,0.00020545,0.00004840,0.00004506,0.00004036,0.00039968
 ,0.00062595,0.00056751,-0.00003849,-0.00005027,0.00003781,0.00000026,0
 .00033474,-0.00019919,-0.00000959,-0.00004264,-0.00000855,0.00617485,-
 0.01601803,-0.01139390,-0.03737674,0.12783079,0.15767570,0.00019127,0.
 00025428,0.00002168,-0.00061655,0.00037612,0.00029852,-0.00007841,-0.0
 0023329,-0.00009506,-0.00004172,-0.00013863,-0.00026760,0.00138683,-0.
 00035367,0.00046000,-0.00980033,0.00899290,-0.00458291,-0.00223495,0.0
 0063163,0.00035285,-0.00176181,-0.00018940,0.00571078,-0.00035375,0.00
 013214,0.00001020,-0.10911702,-0.01942907,-0.19052450,0.00578231,-0.00
 342976,-0.00254097,-0.00000247,-0.00001979,0.00001966,0.00005515,-0.00
 003333,0.00002342,0.00002493,-0.00001790,0.00001390,0.00008535,-0.0000
 5473,0.00004971,0.00033634,0.00081398,0.00035500,0.00007281,-0.0002960
 5,0.00009960,0.00100235,-0.00059543,0.00081842,0.00015313,0.00048543,-
 0.00062775,0.00007352,-0.00007374,-0.00023998,0.11484303,0.00027503,0.
 00012353,-0.00006452,-0.00042841,0.00010183,0.00010696,-0.00005535,-0.
 00024476,-0.00014466,-0.00015819,0.00049731,0.00028571,0.00086452,-0.0
 0002060,-0.00087282,-0.01170733,0.01025327,-0.03017220,0.00076285,-0.0
 0105977,-0.00112970,0.01664708,0.00344667,0.02452597,-0.00027060,-0.00
 006761,0.00004580,-0.01439646,-0.06602894,0.01120064,-0.00428650,-0.00
 721358,-0.00302250,-0.00001758,-0.00000147,0.00000060,-0.00006263,-0.0
 0007011,0.00003978,0.00000467,-0.00000752,-0.00000697,0.00002276,-0.00
 024209,-0.00004939,-0.00005235,-0.00008240,0.00035626,0.00031114,0.000
 54306,0.00034319,-0.00040189,-0.00176058,0.00157220,-0.00046431,-0.005
 36619,0.00351400,0.00023524,0.00054267,-0.00079203,0.01317830,0.066657
 28,-0.00006542,-0.00014146,-0.00000248,0.00033922,-0.00015965,-0.00016
 313,0.00005526,0.00016608,0.00005265,0.00008541,0.00018596,0.00012911,
 -0.00013342,0.00002691,-0.00021486,-0.00200452,0.00115421,-0.01264401,
 0.00224253,0.00061288,-0.00003726,-0.00569121,-0.00337656,-0.00886221,
 0.00010316,-0.00010715,-0.00013309,-0.18373863,0.00613079,-0.34856349,
 -0.00268569,-0.00198048,0.00415239,-0.00000823,0.00001380,-0.00000450,
 -0.00003736,0.00002928,-0.00007100,-0.00001955,-0.00000488,0.00000804,
 0.00001534,-0.00002775,-0.00000925,-0.00017954,-0.00022825,-0.00007814
 ,0.00002934,0.00059063,0.00003588,0.00013407,0.00107992,0.00053531,0.0
 0076101,0.00166198,0.00003906,0.00015320,0.00011005,0.00086860,0.19064
 502,-0.00573633,0.36496238\\-0.00002290,-0.00001602,-0.00000006,0.0000
 1720,-0.00000599,-0.00001941,0.00000191,0.00002694,0.00001978,-0.00003
 769,-0.00000928,-0.00000287,0.00000864,0.00001636,0.00002130,-0.000000
 41,0.00000598,0.00000860,0.00000436,0.00000519,0.00000141,0.00000589,0
 .00000424,-0.00000790,0.00002465,-0.00000964,-0.00001845,-0.00000118,-
 0.00000218,0.00000580,-0.00000097,-0.00000291,-0.00000473,0.00000270,0
 .00000052,0.00000082,-0.00000319,0.00000103,0.00000196,0.00000050,-0.0
 0000178,-0.00000286,0.00000498,-0.00000095,0.00000116,-0.00000185,-0.0
 0000178,-0.00000054,0.00000021,-0.00000146,-0.00000080,-0.00000115,-0.
 00000157,-0.00000021,-0.00000130,-0.00000127,-0.00000320,0.00000002,-0
 .00000418,0.00000169,-0.00000041,-0.00000127,-0.00000150\\\@


 THESE ARE THE TIMES THAT TRY MENS SOULS.
 THE SUMMER SOLDIER AND THE SUNSHINE PATRIOT WILL IN THIS CRISIS,
 SHRINK FROM THE SERVICE OF HIS COUNTRY.  BUT HE THAT STANDS NOW,
 DESERVES THE LOVE AND THANKS OF MAN AND WOMAN.
 TYRANNY, LIKE HELL, IS NOT EASILY CONQUERED,
 YET WE HAVE THIS CONSOLATION WITH US,
 THAT THE HARDER THE CONFLICT, THE MORE GLORIOUS THE TRIUMPH.
 WHAT WE OBTAIN TOO CHEAP, WE ESTEEM TOO LIGHTLY, 
 'TIS DEARNESS ONLY THAT GIVES EVERYTHING ITS VALUE.

                                              -- TOM PAINE
 Job cpu time:  0 days  1 hours 13 minutes 28.2 seconds.
 File lengths (MBytes):  RWF=     96 Int=      0 D2E=      0 Chk=      3 Scr=      1
 Normal termination of Gaussian 09 at Fri Feb 16 19:35:42 2018.
