 Entering Gaussian System, Link 0=g09
 Initial command:
 /home/fb_chem/chemsoft/lx24-amd64/Gaussian_09_C.01_NBO_3.1_64_istanbul-64/g09/l1.exe /local/2397356.1.parallel/Gau-19070.inp -scrdir=/local/2397356.1.parallel/
 Entering Link 1 = /home/fb_chem/chemsoft/lx24-amd64/Gaussian_09_C.01_NBO_3.1_64_istanbul-64/g09/l1.exe PID=     19071.
  
 Copyright (c) 1988,1990,1992,1993,1995,1998,2003,2009,2011,
            Gaussian, Inc.  All Rights Reserved.
  
 This is part of the Gaussian(R) 09 program.  It is based on
 the Gaussian(R) 03 system (copyright 2003, Gaussian, Inc.),
 the Gaussian(R) 98 system (copyright 1998, Gaussian, Inc.),
 the Gaussian(R) 94 system (copyright 1995, Gaussian, Inc.),
 the Gaussian 92(TM) system (copyright 1992, Gaussian, Inc.),
 the Gaussian 90(TM) system (copyright 1990, Gaussian, Inc.),
 the Gaussian 88(TM) system (copyright 1988, Gaussian, Inc.),
 the Gaussian 86(TM) system (copyright 1986, Carnegie Mellon
 University), and the Gaussian 82(TM) system (copyright 1983,
 Carnegie Mellon University). Gaussian is a federally registered
 trademark of Gaussian, Inc.
  
 This software contains proprietary and confidential information,
 including trade secrets, belonging to Gaussian, Inc.
  
 This software is provided under written license and may be
 used, copied, transmitted, or stored only in accord with that
 written license.
  
 The following legend is applicable only to US Government
 contracts under FAR:
  
                    RESTRICTED RIGHTS LEGEND
  
 Use, reproduction and disclosure by the US Government is
 subject to restrictions as set forth in subparagraphs (a)
 and (c) of the Commercial Computer Software - Restricted
 Rights clause in FAR 52.227-19.
  
 Gaussian, Inc.
 340 Quinnipiac St., Bldg. 40, Wallingford CT 06492
  
  
 ---------------------------------------------------------------
 Warning -- This program may not be used in any manner that
 competes with the business of Gaussian, Inc. or will provide
 assistance to any competitor of Gaussian, Inc.  The licensee
 of this program is prohibited from giving any competitor of
 Gaussian, Inc. access to this program.  By using this program,
 the user acknowledges that Gaussian, Inc. is engaged in the
 business of creating and licensing software in the field of
 computational chemistry and represents and warrants to the
 licensee that it is not a competitor of Gaussian, Inc. and that
 it will not use this program in any manner prohibited above.
 ---------------------------------------------------------------
  

 Cite this work as:
 Gaussian 09, Revision C.01,
 M. J. Frisch, G. W. Trucks, H. B. Schlegel, G. E. Scuseria, 
 M. A. Robb, J. R. Cheeseman, G. Scalmani, V. Barone, B. Mennucci, 
 G. A. Petersson, H. Nakatsuji, M. Caricato, X. Li, H. P. Hratchian, 
 A. F. Izmaylov, J. Bloino, G. Zheng, J. L. Sonnenberg, M. Hada, 
 M. Ehara, K. Toyota, R. Fukuda, J. Hasegawa, M. Ishida, T. Nakajima, 
 Y. Honda, O. Kitao, H. Nakai, T. Vreven, J. A. Montgomery, Jr., 
 J. E. Peralta, F. Ogliaro, M. Bearpark, J. J. Heyd, E. Brothers, 
 K. N. Kudin, V. N. Staroverov, T. Keith, R. Kobayashi, J. Normand, 
 K. Raghavachari, A. Rendell, J. C. Burant, S. S. Iyengar, J. Tomasi, 
 M. Cossi, N. Rega, J. M. Millam, M. Klene, J. E. Knox, J. B. Cross, 
 V. Bakken, C. Adamo, J. Jaramillo, R. Gomperts, R. E. Stratmann, 
 O. Yazyev, A. J. Austin, R. Cammi, C. Pomelli, J. W. Ochterski, 
 R. L. Martin, K. Morokuma, V. G. Zakrzewski, G. A. Voth, 
 P. Salvador, J. J. Dannenberg, S. Dapprich, A. D. Daniels, 
 O. Farkas, J. B. Foresman, J. V. Ortiz, J. Cioslowski, 
 and D. J. Fox, Gaussian, Inc., Wallingford CT, 2010.
 
 ******************************************
 Gaussian 09:  AM64L-G09RevC.01 23-Sep-2011
                16-Feb-2018 
 ******************************************
 %nprocs=4
 Will use up to    4 processors via shared memory.
 %chk=frag22-conf1.chk
 ---------------------------------------------------------
 #B3LYP/6-31G* Integral=(Grid=UltraFine) freq Opt pop=none
 ---------------------------------------------------------
 1/14=-1,18=20,19=15,26=3,38=1/1,3;
 2/9=110,12=2,17=6,18=5,40=1/2;
 3/5=1,6=6,7=1,11=2,16=1,25=1,30=1,71=1,74=-5,75=-5/1,2,3;
 4//1;
 5/5=2,38=5/2;
 7//1,2,3,16;
 1/14=-1,18=20,19=15/3(2);
 2/9=110/2;
 99//99;
 2/9=110/2;
 3/5=1,6=6,7=1,11=2,16=1,25=1,30=1,71=1,74=-5,75=-5/1,2,3;
 4/5=5,16=3/1;
 5/5=2,38=5/2;
 7//1,2,3,16;
 1/14=-1,18=20,19=15/3(-5);
 2/9=110/2;
 99/9=1/99;
 -----------------------------
 Optimization for frag22-conf1
 -----------------------------
 Charge =  0 Multiplicity = 1
 Symbolic Z-Matrix:
 C                    -4.68449   3.15051  -3.65292 
 C                    -3.34568   3.11397  -3.27066 
 C                    -5.54628   2.12909  -3.26128 
 C                    -2.86884   2.05952  -2.48995 
 C                    -5.07117   1.07446  -2.4799 
 C                    -3.7299    1.03598  -2.06875 
 C                    -4.76966   2.13448   0.85227 
 C                    -3.22625  -0.12212  -1.24586 
 N                    -4.164     0.84481   1.19588 
 O                    -2.36419  -0.86453   1.1369 
 O                    -1.83528   1.47495   0.42711 
 S                    -2.75307   0.34792   0.43019 
 H                    -5.05498   3.97236  -4.26319 
 H                    -2.66859   3.9066   -3.58515 
 H                    -6.59102   2.15153  -3.56725 
 H                    -1.81436   2.04543  -2.21405 
 H                    -5.76182   0.28262  -2.18951 
 H                    -4.03501   2.85847   0.49335 
 H                    -5.22734   2.55073   1.75497 
 H                    -5.56034   2.00036   0.11263 
 H                    -2.33799  -0.55639  -1.71751 
 H                    -3.97418  -0.91681  -1.15379 
 H                    -4.83459   0.07789   1.31773 
 

 GradGradGradGradGradGradGradGradGradGradGradGradGradGradGradGradGradGrad
 Berny optimization.
 Initialization pass.
                           ----------------------------
                           !    Initial Parameters    !
                           ! (Angstroms and Degrees)  !
 --------------------------                            --------------------------
 ! Name  Definition              Value          Derivative Info.                !
 --------------------------------------------------------------------------------
 ! R1    R(1,2)                  1.3928         estimate D2E/DX2                !
 ! R2    R(1,3)                  1.3926         estimate D2E/DX2                !
 ! R3    R(1,13)                 1.0886         estimate D2E/DX2                !
 ! R4    R(2,4)                  1.396          estimate D2E/DX2                !
 ! R5    R(2,14)                 1.0889         estimate D2E/DX2                !
 ! R6    R(3,5)                  1.3959         estimate D2E/DX2                !
 ! R7    R(3,15)                 1.0888         estimate D2E/DX2                !
 ! R8    R(4,6)                  1.4023         estimate D2E/DX2                !
 ! R9    R(4,16)                 1.0901         estimate D2E/DX2                !
 ! R10   R(5,6)                  1.4034         estimate D2E/DX2                !
 ! R11   R(5,17)                 1.0901         estimate D2E/DX2                !
 ! R12   R(6,8)                  1.5073         estimate D2E/DX2                !
 ! R13   R(7,9)                  1.4657         estimate D2E/DX2                !
 ! R14   R(7,18)                 1.0921         estimate D2E/DX2                !
 ! R15   R(7,19)                 1.0943         estimate D2E/DX2                !
 ! R16   R(7,20)                 1.091          estimate D2E/DX2                !
 ! R17   R(8,12)                 1.8039         estimate D2E/DX2                !
 ! R18   R(8,21)                 1.0955         estimate D2E/DX2                !
 ! R19   R(8,22)                 1.0952         estimate D2E/DX2                !
 ! R20   R(9,12)                 1.6804         estimate D2E/DX2                !
 ! R21   R(9,23)                 1.026          estimate D2E/DX2                !
 ! R22   R(10,12)                1.4563         estimate D2E/DX2                !
 ! R23   R(11,12)                1.4535         estimate D2E/DX2                !
 ! A1    A(2,1,3)              119.8957         estimate D2E/DX2                !
 ! A2    A(2,1,13)             120.0523         estimate D2E/DX2                !
 ! A3    A(3,1,13)             120.0504         estimate D2E/DX2                !
 ! A4    A(1,2,4)              120.1088         estimate D2E/DX2                !
 ! A5    A(1,2,14)             119.958          estimate D2E/DX2                !
 ! A6    A(4,2,14)             119.9326         estimate D2E/DX2                !
 ! A7    A(1,3,5)              120.062          estimate D2E/DX2                !
 ! A8    A(1,3,15)             119.9748         estimate D2E/DX2                !
 ! A9    A(5,3,15)             119.963          estimate D2E/DX2                !
 ! A10   A(2,4,6)              120.6353         estimate D2E/DX2                !
 ! A11   A(2,4,16)             118.7993         estimate D2E/DX2                !
 ! A12   A(6,4,16)             120.5654         estimate D2E/DX2                !
 ! A13   A(3,5,6)              120.664          estimate D2E/DX2                !
 ! A14   A(3,5,17)             118.834          estimate D2E/DX2                !
 ! A15   A(6,5,17)             120.5012         estimate D2E/DX2                !
 ! A16   A(4,6,5)              118.6095         estimate D2E/DX2                !
 ! A17   A(4,6,8)              121.3055         estimate D2E/DX2                !
 ! A18   A(5,6,8)              120.0231         estimate D2E/DX2                !
 ! A19   A(9,7,18)             112.4821         estimate D2E/DX2                !
 ! A20   A(9,7,19)             108.3085         estimate D2E/DX2                !
 ! A21   A(9,7,20)             110.5028         estimate D2E/DX2                !
 ! A22   A(18,7,19)            107.4745         estimate D2E/DX2                !
 ! A23   A(18,7,20)            110.2558         estimate D2E/DX2                !
 ! A24   A(19,7,20)            107.6316         estimate D2E/DX2                !
 ! A25   A(6,8,12)             113.2468         estimate D2E/DX2                !
 ! A26   A(6,8,21)             109.9051         estimate D2E/DX2                !
 ! A27   A(6,8,22)             112.0376         estimate D2E/DX2                !
 ! A28   A(12,8,21)            106.8963         estimate D2E/DX2                !
 ! A29   A(12,8,22)            106.8645         estimate D2E/DX2                !
 ! A30   A(21,8,22)            107.5955         estimate D2E/DX2                !
 ! A31   A(7,9,12)             120.0216         estimate D2E/DX2                !
 ! A32   A(7,9,23)             114.5498         estimate D2E/DX2                !
 ! A33   A(12,9,23)            112.4485         estimate D2E/DX2                !
 ! A34   A(8,12,9)             106.27           estimate D2E/DX2                !
 ! A35   A(8,12,10)            107.6987         estimate D2E/DX2                !
 ! A36   A(8,12,11)            111.4519         estimate D2E/DX2                !
 ! A37   A(9,12,10)            104.4347         estimate D2E/DX2                !
 ! A38   A(9,12,11)            107.5691         estimate D2E/DX2                !
 ! A39   A(10,12,11)           118.5542         estimate D2E/DX2                !
 ! D1    D(3,1,2,4)             -0.3557         estimate D2E/DX2                !
 ! D2    D(3,1,2,14)           179.3523         estimate D2E/DX2                !
 ! D3    D(13,1,2,4)          -179.8942         estimate D2E/DX2                !
 ! D4    D(13,1,2,14)           -0.1862         estimate D2E/DX2                !
 ! D5    D(2,1,3,5)              0.3962         estimate D2E/DX2                !
 ! D6    D(2,1,3,15)          -179.4248         estimate D2E/DX2                !
 ! D7    D(13,1,3,5)           179.9346         estimate D2E/DX2                !
 ! D8    D(13,1,3,15)            0.1137         estimate D2E/DX2                !
 ! D9    D(1,2,4,6)             -0.7486         estimate D2E/DX2                !
 ! D10   D(1,2,4,16)           179.2005         estimate D2E/DX2                !
 ! D11   D(14,2,4,6)           179.5433         estimate D2E/DX2                !
 ! D12   D(14,2,4,16)           -0.5076         estimate D2E/DX2                !
 ! D13   D(1,3,5,6)              0.6663         estimate D2E/DX2                !
 ! D14   D(1,3,5,17)          -179.6528         estimate D2E/DX2                !
 ! D15   D(15,3,5,6)          -179.5127         estimate D2E/DX2                !
 ! D16   D(15,3,5,17)            0.1682         estimate D2E/DX2                !
 ! D17   D(2,4,6,5)              1.7751         estimate D2E/DX2                !
 ! D18   D(2,4,6,8)            178.9137         estimate D2E/DX2                !
 ! D19   D(16,4,6,5)          -178.1731         estimate D2E/DX2                !
 ! D20   D(16,4,6,8)            -1.0344         estimate D2E/DX2                !
 ! D21   D(3,5,6,4)             -1.7347         estimate D2E/DX2                !
 ! D22   D(3,5,6,8)           -178.9111         estimate D2E/DX2                !
 ! D23   D(17,5,6,4)           178.5897         estimate D2E/DX2                !
 ! D24   D(17,5,6,8)             1.4133         estimate D2E/DX2                !
 ! D25   D(4,6,8,12)            69.3182         estimate D2E/DX2                !
 ! D26   D(4,6,8,21)           -50.1515         estimate D2E/DX2                !
 ! D27   D(4,6,8,22)          -169.7168         estimate D2E/DX2                !
 ! D28   D(5,6,8,12)          -113.5831         estimate D2E/DX2                !
 ! D29   D(5,6,8,21)           126.9472         estimate D2E/DX2                !
 ! D30   D(5,6,8,22)             7.3819         estimate D2E/DX2                !
 ! D31   D(18,7,9,12)          -27.4663         estimate D2E/DX2                !
 ! D32   D(18,7,9,23)         -165.953          estimate D2E/DX2                !
 ! D33   D(19,7,9,12)         -146.1023         estimate D2E/DX2                !
 ! D34   D(19,7,9,23)           75.4111         estimate D2E/DX2                !
 ! D35   D(20,7,9,12)           96.2294         estimate D2E/DX2                !
 ! D36   D(20,7,9,23)          -42.2573         estimate D2E/DX2                !
 ! D37   D(6,8,12,9)            65.229          estimate D2E/DX2                !
 ! D38   D(6,8,12,10)          176.6803         estimate D2E/DX2                !
 ! D39   D(6,8,12,11)          -51.6775         estimate D2E/DX2                !
 ! D40   D(21,8,12,9)         -173.5899         estimate D2E/DX2                !
 ! D41   D(21,8,12,10)         -62.1385         estimate D2E/DX2                !
 ! D42   D(21,8,12,11)          69.5037         estimate D2E/DX2                !
 ! D43   D(22,8,12,9)          -58.6156         estimate D2E/DX2                !
 ! D44   D(22,8,12,10)          52.8358         estimate D2E/DX2                !
 ! D45   D(22,8,12,11)        -175.522          estimate D2E/DX2                !
 ! D46   D(7,9,12,8)           -73.4246         estimate D2E/DX2                !
 ! D47   D(7,9,12,10)          172.8633         estimate D2E/DX2                !
 ! D48   D(7,9,12,11)           46.0493         estimate D2E/DX2                !
 ! D49   D(23,9,12,8)           65.8596         estimate D2E/DX2                !
 ! D50   D(23,9,12,10)         -47.8525         estimate D2E/DX2                !
 ! D51   D(23,9,12,11)        -174.6665         estimate D2E/DX2                !
 --------------------------------------------------------------------------------
 Trust Radius=3.00D-01 FncErr=1.00D-07 GrdErr=1.00D-06
 Number of steps in this run=    123 maximum allowed number of steps=    138.
 GradGradGradGradGradGradGradGradGradGradGradGradGradGradGradGradGradGrad

                          Input orientation:                          
 ---------------------------------------------------------------------
 Center     Atomic      Atomic             Coordinates (Angstroms)
 Number     Number       Type             X           Y           Z
 ---------------------------------------------------------------------
      1          6           0       -4.684490    3.150512   -3.652915
      2          6           0       -3.345676    3.113974   -3.270660
      3          6           0       -5.546283    2.129085   -3.261279
      4          6           0       -2.868843    2.059523   -2.489952
      5          6           0       -5.071173    1.074461   -2.479899
      6          6           0       -3.729900    1.035982   -2.068751
      7          6           0       -4.769664    2.134483    0.852273
      8          6           0       -3.226249   -0.122118   -1.245859
      9          7           0       -4.164002    0.844809    1.195876
     10          8           0       -2.364185   -0.864530    1.136904
     11          8           0       -1.835284    1.474952    0.427114
     12         16           0       -2.753072    0.347916    0.430187
     13          1           0       -5.054976    3.972358   -4.263192
     14          1           0       -2.668594    3.906601   -3.585148
     15          1           0       -6.591018    2.151526   -3.567246
     16          1           0       -1.814363    2.045430   -2.214048
     17          1           0       -5.761824    0.282621   -2.189508
     18          1           0       -4.035007    2.858474    0.493347
     19          1           0       -5.227341    2.550727    1.754971
     20          1           0       -5.560339    2.000362    0.112631
     21          1           0       -2.337987   -0.556386   -1.717512
     22          1           0       -3.974180   -0.916809   -1.153792
     23          1           0       -4.834585    0.077892    1.317728
 ---------------------------------------------------------------------
                    Distance matrix (angstroms):
                    1          2          3          4          5
     1  C    0.000000
     2  C    1.392795   0.000000
     3  C    1.392616   2.410968   0.000000
     4  C    2.416467   1.395973   2.787198   0.000000
     5  C    2.415674   2.786083   1.395893   2.412615   0.000000
     6  C    2.809280   2.431103   2.432334   1.402307   1.403402
     7  C    4.619123   4.470540   4.186225   3.845675   3.509690
     8  C    4.316306   3.819211   3.809514   2.536743   2.521587
     9  N    5.394252   5.076289   4.840072   4.091246   3.793022
    10  O    6.666839   6.018176   6.199314   4.686027   4.916170
    11  O    5.250916   4.317547   5.272917   3.149483   4.368306
    12  S    5.315698   4.658168   4.959991   3.386771   3.790786
    13  H    1.088636   2.154913   2.154732   3.403306   3.402677
    14  H    2.154089   1.088853   3.397874   2.156676   3.874917
    15  H    2.154103   3.398017   1.088848   3.876031   2.156924
    16  H    3.395463   2.145491   3.876973   1.090068   3.408851
    17  H    3.395145   3.875980   2.145829   3.408371   1.090108
    18  H    4.206971   3.835128   4.112564   3.301263   3.618914
    19  H    5.468058   5.395820   5.044033   4.880898   4.487524
    20  H    4.033521   4.194225   3.376394   3.744475   2.796030
    21  H    4.795097   4.110870   4.459612   2.778750   3.272797
    22  H    4.826309   4.596016   4.023740   3.444655   2.631940
    23  H    5.845581   5.699820   5.067664   4.721169   3.933331
                    6          7          8          9         10
     6  C    0.000000
     7  C    3.289407   0.000000
     8  C    1.507320   3.446235   0.000000
     9  N    3.298906   1.465656   2.788619   0.000000
    10  O    3.969049   3.855051   2.640433   2.482873   0.000000
    11  O    3.164112   3.037488   2.698935   2.531996   2.501342
    12  S    2.769895   2.727017   1.803873   1.680448   1.456265
    13  H    3.897910   5.443085   5.404931   6.354276   7.732844
    14  H    3.415594   5.219733   4.691890   5.871032   6.719683
    15  H    3.417005   4.780144   4.677603   5.503203   7.006550
    16  H    2.170110   4.259585   2.762078   4.311598   4.472030
    17  H    2.170450   3.696783   2.735586   3.785487   4.891311
    18  H    3.158942   1.092114   3.544412   2.136594   4.131170
    19  H    4.376942   1.094344   4.489259   2.086488   4.499293
    20  H    3.006487   1.090975   3.434879   2.111511   4.412725
    21  H    2.143928   4.444955   1.095470   3.712884   2.871120
    22  H    2.170304   3.737309   1.095176   2.942834   2.800375
    23  H    3.688700   2.109604   3.032940   1.026007   2.650232
                   11         12         13         14         15
    11  O    0.000000
    12  S    1.453463   0.000000
    13  H    6.213085   6.361065   0.000000
    14  H    4.765037   5.366032   2.481710   0.000000
    15  H    6.247373   5.827719   2.481773   4.297211   0.000000
    16  H    2.702151   3.279437   4.291108   2.464464   4.965766
    17  H    4.866835   3.989944   4.291149   4.964788   2.465468
    18  H    2.599481   2.819618   4.990566   4.427164   4.849886
    19  H    3.798229   3.567833   6.186197   6.074739   5.508627
    20  H    3.775049   3.272945   4.826177   5.066509   3.824479
    21  H    2.996409   2.366996   5.862767   4.849291   5.370529
    22  H    3.576962   2.366352   5.894103   5.557098   4.699711
    23  H    3.426482   2.278890   6.808973   6.587012   5.589990
                   16         17         18         19         20
    16  H    0.000000
    17  H    4.323256   0.000000
    18  H    3.594758   4.100564   0.000000
    19  H    5.258978   4.581363   1.762970   0.000000
    20  H    4.409966   2.879422   1.791073   1.763823   0.000000
    21  H    2.700033   3.556596   4.407839   5.482759   4.502215
    22  H    3.816256   2.388936   4.119409   4.696288   3.553817
    23  H    5.046423   3.633509   3.008415   2.541722   2.382198
                   21         22         23
    21  H    0.000000
    22  H    1.767714   0.000000
    23  H    3.980954   2.799668   0.000000
 Stoichiometry    C8H11NO2S
 Framework group  C1[X(C8H11NO2S)]
 Deg. of freedom    63
 Full point group                 C1      NOp   1
 Largest Abelian subgroup         C1      NOp   1
 Largest concise Abelian subgroup C1      NOp   1
                         Standard orientation:                         
 ---------------------------------------------------------------------
 Center     Atomic      Atomic             Coordinates (Angstroms)
 Number     Number       Type             X           Y           Z
 ---------------------------------------------------------------------
      1          6           0       -3.457841    0.041487   -0.356435
      2          6           0       -2.683421   -0.995511   -0.871009
      3          6           0       -2.951230    0.847879    0.659664
      4          6           0       -1.398438   -1.222566   -0.375019
      5          6           0       -1.666182    0.622630    1.156083
      6          6           0       -0.866221   -0.404403    0.631868
      7          6           0        0.696953    1.921812   -1.090168
      8          6           0        0.509935   -0.650703    1.195380
      9          7           0        1.771649    1.361418   -0.266072
     10          8           0        3.101016   -0.493408    0.712222
     11          8           0        1.617807   -0.968580   -1.245076
     12         16           0        1.833721   -0.292736    0.023455
     13          1           0       -4.460457    0.216649   -0.742710
     14          1           0       -3.082528   -1.633260   -1.658150
     15          1           0       -3.559095    1.653010    1.069364
     16          1           0       -0.815985   -2.048243   -0.783987
     17          1           0       -1.291802    1.262255    1.955492
     18          1           0        0.311659    1.204641   -1.818130
     19          1           0        1.099796    2.772477   -1.648447
     20          1           0       -0.113053    2.293329   -0.460809
     21          1           0        0.613249   -1.703324    1.480631
     22          1           0        0.703062   -0.045460    2.087453
     23          1           0        2.002174    1.913922    0.567167
 ---------------------------------------------------------------------
 Rotational constants (GHZ):      1.6836741      0.5418193      0.5150223
 Standard basis: 6-31G(d) (6D, 7F)
 There are   206 symmetry adapted basis functions of A   symmetry.
 Integral buffers will be    131072 words long.
 Raffenetti 2 integral format.
 Two-electron integral symmetry is turned on.
   206 basis functions,   404 primitive gaussians,   206 cartesian basis functions
    49 alpha electrons       49 beta electrons
       nuclear repulsion energy       846.7703715644 Hartrees.
 NAtoms=   23 NActive=   23 NUniq=   23 SFac= 1.00D+00 NAtFMM=   60 NAOKFM=F Big=F
 One-electron integrals computed using PRISM.
 NBasis=   206 RedAO= T  NBF=   206
 NBsUse=   206 1.00D-06 NBFU=   206
 Harris functional with IExCor=  402 diagonalized for initial guess.
 ExpMin= 1.17D-01 ExpMax= 2.19D+04 ExpMxC= 3.30D+03 IAcc=3 IRadAn=         5 AccDes= 0.00D+00
 HarFok:  IExCor=  402 AccDes= 0.00D+00 IRadAn=         5 IDoV= 1
 ScaDFX=  1.000000  1.000000  1.000000  1.000000
 FoFCou: FMM=F IPFlag=           0 FMFlag=      100000 FMFlg1=           0
         NFxFlg=           0 DoJE=T BraDBF=F KetDBF=T FulRan=T
         Omega=  0.000000  0.000000  1.000000  0.000000  0.000000 ICntrl=     500 IOpCl=  0
         NMat0=    1 NMatS0=    1 NMatT0=    0 NMatD0=    1 NMtDS0=    0 NMtDT0=    0
         I1Cent=           4 NGrid=           0.
 Petite list used in FoFCou.
 Initial guess orbital symmetries:
       Occupied  (A) (A) (A) (A) (A) (A) (A) (A) (A) (A) (A) (A)
                 (A) (A) (A) (A) (A) (A) (A) (A) (A) (A) (A) (A)
                 (A) (A) (A) (A) (A) (A) (A) (A) (A) (A) (A) (A)
                 (A) (A) (A) (A) (A) (A) (A) (A) (A) (A) (A) (A)
                 (A)
       Virtual   (A) (A) (A) (A) (A) (A) (A) (A) (A) (A) (A) (A)
                 (A) (A) (A) (A) (A) (A) (A) (A) (A) (A) (A) (A)
                 (A) (A) (A) (A) (A) (A) (A) (A) (A) (A) (A) (A)
                 (A) (A) (A) (A) (A) (A) (A) (A) (A) (A) (A) (A)
                 (A) (A) (A) (A) (A) (A) (A) (A) (A) (A) (A) (A)
                 (A) (A) (A) (A) (A) (A) (A) (A) (A) (A) (A) (A)
                 (A) (A) (A) (A) (A) (A) (A) (A) (A) (A) (A) (A)
                 (A) (A) (A) (A) (A) (A) (A) (A) (A) (A) (A) (A)
                 (A) (A) (A) (A) (A) (A) (A) (A) (A) (A) (A) (A)
                 (A) (A) (A) (A) (A) (A) (A) (A) (A) (A) (A) (A)
                 (A) (A) (A) (A) (A) (A) (A) (A) (A) (A) (A) (A)
                 (A) (A) (A) (A) (A) (A) (A) (A) (A) (A) (A) (A)
                 (A) (A) (A) (A) (A) (A) (A) (A) (A) (A) (A) (A)
                 (A)
 The electronic state of the initial guess is 1-A.
 Requested convergence on RMS density matrix=1.00D-08 within 128 cycles.
 Requested convergence on MAX density matrix=1.00D-06.
 Requested convergence on             energy=1.00D-06.
 No special actions if energy rises.
 Integral accuracy reduced to 1.0D-05 until final iterations.
 EnCoef did     1 forward-backward iterations
 Initial convergence to 1.0D-05 achieved.  Increase integral accuracy.
 SCF Done:  E(RB3LYP) =  -914.789434049     A.U. after   15 cycles
             Convg  =    0.4560D-08             -V/T =  2.0070
 Calling FoFJK, ICntrl=      2127 FMM=F ISym2X=0 I1Cent= 0 IOpClX= 0 NMat=1 NMatS=1 NMatT=0.
 ***** Axes restored to original set *****
 -------------------------------------------------------------------
 Center     Atomic                   Forces (Hartrees/Bohr)
 Number     Number              X              Y              Z
 -------------------------------------------------------------------
      1        6          -0.002145877    0.003798429   -0.002581866
      2        6           0.001979515   -0.000650583    0.000881531
      3        6          -0.002554446   -0.001401021   -0.000076046
      4        6           0.004714009    0.002148551   -0.000847307
      5        6          -0.001171888    0.001587610    0.000599506
      6        6          -0.004719367   -0.001804735   -0.007230407
      7        6          -0.011229547   -0.000088632    0.006050393
      8        6           0.000931970    0.002934215   -0.015103005
      9        7           0.001171724    0.002772320   -0.004658794
     10        8          -0.000034861   -0.014130946   -0.002344938
     11        8           0.002425917    0.012908076   -0.010033075
     12       16          -0.003115884   -0.008296735    0.028252036
     13        1           0.000316811   -0.000984999    0.000694800
     14        1          -0.000466095   -0.001671300    0.000743572
     15        1           0.001386317   -0.000596762    0.000461434
     16        1          -0.003563622   -0.001426138    0.001551415
     17        1           0.002347473   -0.000008098    0.000468450
     18        1           0.002434038   -0.005504497   -0.000111961
     19        1           0.000702701    0.000791889    0.001926967
     20        1          -0.000733657    0.004900663   -0.004649444
     21        1           0.002238009   -0.001219132    0.004368439
     22        1           0.001078978    0.000973675    0.001734074
     23        1           0.008007783    0.004968149   -0.000095772
 -------------------------------------------------------------------
 Cartesian Forces:  Max     0.028252036 RMS     0.005610930

 GradGradGradGradGradGradGradGradGradGradGradGradGradGradGradGradGradGrad
 Berny optimization.
 Internal  Forces:  Max     0.012873560 RMS     0.004119226
 Search for a local minimum.
 Step number   1 out of a maximum of  123
 All quantities printed in internal units (Hartrees-Bohrs-Radians)
 Mixed Optimization -- RFO/linear search
 Second derivative matrix not updated -- first step.
 ITU=  0
     Eigenvalues ---    0.00319   0.00669   0.00823   0.01496   0.01555
     Eigenvalues ---    0.01963   0.02064   0.02092   0.02102   0.02133
     Eigenvalues ---    0.02161   0.02165   0.02175   0.02185   0.04082
     Eigenvalues ---    0.05542   0.07080   0.07651   0.07714   0.08533
     Eigenvalues ---    0.09295   0.12864   0.13370   0.13430   0.15999
     Eigenvalues ---    0.16000   0.16000   0.16000   0.16000   0.16000
     Eigenvalues ---    0.16000   0.16000   0.18672   0.21996   0.21997
     Eigenvalues ---    0.22000   0.22668   0.23460   0.24967   0.25000
     Eigenvalues ---    0.25814   0.31621   0.34188   0.34221   0.34315
     Eigenvalues ---    0.34569   0.34700   0.34800   0.34805   0.34946
     Eigenvalues ---    0.34946   0.34971   0.36265   0.38350   0.41780
     Eigenvalues ---    0.41869   0.43393   0.45407   0.46142   0.46301
     Eigenvalues ---    0.46756   0.93196   0.94410
 RFO step:  Lambda=-9.46832789D-03 EMin= 3.19072389D-03
 Linear search not attempted -- first point.
 Iteration  1 RMS(Cart)=  0.12115809 RMS(Int)=  0.00373242
 Iteration  2 RMS(Cart)=  0.00744884 RMS(Int)=  0.00052213
 Iteration  3 RMS(Cart)=  0.00003104 RMS(Int)=  0.00052191
 Iteration  4 RMS(Cart)=  0.00000003 RMS(Int)=  0.00052191
 Variable       Old X    -DE/DX   Delta X   Delta X   Delta X     New X
                                 (Linear)    (Quad)   (Total)
    R1        2.63200   0.00339   0.00000   0.00750   0.00750   2.63950
    R2        2.63166   0.00232   0.00000   0.00525   0.00525   2.63691
    R3        2.05722  -0.00124   0.00000  -0.00345  -0.00345   2.05377
    R4        2.63801  -0.00065   0.00000  -0.00138  -0.00138   2.63663
    R5        2.05763  -0.00172   0.00000  -0.00480  -0.00480   2.05284
    R6        2.63786  -0.00004   0.00000  -0.00010  -0.00010   2.63775
    R7        2.05763  -0.00147   0.00000  -0.00410  -0.00410   2.05352
    R8        2.64998  -0.00106   0.00000  -0.00270  -0.00270   2.64728
    R9        2.05993  -0.00304   0.00000  -0.00849  -0.00849   2.05144
   R10        2.65205  -0.00146   0.00000  -0.00359  -0.00359   2.64846
   R11        2.06001  -0.00136   0.00000  -0.00379  -0.00379   2.05621
   R12        2.84842   0.00343   0.00000   0.01054   0.01054   2.85896
   R13        2.76969   0.00298   0.00000   0.00801   0.00801   2.77770
   R14        2.06380  -0.00197   0.00000  -0.00556  -0.00556   2.05824
   R15        2.06801   0.00160   0.00000   0.00453   0.00453   2.07254
   R16        2.06164   0.00308   0.00000   0.00864   0.00864   2.07029
   R17        3.40883   0.01279   0.00000   0.04778   0.04778   3.45660
   R18        2.07014   0.00042   0.00000   0.00119   0.00119   2.07133
   R19        2.06958  -0.00130   0.00000  -0.00369  -0.00369   2.06589
   R20        3.17559   0.00132   0.00000   0.00336   0.00336   3.17894
   R21        1.93887  -0.00896   0.00000  -0.02021  -0.02021   1.91867
   R22        2.75194   0.01062   0.00000   0.01128   0.01128   2.76322
   R23        2.74665   0.01156   0.00000   0.01213   0.01213   2.75877
    A1        2.09257  -0.00140   0.00000  -0.00430  -0.00431   2.08827
    A2        2.09531   0.00082   0.00000   0.00286   0.00286   2.09817
    A3        2.09527   0.00058   0.00000   0.00146   0.00146   2.09673
    A4        2.09629   0.00072   0.00000   0.00409   0.00409   2.10039
    A5        2.09366   0.00043   0.00000   0.00259   0.00259   2.09625
    A6        2.09322  -0.00114   0.00000  -0.00667  -0.00667   2.08654
    A7        2.09548  -0.00073   0.00000  -0.00225  -0.00225   2.09322
    A8        2.09396   0.00089   0.00000   0.00424   0.00425   2.09820
    A9        2.09375  -0.00017   0.00000  -0.00200  -0.00200   2.09175
   A10        2.10548  -0.00061   0.00000  -0.00341  -0.00344   2.10204
   A11        2.07344   0.00288   0.00000   0.01690   0.01686   2.09030
   A12        2.10426  -0.00227   0.00000  -0.01348  -0.01351   2.09075
   A13        2.10598   0.00089   0.00000   0.00310   0.00307   2.10905
   A14        2.07405   0.00158   0.00000   0.01042   0.01040   2.08445
   A15        2.10314  -0.00247   0.00000  -0.01346  -0.01348   2.08967
   A16        2.07013   0.00114   0.00000   0.00316   0.00313   2.07326
   A17        2.11718  -0.00162   0.00000  -0.00536  -0.00538   2.11180
   A18        2.09480   0.00049   0.00000   0.00280   0.00277   2.09757
   A19        1.96318  -0.01072   0.00000  -0.07346  -0.07332   1.88986
   A20        1.89034   0.00027   0.00000   0.00683   0.00573   1.89607
   A21        1.92864   0.00935   0.00000   0.05972   0.05937   1.98801
   A22        1.87578   0.00283   0.00000   0.00674   0.00610   1.88189
   A23        1.92433  -0.00140   0.00000  -0.01785  -0.01709   1.90723
   A24        1.87853  -0.00006   0.00000   0.02095   0.01952   1.89805
   A25        1.97653   0.01287   0.00000   0.05876   0.05883   2.03536
   A26        1.91821   0.00017   0.00000   0.01937   0.02014   1.93834
   A27        1.95542  -0.00331   0.00000  -0.00646  -0.00615   1.94927
   A28        1.86569  -0.00796   0.00000  -0.04966  -0.05043   1.81526
   A29        1.86514  -0.00456   0.00000  -0.02449  -0.02502   1.84012
   A30        1.87790   0.00207   0.00000  -0.00307  -0.00415   1.87374
   A31        2.09477   0.00897   0.00000   0.04500   0.04412   2.13889
   A32        1.99927  -0.00047   0.00000   0.01821   0.01756   2.01683
   A33        1.96260  -0.00581   0.00000  -0.01720  -0.01852   1.94407
   A34        1.85476   0.01259   0.00000   0.04074   0.04135   1.89611
   A35        1.87970  -0.00988   0.00000  -0.05067  -0.05187   1.82782
   A36        1.94520  -0.01036   0.00000  -0.06521  -0.06576   1.87945
   A37        1.82273   0.00237   0.00000   0.03587   0.03657   1.85930
   A38        1.87743  -0.00297   0.00000  -0.00997  -0.00939   1.86804
   A39        2.06916   0.01019   0.00000   0.05789   0.05540   2.12456
    D1       -0.00621   0.00010   0.00000   0.00355   0.00355  -0.00266
    D2        3.13029   0.00015   0.00000   0.00519   0.00522   3.13550
    D3       -3.13975   0.00006   0.00000   0.00183   0.00183  -3.13792
    D4       -0.00325   0.00011   0.00000   0.00347   0.00349   0.00025
    D5        0.00691   0.00002   0.00000   0.00053   0.00054   0.00745
    D6       -3.13155   0.00004   0.00000   0.00114   0.00117  -3.13039
    D7        3.14045   0.00007   0.00000   0.00226   0.00226  -3.14047
    D8        0.00198   0.00009   0.00000   0.00287   0.00289   0.00488
    D9       -0.01307   0.00007   0.00000   0.00260   0.00257  -0.01050
   D10        3.12764   0.00054   0.00000   0.01784   0.01797  -3.13758
   D11        3.13362   0.00002   0.00000   0.00093   0.00089   3.13451
   D12       -0.00886   0.00049   0.00000   0.01618   0.01628   0.00742
   D13        0.01163  -0.00032   0.00000  -0.01079  -0.01080   0.00083
   D14       -3.13553   0.00006   0.00000   0.00201   0.00211  -3.13343
   D15       -3.13309  -0.00034   0.00000  -0.01139  -0.01142   3.13868
   D16        0.00294   0.00004   0.00000   0.00141   0.00149   0.00443
   D17        0.03098  -0.00034   0.00000  -0.01249  -0.01248   0.01850
   D18        3.12263   0.00001   0.00000   0.00149   0.00149   3.12412
   D19       -3.10971  -0.00081   0.00000  -0.02802  -0.02790  -3.13760
   D20       -0.01805  -0.00047   0.00000  -0.01403  -0.01393  -0.03198
   D21       -0.03028   0.00044   0.00000   0.01650   0.01655  -0.01372
   D22       -3.12259   0.00016   0.00000   0.00294   0.00294  -3.11965
   D23        3.11698   0.00004   0.00000   0.00341   0.00353   3.12051
   D24        0.02467  -0.00024   0.00000  -0.01015  -0.01008   0.01459
   D25        1.20983  -0.00131   0.00000  -0.03114  -0.03085   1.17898
   D26       -0.87531   0.00022   0.00000  -0.02019  -0.02066  -0.89597
   D27       -2.96212  -0.00035   0.00000  -0.02515  -0.02494  -2.98706
   D28       -1.98240  -0.00094   0.00000  -0.01695  -0.01668  -1.99908
   D29        2.21565   0.00059   0.00000  -0.00600  -0.00649   2.20916
   D30        0.12884   0.00002   0.00000  -0.01096  -0.01078   0.11806
   D31       -0.47938   0.00030   0.00000   0.01682   0.01781  -0.46157
   D32       -2.89643  -0.00079   0.00000  -0.03838  -0.03823  -2.93466
   D33       -2.54997   0.00308   0.00000   0.04831   0.04902  -2.50095
   D34        1.31617   0.00199   0.00000  -0.00689  -0.00702   1.30915
   D35        1.67952  -0.00233   0.00000  -0.01512  -0.01556   1.66396
   D36       -0.73753  -0.00342   0.00000  -0.07033  -0.07160  -0.80913
   D37        1.13846  -0.00258   0.00000  -0.03201  -0.03163   1.10683
   D38        3.08365   0.00154   0.00000   0.00520   0.00453   3.08818
   D39       -0.90194  -0.00099   0.00000  -0.00971  -0.00871  -0.91065
   D40       -3.02972   0.00008   0.00000  -0.00572  -0.00630  -3.03602
   D41       -1.08452   0.00421   0.00000   0.03149   0.02986  -1.05466
   D42        1.21307   0.00168   0.00000   0.01658   0.01662   1.22969
   D43       -1.02304  -0.00350   0.00000  -0.04454  -0.04391  -1.06694
   D44        0.92216   0.00062   0.00000  -0.00733  -0.00775   0.91441
   D45       -3.06344  -0.00191   0.00000  -0.02224  -0.02098  -3.08442
   D46       -1.28150  -0.00149   0.00000  -0.05025  -0.04966  -1.33116
   D47        3.01703   0.00339   0.00000  -0.02570  -0.02555   2.99148
   D48        0.80371  -0.00846   0.00000  -0.11002  -0.11003   0.69368
   D49        1.14947   0.00146   0.00000   0.01670   0.01680   1.16627
   D50       -0.83518   0.00633   0.00000   0.04125   0.04091  -0.79427
   D51       -3.04851  -0.00552   0.00000  -0.04307  -0.04356  -3.09207
         Item               Value     Threshold  Converged?
 Maximum Force            0.012874     0.000450     NO 
 RMS     Force            0.004119     0.000300     NO 
 Maximum Displacement     0.505440     0.001800     NO 
 RMS     Displacement     0.125556     0.001200     NO 
 Predicted change in Energy=-5.090327D-03
 GradGradGradGradGradGradGradGradGradGradGradGradGradGradGradGradGradGrad

                          Input orientation:                          
 ---------------------------------------------------------------------
 Center     Atomic      Atomic             Coordinates (Angstroms)
 Number     Number       Type             X           Y           Z
 ---------------------------------------------------------------------
      1          6           0       -4.691526    3.121970   -3.769934
      2          6           0       -3.369881    3.127760   -3.318086
      3          6           0       -5.539295    2.073498   -3.410599
      4          6           0       -2.897069    2.094099   -2.508948
      5          6           0       -5.066304    1.043154   -2.596329
      6          6           0       -3.744735    1.045215   -2.129785
      7          6           0       -4.742544    2.179053    1.062089
      8          6           0       -3.239385   -0.093497   -1.271404
      9          7           0       -4.170401    0.839541    1.259447
     10          8           0       -2.415076   -0.961737    1.054630
     11          8           0       -1.864965    1.446713    0.413271
     12         16           0       -2.789337    0.317471    0.453232
     13          1           0       -5.056679    3.926422   -4.402920
     14          1           0       -2.701869    3.937391   -3.597977
     15          1           0       -6.566213    2.054328   -3.765479
     16          1           0       -1.869231    2.109948   -2.159995
     17          1           0       -5.732181    0.225681   -2.327429
     18          1           0       -3.942313    2.850249    0.753183
     19          1           0       -5.130888    2.539273    2.022438
     20          1           0       -5.548930    2.212612    0.321249
     21          1           0       -2.322452   -0.524841   -1.689264
     22          1           0       -3.974112   -0.899505   -1.196124
     23          1           0       -4.843649    0.087046    1.366004
 ---------------------------------------------------------------------
                    Distance matrix (angstroms):
                    1          2          3          4          5
     1  C    0.000000
     2  C    1.396762   0.000000
     3  C    1.395395   2.413790   0.000000
     4  C    2.422122   1.395245   2.791909   0.000000
     5  C    2.416461   2.782870   1.395838   2.411990   0.000000
     6  C    2.810590   2.426844   2.432755   1.400879   1.401503
     7  C    4.923427   4.687235   4.544325   4.020609   3.844360
     8  C    4.323262   3.818696   3.815967   2.536587   2.526862
     9  N    5.547587   5.179824   5.020542   4.170862   3.963723
    10  O    6.718282   6.062697   6.237922   4.719062   4.937419
    11  O    5.319317   4.360472   5.339994   3.166025   4.412382
    12  S    5.414671   4.738944   5.057182   3.455796   3.874405
    13  H    1.086808   2.158706   2.156605   3.407118   3.402513
    14  H    2.157131   1.086315   3.400028   2.149839   3.869167
    15  H    2.157390   3.401317   1.086678   3.878540   2.153860
    16  H    3.403151   2.151527   3.877461   1.085574   3.398486
    17  H    3.398863   3.870907   2.150555   3.400263   1.088100
    18  H    4.592792   4.120669   4.526673   3.507962   3.968397
    19  H    5.838163   5.654083   5.468239   5.071645   4.855466
    20  H    4.277833   4.339414   3.734453   3.880261   3.180066
    21  H    4.820884   4.134207   4.479111   2.803732   3.287871
    22  H    4.828192   4.592024   4.023983   3.441685   2.631992
    23  H    5.967559   5.775693   5.219756   4.778356   4.082132
                    6          7          8          9         10
     6  C    0.000000
     7  C    3.531185   0.000000
     8  C    1.512898   3.587361   0.000000
     9  N    3.422044   1.469895   2.853517   0.000000
    10  O    3.992036   3.909185   2.616059   2.523434   0.000000
    11  O    3.187769   3.039366   2.664471   2.529764   2.552371
    12  S    2.848573   2.766083   1.829155   1.682225   1.462233
    13  H    3.897396   5.746155   5.410056   6.509740   7.788262
    14  H    3.407028   5.382594   4.685075   5.945403   6.762430
    15  H    3.413875   5.162048   4.679888   5.697850   7.040032
    16  H    2.156869   4.317699   2.742642   4.312992   4.479622
    17  H    2.158851   4.035328   2.726003   3.960007   4.883797
    18  H    3.407153   1.089172   3.641250   2.085971   4.117592
    19  H    4.625428   1.096740   4.621542   2.096134   4.535345
    20  H    3.259678   1.095549   3.631622   2.160064   4.520551
    21  H    2.163798   4.553881   1.096098   3.737827   2.780003
    22  H    2.169394   3.894552   1.093224   3.015400   2.738679
    23  H    3.787643   2.116384   3.092277   1.015315   2.663619
                   11         12         13         14         15
    11  O    0.000000
    12  S    1.459879   0.000000
    13  H    6.287423   6.461237   0.000000
    14  H    4.795205   5.433577   2.488611   0.000000
    15  H    6.319247   5.922752   2.487923   4.301992   0.000000
    16  H    2.657366   3.299776   4.300013   2.469945   4.964103
    17  H    4.894661   4.049794   4.296446   4.957203   2.471345
    18  H    2.529986   2.798981   5.383805   4.653296   5.285513
    19  H    3.801230   3.589105   6.573805   6.280440   5.982919
    20  H    3.763863   3.350273   5.049479   5.142077   4.214412
    21  H    2.918386   2.348991   5.886737   4.868126   5.382591
    22  H    3.541665   2.367508   5.894494   5.548248   4.695285
    23  H    3.410124   2.259745   6.933014   6.637279   5.759301
                   16         17         18         19         20
    16  H    0.000000
    17  H    4.301264   0.000000
    18  H    3.651345   4.425172   0.000000
    19  H    5.321228   4.963426   1.766472   0.000000
    20  H    4.439290   3.316168   1.781675   1.781996   0.000000
    21  H    2.714610   3.549195   4.469981   5.572507   4.684653
    22  H    3.796890   2.374174   4.226283   4.849996   3.803648
    23  H    5.037058   3.801336   2.970395   2.554765   2.471227
                   21         22         23
    21  H    0.000000
    22  H    1.763956   0.000000
    23  H    4.008180   2.879909   0.000000
 Stoichiometry    C8H11NO2S
 Framework group  C1[X(C8H11NO2S)]
 Deg. of freedom    63
 Full point group                 C1      NOp   1
 Largest Abelian subgroup         C1      NOp   1
 Largest concise Abelian subgroup C1      NOp   1
                         Standard orientation:                         
 ---------------------------------------------------------------------
 Center     Atomic      Atomic             Coordinates (Angstroms)
 Number     Number       Type             X           Y           Z
 ---------------------------------------------------------------------
      1          6           0       -3.525900    0.147752   -0.338004
      2          6           0       -2.738524   -0.748237   -1.064769
      3          6           0       -3.022722    0.716413    0.832707
      4          6           0       -1.454008   -1.072977   -0.627421
      5          6           0       -1.735296    0.394865    1.265728
      6          6           0       -0.933924   -0.495363    0.538056
      7          6           0        0.942587    2.146528   -0.864936
      8          6           0        0.448559   -0.855360    1.036056
      9          7           0        1.878080    1.366444   -0.042190
     10          8           0        3.045792   -0.725166    0.751117
     11          8           0        1.611865   -0.776648   -1.359760
     12         16           0        1.858159   -0.315051    0.003147
     13          1           0       -4.527462    0.396615   -0.678727
     14          1           0       -3.124968   -1.199660   -1.974142
     15          1           0       -3.631222    1.406548    1.410902
     16          1           0       -0.848744   -1.767593   -1.201560
     17          1           0       -1.353977    0.837127    2.183857
     18          1           0        0.633880    1.530473   -1.708423
     19          1           0        1.471435    3.020768   -1.263513
     20          1           0        0.054228    2.489187   -0.323059
     21          1           0        0.571616   -1.942331    1.105203
     22          1           0        0.640487   -0.441547    2.029565
     23          1           0        2.091738    1.758909    0.869504
 ---------------------------------------------------------------------
 Rotational constants (GHZ):      1.6301840      0.5199159      0.4990011
 Standard basis: 6-31G(d) (6D, 7F)
 There are   206 symmetry adapted basis functions of A   symmetry.
 Integral buffers will be    131072 words long.
 Raffenetti 2 integral format.
 Two-electron integral symmetry is turned on.
   206 basis functions,   404 primitive gaussians,   206 cartesian basis functions
    49 alpha electrons       49 beta electrons
       nuclear repulsion energy       838.0611179375 Hartrees.
 NAtoms=   23 NActive=   23 NUniq=   23 SFac= 1.00D+00 NAtFMM=   60 NAOKFM=F Big=F
 One-electron integrals computed using PRISM.
 NBasis=   206 RedAO= T  NBF=   206
 NBsUse=   206 1.00D-06 NBFU=   206
 Initial guess read from the read-write file.
 B after Tr=     0.000000    0.000000    0.000000
         Rot=    1.000000    0.000000    0.000000    0.000000 Ang=   0.00 deg.
 Initial guess orbital symmetries:
       Occupied  (A) (A) (A) (A) (A) (A) (A) (A) (A) (A) (A) (A)
                 (A) (A) (A) (A) (A) (A) (A) (A) (A) (A) (A) (A)
                 (A) (A) (A) (A) (A) (A) (A) (A) (A) (A) (A) (A)
                 (A) (A) (A) (A) (A) (A) (A) (A) (A) (A) (A) (A)
                 (A)
       Virtual   (A) (A) (A) (A) (A) (A) (A) (A) (A) (A) (A) (A)
                 (A) (A) (A) (A) (A) (A) (A) (A) (A) (A) (A) (A)
                 (A) (A) (A) (A) (A) (A) (A) (A) (A) (A) (A) (A)
                 (A) (A) (A) (A) (A) (A) (A) (A) (A) (A) (A) (A)
                 (A) (A) (A) (A) (A) (A) (A) (A) (A) (A) (A) (A)
                 (A) (A) (A) (A) (A) (A) (A) (A) (A) (A) (A) (A)
                 (A) (A) (A) (A) (A) (A) (A) (A) (A) (A) (A) (A)
                 (A) (A) (A) (A) (A) (A) (A) (A) (A) (A) (A) (A)
                 (A) (A) (A) (A) (A) (A) (A) (A) (A) (A) (A) (A)
                 (A) (A) (A) (A) (A) (A) (A) (A) (A) (A) (A) (A)
                 (A) (A) (A) (A) (A) (A) (A) (A) (A) (A) (A) (A)
                 (A) (A) (A) (A) (A) (A) (A) (A) (A) (A) (A) (A)
                 (A) (A) (A) (A) (A) (A) (A) (A) (A) (A) (A) (A)
                 (A)
 Harris functional with IExCor=  402 diagonalized for initial guess.
 ExpMin= 1.17D-01 ExpMax= 2.19D+04 ExpMxC= 3.30D+03 IAcc=3 IRadAn=         5 AccDes= 0.00D+00
 HarFok:  IExCor=  402 AccDes= 0.00D+00 IRadAn=         5 IDoV= 1
 ScaDFX=  1.000000  1.000000  1.000000  1.000000
 FoFCou: FMM=F IPFlag=           0 FMFlag=      100000 FMFlg1=           0
         NFxFlg=           0 DoJE=T BraDBF=F KetDBF=T FulRan=T
         Omega=  0.000000  0.000000  1.000000  0.000000  0.000000 ICntrl=     500 IOpCl=  0
         NMat0=    1 NMatS0=    1 NMatT0=    0 NMatD0=    1 NMtDS0=    0 NMtDT0=    0
         I1Cent=           4 NGrid=           0.
 Petite list used in FoFCou.
 Requested convergence on RMS density matrix=1.00D-08 within 128 cycles.
 Requested convergence on MAX density matrix=1.00D-06.
 Requested convergence on             energy=1.00D-06.
 No special actions if energy rises.
 Integral accuracy reduced to 1.0D-05 until final iterations.
 Initial convergence to 1.0D-05 achieved.  Increase integral accuracy.
 SCF Done:  E(RB3LYP) =  -914.793827007     A.U. after   15 cycles
             Convg  =    0.5345D-08             -V/T =  2.0071
 Calling FoFJK, ICntrl=      2127 FMM=F ISym2X=0 I1Cent= 0 IOpClX= 0 NMat=1 NMatS=1 NMatT=0.
 ***** Axes restored to original set *****
 -------------------------------------------------------------------
 Center     Atomic                   Forces (Hartrees/Bohr)
 Number     Number              X              Y              Z
 -------------------------------------------------------------------
      1        6          -0.000043246    0.000112746   -0.000076086
      2        6          -0.000183880   -0.000686394    0.000288093
      3        6           0.000367545    0.000118329    0.000104181
      4        6           0.001077595    0.002169857   -0.000565619
      5        6          -0.000985100    0.000234221    0.001035533
      6        6          -0.000227316   -0.003256771    0.001431436
      7        6           0.001616803   -0.000235497    0.003325983
      8        6          -0.003253038    0.001767006   -0.007633477
      9        7          -0.000230180    0.000131838   -0.004283016
     10        8          -0.002162146   -0.001309600    0.002477882
     11        8           0.002576229    0.005450238    0.000968638
     12       16          -0.002841051   -0.000537532    0.000377424
     13        1           0.000122874   -0.000088950    0.000041038
     14        1           0.000103078    0.000085449   -0.000141271
     15        1           0.000008618   -0.000095377    0.000058946
     16        1          -0.000293559   -0.000363779    0.000645393
     17        1           0.000316675   -0.000168445    0.000253320
     18        1           0.000997888    0.000656988   -0.000524649
     19        1           0.000449380   -0.000968274   -0.000521798
     20        1           0.000909412   -0.001559168   -0.001727171
     21        1           0.000847768    0.000196041    0.002589581
     22        1          -0.000241886   -0.000551638   -0.000066622
     23        1           0.001067539   -0.001101288    0.001942262
 -------------------------------------------------------------------
 Cartesian Forces:  Max     0.007633477 RMS     0.001737941

 GradGradGradGradGradGradGradGradGradGradGradGradGradGradGradGradGradGrad
 Berny optimization.
 Using GEDIIS/GDIIS optimizer.
 Internal  Forces:  Max     0.005821080 RMS     0.001314807
 Search for a local minimum.
 Step number   2 out of a maximum of  123
 All quantities printed in internal units (Hartrees-Bohrs-Radians)
 Mixed Optimization -- RFO/linear search
 Update second derivatives using D2CorX and points    1    2
 DE= -4.39D-03 DEPred=-5.09D-03 R= 8.63D-01
 SS=  1.41D+00  RLast= 2.74D-01 DXNew= 5.0454D-01 8.2340D-01
 Trust test= 8.63D-01 RLast= 2.74D-01 DXMaxT set to 5.05D-01
 ITU=  1  0
 Use linear search instead of GDIIS.
     Eigenvalues ---    0.00318   0.00674   0.00818   0.01489   0.01573
     Eigenvalues ---    0.01795   0.02060   0.02093   0.02102   0.02133
     Eigenvalues ---    0.02161   0.02165   0.02175   0.02185   0.03773
     Eigenvalues ---    0.05506   0.06931   0.07787   0.07923   0.08726
     Eigenvalues ---    0.09510   0.12850   0.13750   0.14106   0.15751
     Eigenvalues ---    0.15999   0.16000   0.16000   0.16000   0.16000
     Eigenvalues ---    0.16000   0.16863   0.18961   0.21948   0.22000
     Eigenvalues ---    0.22015   0.23425   0.23718   0.24862   0.25042
     Eigenvalues ---    0.25967   0.32057   0.34190   0.34232   0.34349
     Eigenvalues ---    0.34633   0.34669   0.34795   0.34801   0.34943
     Eigenvalues ---    0.34948   0.34968   0.36645   0.39406   0.41774
     Eigenvalues ---    0.41952   0.43551   0.45439   0.46119   0.46303
     Eigenvalues ---    0.46757   0.92196   0.93927
 RFO step:  Lambda=-1.20980058D-03 EMin= 3.17841234D-03
 Quartic linear search produced a step of -0.04166.
 Iteration  1 RMS(Cart)=  0.07011460 RMS(Int)=  0.00154062
 Iteration  2 RMS(Cart)=  0.00243182 RMS(Int)=  0.00004251
 Iteration  3 RMS(Cart)=  0.00000283 RMS(Int)=  0.00004248
 Iteration  4 RMS(Cart)=  0.00000000 RMS(Int)=  0.00004248
 Variable       Old X    -DE/DX   Delta X   Delta X   Delta X     New X
                                 (Linear)    (Quad)   (Total)
    R1        2.63950   0.00007  -0.00031   0.00131   0.00099   2.64049
    R2        2.63691   0.00022  -0.00022   0.00124   0.00102   2.63793
    R3        2.05377  -0.00013   0.00014  -0.00090  -0.00076   2.05301
    R4        2.63663  -0.00058   0.00006  -0.00139  -0.00133   2.63530
    R5        2.05284   0.00016   0.00020  -0.00031  -0.00011   2.05273
    R6        2.63775  -0.00012   0.00000  -0.00029  -0.00028   2.63747
    R7        2.05352  -0.00003   0.00017  -0.00071  -0.00054   2.05298
    R8        2.64728   0.00112   0.00011   0.00198   0.00209   2.64937
    R9        2.05144  -0.00008   0.00035  -0.00154  -0.00119   2.05025
   R10        2.64846  -0.00035   0.00015  -0.00127  -0.00112   2.64734
   R11        2.05621   0.00000   0.00016  -0.00061  -0.00045   2.05576
   R12        2.85896  -0.00330  -0.00044  -0.00829  -0.00873   2.85024
   R13        2.77770  -0.00354  -0.00033  -0.00805  -0.00839   2.76931
   R14        2.05824   0.00129   0.00023   0.00268   0.00291   2.06115
   R15        2.07254  -0.00093  -0.00019  -0.00189  -0.00208   2.07046
   R16        2.07029   0.00045  -0.00036   0.00260   0.00224   2.07253
   R17        3.45660   0.00263  -0.00199   0.01719   0.01520   3.47180
   R18        2.07133  -0.00036  -0.00005  -0.00080  -0.00085   2.07047
   R19        2.06589   0.00056   0.00015   0.00099   0.00115   2.06704
   R20        3.17894  -0.00576  -0.00014  -0.01381  -0.01395   3.16500
   R21        1.91867   0.00031   0.00084  -0.00249  -0.00165   1.91702
   R22        2.76322   0.00161  -0.00047   0.00343   0.00296   2.76618
   R23        2.75877   0.00582  -0.00051   0.00781   0.00730   2.76608
    A1        2.08827   0.00019   0.00018   0.00004   0.00020   2.08847
    A2        2.09817  -0.00017  -0.00012  -0.00034  -0.00045   2.09771
    A3        2.09673  -0.00002  -0.00006   0.00032   0.00027   2.09701
    A4        2.10039  -0.00001  -0.00017   0.00061   0.00042   2.10081
    A5        2.09625  -0.00003  -0.00011   0.00021   0.00012   2.09636
    A6        2.08654   0.00004   0.00028  -0.00082  -0.00053   2.08601
    A7        2.09322   0.00015   0.00009   0.00024   0.00032   2.09354
    A8        2.09820   0.00004  -0.00018   0.00104   0.00087   2.09907
    A9        2.09175  -0.00019   0.00008  -0.00128  -0.00119   2.09056
   A10        2.10204  -0.00038   0.00014  -0.00203  -0.00190   2.10014
   A11        2.09030   0.00088  -0.00070   0.00747   0.00677   2.09707
   A12        2.09075  -0.00050   0.00056  -0.00548  -0.00491   2.08585
   A13        2.10905  -0.00046  -0.00013  -0.00145  -0.00158   2.10747
   A14        2.08445   0.00068  -0.00043   0.00525   0.00481   2.08926
   A15        2.08967  -0.00022   0.00056  -0.00384  -0.00328   2.08638
   A16        2.07326   0.00052  -0.00013   0.00292   0.00267   2.07592
   A17        2.11180   0.00003   0.00022  -0.00056  -0.00045   2.11135
   A18        2.09757  -0.00054  -0.00012  -0.00144  -0.00168   2.09589
   A19        1.88986   0.00025   0.00305  -0.01119  -0.00821   1.88165
   A20        1.89607  -0.00021  -0.00024   0.00204   0.00185   1.89792
   A21        1.98801  -0.00273  -0.00247  -0.00834  -0.01086   1.97714
   A22        1.88189   0.00056  -0.00025   0.00727   0.00705   1.88893
   A23        1.90723   0.00045   0.00071  -0.00457  -0.00402   1.90321
   A24        1.89805   0.00183  -0.00081   0.01559   0.01485   1.91289
   A25        2.03536  -0.00188  -0.00245  -0.00083  -0.00326   2.03210
   A26        1.93834   0.00259  -0.00084   0.02274   0.02181   1.96015
   A27        1.94927   0.00005   0.00026  -0.00088  -0.00068   1.94859
   A28        1.81526  -0.00177   0.00210  -0.02483  -0.02266   1.79260
   A29        1.84012   0.00097   0.00104  -0.00206  -0.00100   1.83912
   A30        1.87374  -0.00003   0.00017   0.00397   0.00405   1.87779
   A31        2.13889  -0.00389  -0.00184  -0.00712  -0.00900   2.12989
   A32        2.01683   0.00288  -0.00073   0.02216   0.02141   2.03824
   A33        1.94407   0.00071   0.00077   0.00191   0.00261   1.94668
   A34        1.89611  -0.00106  -0.00172  -0.00193  -0.00368   1.89242
   A35        1.82782   0.00183   0.00216   0.00361   0.00575   1.83357
   A36        1.87945   0.00142   0.00274   0.00063   0.00332   1.88276
   A37        1.85930  -0.00205  -0.00152  -0.01204  -0.01359   1.84571
   A38        1.86804  -0.00108   0.00039  -0.01215  -0.01179   1.85626
   A39        2.12456   0.00074  -0.00231   0.02049   0.01816   2.14272
    D1       -0.00266   0.00008  -0.00015   0.00456   0.00440   0.00174
    D2        3.13550   0.00012  -0.00022   0.00677   0.00655  -3.14114
    D3       -3.13792   0.00000  -0.00008  -0.00019  -0.00027  -3.13818
    D4        0.00025   0.00003  -0.00015   0.00203   0.00188   0.00212
    D5        0.00745  -0.00012  -0.00002  -0.00588  -0.00590   0.00155
    D6       -3.13039  -0.00010  -0.00005  -0.00532  -0.00535  -3.13574
    D7       -3.14047  -0.00004  -0.00009  -0.00114  -0.00124   3.14148
    D8        0.00488  -0.00002  -0.00012  -0.00058  -0.00069   0.00419
    D9       -0.01050   0.00018  -0.00011   0.00963   0.00951  -0.00099
   D10       -3.13758   0.00021  -0.00075   0.01258   0.01183  -3.12576
   D11        3.13451   0.00015  -0.00004   0.00742   0.00738  -3.14130
   D12        0.00742   0.00018  -0.00068   0.01037   0.00969   0.01711
   D13        0.00083  -0.00009   0.00045  -0.00694  -0.00648  -0.00565
   D14       -3.13343   0.00001  -0.00009  -0.00038  -0.00045  -3.13387
   D15        3.13868  -0.00011   0.00048  -0.00750  -0.00702   3.13166
   D16        0.00443  -0.00002  -0.00006  -0.00094  -0.00099   0.00344
   D17        0.01850  -0.00038   0.00052  -0.02202  -0.02152  -0.00302
   D18        3.12412   0.00007  -0.00006   0.00732   0.00728   3.13140
   D19       -3.13760  -0.00040   0.00116  -0.02487  -0.02373   3.12185
   D20       -0.03198   0.00005   0.00058   0.00447   0.00507  -0.02691
   D21       -0.01372   0.00034  -0.00069   0.02075   0.02007   0.00635
   D22       -3.11965  -0.00012  -0.00012  -0.00836  -0.00849  -3.12814
   D23        3.12051   0.00025  -0.00015   0.01421   0.01408   3.13459
   D24        0.01459  -0.00021   0.00042  -0.01491  -0.01448   0.00011
   D25        1.17898  -0.00059   0.00129   0.00035   0.00161   1.18059
   D26       -0.89597   0.00108   0.00086   0.01607   0.01704  -0.87893
   D27       -2.98706  -0.00068   0.00104  -0.00382  -0.00281  -2.98987
   D28       -1.99908  -0.00011   0.00069   0.03019   0.03082  -1.96826
   D29        2.20916   0.00156   0.00027   0.04591   0.04625   2.25541
   D30        0.11806  -0.00020   0.00045   0.02602   0.02641   0.14447
   D31       -0.46157   0.00009  -0.00074  -0.02745  -0.02824  -0.48981
   D32       -2.93466   0.00013   0.00159  -0.05620  -0.05472  -2.98938
   D33       -2.50095  -0.00060  -0.00204  -0.03108  -0.03310  -2.53405
   D34        1.30915  -0.00056   0.00029  -0.05983  -0.05959   1.24956
   D35        1.66396  -0.00097   0.00065  -0.04695  -0.04618   1.61778
   D36       -0.80913  -0.00093   0.00298  -0.07571  -0.07266  -0.88179
   D37        1.10683  -0.00045   0.00132  -0.07423  -0.07294   1.03389
   D38        3.08818  -0.00236  -0.00019  -0.08706  -0.08727   3.00091
   D39       -0.91065   0.00062   0.00036  -0.05930  -0.05897  -0.96962
   D40       -3.03602   0.00036   0.00026  -0.06443  -0.06413  -3.10015
   D41       -1.05466  -0.00155  -0.00124  -0.07725  -0.07846  -1.13313
   D42        1.22969   0.00143  -0.00069  -0.04950  -0.05016   1.17954
   D43       -1.06694  -0.00001   0.00183  -0.07087  -0.06905  -1.13600
   D44        0.91441  -0.00192   0.00032  -0.08370  -0.08338   0.83103
   D45       -3.08442   0.00106   0.00087  -0.05594  -0.05508  -3.13950
   D46       -1.33116  -0.00021   0.00207  -0.01110  -0.00902  -1.34019
   D47        2.99148  -0.00084   0.00106  -0.00851  -0.00742   2.98406
   D48        0.69368   0.00034   0.00458  -0.01771  -0.01309   0.68059
   D49        1.16627   0.00057  -0.00070   0.02364   0.02290   1.18916
   D50       -0.79427  -0.00005  -0.00170   0.02623   0.02450  -0.76977
   D51       -3.09207   0.00113   0.00182   0.01702   0.01883  -3.07324
         Item               Value     Threshold  Converged?
 Maximum Force            0.005821     0.000450     NO 
 RMS     Force            0.001315     0.000300     NO 
 Maximum Displacement     0.264687     0.001800     NO 
 RMS     Displacement     0.069965     0.001200     NO 
 Predicted change in Energy=-6.657516D-04
 GradGradGradGradGradGradGradGradGradGradGradGradGradGradGradGradGradGrad

                          Input orientation:                          
 ---------------------------------------------------------------------
 Center     Atomic      Atomic             Coordinates (Angstroms)
 Number     Number       Type             X           Y           Z
 ---------------------------------------------------------------------
      1          6           0       -4.728454    3.118912   -3.721880
      2          6           0       -3.408049    3.144775   -3.265517
      3          6           0       -5.556096    2.047544   -3.381572
      4          6           0       -2.914668    2.106790   -2.475641
      5          6           0       -5.063020    1.010876   -2.587754
      6          6           0       -3.739053    1.026707   -2.130135
      7          6           0       -4.687380    2.222069    0.990291
      8          6           0       -3.216666   -0.109982   -1.287546
      9          7           0       -4.191860    0.860394    1.209074
     10          8           0       -2.522444   -1.004218    1.085964
     11          8           0       -1.851988    1.395426    0.456020
     12         16           0       -2.808324    0.287294    0.459084
     13          1           0       -5.108891    3.927520   -4.339700
     14          1           0       -2.757727    3.975088   -3.525555
     15          1           0       -6.582691    2.014694   -3.735504
     16          1           0       -1.893313    2.137584   -2.110959
     17          1           0       -5.709318    0.174341   -2.330945
     18          1           0       -3.831911    2.853257    0.746517
     19          1           0       -5.129905    2.589734    1.922721
     20          1           0       -5.424612    2.290318    0.181183
     21          1           0       -2.271991   -0.511625   -1.670575
     22          1           0       -3.931220   -0.936647   -1.237489
     23          1           0       -4.889455    0.130991    1.311188
 ---------------------------------------------------------------------
                    Distance matrix (angstroms):
                    1          2          3          4          5
     1  C    0.000000
     2  C    1.397286   0.000000
     3  C    1.395934   2.414848   0.000000
     4  C    2.422256   1.394540   2.793092   0.000000
     5  C    2.417021   2.784209   1.395690   2.414335   0.000000
     6  C    2.808894   2.425875   2.431018   1.401986   1.400912
     7  C    4.796934   4.538720   4.460753   3.894674   3.796117
     8  C    4.317087   3.813455   3.809566   2.533151   2.521089
     9  N    5.450059   5.084754   4.934014   4.094124   3.898393
    10  O    6.706866   6.077321   6.202836   4.745234   4.900137
    11  O    5.357174   4.396747   5.373341   3.198432   4.441078
    12  S    5.402354   4.732603   5.039779   3.454633   3.858815
    13  H    1.086407   2.158569   2.156922   3.406521   3.402680
    14  H    2.157625   1.086258   3.401033   2.148833   3.870452
    15  H    2.158165   3.402400   1.086390   3.879450   2.152760
    16  H    3.405304   2.154498   3.877956   1.084945   3.397624
    17  H    3.401072   3.872047   2.153180   3.400789   1.087862
    18  H    4.565187   4.044880   4.545669   3.432324   4.003419
    19  H    5.683548   5.494605   5.348938   4.948344   4.779295
    20  H    4.050322   4.083671   3.573437   3.659538   3.071601
    21  H    4.839717   4.147738   4.501356   2.813763   3.308938
    22  H    4.822379   4.587441   4.017799   3.439318   2.626221
    23  H    5.855371   5.676591   5.112688   4.705703   4.000759
                    6          7          8          9         10
     6  C    0.000000
     7  C    3.473511   0.000000
     8  C    1.508280   3.576311   0.000000
     9  N    3.373872   1.465457   2.850569   0.000000
    10  O    3.993506   3.886519   2.629668   2.505771   0.000000
    11  O    3.222603   3.001372   2.677429   2.515622   2.569948
    12  S    2.849043   2.748888   1.837196   1.674844   1.463800
    13  H    3.895298   5.612045   5.403479   6.406021   7.774933
    14  H    3.406339   5.214356   4.680502   5.845919   6.790799
    15  H    3.411686   5.095915   4.672994   5.612248   6.988991
    16  H    2.154338   4.175129   2.735110   4.235227   4.526262
    17  H    2.156107   4.033380   2.717138   3.912171   4.818759
    18  H    3.408817   1.090712   3.646467   2.077264   4.087792
    19  H    4.561049   1.095642   4.610289   2.092806   4.518353
    20  H    3.127302   1.096734   3.576819   2.149632   4.482765
    21  H    2.174841   4.515241   1.095646   3.722998   2.811385
    22  H    2.165295   3.938562   1.093832   3.046795   2.718023
    23  H    3.737437   2.125186   3.099953   1.014443   2.634799
                   11         12         13         14         15
    11  O    0.000000
    12  S    1.463744   0.000000
    13  H    6.325966   6.447650   0.000000
    14  H    4.829902   5.429524   2.488587   0.000000
    15  H    6.350742   5.901214   2.489186   4.303205   0.000000
    16  H    2.672431   3.296353   4.302452   2.474815   4.964324
    17  H    4.912965   4.026511   4.299066   4.958292   2.474361
    18  H    2.475834   2.777502   5.352973   4.545654   5.325269
    19  H    3.784485   3.582346   6.403752   6.101651   5.869989
    20  H    3.693239   3.306705   4.818557   4.867302   4.093599
    21  H    2.887154   2.336959   5.905780   4.879291   5.406325
    22  H    3.553835   2.374297   5.888187   5.544138   4.688368
    23  H    3.399458   2.254244   6.811338   6.535704   5.646635
                   16         17         18         19         20
    16  H    0.000000
    17  H    4.297047   0.000000
    18  H    3.526402   4.491327   0.000000
    19  H    5.191391   4.925801   1.771353   0.000000
    20  H    4.212756   3.296847   1.781348   1.791496   0.000000
    21  H    2.712129   3.566771   4.426976   5.540567   4.606399
    22  H    3.790371   2.364651   4.278962   4.884582   3.828336
    23  H    4.971355   3.733522   2.974557   2.545036   2.495195
                   21         22         23
    21  H    0.000000
    22  H    1.766706   0.000000
    23  H    4.019326   2.924691   0.000000
 Stoichiometry    C8H11NO2S
 Framework group  C1[X(C8H11NO2S)]
 Deg. of freedom    63
 Full point group                 C1      NOp   1
 Largest Abelian subgroup         C1      NOp   1
 Largest concise Abelian subgroup C1      NOp   1
                         Standard orientation:                         
 ---------------------------------------------------------------------
 Center     Atomic      Atomic             Coordinates (Angstroms)
 Number     Number       Type             X           Y           Z
 ---------------------------------------------------------------------
      1          6           0       -3.507041    0.168638   -0.312950
      2          6           0       -2.719506   -0.660298   -1.116107
      3          6           0       -3.002342    0.635411    0.901971
      4          6           0       -1.436136   -1.023719   -0.709131
      5          6           0       -1.716374    0.274609    1.307010
      6          6           0       -0.922140   -0.559987    0.510018
      7          6           0        0.842671    2.133598   -0.792027
      8          6           0        0.458902   -0.954525    0.970420
      9          7           0        1.796029    1.379227    0.026262
     10          8           0        3.062697   -0.656407    0.754708
     11          8           0        1.667760   -0.686608   -1.403502
     12         16           0        1.866817   -0.293778   -0.007577
     13          1           0       -4.507648    0.447386   -0.631331
     14          1           0       -3.104740   -1.027386   -2.063100
     15          1           0       -3.608158    1.275993    1.536703
     16          1           0       -0.822082   -1.655537   -1.342259
     17          1           0       -1.329754    0.634770    2.257931
     18          1           0        0.625761    1.541910   -1.682256
     19          1           0        1.314877    3.069902   -1.109498
     20          1           0       -0.096895    2.353641   -0.270852
     21          1           0        0.619598   -2.037286    0.923015
     22          1           0        0.646907   -0.637221    2.000197
     23          1           0        1.989008    1.741437    0.953979
 ---------------------------------------------------------------------
 Rotational constants (GHZ):      1.6459368      0.5219031      0.5066728
 Standard basis: 6-31G(d) (6D, 7F)
 There are   206 symmetry adapted basis functions of A   symmetry.
 Integral buffers will be    131072 words long.
 Raffenetti 2 integral format.
 Two-electron integral symmetry is turned on.
   206 basis functions,   404 primitive gaussians,   206 cartesian basis functions
    49 alpha electrons       49 beta electrons
       nuclear repulsion energy       840.0443467493 Hartrees.
 NAtoms=   23 NActive=   23 NUniq=   23 SFac= 1.00D+00 NAtFMM=   60 NAOKFM=F Big=F
 One-electron integrals computed using PRISM.
 NBasis=   206 RedAO= T  NBF=   206
 NBsUse=   206 1.00D-06 NBFU=   206
 Initial guess read from the read-write file.
 B after Tr=     0.000000    0.000000    0.000000
         Rot=    1.000000    0.000000    0.000000    0.000000 Ang=   0.00 deg.
 Initial guess orbital symmetries:
       Occupied  (A) (A) (A) (A) (A) (A) (A) (A) (A) (A) (A) (A)
                 (A) (A) (A) (A) (A) (A) (A) (A) (A) (A) (A) (A)
                 (A) (A) (A) (A) (A) (A) (A) (A) (A) (A) (A) (A)
                 (A) (A) (A) (A) (A) (A) (A) (A) (A) (A) (A) (A)
                 (A)
       Virtual   (A) (A) (A) (A) (A) (A) (A) (A) (A) (A) (A) (A)
                 (A) (A) (A) (A) (A) (A) (A) (A) (A) (A) (A) (A)
                 (A) (A) (A) (A) (A) (A) (A) (A) (A) (A) (A) (A)
                 (A) (A) (A) (A) (A) (A) (A) (A) (A) (A) (A) (A)
                 (A) (A) (A) (A) (A) (A) (A) (A) (A) (A) (A) (A)
                 (A) (A) (A) (A) (A) (A) (A) (A) (A) (A) (A) (A)
                 (A) (A) (A) (A) (A) (A) (A) (A) (A) (A) (A) (A)
                 (A) (A) (A) (A) (A) (A) (A) (A) (A) (A) (A) (A)
                 (A) (A) (A) (A) (A) (A) (A) (A) (A) (A) (A) (A)
                 (A) (A) (A) (A) (A) (A) (A) (A) (A) (A) (A) (A)
                 (A) (A) (A) (A) (A) (A) (A) (A) (A) (A) (A) (A)
                 (A) (A) (A) (A) (A) (A) (A) (A) (A) (A) (A) (A)
                 (A) (A) (A) (A) (A) (A) (A) (A) (A) (A) (A) (A)
                 (A)
 Harris functional with IExCor=  402 diagonalized for initial guess.
 ExpMin= 1.17D-01 ExpMax= 2.19D+04 ExpMxC= 3.30D+03 IAcc=3 IRadAn=         5 AccDes= 0.00D+00
 HarFok:  IExCor=  402 AccDes= 0.00D+00 IRadAn=         5 IDoV= 1
 ScaDFX=  1.000000  1.000000  1.000000  1.000000
 FoFCou: FMM=F IPFlag=           0 FMFlag=      100000 FMFlg1=           0
         NFxFlg=           0 DoJE=T BraDBF=F KetDBF=T FulRan=T
         Omega=  0.000000  0.000000  1.000000  0.000000  0.000000 ICntrl=     500 IOpCl=  0
         NMat0=    1 NMatS0=    1 NMatT0=    0 NMatD0=    1 NMtDS0=    0 NMtDT0=    0
         I1Cent=           4 NGrid=           0.
 Petite list used in FoFCou.
 Requested convergence on RMS density matrix=1.00D-08 within 128 cycles.
 Requested convergence on MAX density matrix=1.00D-06.
 Requested convergence on             energy=1.00D-06.
 No special actions if energy rises.
 Integral accuracy reduced to 1.0D-05 until final iterations.
 Initial convergence to 1.0D-05 achieved.  Increase integral accuracy.
 SCF Done:  E(RB3LYP) =  -914.794521131     A.U. after   12 cycles
             Convg  =    0.9211D-08             -V/T =  2.0071
 Calling FoFJK, ICntrl=      2127 FMM=F ISym2X=0 I1Cent= 0 IOpClX= 0 NMat=1 NMatS=1 NMatT=0.
 ***** Axes restored to original set *****
 -------------------------------------------------------------------
 Center     Atomic                   Forces (Hartrees/Bohr)
 Number     Number              X              Y              Z
 -------------------------------------------------------------------
      1        6           0.000088700   -0.000387721    0.000421605
      2        6          -0.000162015   -0.000163743    0.000177807
      3        6           0.000378393    0.000311477    0.000046812
      4        6          -0.000182040    0.000511154   -0.000801792
      5        6          -0.000191183   -0.000270684   -0.000090037
      6        6           0.000913733   -0.000929811    0.002178356
      7        6           0.000494170   -0.000119414    0.000517325
      8        6          -0.000578053   -0.000144191   -0.003005249
      9        7           0.000464607   -0.000070009   -0.002586494
     10        8           0.000936699    0.000083318    0.000020293
     11        8           0.002444734    0.000193282   -0.000262374
     12       16          -0.005222564    0.001163275    0.001770863
     13        1           0.000017510    0.000047338   -0.000125897
     14        1           0.000020658    0.000245008   -0.000151889
     15        1          -0.000178552    0.000095369   -0.000024840
     16        1           0.000437625   -0.000086352    0.000062654
     17        1          -0.000078813   -0.000087991   -0.000062578
     18        1          -0.000150236    0.000551496    0.000400756
     19        1          -0.000113662   -0.000393870   -0.000525091
     20        1           0.000333391   -0.000109499    0.000128836
     21        1           0.000161989    0.000273984   -0.000136813
     22        1           0.000378324   -0.000212523    0.000405953
     23        1          -0.000213412   -0.000499894    0.001641794
 -------------------------------------------------------------------
 Cartesian Forces:  Max     0.005222564 RMS     0.000997223

 GradGradGradGradGradGradGradGradGradGradGradGradGradGradGradGradGradGrad
 Berny optimization.
 Using GEDIIS/GDIIS optimizer.
 Internal  Forces:  Max     0.001818537 RMS     0.000487163
 Search for a local minimum.
 Step number   3 out of a maximum of  123
 All quantities printed in internal units (Hartrees-Bohrs-Radians)
 Mixed Optimization -- En-DIIS/RFO-DIIS
 Update second derivatives using D2CorX and points    1    2    3
 DE= -6.94D-04 DEPred=-6.66D-04 R= 1.04D+00
 SS=  1.41D+00  RLast= 2.68D-01 DXNew= 8.4853D-01 8.0392D-01
 Trust test= 1.04D+00 RLast= 2.68D-01 DXMaxT set to 8.04D-01
 ITU=  1  1  0
 Use linear search instead of GDIIS.
     Eigenvalues ---    0.00316   0.00627   0.00730   0.01474   0.01563
     Eigenvalues ---    0.01666   0.02082   0.02100   0.02114   0.02133
     Eigenvalues ---    0.02161   0.02166   0.02175   0.02185   0.03810
     Eigenvalues ---    0.05476   0.07178   0.07820   0.08241   0.09112
     Eigenvalues ---    0.10201   0.13063   0.13753   0.14778   0.15842
     Eigenvalues ---    0.15998   0.15999   0.16000   0.16000   0.16000
     Eigenvalues ---    0.16229   0.16919   0.18962   0.21999   0.22001
     Eigenvalues ---    0.22862   0.23100   0.23453   0.24654   0.25033
     Eigenvalues ---    0.26005   0.31671   0.34193   0.34238   0.34324
     Eigenvalues ---    0.34635   0.34727   0.34800   0.34862   0.34946
     Eigenvalues ---    0.34964   0.35000   0.36629   0.38560   0.41800
     Eigenvalues ---    0.41965   0.43570   0.45379   0.46123   0.46295
     Eigenvalues ---    0.46757   0.91017   0.93548
 RFO step:  Lambda=-3.52437618D-04 EMin= 3.16049637D-03
 Quartic linear search produced a step of  0.12831.
 Iteration  1 RMS(Cart)=  0.02895356 RMS(Int)=  0.00052290
 Iteration  2 RMS(Cart)=  0.00066459 RMS(Int)=  0.00005969
 Iteration  3 RMS(Cart)=  0.00000040 RMS(Int)=  0.00005969
 Variable       Old X    -DE/DX   Delta X   Delta X   Delta X     New X
                                 (Linear)    (Quad)   (Total)
[...]
 87167,0.00244147,-0.01638444,-0.01372387,0.00542728,0.00081605,0.00003
 147,0.00002141,0.00219810,0.00011381,0.00530134,-0.00000329,-0.0000522
 4,-0.00001209,-0.00103377,-0.00039309,0.00011560,-0.00004800,0.0000636
 5,0.00009893,0.00006682,-0.00003539,0.00026684,0.00013961,0.00018738,0
 .00012037,-0.00012368,-0.00029434,-0.00064116,0.00025101,-0.00042287,-
 0.00204354,0.14056507,0.21295857,-0.00592005,-0.00764179,0.00564175,0.
 04393768,0.06810407,-0.06607361,-0.00311443,0.00274147,0.00429619,0.01
 245503,0.01270126,-0.00190329,-0.00060408,0.00002481,-0.00046613,-0.00
 336491,0.00482439,0.00340381,-0.00000350,0.00007263,-0.00001740,0.0006
 8476,0.00068944,0.00005435,0.00003915,-0.00010188,-0.00006356,-0.00002
 291,-0.00004469,-0.00014457,-0.00007634,-0.00017196,-0.00013710,0.0000
 4767,0.00029554,0.00043618,0.00116367,-0.00189459,-0.00232249,-0.04603
 828,-0.07671153,0.06034187,-0.01442798,0.00260459,-0.00645493,0.000097
 21,-0.00415557,0.00063422,-0.31615628,-0.00075228,-0.07956718,0.000616
 77,-0.00015460,0.00037369,-0.00679726,-0.00152735,-0.00159249,0.001899
 60,0.00092200,-0.00218028,-0.00001680,0.00006032,0.00001108,-0.0003222
 7,-0.00035113,0.00004728,0.00013651,-0.00005826,-0.00008707,0.00000519
 ,0.00007245,-0.00023555,-0.00001078,-0.00006795,-0.00015575,-0.0001398
 9,0.00014467,0.00052462,0.00066438,0.00039910,0.00105205,-0.00081788,0
 .00014605,-0.00041282,0.33485296,-0.02347091,0.00457064,-0.00801072,-0
 .00305064,-0.00166932,0.00453758,-0.00081807,-0.05397718,0.01114056,-0
 .00009410,-0.00108486,0.00038472,0.02461365,0.00368697,0.00607674,-0.0
 0013067,-0.00146447,0.00556205,0.00000613,-0.00000062,0.00000218,0.001
 04993,0.00041288,0.00021232,-0.00008662,0.00000387,0.00002756,-0.00000
 477,-0.00003852,0.00019583,0.00003533,0.00008245,0.00007043,0.00008213
 ,-0.00023273,-0.00036050,0.00100105,-0.00026985,-0.00195892,-0.0012989
 7,0.00018939,-0.00028229,0.00166744,0.05039634,0.00984238,-0.00053546,
 0.00562479,-0.00005010,0.00424571,0.00433495,-0.07956631,0.01117771,-0
 .06524088,0.00039604,0.00039842,-0.00055710,-0.01784851,-0.00146249,-0
 .00199505,-0.00138169,0.00557068,0.00328262,-0.00002851,0.00008846,-0.
 00001132,-0.00095244,0.00003096,0.00003057,0.00016691,-0.00007207,-0.0
 0007725,0.00005684,-0.00002882,-0.00015613,0.00002153,-0.00008247,-0.0
 0010854,-0.00023348,0.00023776,0.00052197,0.00067332,-0.00214033,-0.00
 235894,0.00049429,0.00011987,0.00038342,0.08722020,-0.01498909,0.05971
 959,0.00170168,0.00087621,-0.00230181,-0.00591254,-0.00171800,-0.00190
 069,0.00059159,-0.00008275,0.00032159,-0.31670917,-0.00112650,-0.08125
 034,0.00031431,-0.00391002,0.00066826,-0.01521045,0.00225367,-0.006589
 59,-0.00002357,0.00005296,-0.00001708,0.00060692,0.00158718,0.00042525
 ,0.00033569,0.00011677,0.00006820,0.00020426,0.00032306,0.00024433,0.0
 0071334,0.00114722,-0.00108545,-0.00131040,-0.00194812,0.00009807,-0.0
 0039485,-0.00014010,-0.00003236,0.00058435,0.00081645,0.00094561,-0.00
 013671,0.00019688,0.00021227,0.33504027,0.00006079,-0.00175390,0.00568
 239,0.02464832,0.00418480,0.00652699,-0.00014938,-0.00099223,0.0003459
 2,-0.00112436,-0.05507713,0.01046692,-0.00307399,-0.00193799,0.0042180
 0,-0.02308769,0.00351779,-0.00695112,0.00000165,0.00012552,-0.00005096
 ,-0.00074006,0.00060389,-0.00236503,0.00023409,-0.00011955,-0.00009843
 ,0.00003824,-0.00007481,-0.00027462,0.00006427,-0.00035438,-0.00023743
 ,-0.00048783,0.00047944,0.00089247,0.00131075,0.00007400,0.00038045,0.
 00026995,-0.00031257,-0.00223511,0.00019596,-0.00016844,-0.00061585,0.
 00229365,0.05207650,-0.00150155,0.00563498,0.00322865,-0.01717953,-0.0
 0104200,-0.00164176,0.00029065,0.00021341,-0.00041487,-0.08368833,0.01
 064442,-0.06655553,0.00000950,0.00420604,0.00354951,0.00968223,-0.0008
 5414,0.00584958,0.00003420,-0.00004828,-0.00001731,0.00034967,-0.00133
 804,-0.00245644,-0.00031023,-0.00023467,-0.00004867,-0.00024615,-0.000
 38156,-0.00023975,-0.00081979,-0.00093342,-0.00013026,0.00147356,0.002
 30838,0.00001180,-0.00086906,0.00003002,-0.00003715,0.00110598,-0.0020
 5429,-0.00231362,0.00020026,-0.00059603,-0.00077738,0.09044275,-0.0154
 3894,0.06107957,0.00025417,0.00129994,-0.00276505,-0.00044534,0.000766
 15,-0.00049674,0.01090924,0.00974951,-0.00370191,-0.00461695,0.0010049
 0,-0.00372372,-0.16444041,-0.12787120,0.04424054,-0.01482095,-0.023392
 68,0.00965384,0.00008591,-0.00025407,-0.00001694,0.00074850,-0.0014899
 8,0.00189313,0.00027239,0.00019560,0.00043971,0.00009593,0.00003583,0.
 00007219,0.00024480,0.00035857,0.00005284,-0.00064021,-0.00033450,-0.0
 0043699,0.00043855,0.00054936,-0.00026759,0.00003924,0.00004036,0.0003
 3069,0.00062643,0.00023344,0.00110797,-0.00075665,-0.00136297,0.000534
 01,0.17193568,0.00240025,-0.00022048,0.00533474,0.00070200,0.00006244,
 -0.00005750,-0.01651069,-0.01331676,0.00549801,0.00008499,0.00278295,0
 .00213533,-0.12855597,-0.20316144,0.06837785,0.00163307,0.00199174,0.0
 0086773,-0.00000286,-0.00011706,-0.00012909,0.00170717,0.00009164,-0.0
 0195762,0.00076038,-0.00005769,0.00039155,0.00012283,-0.00005790,-0.00
 039143,0.00018004,-0.00006260,-0.00023489,-0.00118374,0.00064266,0.000
 57366,-0.00089534,-0.00075638,0.00033705,0.00003795,-0.00034423,-0.000
 54483,0.00080779,-0.00030424,-0.00206516,-0.00000017,0.00033586,0.0002
 0129,0.13890426,0.21241896,-0.00337059,0.00491056,0.00309826,-0.000430
 77,-0.00007092,-0.00040810,0.01239622,0.01251248,-0.00190705,-0.003034
 93,0.00249527,0.00370460,0.04483166,0.06947610,-0.06598666,-0.00545652
 ,-0.00706068,0.00544874,0.00006743,-0.00015432,-0.00011054,0.00061658,
 -0.00179855,-0.00266066,0.00056309,0.00006281,0.00020538,0.00018060,-0
 .00007540,-0.00020877,0.00024889,-0.00003491,-0.00018538,-0.00147174,0
 .00041096,0.00019354,0.00057468,0.00074928,-0.00001590,0.00032417,-0.0
 0053678,-0.00079361,0.00078890,-0.00218019,-0.00228185,-0.00042562,-0.
 00018509,0.00051588,-0.04641634,-0.07827084,0.06081398,0.00012485,0.00
 018114,0.00000818,0.00004250,-0.00022547,-0.00000133,-0.00021490,0.000
 18598,0.00007171,-0.00019147,-0.00012780,-0.00003384,0.00005625,-0.000
 01937,0.00025303,0.00034925,0.00018788,0.00011503,-0.05514414,-0.01927
 344,0.03103854,0.00017213,-0.00003339,0.00001868,0.00116199,0.00710641
 ,-0.00611243,-0.00030352,-0.00015920,0.00030390,-0.00027632,-0.0007447
 8,0.00037128,0.00062739,0.00189794,-0.00168753,-0.00001308,-0.00000316
 ,-0.00002406,-0.00001785,0.00000831,0.00001432,-0.00003714,-0.00001930
 ,-0.00007384,-0.00007637,0.00001559,0.00005329,-0.00002718,-0.00011486
 ,-0.00006053,0.05260415,0.00007386,-0.00006990,-0.00009963,-0.00005306
 ,-0.00002930,-0.00011917,-0.00009494,0.00028993,-0.00014546,0.00016923
 ,0.00039652,-0.00002884,-0.00052085,0.00004736,0.00019171,0.00038295,-
 0.00026765,0.00031936,-0.01452288,-0.10679512,0.10638138,0.00020233,-0
 .00026967,0.00005741,-0.00568740,-0.02553672,0.02848303,0.00108930,-0.
 00011298,-0.00093990,0.00053801,0.00081059,-0.00061285,-0.00265980,-0.
 00119541,0.00348006,0.00000060,-0.00002045,0.00003823,-0.00002416,-0.0
 0001915,0.00003571,0.00001817,-0.00000991,0.00000200,-0.00003260,-0.00
 001419,0.00000835,0.00001394,-0.00006961,-0.00003823,0.01581621,0.1278
 8487,0.00002047,0.00011475,-0.00001845,0.00003426,-0.00001478,-0.00000
 590,-0.00009759,-0.00002654,0.00003847,0.00010689,-0.00012764,-0.00018
 895,0.00006664,-0.00031029,-0.00035065,0.00005317,-0.00007937,-0.00053
 606,0.02981574,0.11604736,-0.26678660,-0.00028126,-0.00008982,0.000368
 97,-0.00285446,-0.00308641,0.00988456,-0.00034729,-0.00010644,-0.00000
 759,0.00024451,-0.00129259,0.00015340,0.00227281,0.00115028,0.00017299
 ,0.00000037,-0.00000783,0.00002601,-0.00001875,-0.00000730,0.00002776,
 0.00001253,0.00000609,0.00001958,-0.00003869,0.00002499,0.00003892,-0.
 00001229,0.00002082,0.00002491,-0.03370819,-0.12173892,0.28044234,-0.0
 0001407,-0.00001965,-0.00000725,-0.00000254,-0.00000544,0.00000150,-0.
 00001057,0.00003165,-0.00004579,0.00004279,0.00001311,0.00000688,-0.00
 001593,0.00001609,0.00004683,-0.00000581,-0.00003273,0.00001933,-0.143
 39897,-0.06349298,-0.10922300,-0.00042728,-0.00017047,0.00001636,0.007
 64656,0.00654280,0.00907086,-0.00002237,-0.00045770,-0.00006115,-0.000
 39491,-0.00006252,-0.00058460,0.00262911,0.00175124,0.00180145,-0.0000
 0475,0.00000414,-0.00000267,0.00000605,0.00000263,-0.00000184,0.000003
 52,-0.00000048,0.00001579,-0.00001645,-0.00000323,0.00002272,-0.000005
 06,0.00002587,0.00000467,0.00328260,0.00246287,0.00422309,0.14744036,-
 0.00001643,0.00008125,-0.00004103,-0.00000217,0.00003460,-0.00001977,-
 0.00002130,0.00008894,-0.00000301,-0.00003202,0.00006395,-0.00002190,-
 0.00015111,-0.00000213,0.00012791,0.00015969,-0.00020810,0.00020654,-0
 .06045078,-0.09047498,-0.07058766,0.00119048,-0.00017995,0.00011744,-0
 .00826379,-0.02988031,-0.02480848,0.00090940,-0.00011553,0.00003088,0.
 00134483,0.00194817,0.00071924,-0.01043872,-0.00091177,0.00073129,0.00
 000061,0.00000694,-0.00001048,-0.00000169,0.00001217,-0.00000844,-0.00
 001668,-0.00000016,-0.00002787,-0.00001209,-0.00001816,0.00000708,0.00
 007078,-0.00001064,0.00003349,0.00966270,0.00840892,0.00994099,0.06597
 643,0.10869254,0.00000916,-0.00001985,0.00003426,-0.00001568,-0.000004
 12,0.00002226,0.00009996,-0.00009823,0.00005759,-0.00011598,-0.0000694
 0,-0.00001432,0.00016485,-0.00004929,-0.00014127,-0.00015869,0.0000593
 1,-0.00014422,-0.10678166,-0.07104857,-0.18370059,0.00038513,0.0001940
 4,0.00002378,0.00323254,-0.00636131,0.00196863,0.00071406,0.00020771,-
 0.00023641,0.00030817,0.00217641,0.00067396,-0.00441187,-0.00224946,0.
 00038129,-0.00000040,0.00001127,-0.00001188,0.00001545,0.00001511,-0.0
 0002585,-0.00000390,0.00000696,0.00000813,0.00004536,-0.00001207,-0.00
 002703,0.00001263,0.00003456,0.00004157,-0.01823475,-0.01125375,-0.018
 59031,0.11807045,0.08307511,0.19089846,-0.00001843,-0.00004023,0.00000
 297,0.00004089,0.00000459,0.00000628,0.00000112,0.00001064,-0.00003528
 ,0.00005113,0.00007158,-0.00000624,-0.00008570,-0.00004340,0.00003818,
 -0.00001852,0.00000859,0.00009359,-0.30066635,0.01074024,0.06770199,-0
 .00002603,0.00009274,-0.00007345,-0.00544109,0.00432853,0.00305017,-0.
 00021885,0.00055968,-0.00009486,-0.00021606,0.00091055,0.00042419,0.00
 189937,-0.00131573,-0.00133331,0.00000380,-0.00000812,0.00001253,-0.00
 000095,-0.00000810,0.00000165,0.00002155,-0.00000131,0.00002642,0.0000
 2247,0.00000427,-0.00002216,-0.00000556,0.00002333,-0.00001036,-0.0017
 5138,-0.00072338,0.00022548,-0.01638846,0.00013782,0.00571627,0.322757
 43,-0.00003497,0.00003890,-0.00005260,-0.00003448,0.00003574,0.0000014
 9,-0.00001569,0.00004245,-0.00001765,-0.00001620,0.00010709,0.00001252
 ,-0.00002789,0.00012406,-0.00000747,0.00006205,-0.00022086,0.00002908,
 0.00462871,-0.04779085,-0.00051207,0.00070556,0.00018746,0.00001922,0.
 03715294,-0.01066963,-0.01486833,0.00244159,-0.00192905,0.00019425,0.0
 0013807,0.00252171,0.00009656,-0.00273747,-0.00627282,0.00123082,-0.00
 000228,-0.00000331,0.00000089,0.00000204,0.00000986,-0.00001346,-0.000
 00574,0.00001531,-0.00000702,0.00000344,-0.00003692,-0.00001033,0.0000
 1748,-0.00003541,-0.00001770,-0.01585908,0.00188961,0.00213500,-0.0115
 7585,0.00186491,0.00526366,-0.01510649,0.05895480,-0.00000904,0.000073
 40,0.00001103,-0.00000846,-0.00007244,0.00004297,-0.00000965,0.0000117
 5,0.00005911,-0.00008709,-0.00013934,-0.00010889,0.00011991,0.00004490
 ,-0.00001737,0.00006675,0.00004307,-0.00014575,0.06711167,-0.00436285,
 -0.07005146,0.00014760,0.00009449,-0.00001964,0.00521227,-0.00079730,-
 0.00152250,0.00022631,-0.00009699,0.00003313,0.00020242,0.00013578,0.0
 0038353,-0.00203539,-0.00008445,0.00042360,-0.00000287,0.00000167,-0.0
 0001799,-0.00000412,0.00000764,-0.00000367,-0.00003336,-0.00000268,-0.
 00005994,-0.00002117,-0.00000305,0.00001508,-0.00000386,-0.00009114,-0
 .00003215,0.02807880,-0.00283706,-0.00558717,-0.02303847,0.00203179,0.
 00807908,-0.07562424,0.00605275,0.06819831,0.00045998,0.00007920,0.000
 05675,-0.00025702,0.00022240,-0.00091080,-0.00022627,-0.00055164,-0.00
 027081,0.00078786,-0.00229840,0.00063373,0.00005201,0.00212244,-0.0005
 0515,-0.00851811,0.00284043,0.00034212,0.00019061,0.00020282,0.0000019
 1,-0.27923286,0.06626528,0.06747154,0.00112676,0.00015833,-0.00069934,
 0.00057557,-0.00084674,0.00026753,0.00051752,0.00037954,-0.00033690,0.
 00011545,-0.00088508,-0.00070273,-0.00000015,0.00012940,0.00011801,-0.
 00000626,0.00004850,0.00001984,-0.00006568,0.00011836,-0.00009620,0.00
 027845,0.00060703,0.00040180,0.00023939,0.00012653,0.00026820,-0.00003
 293,-0.00005322,0.00000041,-0.00008308,0.00004498,0.00003123,0.0000259
 1,-0.00006262,0.00000254,0.29912618,0.00006874,-0.00020398,-0.00005778
 ,-0.00000476,0.00023078,0.00008169,0.00052165,0.00063346,0.00048777,0.
 00088739,0.00150234,0.00014471,-0.00023045,-0.00299480,0.00140781,0.02
 227991,-0.00593393,-0.00522066,0.00015974,0.00003866,0.00005923,0.0672
 4035,-0.07023021,-0.01809060,0.00043443,0.00095292,-0.00124637,-0.0006
 2827,-0.00000312,0.00056104,-0.00149732,0.00011708,0.00070895,0.008789
 16,-0.00313477,-0.00554332,-0.00005904,0.00001098,-0.00000248,-0.00003
 316,0.00002535,-0.00002763,0.00006620,-0.00015668,0.00021785,-0.000683
 52,-0.00050760,-0.00010647,0.00024133,0.00002042,-0.00015567,-0.000012
 16,0.00002023,0.00002239,0.00001779,0.00001715,-0.00002554,-0.00000186
 ,-0.00006870,-0.00001052,-0.07449320,0.07089417,-0.00042214,-0.0000390
 0,0.00002065,-0.00000942,-0.00033227,-0.00013130,-0.00042402,0.0000651
 7,-0.00116665,-0.00051237,-0.00085726,0.00016847,0.00004978,0.00290749
 ,-0.00086746,-0.02029502,0.00734296,0.00503975,-0.00003688,0.00103509,
 -0.00087290,0.06825706,-0.02076704,-0.06212074,0.00254441,-0.00075866,
 -0.00562247,-0.00313404,0.00151006,0.00119449,-0.00333725,0.00071233,0
 .00132473,0.03012956,-0.00905796,-0.01012216,0.00000416,0.00006522,0.0
 0003976,0.00003364,0.00001904,-0.00000473,-0.00010391,0.00014170,-0.00
 025738,0.00034437,0.00006278,0.00030301,0.00002107,0.00018205,0.000314
 97,-0.00007980,-0.00010108,0.00008163,0.00011195,-0.00045285,-0.000108
 07,0.00003089,-0.00025022,-0.00007646,-0.07122919,0.01879284,0.0730751
 7,0.00006119,0.00015090,0.00001227,0.00044374,0.00015887,-0.00031764,0
 .00009576,-0.00005775,0.00040670,-0.00086394,0.00115957,-0.00138667,0.
 00087299,0.00151190,-0.00063366,0.00770564,0.01034166,0.00117104,0.000
 19704,-0.00011202,0.00001399,-0.15170342,-0.13284837,-0.00470383,0.000
 05520,0.00037922,-0.00003423,0.00021948,0.00148520,-0.00001051,0.00159
 863,0.00030176,-0.00059775,-0.00253291,-0.00202748,0.00202671,0.000017
 58,-0.00006844,-0.00004438,-0.00004615,0.00009918,-0.00009025,0.000017
 24,-0.00004181,0.00001286,0.00014880,0.00026688,0.00004632,-0.00014385
 ,-0.00026026,-0.00018086,0.00000014,0.00000637,-0.00001718,-0.00001113
 ,0.00005163,0.00002882,0.00001017,0.00000755,0.00001673,-0.01526059,-0
 .02323363,-0.00259279,0.15905884,0.00034484,0.00017607,-0.00007226,-0.
 00129681,0.00001906,0.00017372,0.00009463,-0.00007232,0.00037197,0.002
 94244,-0.00236208,0.00218207,-0.00199884,0.00141237,-0.00082884,-0.014
 10707,-0.01756453,-0.00006775,0.00014377,-0.00033048,0.00021214,-0.131
 82400,-0.22428695,-0.00413829,0.00072838,0.00128438,0.00036172,0.00135
 177,0.00142530,0.00093449,-0.00041146,0.00047785,-0.00167295,-0.006224
 83,-0.00887687,-0.00121742,0.00008661,0.00001041,-0.00004930,0.0001330
 8,-0.00025330,0.00019805,0.00001144,0.00000297,-0.00003613,0.00001882,
 0.00000507,-0.00024770,0.00121466,0.00016691,-0.00006962,-0.00004397,0
 .00003998,-0.00001888,-0.00003344,0.00019551,0.00005079,-0.00000199,0.
 00002654,-0.00000379,0.00607146,0.00917808,0.00119329,0.14272651,0.239
 37867,0.00014585,0.00007765,0.00008082,0.00058269,0.00053295,-0.000576
 30,0.00000789,-0.00009735,-0.00009184,-0.00274659,0.00279510,-0.001009
 69,0.00137310,-0.00020367,-0.00001810,0.01184228,0.01652640,0.00041273
 ,-0.00011116,0.00001870,0.00034342,-0.00333463,-0.00563584,-0.04346491
 ,0.00095074,0.00239106,0.00003323,0.00245070,0.00261955,0.00088886,-0.
 00242878,-0.00422361,-0.00786260,-0.02018778,-0.02605562,-0.00169365,-
 0.00006250,0.00001792,0.00002038,-0.00006650,0.00018092,-0.00031443,-0
 .00002564,-0.00000245,-0.00002544,-0.00014694,-0.00012066,0.00007342,-
 0.00050171,-0.00018385,0.00030304,-0.00004461,0.00000162,-0.00007344,-
 0.00017899,0.00021160,0.00012684,0.00003355,0.00005662,0.00002023,0.00
 526424,0.00841199,0.00096639,0.00690754,0.00286811,0.05193116,0.000107
 15,0.00000104,0.00001210,-0.00008453,0.00003849,-0.00004691,0.00001447
 ,-0.00010653,0.00008397,-0.00008506,-0.00020445,0.00002545,0.00016864,
 0.00015252,-0.00004527,-0.00000890,-0.00012349,-0.00069146,0.00270020,
 0.00340304,-0.00964725,-0.00220620,0.00209159,-0.00067305,-0.04635195,
 -0.02422534,0.06953010,0.00447132,-0.00037449,-0.00481375,-0.00696751,
 -0.00055786,-0.00209760,-0.01513682,-0.01906493,0.03604806,-0.00000073
 ,0.00000268,0.00000149,-0.00000546,0.00000317,0.00000934,-0.00001269,0
 .00001332,-0.00001574,0.00000504,0.00001806,-0.00001015,0.00001193,0.0
 0000742,-0.00000683,-0.00033496,0.00359845,0.00029931,-0.00024964,-0.0
 0014257,0.00088884,0.00000355,0.00031935,-0.00030731,0.00018725,0.0001
 7069,0.00064991,0.00005955,0.00007398,0.00027723,0.06371534,-0.0000241
 6,0.00005483,-0.00002693,-0.00001630,-0.00001112,-0.00001730,-0.000025
 45,-0.00000066,-0.00000289,-0.00006266,0.00002332,-0.00001480,0.000110
 39,0.00015628,0.00002719,0.00013628,-0.00043652,0.00056442,-0.00695152
 ,-0.01777649,0.02804367,0.00380690,-0.00122528,-0.00060685,-0.02962498
 ,-0.16152930,0.16466126,-0.00000055,-0.00296689,-0.00037677,0.00052563
 ,0.00062737,0.00043675,-0.00344167,0.00799991,-0.00663676,-0.00001004,
 0.00000890,-0.00001355,0.00000355,0.00002079,-0.00000918,-0.00002662,0
 .00001616,-0.00002664,-0.00003246,-0.00003500,0.00003190,0.00000926,0.
 00000084,-0.00000205,0.00157382,-0.00537792,-0.00255587,-0.00099013,0.
 00038665,0.00009666,0.00035806,0.00120911,0.00000436,-0.00022578,-0.00
 040782,-0.00141366,0.00000258,-0.00005261,-0.00018713,0.03490585,0.179
 31547,-0.00002513,0.00000407,-0.00000139,0.00002934,-0.00003179,0.0000
 1731,-0.00006178,-0.00000581,0.00001078,-0.00004432,0.00004579,-0.0000
 3136,0.00017619,0.00016581,0.00001897,0.00000410,-0.00036514,0.0005110
 8,-0.00428753,-0.00944430,0.00578578,0.00386604,-0.00023920,0.00002223
 ,0.10133518,0.19063908,-0.28398678,-0.00261168,-0.00049666,0.00134476,
 -0.00367917,-0.00127483,0.00055672,-0.00432911,0.00520821,-0.00961067,
 -0.00000453,-0.00000622,-0.00000229,-0.00000315,0.00000401,-0.00000127
 ,-0.00001196,0.00001816,-0.00001842,-0.00000632,-0.00001254,-0.0000056
 5,-0.00001549,-0.00002828,-0.00007420,-0.00026586,-0.00108398,0.000865
 57,-0.00026811,-0.00125186,0.00068408,-0.00016426,0.00066399,0.0003769
 2,-0.00012872,-0.00040927,-0.00117870,-0.00003324,-0.00012340,-0.00007
 012,-0.08947048,-0.18197584,0.28478666\\-0.00000158,-0.00000040,0.0000
 0059,0.00000180,-0.00000063,0.00000113,0.00000036,0.00000301,-0.000000
 73,0.00000042,0.00000103,-0.00000067,0.00000045,-0.00000058,0.00000103
 ,-0.00000175,0.00000072,-0.00000049,0.00000185,0.00000108,-0.00000102,
 -0.00000047,-0.00000212,-0.00000161,-0.00000161,0.00000055,0.00000012,
 -0.00000013,-0.00000149,-0.00000034,0.00000211,0.00000125,0.00000039,-
 0.00000030,-0.00000284,-0.00000048,0.00000087,0.00000143,0.00000077,0.
 00000031,0.00000024,0.00000004,-0.00000018,0.00000140,0.00000067,0.000
 00006,-0.00000097,-0.00000010,-0.00000068,0.00000105,-0.00000019,0.000
 00025,-0.00000018,0.00000039,0.00000048,-0.00000149,0.00000069,0.00000
 020,0.00000044,0.00000093,-0.00000111,-0.00000056,-0.00000107,-0.00000
 115,0.00000018,-0.00000019,-0.00000020,-0.00000113,0.00000014\\\@


 IT IS UNWORTHY OF EXCELLENT MEN TO LOSE HOURS LIKE SLAVES IN THE LABOR
 OF CALCULATION WHICH COULD BE SAFELY RELEGATED TO ANYONE ELSE
 IF A MACHINE WERE USED.
    -- G.W. VON LEIBNIZ
 Job cpu time:  0 days  1 hours 34 minutes 27.7 seconds.
 File lengths (MBytes):  RWF=    136 Int=      0 D2E=      0 Chk=      4 Scr=      1
 Normal termination of Gaussian 09 at Fri Feb 16 20:46:51 2018.
