 Entering Gaussian System, Link 0=g09
 Initial command:
 /home/fb_chem/chemsoft/lx24-amd64/Gaussian_09_C.01_NBO_3.1_64_istanbul-64/g09/l1.exe /local/2400082.1.parallel/Gau-3089.inp -scrdir=/local/2400082.1.parallel/
 Entering Link 1 = /home/fb_chem/chemsoft/lx24-amd64/Gaussian_09_C.01_NBO_3.1_64_istanbul-64/g09/l1.exe PID=      3090.
  
 Copyright (c) 1988,1990,1992,1993,1995,1998,2003,2009,2011,
            Gaussian, Inc.  All Rights Reserved.
  
 This is part of the Gaussian(R) 09 program.  It is based on
 the Gaussian(R) 03 system (copyright 2003, Gaussian, Inc.),
 the Gaussian(R) 98 system (copyright 1998, Gaussian, Inc.),
 the Gaussian(R) 94 system (copyright 1995, Gaussian, Inc.),
 the Gaussian 92(TM) system (copyright 1992, Gaussian, Inc.),
 the Gaussian 90(TM) system (copyright 1990, Gaussian, Inc.),
 the Gaussian 88(TM) system (copyright 1988, Gaussian, Inc.),
 the Gaussian 86(TM) system (copyright 1986, Carnegie Mellon
 University), and the Gaussian 82(TM) system (copyright 1983,
 Carnegie Mellon University). Gaussian is a federally registered
 trademark of Gaussian, Inc.
  
 This software contains proprietary and confidential information,
 including trade secrets, belonging to Gaussian, Inc.
  
 This software is provided under written license and may be
 used, copied, transmitted, or stored only in accord with that
 written license.
  
 The following legend is applicable only to US Government
 contracts under FAR:
  
                    RESTRICTED RIGHTS LEGEND
  
 Use, reproduction and disclosure by the US Government is
 subject to restrictions as set forth in subparagraphs (a)
 and (c) of the Commercial Computer Software - Restricted
 Rights clause in FAR 52.227-19.
  
 Gaussian, Inc.
 340 Quinnipiac St., Bldg. 40, Wallingford CT 06492
  
  
 ---------------------------------------------------------------
 Warning -- This program may not be used in any manner that
 competes with the business of Gaussian, Inc. or will provide
 assistance to any competitor of Gaussian, Inc.  The licensee
 of this program is prohibited from giving any competitor of
 Gaussian, Inc. access to this program.  By using this program,
 the user acknowledges that Gaussian, Inc. is engaged in the
 business of creating and licensing software in the field of
 computational chemistry and represents and warrants to the
 licensee that it is not a competitor of Gaussian, Inc. and that
 it will not use this program in any manner prohibited above.
 ---------------------------------------------------------------
  

 Cite this work as:
 Gaussian 09, Revision C.01,
 M. J. Frisch, G. W. Trucks, H. B. Schlegel, G. E. Scuseria, 
 M. A. Robb, J. R. Cheeseman, G. Scalmani, V. Barone, B. Mennucci, 
 G. A. Petersson, H. Nakatsuji, M. Caricato, X. Li, H. P. Hratchian, 
 A. F. Izmaylov, J. Bloino, G. Zheng, J. L. Sonnenberg, M. Hada, 
 M. Ehara, K. Toyota, R. Fukuda, J. Hasegawa, M. Ishida, T. Nakajima, 
 Y. Honda, O. Kitao, H. Nakai, T. Vreven, J. A. Montgomery, Jr., 
 J. E. Peralta, F. Ogliaro, M. Bearpark, J. J. Heyd, E. Brothers, 
 K. N. Kudin, V. N. Staroverov, T. Keith, R. Kobayashi, J. Normand, 
 K. Raghavachari, A. Rendell, J. C. Burant, S. S. Iyengar, J. Tomasi, 
 M. Cossi, N. Rega, J. M. Millam, M. Klene, J. E. Knox, J. B. Cross, 
 V. Bakken, C. Adamo, J. Jaramillo, R. Gomperts, R. E. Stratmann, 
 O. Yazyev, A. J. Austin, R. Cammi, C. Pomelli, J. W. Ochterski, 
 R. L. Martin, K. Morokuma, V. G. Zakrzewski, G. A. Voth, 
 P. Salvador, J. J. Dannenberg, S. Dapprich, A. D. Daniels, 
 O. Farkas, J. B. Foresman, J. V. Ortiz, J. Cioslowski, 
 and D. J. Fox, Gaussian, Inc., Wallingford CT, 2010.
 
 ******************************************
 Gaussian 09:  AM64L-G09RevC.01 23-Sep-2011
                17-Feb-2018 
 ******************************************
 %nprocs=2
 Will use up to    2 processors via shared memory.
 %chk=frag45-conf1.chk
 ----------------------------------------------------------------------
 #HF/6-31G* Geom=AllCheck Guess=Read Pop=(MK,ReadRadii) Integral=(Grid=
 UltraFine) iop(6/33=2)
 ----------------------------------------------------------------------
 1/29=7,38=1/1;
 2/12=2,40=1/2;
 3/5=1,6=6,7=1,11=9,14=-4,16=1,25=1,30=1,75=-5,116=-2/1,2,3;
 4/5=1/1;
 5/5=2,38=6/2;
 6/7=2,8=2,9=2,10=2,15=8,20=101,28=1,33=2/1,2;
 99/5=1,9=1/99;
 Structure from the checkpoint file:  frag45-conf1.chk
 -----------------------------
 Optimization for frag45-conf1
 -----------------------------
 Charge =  0 Multiplicity = 1
 Redundant internal coordinates found in file.
 C,0,2.1262840746,-1.2802540821,-0.131798734
 C,0,1.0060278031,-0.6042334147,0.3491258228
 C,0,2.8603764724,-1.6306004673,2.1509586152
 C,0,1.7388286281,-0.9571175011,2.6511550277
 C,0,3.0482283418,-1.788479966,0.7795323372
 C,0,0.8177218838,-0.4472411631,1.7215894703
 C,0,-0.4040721485,-1.2427006256,5.5887233341
 C,0,-1.467487616,-2.2570342211,5.9826360334
 C,0,1.5632709934,-0.8180597221,4.1489221808
 N,0,0.5068706942,-1.6793419988,4.6611926602
 O,0,-0.3728562023,-0.1151611197,6.0624881803
 Cl,0,4.4687192265,-2.6412886504,0.196204083
 Cl,0,-0.6031433916,0.4274693978,2.2675705364
 H,0,2.2793550976,-1.4052962617,-1.1981206405
 H,0,0.2783282856,-0.1932634536,-0.342361765
 H,0,3.5946982785,-2.0308016604,2.8431768483
 H,0,-1.4810060092,-2.3480268487,7.0724769184
 H,0,-2.4461009485,-1.8759384548,5.6736371841
 H,0,-1.3204880922,-3.2484064796,5.5422873245
 H,0,2.5185880048,-1.0442507303,4.6410618065
 H,0,1.2827594083,0.2002833677,4.4311430921
 H,0,0.4493845603,-2.626085273,4.3147477564
 Recover connectivity data from disk.
                          Input orientation:                          
 ---------------------------------------------------------------------
 Center     Atomic      Atomic             Coordinates (Angstroms)
 Number     Number       Type             X           Y           Z
 ---------------------------------------------------------------------
      1          6           0        2.126284   -1.280254   -0.131799
      2          6           0        1.006028   -0.604233    0.349126
      3          6           0        2.860376   -1.630600    2.150959
      4          6           0        1.738829   -0.957118    2.651155
      5          6           0        3.048228   -1.788480    0.779532
      6          6           0        0.817722   -0.447241    1.721589
      7          6           0       -0.404072   -1.242701    5.588723
      8          6           0       -1.467488   -2.257034    5.982636
      9          6           0        1.563271   -0.818060    4.148922
     10          7           0        0.506871   -1.679342    4.661193
     11          8           0       -0.372856   -0.115161    6.062488
     12         17           0        4.468719   -2.641289    0.196204
     13         17           0       -0.603143    0.427469    2.267571
     14          1           0        2.279355   -1.405296   -1.198121
     15          1           0        0.278328   -0.193263   -0.342362
     16          1           0        3.594698   -2.030802    2.843177
     17          1           0       -1.481006   -2.348027    7.072477
     18          1           0       -2.446101   -1.875938    5.673637
     19          1           0       -1.320488   -3.248406    5.542287
     20          1           0        2.518588   -1.044251    4.641062
     21          1           0        1.282759    0.200283    4.431143
     22          1           0        0.449385   -2.626085    4.314748
 ---------------------------------------------------------------------
                    Distance matrix (angstroms):
                    1          2          3          4          5
     1  C    0.000000
     2  C    1.394011   0.000000
     3  C    2.423348   2.781841   0.000000
     4  C    2.828316   2.441488   1.400587   0.000000
     5  C    1.392408   2.399640   1.393206   2.430774   0.000000
     6  C    2.416877   1.394189   2.399403   1.404458   2.767951
     7  C    6.255277   5.463461   4.756608   3.647313   5.945130
     8  C    7.159302   6.370751   5.814171   4.803021   6.905326
     9  C    4.342255   3.846387   2.516856   1.514419   3.807834
    10  N    5.074893   4.472017   3.441314   2.465680   4.640872
    11  O    6.780290   5.897713   5.296264   4.099426   6.512560
    12  Cl   2.728920   4.020350   2.725678   4.039247   1.756516
    13  Cl   4.015354   2.708186   4.030536   2.747554   4.522964
    14  H    1.084485   2.158017   3.406564   3.912794   2.156179
    15  H    2.154258   1.084711   3.866466   3.417262   3.387582
    16  H    3.401476   3.867377   1.085613   2.152655   2.148483
    17  H    8.127378   7.377642   6.601791   5.643585   7.773558
    18  H    7.413814   6.471850   6.374022   5.243402   7.358503
    19  H    6.924530   6.274811   5.621213   4.792501   6.625776
    20  H    4.794768   4.571889   2.580938   2.139006   3.968099
    21  H    4.870725   4.169735   3.322688   2.171620   4.517336
    22  H    4.939132   4.485966   3.389079   2.686198   4.466914
                    6          7          8          9         10
     6  C    0.000000
     7  C    4.132827   0.000000
     8  C    5.162756   1.521477   0.000000
     9  C    2.566183   2.474629   3.823435   0.000000
    10  N    3.202494   1.371417   2.445001   1.456094   0.000000
    11  O    4.513442   1.223427   2.406702   2.811475   2.276886
    12  Cl   4.524426   7.401311   8.298735   5.233524   6.046297
    13  Cl   1.755583   3.722788   4.664264   3.127967   3.376420
    14  H    3.402785   7.299895   8.144173   5.426646   6.127671
    15  H    2.148335   6.061746   6.878417   4.713075   5.224578
    16  H    3.387805   4.914193   5.960966   2.702297   3.600470
    17  H    6.126103   2.140808   1.093716   4.489498   3.195792
    18  H    5.320939   2.139645   1.094714   4.418023   3.127896
    19  H    5.197711   2.205636   1.094685   4.020462   2.564670
    20  H    3.431135   3.078861   4.377153   1.098178   2.109681
    21  H    2.824399   2.503517   4.001175   1.093324   2.046440
    22  H    3.406979   2.065225   2.567576   2.130070   1.009778
                   11         12         13         14         15
    11  O    0.000000
    12  Cl   8.014703   0.000000
    13  Cl   3.840427   6.279461   0.000000
    14  H    7.836780   2.874915   4.866091   0.000000
    15  H    6.438342   4.882853   2.823836   2.491075   0.000000
    16  H    5.456659   2.853607   4.898601   4.295750   4.952021
    17  H    2.689566   9.097712   5.617931   9.134103   7.919476
    18  H    2.747706   8.854534   4.505937   8.352993   6.815141
    19  H    3.314490   7.903425   4.974979   7.860600   6.820499
    20  H    3.353224   5.109824   4.188631   5.855223   5.529688
    21  H    2.345603   6.013284   2.879113   5.937988   4.893885
    22  H    3.167873   5.754797   3.823996   5.935557   5.257048
                   16         17         18         19         20
    16  H    0.000000
    17  H    6.614407   0.000000
    18  H    6.672836   1.763811   0.000000
    19  H    5.738189   1.782675   1.779867   0.000000
    20  H    2.315963   4.858844   5.138682   4.517634   0.000000
    21  H    3.583914   4.594445   4.445097   4.461502   1.766410
    22  H    3.523192   3.377691   3.285291   2.242005   2.624935
                   21         22
    21  H    0.000000
    22  H    2.948970   0.000000
 Stoichiometry    C9H9Cl2NO
 Framework group  C1[X(C9H9Cl2NO)]
 Deg. of freedom    60
 Full point group                 C1      NOp   1
 Largest Abelian subgroup         C1      NOp   1
 Largest concise Abelian subgroup C1      NOp   1
                         Standard orientation:                         
 ---------------------------------------------------------------------
 Center     Atomic      Atomic             Coordinates (Angstroms)
 Number     Number       Type             X           Y           Z
 ---------------------------------------------------------------------
      1          6           0       -2.671558    1.064294    0.440334
      2          6           0       -1.489826    1.801688    0.385328
      3          6           0       -1.469407   -0.871408   -0.384593
      4          6           0       -0.272693   -0.146056   -0.442767
      5          6           0       -2.649381   -0.272459    0.051235
      6          6           0       -0.308918    1.201842   -0.049875
      7          6           0        3.265719   -0.869048    0.066953
      8          6           0        4.082239   -1.141451    1.321538
      9          6           0        0.991943   -0.836490   -0.909094
     10          7           0        1.917229   -1.088199    0.186670
     11          8           0        3.779300   -0.474263   -0.970907
     12         17           0       -4.127135   -1.220189    0.109526
     13         17           0        1.144280    2.184807   -0.113650
     14          1           0       -3.593840    1.524815    0.777121
     15          1           0       -1.484778    2.846617    0.676357
     16          1           0       -1.476441   -1.913777   -0.687864
     17          1           0        4.899787   -1.822584    1.068776
     18          1           0        4.531255   -0.201384    1.657779
     19          1           0        3.501647   -1.568938    2.145251
     20          1           0        0.720207   -1.775993   -1.408583
     21          1           0        1.542308   -0.228632   -1.632258
     22          1           0        1.544695   -1.432620    1.059736
 ---------------------------------------------------------------------
 Rotational constants (GHZ):      1.1279966      0.3086723      0.2601556
 Standard basis: 6-31G(d) (6D, 7F)
 There are   221 symmetry adapted basis functions of A   symmetry.
 Integral buffers will be    131072 words long.
 Raffenetti 1 integral format.
 Two-electron integral symmetry is turned on.
   221 basis functions,   448 primitive gaussians,   221 cartesian basis functions
    56 alpha electrons       56 beta electrons
       nuclear repulsion energy       936.4963436320 Hartrees.
 NAtoms=   22 NActive=   22 NUniq=   22 SFac= 1.00D+00 NAtFMM=   60 NAOKFM=F Big=F
 One-electron integrals computed using PRISM.
 NBasis=   221 RedAO= T  NBF=   221
 NBsUse=   221 1.00D-06 NBFU=   221
 Initial guess read from the checkpoint file:  frag45-conf1.chk
 B after Tr=     0.000000    0.000000    0.000000
         Rot=    1.000000    0.000000    0.000000    0.000000 Ang=   0.00 deg.
 Initial guess orbital symmetries:
       Occupied  (A) (A) (A) (A) (A) (A) (A) (A) (A) (A) (A) (A)
                 (A) (A) (A) (A) (A) (A) (A) (A) (A) (A) (A) (A)
                 (A) (A) (A) (A) (A) (A) (A) (A) (A) (A) (A) (A)
                 (A) (A) (A) (A) (A) (A) (A) (A) (A) (A) (A) (A)
                 (A) (A) (A) (A) (A) (A) (A) (A)
       Virtual   (A) (A) (A) (A) (A) (A) (A) (A) (A) (A) (A) (A)
                 (A) (A) (A) (A) (A) (A) (A) (A) (A) (A) (A) (A)
                 (A) (A) (A) (A) (A) (A) (A) (A) (A) (A) (A) (A)
                 (A) (A) (A) (A) (A) (A) (A) (A) (A) (A) (A) (A)
                 (A) (A) (A) (A) (A) (A) (A) (A) (A) (A) (A) (A)
                 (A) (A) (A) (A) (A) (A) (A) (A) (A) (A) (A) (A)
                 (A) (A) (A) (A) (A) (A) (A) (A) (A) (A) (A) (A)
                 (A) (A) (A) (A) (A) (A) (A) (A) (A) (A) (A) (A)
                 (A) (A) (A) (A) (A) (A) (A) (A) (A) (A) (A) (A)
                 (A) (A) (A) (A) (A) (A) (A) (A) (A) (A) (A) (A)
                 (A) (A) (A) (A) (A) (A) (A) (A) (A) (A) (A) (A)
                 (A) (A) (A) (A) (A) (A) (A) (A) (A) (A) (A) (A)
                 (A) (A) (A) (A) (A) (A) (A) (A) (A) (A) (A) (A)
                 (A) (A) (A) (A) (A) (A) (A) (A) (A)
 Requested convergence on RMS density matrix=1.00D-08 within 128 cycles.
 Requested convergence on MAX density matrix=1.00D-06.
 Requested convergence on             energy=1.00D-06.
 No special actions if energy rises.
 SCF Done:  E(RHF) =  -1394.34557590     A.U. after   14 cycles
             Convg  =    0.4181D-08             -V/T =  2.0012

 **********************************************************************

            Population analysis using the SCF density.

 **********************************************************************

 Orbital symmetries:
 BldTbl:  Degeneracy threshold= 1.00D-02
       Occupied  (A) (A) (A) (A) (A) (A) (A) (A) (A) (A) (A) (A)
                 (A) (A) (A) (A) (A) (A) (A) (A) (A) (A) (A) (A)
                 (A) (A) (A) (A) (A) (A) (A) (A) (A) (A) (A) (A)
                 (A) (A) (A) (A) (A) (A) (A) (A) (A) (A) (A) (A)
                 (A) (A) (A) (A) (A) (A) (A) (A)
       Virtual   (A) (A) (A) (A) (A) (A) (A) (A) (A) (A) (A) (A)
                 (A) (A) (A) (A) (A) (A) (A) (A) (A) (A) (A) (A)
                 (A) (A) (A) (A) (A) (A) (A) (A) (A) (A) (A) (A)
                 (A) (A) (A) (A) (A) (A) (A) (A) (A) (A) (A) (A)
                 (A) (A) (A) (A) (A) (A) (A) (A) (A) (A) (A) (A)
                 (A) (A) (A) (A) (A) (A) (A) (A) (A) (A) (A) (A)
                 (A) (A) (A) (A) (A) (A) (A) (A) (A) (A) (A) (A)
                 (A) (A) (A) (A) (A) (A) (A) (A) (A) (A) (A) (A)
                 (A) (A) (A) (A) (A) (A) (A) (A) (A) (A) (A) (A)
                 (A) (A) (A) (A) (A) (A) (A) (A) (A) (A) (A) (A)
                 (A) (A) (A) (A) (A) (A) (A) (A) (A) (A) (A) (A)
                 (A) (A) (A) (A) (A) (A) (A) (A) (A) (A) (A) (A)
                 (A) (A) (A) (A) (A) (A) (A) (A) (A) (A) (A) (A)
                 (A) (A) (A) (A) (A) (A) (A) (A) (A)
 The electronic state is 1-A.
 Alpha  occ. eigenvalues -- -104.83958-104.83489 -20.52213 -15.59570 -11.35673
 Alpha  occ. eigenvalues --  -11.32369 -11.32254 -11.28368 -11.28053 -11.27319
 Alpha  occ. eigenvalues --  -11.27248 -11.27198 -11.24091 -10.57258 -10.56785
 Alpha  occ. eigenvalues --   -8.04195  -8.03861  -8.03858  -8.03721  -8.03385
 Alpha  occ. eigenvalues --   -8.03382  -1.37512  -1.23886  -1.21023  -1.16448
 Alpha  occ. eigenvalues --   -1.10219  -1.07010  -1.01330  -0.98728  -0.93871
 Alpha  occ. eigenvalues --   -0.85709  -0.81292  -0.79383  -0.70438  -0.69668
 Alpha  occ. eigenvalues --   -0.67826  -0.65688  -0.64984  -0.62385  -0.59956
 Alpha  occ. eigenvalues --   -0.58879  -0.58110  -0.57564  -0.56450  -0.55310
 Alpha  occ. eigenvalues --   -0.54068  -0.51923  -0.51415  -0.50307  -0.46612
 Alpha  occ. eigenvalues --   -0.45941  -0.45591  -0.42036  -0.39442  -0.36378
 Alpha  occ. eigenvalues --   -0.33980
 Alpha virt. eigenvalues --    0.10362   0.10830   0.17109   0.19756   0.20847
 Alpha virt. eigenvalues --    0.21718   0.25523   0.27136   0.27508   0.30307
 Alpha virt. eigenvalues --    0.31031   0.31443   0.31861   0.32664   0.33409
 Alpha virt. eigenvalues --    0.38789   0.39950   0.41482   0.42471   0.43851
 Alpha virt. eigenvalues --    0.47219   0.47362   0.48623   0.54655   0.57443
 Alpha virt. eigenvalues --    0.58807   0.59910   0.61298   0.61858   0.62625
 Alpha virt. eigenvalues --    0.63538   0.64515   0.68670   0.69647   0.72532
 Alpha virt. eigenvalues --    0.74293   0.74637   0.75092   0.78701   0.79333
 Alpha virt. eigenvalues --    0.79685   0.80512   0.82224   0.82469   0.84230
 Alpha virt. eigenvalues --    0.84892   0.87083   0.88590   0.89786   0.93541
 Alpha virt. eigenvalues --    0.95806   0.96120   0.98196   0.98309   0.99558
 Alpha virt. eigenvalues --    1.01086   1.05167   1.06034   1.07131   1.07962
 Alpha virt. eigenvalues --    1.09691   1.11282   1.11340   1.13158   1.14135
 Alpha virt. eigenvalues --    1.14653   1.15547   1.15620   1.16766   1.17686
 Alpha virt. eigenvalues --    1.18459   1.19245   1.21218   1.21889   1.22060
 Alpha virt. eigenvalues --    1.23031   1.24817   1.27928   1.29638   1.32245
 Alpha virt. eigenvalues --    1.34461   1.35860   1.38758   1.39642   1.41810
 Alpha virt. eigenvalues --    1.45437   1.47443   1.50493   1.53763   1.54857
 Alpha virt. eigenvalues --    1.58552   1.61370   1.62933   1.65775   1.67573
 Alpha virt. eigenvalues --    1.69238   1.70556   1.72879   1.75191   1.78589
 Alpha virt. eigenvalues --    1.82316   1.83036   1.86439   1.95165   2.01195
 Alpha virt. eigenvalues --    2.04163   2.05217   2.06768   2.08894   2.10849
 Alpha virt. eigenvalues --    2.11558   2.15095   2.19300   2.21891   2.22880
 Alpha virt. eigenvalues --    2.25148   2.29543   2.30054   2.34924   2.36724
 Alpha virt. eigenvalues --    2.37515   2.40557   2.42275   2.44913   2.47958
 Alpha virt. eigenvalues --    2.53327   2.53970   2.55474   2.56912   2.58830
 Alpha virt. eigenvalues --    2.62573   2.65220   2.68321   2.70572   2.73419
 Alpha virt. eigenvalues --    2.76823   2.84600   2.91368   2.93588   2.95636
 Alpha virt. eigenvalues --    3.02506   3.02633   3.04886   3.07165   3.07914
 Alpha virt. eigenvalues --    3.12140   3.19240   3.26461   3.35645   3.40225
 Alpha virt. eigenvalues --    3.51177   3.69602   4.35447   4.45524   4.46761
 Alpha virt. eigenvalues --    4.49428   4.52572   4.59435   4.64442   4.71647
 Alpha virt. eigenvalues --    4.74618   4.78187   4.82943   4.92942   5.09769
          Condensed to atoms (all electrons):
              1          2          3          4          5          6
     1  C    4.940651   0.526259  -0.049102  -0.025674   0.528994  -0.040013
     2  C    0.526259   4.958033  -0.034477  -0.049626  -0.038273   0.520580
     3  C   -0.049102  -0.034477   4.985594   0.541533   0.513866  -0.039564
     4  C   -0.025674  -0.049626   0.541533   4.957230  -0.037395   0.501928
     5  C    0.528994  -0.038273   0.513866  -0.037395   5.034579  -0.037179
     6  C   -0.040013   0.520580  -0.039564   0.501928  -0.037179   5.087365
     7  C    0.000000  -0.000006  -0.000090   0.002891   0.000001   0.000086
     8  C    0.000000   0.000000  -0.000003  -0.000098   0.000000  -0.000017
     9  C    0.000073   0.002154  -0.033948   0.319568   0.002924  -0.042418
    10  N    0.000022  -0.000080  -0.001228  -0.059755  -0.000070   0.000039
    11  O    0.000000   0.000000  -0.000008   0.000451   0.000000   0.000001
    12  Cl  -0.063276   0.002662  -0.064776   0.002534   0.217407   0.000144
    13  Cl   0.002558  -0.070622   0.002036  -0.070629   0.000159   0.228959
    14  H    0.380971  -0.025153   0.002083   0.000145  -0.027517   0.002203
    15  H   -0.024960   0.381177   0.000229   0.001565   0.002215  -0.027099
    16  H    0.002099   0.000069   0.379977  -0.028721  -0.027461   0.002879
    17  H    0.000000   0.000000   0.000000  -0.000002   0.000000   0.000000
    18  H    0.000000   0.000000   0.000000   0.000011   0.000000   0.000000
    19  H    0.000000   0.000000   0.000000  -0.000030   0.000000  -0.000003
    20  H   -0.000022  -0.000028  -0.002411  -0.058426   0.000338   0.004099
    21  H    0.000003   0.000017   0.001585  -0.032471  -0.000048  -0.005328
    22  H   -0.000014  -0.000039   0.001353  -0.000179  -0.000010   0.000772
              7          8          9         10         11         12
     1  C    0.000000   0.000000   0.000073   0.000022   0.000000  -0.063276
     2  C   -0.000006   0.000000   0.002154  -0.000080   0.000000   0.002662
     3  C   -0.000090  -0.000003  -0.033948  -0.001228  -0.000008  -0.064776
     4  C    0.002891  -0.000098   0.319568  -0.059755   0.000451   0.002534
     5  C    0.000001   0.000000   0.002924  -0.000070   0.000000   0.217407
     6  C    0.000086  -0.000017  -0.042418   0.000039   0.000001   0.000144
     7  C    4.142575   0.359046  -0.025927   0.270178   0.588800   0.000000
     8  C    0.359046   5.251925   0.004517  -0.103391  -0.069116   0.000000
     9  C   -0.025927   0.004517   4.930460   0.181416   0.000660  -0.000090
    10  N    0.270178  -0.103391   0.181416   7.378337  -0.095993   0.000001
    11  O    0.588800  -0.069116   0.000660  -0.095993   8.179366   0.000000
    12  Cl   0.000000   0.000000  -0.000090   0.000001   0.000000  16.896944
    13  Cl  -0.000041  -0.000059  -0.001547  -0.001346   0.000112   0.000004
    14  H    0.000000   0.000000   0.000003   0.000000   0.000000   0.000437
    15  H    0.000000   0.000000  -0.000083   0.000002   0.000000  -0.000075
    16  H    0.000002   0.000000  -0.003005   0.000112   0.000000   0.000438
    17  H   -0.027970   0.380864  -0.000123   0.001985   0.000825   0.000000
    18  H   -0.026435   0.379771  -0.000090   0.001106   0.000387   0.000000
    19  H   -0.038470   0.373464   0.000056   0.005228   0.002534   0.000000
    20  H   -0.000249  -0.000079   0.417825  -0.045489   0.000589  -0.000011
    21  H   -0.000993   0.000486   0.408841  -0.041371   0.010021   0.000001
    22  H   -0.013485   0.000103  -0.021749   0.315530   0.002117   0.000000
             13         14         15         16         17         18
     1  C    0.002558   0.380971  -0.024960   0.002099   0.000000   0.000000
     2  C   -0.070622  -0.025153   0.381177   0.000069   0.000000   0.000000
     3  C    0.002036   0.002083   0.000229   0.379977   0.000000   0.000000
     4  C   -0.070629   0.000145   0.001565  -0.028721  -0.000002   0.000011
     5  C    0.000159  -0.027517   0.002215  -0.027461   0.000000   0.000000
     6  C    0.228959   0.002203  -0.027099   0.002879   0.000000   0.000000
     7  C   -0.000041   0.000000   0.000000   0.000002  -0.027970  -0.026435
     8  C   -0.000059   0.000000   0.000000   0.000000   0.380864   0.379771
     9  C   -0.001547   0.000003  -0.000083  -0.003005  -0.000123  -0.000090
    10  N   -0.001346   0.000000   0.000002   0.000112   0.001985   0.001106
    11  O    0.000112   0.000000   0.000000   0.000000   0.000825   0.000387
    12  Cl   0.000004   0.000437  -0.000075   0.000438   0.000000   0.000000
    13  Cl  16.883847  -0.000078   0.000638  -0.000073   0.000001   0.000059
    14  H   -0.000078   0.426128  -0.001603  -0.000097   0.000000   0.000000
    15  H    0.000638  -0.001603   0.425092   0.000008   0.000000   0.000000
    16  H   -0.000073  -0.000097   0.000008   0.431802   0.000000   0.000000
    17  H    0.000001   0.000000   0.000000   0.000000   0.477771  -0.019387
    18  H    0.000059   0.000000   0.000000   0.000000  -0.019387   0.475708
    19  H    0.000000   0.000000   0.000000   0.000000  -0.023302  -0.022743
    20  H    0.000403   0.000000   0.000001   0.002724   0.000016  -0.000004
    21  H   -0.002125   0.000000   0.000000   0.000007  -0.000013   0.000003
    22  H   -0.000141   0.000000   0.000000   0.000044  -0.000029   0.000034
             19         20         21         22
     1  C    0.000000  -0.000022   0.000003  -0.000014
     2  C    0.000000  -0.000028   0.000017  -0.000039
     3  C    0.000000  -0.002411   0.001585   0.001353
     4  C   -0.000030  -0.058426  -0.032471  -0.000179
     5  C    0.000000   0.000338  -0.000048  -0.000010
     6  C   -0.000003   0.004099  -0.005328   0.000772
     7  C   -0.038470  -0.000249  -0.000993  -0.013485
     8  C    0.373464  -0.000079   0.000486   0.000103
     9  C    0.000056   0.417825   0.408841  -0.021749
    10  N    0.005228  -0.045489  -0.041371   0.315530
    11  O    0.002534   0.000589   0.010021   0.002117
    12  Cl   0.000000  -0.000011   0.000001   0.000000
    13  Cl   0.000000   0.000403  -0.002125  -0.000141
    14  H    0.000000   0.000000   0.000000   0.000000
    15  H    0.000000   0.000001   0.000000   0.000000
    16  H    0.000000   0.002724   0.000007   0.000044
    17  H   -0.023302   0.000016  -0.000013  -0.000029
    18  H   -0.022743  -0.000004   0.000003   0.000034
    19  H    0.535765  -0.000009  -0.000024   0.001430
    20  H   -0.000009   0.517420  -0.025058   0.000372
    21  H   -0.000024  -0.025058   0.424324   0.002690
    22  H    0.001430   0.000372   0.002690   0.324306
 Mulliken atomic charges:
              1
     1  C   -0.178569
     2  C   -0.172649
     3  C   -0.202649
     4  C    0.035148
     5  C   -0.132530
     6  C   -0.157436
     7  C    0.770087
     8  C   -0.577413
     9  C   -0.139516
    10  N   -0.805234
    11  O   -0.620746
    12  Cl   0.007656
    13  Cl   0.027885
    14  H    0.242479
    15  H    0.242893
    16  H    0.239197
    17  H    0.209366
    18  H    0.211581
    19  H    0.166103
    20  H    0.187999
    21  H    0.259454
    22  H    0.386896
 Sum of Mulliken atomic charges =   0.00000
 Mulliken charges with hydrogens summed into heavy atoms:
              1
     1  C    0.063910
     2  C    0.070244
     3  C    0.036547
     4  C    0.035148
     5  C   -0.132530
     6  C   -0.157436
     7  C    0.770087
     8  C    0.009637
     9  C    0.307936
    10  N   -0.418338
    11  O   -0.620746
    12  Cl   0.007656
    13  Cl   0.027885
 Sum of Mulliken charges with hydrogens summed into heavy atoms =   0.00000
 DipInt: DoE/N= T F RetVal/Mat= T F Init=T NMatP=  1 IDeriv=0 Min/MaxMlt=  0  4
 Entering OneElI...
 OneElI was handed    33426689 working-precision words.
 Multipole integrals L=0 to 4 MinM= 0 MaxM= 0.
 Requested accuracy = 0.1000D-12
 PrsmSu:  NPrtUS=   1 ThrOK=F IAlg=1 NPAlg=1 LenDen=           0.
 Prism:   IPart=     0 DynPar=F LinDyn=F Incr=          22.
 PRISM was handed    33209730 working-precision words and  2251 shell-pairs
 IPart=  0 NShTot=        2251 NBatch=          63 AvBLen=        35.7
 PrSmSu:  NxtVal=             23.
 Electronic moments (au):
       -112.00000000         -0.72102568         -0.39400353          1.18283785
      -2980.84492076       -771.28159472       -223.24098284         -6.26292727
          7.68993743          0.28827578        809.10309320      -1147.87912594
        -81.43283455        -59.72235517       3822.58567091      -1067.07117403
       -723.22045477        211.29439124       -126.58641320        427.75452130
    -151542.67571697     -10940.60473069      -1724.15498111      -1566.71182877
      -3171.08278326      -1286.77954417         68.03971979       -963.98927825
        232.26409539     -15476.39099942      -7858.10794224      -1285.66982761
       2364.95320232       -298.20242475       1510.71690629
 Electronic spatial extent (au):  <R**2>=           3975.3675
 DipInt: DoE/N= F T RetVal/Mat= T F Init=T NMatP=  1 IDeriv=0 Min/MaxMlt=  0  4
 Nuclear    moments (au):
        112.00000000          0.00000000          0.00000000          0.00000000
       2904.40510738        708.27244127        155.77087608          0.00000000
          0.00000000          0.00000000       -824.39603110       1146.64161922
         82.36882823         60.80449291      -3808.40624769       1140.37092819
        728.44606421       -216.70023679        133.34853537       -446.31352975
     140759.07638210       8346.18451983        935.68300122       1415.95309485
       3586.80509195       1274.24434708        -29.73619208        966.28042860
       -246.38580399      13455.38096458       5926.40150712        716.58460312
      -2394.22371979        287.49378880      -1502.74234177
 Total      moments (au):
          0.00000000         -0.72102568         -0.39400353          1.18283785
        -76.43981338        -63.00915344        -67.47010676         -6.26292727
          7.68993743          0.28827578        -15.29293790         -1.23750672
          0.93599368          1.08213775         14.17942322         73.29975416
          5.22560944         -5.40584555          6.76212217        -18.55900846
     -10783.59933487      -2594.42021086       -788.47197989       -150.75873392
        415.72230869        -12.53519709         38.30352771          2.29115035
        -14.12170860      -2021.01003484      -1931.70643512       -569.08522449
        -29.27051747        -10.70863594          7.97456452
 Traceless Quadrup. (au):
         -7.46678885          5.96387108          1.50291777         -6.26292727
          7.68993743          0.28827578
 Charge=              0.0000 electrons
 Dipole moment (field-independent basis, Debye):
    X=             -1.8327    Y=             -1.0015    Z=              3.0065  Tot=              3.6607
 Quadrupole moment (field-independent basis, Debye-Ang):
   XX=           -102.8142   YY=            -84.7495   ZZ=            -90.7496
   XY=             -8.4239   XZ=             10.3432   YZ=              0.3877
 Traceless Quadrupole moment (field-independent basis, Debye-Ang):
   XX=            -10.0431   YY=              8.0216   ZZ=              2.0215
   XY=             -8.4239   XZ=             10.3432   YZ=              0.3877
 Octapole moment (field-independent basis, Debye-Ang**2):
  XXX=            -10.8849  YYY=             -0.8808  ZZZ=              0.6662  XYY=              0.7702
  XXY=             10.0924  XXZ=             52.1719  XZZ=              3.7194  YZZ=             -3.8477
  YYZ=              4.8130  XYZ=            -13.2096
 Hexadecapole moment (field-independent basis, Debye-Ang**3):
 XXXX=          -4061.6203 YYYY=           -977.1830 ZZZZ=           -296.9763 XXXY=            -56.7830
 XXXZ=            156.5809 YYYX=             -4.7214 YYYZ=             14.4269 ZZZX=              0.8630
 ZZZY=             -5.3189 XXYY=           -761.2092 XXZZ=           -727.5732 YYZZ=           -214.3448
 XXYZ=            -11.0247 YYXZ=             -4.0334 ZZXY=              3.0036
 N-N= 9.364963436320D+02 E-N=-5.170835015868D+03  KE= 1.392743396284D+03
 Entering OneElI...
 OneElI was handed    33328236 working-precision words.
 Calculate electrostatic properties
    NBasis =   221  MinDer = 0  MaxDer = 0
    NGrid  =    22  NMatD  =   1
 Requested accuracy = 0.1000D-12
 PrsmSu:  NPrtUS=   2 ThrOK=T IAlg=1 NPAlg=1 LenDen=           0.
 Prism:   IPart=     0 DynPar=F LinDyn=F Incr=         225.
 PRISM was handed    16529434 working-precision words and  2050 shell-pairs
 PRISM was handed    16529434 working-precision words and  2050 shell-pairs
 IPart=  1 NShTot=       22264 NBatch=        1012 AvBLen=        22.0
 IPart=  0 NShTot=       22836 NBatch=        1038 AvBLen=        22.0
 PrSmSu:  NxtVal=            451.
 --------------------------------------------------------
       Center         ----      EFG at Nuclei      ----
                      3XX-RR        3YY-RR        3ZZ-RR
 --------------------------------------------------------
     1   Atom        0.152751      0.101124     -0.253875
     2   Atom        0.134135      0.128535     -0.262670
     3   Atom        0.133078      0.109552     -0.242630
     4   Atom        0.157726      0.102789     -0.260516
     5   Atom       -0.106725      0.156741     -0.050015
     6   Atom       -0.091523      0.135333     -0.043810
     7   Atom        0.147943     -0.461441      0.313498
     8   Atom        0.011490      0.033776     -0.045266
     9   Atom       -0.052250      0.126897     -0.074648
    10   Atom       -0.481860      0.850406     -0.368546
    11   Atom        1.120187     -0.708983     -0.411205
    12   Atom       -2.064959      0.269438      1.795521
    13   Atom       -1.848241      0.090444      1.757797
    14   Atom       -0.180480      0.060924      0.119556
    15   Atom        0.141890     -0.272044      0.130153
    16   Atom        0.139499     -0.267886      0.128387
    17   Atom       -0.098422     -0.022568      0.120990
    18   Atom        0.076324     -0.179407      0.103083
    19   Atom        0.012252      0.089029     -0.101281
    20   Atom        0.108392     -0.168201      0.059808
    21   Atom        0.043219      0.010197     -0.053417
    22   Atom        0.082876      0.168010     -0.250885
 --------------------------------------------------------
                        XY            XZ            YZ
 --------------------------------------------------------
     1   Atom        0.036750     -0.092661      0.107554
     2   Atom        0.049314     -0.086953      0.114282
     3   Atom        0.040647     -0.081619      0.109447
     4   Atom        0.034021     -0.082165      0.106567
     5   Atom       -0.271189     -0.079472      0.136556
     6   Atom       -0.270268     -0.076405      0.129853
     7   Atom        0.079791      0.039063     -0.267330
     8   Atom        0.003464     -0.035085      0.026809
     9   Atom        0.136303     -0.185121     -0.006179
    10   Atom       -0.171493     -0.088825      0.477801
    11   Atom       -0.052180      1.039356      0.065541
    12   Atom       -2.538637      0.133177      0.133998
    13   Atom       -2.684729      0.111922      0.152627
    14   Atom        0.161571      0.123328     -0.065981
    15   Atom       -0.001501      0.004887     -0.122243
    16   Atom       -0.001731      0.005318     -0.126069
    17   Atom        0.210449      0.072613     -0.064194
    18   Atom       -0.155210     -0.061194     -0.115748
    19   Atom       -0.094486      0.173252      0.132743
    20   Atom       -0.088082     -0.052614     -0.165126
    21   Atom       -0.109958      0.130624      0.161801
    22   Atom       -0.079379      0.172425      0.190217
 --------------------------------------------------------


 ---------------------------------------------------------------------------------
              Nuclear Quadrupole in Principal Axis System
 ---------------------------------------------------------------------------------

       Atom             a.u.   MegaHertz   Gauss  10(-4) cm-1        Axes

              Baa    -0.3054   -40.979   -14.622   -13.669  0.2116 -0.2678  0.9399
     1 C(13)  Bbb     0.1289    17.293     6.171     5.768 -0.2141  0.9257  0.3119
              Bcc     0.1765    23.686     8.452     7.901  0.9536  0.2672 -0.1385
 
              Baa    -0.3146   -42.211   -15.062   -14.080  0.2115 -0.2661  0.9405
     2 C(13)  Bbb     0.1329    17.828     6.362     5.947  0.7207 -0.6075 -0.3340
              Bcc     0.1817    24.383     8.700     8.133  0.6602  0.7484  0.0633
 
              Baa    -0.2928   -39.287   -14.019   -13.105  0.2063 -0.2762  0.9387
     3 C(13)  Bbb     0.1291    17.329     6.183     5.780 -0.5681  0.7473  0.3447
              Bcc     0.1636    21.958     7.835     7.324  0.7967  0.6044  0.0028
 
              Baa    -0.3062   -41.096   -14.664   -13.708  0.1869 -0.2622  0.9467
     4 C(13)  Bbb     0.1290    17.317     6.179     5.776 -0.2320  0.9247  0.3019
              Bcc     0.1772    23.779     8.485     7.932  0.9546  0.2761 -0.1120
 
              Baa    -0.2766   -37.120   -13.245   -12.382  0.8435  0.5365 -0.0275
     5 C(13)  Bbb    -0.1073   -14.404    -5.140    -4.805  0.2054 -0.2748  0.9393
              Bcc     0.3840    51.525    18.385    17.187 -0.4964  0.7979  0.3420
 
              Baa    -0.2716   -36.441   -13.003   -12.155  0.8257  0.5624 -0.0436
     6 C(13)  Bbb    -0.0982   -13.176    -4.701    -4.395  0.2265 -0.2598  0.9387
              Bcc     0.3697    49.617    17.704    16.550 -0.5166  0.7850  0.3419
 
              Baa    -0.5557   -74.566   -26.607   -24.873 -0.1239  0.9469  0.2968
     7 C(13)  Bbb     0.1581    21.221     7.572     7.079  0.9907  0.1349 -0.0170
              Bcc     0.3975    53.345    19.035    17.794  0.0561 -0.2919  0.9548
 
              Baa    -0.0685    -9.193    -3.280    -3.067  0.3983 -0.2452  0.8839
     8 C(13)  Bbb     0.0241     3.239     1.156     1.080  0.8603  0.4341 -0.2672
              Bcc     0.0444     5.955     2.125     1.986 -0.3182  0.8669  0.3838
 
              Baa    -0.2703   -36.270   -12.942   -12.098  0.7100 -0.2333  0.6644
     9 C(13)  Bbb     0.0337     4.518     1.612     1.507 -0.4054  0.6361  0.6565
              Bcc     0.2366    31.752    11.330    10.591  0.5759  0.7355 -0.3571
 
              Baa    -0.5507   -21.240    -7.579    -7.085  0.5226 -0.2172  0.8244
    10 N(14)  Bbb    -0.4887   -18.847    -6.725    -6.287  0.8434  0.2731 -0.4627
              Bcc     1.0394    40.087    14.304    13.371 -0.1247  0.9371  0.3259
 
              Baa    -0.9630    69.679    24.863    23.243 -0.4310 -0.3075  0.8484
    11 O(17)  Bbb    -0.6826    49.392    17.624    16.476 -0.1325  0.9515  0.2776
              Bcc     1.6456  -119.072   -42.488   -39.718  0.8926 -0.0072  0.4508
 
              Baa    -3.6981  -193.548   -69.063   -64.561  0.8413  0.5395 -0.0336
    12 Cl(35) Bbb     1.7865    93.499    33.363    31.188  0.2149 -0.2769  0.9366
              Bcc     1.9116   100.049    35.700    33.373 -0.4959  0.7952  0.3489
 
              Baa    -3.7391  -195.696   -69.829   -65.277  0.8178  0.5746 -0.0326
    13 Cl(35) Bbb     1.7476    91.463    32.636    30.509  0.1734 -0.1920  0.9659
              Bcc     1.9916   104.234    37.193    34.769 -0.5488  0.7956  0.2567
 
              Baa    -0.3073  -163.941   -58.498   -54.685  0.8484 -0.4281 -0.3113
    14 H(1)   Bbb     0.1414    75.433    26.916    25.162  0.4861  0.8629  0.1381
              Bcc     0.1659    88.507    31.582    29.523  0.2095 -0.2685  0.9402
 
              Baa    -0.3063  -163.418   -58.312   -54.510  0.0003  0.9629  0.2697
    15 H(1)   Bbb     0.1408    75.116    26.803    25.056  0.9774  0.0568 -0.2038
              Bcc     0.1655    88.302    31.509    29.455  0.2116 -0.2637  0.9411
 
              Baa    -0.3046  -162.516   -57.990   -54.210  0.0004  0.9601  0.2796
    16 H(1)   Bbb     0.1383    73.807    26.336    24.619  0.9789  0.0568 -0.1964
              Bcc     0.1663    88.709    31.654    29.590  0.2045 -0.2737  0.9398
 
              Baa    -0.2968  -158.359   -56.506   -52.823  0.7466 -0.6258 -0.2259
    17 H(1)   Bbb     0.1428    76.195    27.188    25.416  0.3229  0.0439  0.9454
              Bcc     0.1540    82.164    29.318    27.407  0.5817  0.7787 -0.2349
 
              Baa    -0.2956  -157.696   -56.270   -52.602  0.4092  0.8575  0.3118
    18 H(1)   Bbb     0.1418    75.684    27.006    25.245  0.4265 -0.4819  0.7654
              Bcc     0.1537    82.013    29.264    27.356  0.8066 -0.1802 -0.5629
 
              Baa    -0.2958  -157.830   -56.318   -52.647 -0.5393 -0.3899  0.7464
    19 H(1)   Bbb     0.1377    73.481    26.220    24.511  0.8231 -0.0572  0.5649
              Bcc     0.1581    84.349    30.098    28.136 -0.1776  0.9191  0.3518
 
              Baa    -0.2818  -150.333   -53.643   -50.146  0.2540  0.8549  0.4524
    20 H(1)   Bbb     0.1331    70.993    25.332    23.681  0.8952 -0.3849  0.2248
              Bcc     0.1487    79.340    28.310    26.465 -0.3663 -0.3479  0.8630
 
              Baa    -0.2774  -148.019   -52.817   -49.374 -0.4700 -0.5624  0.6803
    21 H(1)   Bbb     0.1338    71.401    25.477    23.817  0.8684 -0.1566  0.4705
              Bcc     0.1436    76.618    27.339    25.557 -0.1580  0.8119  0.5620
 
              Baa    -0.3989  -212.834   -75.944   -70.994 -0.3661 -0.3417  0.8656
    22 H(1)   Bbb     0.1559    83.202    29.688    27.753  0.9226 -0.0113  0.3857
              Bcc     0.2430   129.632    46.256    43.241 -0.1220  0.9397  0.3194
 

 ---------------------------------------------------------------------------------

 No NMR shielding tensors so no spin-rotation constants.
 Leave Link  601 at Sat Feb 17 21:05:21 2018, MaxMem=   33554432 cpu:       0.5
 Merz-Kollman atomic radii used.
 Read replacement radii for each type of atom:
 Atom Element Radius
    1     6    1.50
    2     6    1.50
    3     6    1.50
    4     6    1.50
    5     6    1.50
    6     6    1.50
    7     6    1.50
    8     6    1.50
    9     6    1.50
   10     7    1.50
   11     8    1.40
   12    17    1.70
   13    17    1.70
   14     1    1.20
   15     1    1.20
   16     1    1.20
   17     1    1.20
   18     1    1.20
   19     1    1.20
   20     1    1.20
   21     1    1.20
   22     1    1.20
 Generate VDW surfaces: Layer= 4 Dens= 1 Start= 1.400 Inc= 0.200

 **********************************************************************

            Electrostatic Properties Using The SCF Density

 **********************************************************************

       Atomic Center    1 is at  -2.671558  1.064294  0.440334
       Atomic Center    2 is at  -1.489826  1.801688  0.385328
       Atomic Center    3 is at  -1.469407 -0.871408 -0.384593
       Atomic Center    4 is at  -0.272693 -0.146056 -0.442767
       Atomic Center    5 is at  -2.649381 -0.272459  0.051235
       Atomic Center    6 is at  -0.308918  1.201842 -0.049875
       Atomic Center    7 is at   3.265719 -0.869048  0.066953
       Atomic Center    8 is at   4.082239 -1.141451  1.321538
       Atomic Center    9 is at   0.991943 -0.836490 -0.909094
       Atomic Center   10 is at   1.917229 -1.088199  0.186670
       Atomic Center   11 is at   3.779300 -0.474263 -0.970907
       Atomic Center   12 is at  -4.127135 -1.220189  0.109526
       Atomic Center   13 is at   1.144280  2.184807 -0.113650
       Atomic Center   14 is at  -3.593840  1.524815  0.777121
       Atomic Center   15 is at  -1.484778  2.846617  0.676357
       Atomic Center   16 is at  -1.476441 -1.913777 -0.687864
       Atomic Center   17 is at   4.899787 -1.822584  1.068776
       Atomic Center   18 is at   4.531255 -0.201384  1.657779
       Atomic Center   19 is at   3.501647 -1.568938  2.145251
       Atomic Center   20 is at   0.720207 -1.775993 -1.408583
       Atomic Center   21 is at   1.542308 -0.228632 -1.632258
       Atomic Center   22 is at   1.544695 -1.432620  1.059736
      ESP Fit Center   23 is at  -2.671558  1.064294  2.540334
      ESP Fit Center   24 is at  -3.196558  0.154968  2.258987
      ESP Fit Center   25 is at  -2.146558  0.154968  2.258987
      ESP Fit Center   26 is at  -3.862523  2.438741 -0.609666
      ESP Fit Center   27 is at  -3.196558  1.973621 -1.378319
      ESP Fit Center   28 is at  -3.721558  1.064294 -1.378319
      ESP Fit Center   29 is at  -2.671558  1.064294 -1.659666
      ESP Fit Center   30 is at  -1.489826  1.801688  2.485328
      ESP Fit Center   31 is at  -0.439826  1.801688  2.203981
      ESP Fit Center   32 is at  -0.964826  0.892362  2.203981
      ESP Fit Center   33 is at  -2.680791  3.176135 -0.664672
      ESP Fit Center   34 is at  -0.964826  2.711015 -1.433325
      ESP Fit Center   35 is at  -2.014826  2.711015 -1.433325
      ESP Fit Center   36 is at  -1.489826  1.801688 -1.714672
      ESP Fit Center   37 is at  -1.469407 -0.871408  1.715407
      ESP Fit Center   38 is at  -1.994407 -1.780735  1.434060
      ESP Fit Center   39 is at  -0.944407 -1.780735  1.434060
      ESP Fit Center   40 is at  -1.994407  0.037919 -2.203247
      ESP Fit Center   41 is at  -2.519407 -0.871408 -2.203247
      ESP Fit Center   42 is at  -1.469407 -0.871408 -2.484593
      ESP Fit Center   43 is at  -0.272693 -0.146056  1.657233
      ESP Fit Center   44 is at   0.252307  0.763271 -2.261420
      ESP Fit Center   45 is at  -0.797693  0.763271 -2.261420
      ESP Fit Center   46 is at  -0.272693 -0.146056 -2.542767
      ESP Fit Center   47 is at  -2.649381 -0.272459  2.151235
      ESP Fit Center   48 is at  -1.599381 -0.272459  1.869888
      ESP Fit Center   49 is at  -2.124381 -1.181786  1.869888
      ESP Fit Center   50 is at  -2.124381  0.636868 -1.767419
      ESP Fit Center   51 is at  -3.174381  0.636868 -1.767419
      ESP Fit Center   52 is at  -2.649381 -0.272459 -2.048765
      ESP Fit Center   53 is at  -0.308918  1.201842  2.050125
      ESP Fit Center   54 is at  -0.833918  0.292515  1.768778
      ESP Fit Center   55 is at   0.216082  0.292515  1.768778
      ESP Fit Center   56 is at  -0.833918  2.111168 -1.868528
      ESP Fit Center   57 is at  -1.358918  1.201842 -1.868528
      ESP Fit Center   58 is at  -0.308918  1.201842 -2.149875
      ESP Fit Center   59 is at   3.006898  0.931095  1.116953
      ESP Fit Center   60 is at   3.518846  1.215641  0.066953
      ESP Fit Center   61 is at   3.518846 -2.953736  0.066953
      ESP Fit Center   62 is at   3.006898 -2.669190 -0.983047
      ESP Fit Center   63 is at   4.021215 -2.523353 -0.983047
      ESP Fit Center   64 is at   5.132239 -1.141451  3.140192
      ESP Fit Center   65 is at   5.900892 -1.141451  2.371538
      ESP Fit Center   66 is at   2.891274  0.232996  2.371538
      ESP Fit Center   67 is at   3.337569 -3.104985  1.321538
      ESP Fit Center   68 is at   5.612187 -0.158212  0.271538
      ESP Fit Center   69 is at   3.823417 -2.941593  0.271538
      ESP Fit Center   70 is at   2.521891 -1.819728 -1.959094
      ESP Fit Center   71 is at  -0.058057 -0.836490 -2.727748
      ESP Fit Center   72 is at   2.672725 -2.742504  1.236670
      ESP Fit Center   73 is at   1.172558 -3.051733  0.186670
      ESP Fit Center   74 is at   2.170356 -3.172887  0.186670
      ESP Fit Center   75 is at   2.672725 -2.742504 -0.863330
      ESP Fit Center   76 is at   5.152534  0.523449  0.009093
      ESP Fit Center   77 is at   4.303829  1.140069  0.009093
      ESP Fit Center   78 is at   5.739300 -0.474263 -0.970907
      ESP Fit Center   79 is at   5.476710  0.505737 -0.970907
      ESP Fit Center   80 is at   4.759300  1.223146 -0.970907
      ESP Fit Center   81 is at   3.779300  1.485737 -0.970907
      ESP Fit Center   82 is at   4.759300 -2.171673 -0.970907
      ESP Fit Center   83 is at   5.476710 -1.454263 -0.970907
      ESP Fit Center   84 is at   5.476710 -0.474263 -1.950907
      ESP Fit Center   85 is at   5.152534  0.523449 -1.950907
      ESP Fit Center   86 is at   4.303829  1.140069 -1.950907
      ESP Fit Center   87 is at   3.254772  1.140069 -1.950907
      ESP Fit Center   88 is at   3.254772 -2.088596 -1.950907
      ESP Fit Center   89 is at   4.303829 -2.088596 -1.950907
      ESP Fit Center   90 is at   5.152534 -1.471976 -1.950907
      ESP Fit Center   91 is at   4.759300 -0.474263 -2.668316
      ESP Fit Center   92 is at   4.269300  0.374442 -2.668316
      ESP Fit Center   93 is at   3.289300  0.374442 -2.668316
      ESP Fit Center   94 is at   3.289300 -1.322968 -2.668316
      ESP Fit Center   95 is at   4.269300 -1.322968 -2.668316
      ESP Fit Center   96 is at   3.779300 -0.474263 -2.930907
      ESP Fit Center   97 is at  -4.127135 -1.220189  2.489526
      ESP Fit Center   98 is at  -3.094492 -1.220189  2.253832
      ESP Fit Center   99 is at  -3.610814 -0.325894  2.253832
      ESP Fit Center  100 is at  -4.643457 -0.325894  2.253832
      ESP Fit Center  101 is at  -5.159779 -1.220189  2.253832
      ESP Fit Center  102 is at  -4.643457 -2.114485  2.253832
      ESP Fit Center  103 is at  -3.610814 -2.114485  2.253832
      ESP Fit Center  104 is at  -4.702141  0.549498  1.593432
      ESP Fit Center  105 is at  -5.632521 -0.126463  1.593432
      ESP Fit Center  106 is at  -5.987894 -1.220189  1.593432
      ESP Fit Center  107 is at  -5.632521 -2.313916  1.593432
      ESP Fit Center  108 is at  -4.702141 -2.989876  1.593432
      ESP Fit Center  109 is at  -3.552129 -2.989876  1.593432
      ESP Fit Center  110 is at  -2.621750 -2.313916  1.593432
      ESP Fit Center  111 is at  -5.863926  0.318473  0.639126
      ESP Fit Center  112 is at  -6.380039 -0.664898  0.639126
      ESP Fit Center  113 is at  -6.380039 -1.775480  0.639126
      ESP Fit Center  114 is at  -5.863926 -2.758852  0.639126
      ESP Fit Center  115 is at  -4.949935 -3.389734  0.639126
      ESP Fit Center  116 is at  -3.847451 -3.523600  0.639126
      ESP Fit Center  117 is at  -2.809039 -3.129782  0.639126
      ESP Fit Center  118 is at  -4.949935  0.949356 -0.420074
      ESP Fit Center  119 is at  -5.863926  0.318473 -0.420074
      ESP Fit Center  120 is at  -6.380039 -0.664898 -0.420074
      ESP Fit Center  121 is at  -6.380039 -1.775480 -0.420074
      ESP Fit Center  122 is at  -5.863926 -2.758852 -0.420074
      ESP Fit Center  123 is at  -4.949935 -3.389734 -0.420074
      ESP Fit Center  124 is at  -3.847451 -3.523600 -0.420074
      ESP Fit Center  125 is at  -2.809039 -3.129782 -0.420074
      ESP Fit Center  126 is at  -4.702141  0.549498 -1.374380
      ESP Fit Center  127 is at  -5.632521 -0.126463 -1.374380
      ESP Fit Center  128 is at  -5.987894 -1.220189 -1.374380
      ESP Fit Center  129 is at  -5.632521 -2.313916 -1.374380
      ESP Fit Center  130 is at  -4.702141 -2.989876 -1.374380
      ESP Fit Center  131 is at  -3.552129 -2.989876 -1.374380
      ESP Fit Center  132 is at  -3.094492 -1.220189 -2.034780
      ESP Fit Center  133 is at  -3.610814 -0.325894 -2.034780
      ESP Fit Center  134 is at  -4.643457 -0.325894 -2.034780
      ESP Fit Center  135 is at  -5.159779 -1.220189 -2.034780
      ESP Fit Center  136 is at  -4.643457 -2.114485 -2.034780
      ESP Fit Center  137 is at  -3.610814 -2.114485 -2.034780
      ESP Fit Center  138 is at  -4.127135 -1.220189 -2.270474
      ESP Fit Center  139 is at   1.144280  2.184807  2.266350
      ESP Fit Center  140 is at   2.176923  2.184807  2.030656
      ESP Fit Center  141 is at   1.660601  3.079103  2.030656
      ESP Fit Center  142 is at   0.627958  3.079103  2.030656
      ESP Fit Center  143 is at   0.111636  2.184807  2.030656
      ESP Fit Center  144 is at   0.627958  1.290512  2.030656
      ESP Fit Center  145 is at   1.660601  1.290512  2.030656
      ESP Fit Center  146 is at   3.005039  2.184807  1.370256
      ESP Fit Center  147 is at   2.649665  3.278534  1.370256
      ESP Fit Center  148 is at   1.719286  3.954494  1.370256
      ESP Fit Center  149 is at   0.569273  3.954494  1.370256
      ESP Fit Center  150 is at   2.649665  1.091081  1.370256
      ESP Fit Center  151 is at   3.464608  2.184807  0.415950
      ESP Fit Center  152 is at   3.198828  3.263118  0.415950
      ESP Fit Center  153 is at   2.462376  4.094400  0.415950
      ESP Fit Center  154 is at   1.423964  4.488218  0.415950
      ESP Fit Center  155 is at   0.321480  4.354352  0.415950
      ESP Fit Center  156 is at   3.464608  2.184807 -0.643250
      ESP Fit Center  157 is at   3.198828  3.263118 -0.643250
      ESP Fit Center  158 is at   2.462376  4.094400 -0.643250
      ESP Fit Center  159 is at   1.423964  4.488218 -0.643250
      ESP Fit Center  160 is at   0.321480  4.354352 -0.643250
      ESP Fit Center  161 is at  -0.592511  3.723470 -0.643250
      ESP Fit Center  162 is at   3.005039  2.184807 -1.597556
      ESP Fit Center  163 is at   2.649665  3.278534 -1.597556
      ESP Fit Center  164 is at   1.719286  3.954494 -1.597556
      ESP Fit Center  165 is at   0.569273  3.954494 -1.597556
      ESP Fit Center  166 is at  -0.361106  3.278534 -1.597556
      ESP Fit Center  167 is at   2.649665  1.091081 -1.597556
      ESP Fit Center  168 is at   2.176923  2.184807 -2.257956
      ESP Fit Center  169 is at   1.660601  3.079103 -2.257956
      ESP Fit Center  170 is at   0.627958  3.079103 -2.257956
      ESP Fit Center  171 is at   0.111636  2.184807 -2.257956
      ESP Fit Center  172 is at   0.627958  1.290512 -2.257956
      ESP Fit Center  173 is at   1.144280  2.184807 -2.493650
      ESP Fit Center  174 is at  -3.593840  1.524815  2.457121
      ESP Fit Center  175 is at  -3.288692  2.463964  2.136269
      ESP Fit Center  176 is at  -4.392728  2.105241  2.136269
      ESP Fit Center  177 is at  -4.392728  0.944389  2.136269
      ESP Fit Center  178 is at  -3.316390  3.098316  1.296269
      ESP Fit Center  179 is at  -4.392728  2.908529  1.296269
      ESP Fit Center  180 is at  -5.095258  2.071286  1.296269
      ESP Fit Center  181 is at  -5.095258  0.978344  1.296269
      ESP Fit Center  182 is at  -3.316390  3.098316  0.257972
      ESP Fit Center  183 is at  -4.392728  2.908529  0.257972
      ESP Fit Center  184 is at  -5.095258  2.071286  0.257972
      ESP Fit Center  185 is at  -5.095258  0.978344  0.257972
      ESP Fit Center  186 is at  -4.392728  2.105241 -0.582028
      ESP Fit Center  187 is at  -1.484778  2.846617  2.356357
      ESP Fit Center  188 is at  -0.497299  2.846617  2.035505
      ESP Fit Center  189 is at  -1.179631  3.785765  2.035505
      ESP Fit Center  190 is at  -2.283666  3.427042  2.035505
      ESP Fit Center  191 is at  -0.260812  3.873647  1.195505
      ESP Fit Center  192 is at  -1.207328  4.420118  1.195505
      ESP Fit Center  193 is at  -2.283666  4.230330  1.195505
      ESP Fit Center  194 is at  -2.986196  3.393088  1.195505
      ESP Fit Center  195 is at  -1.207328  4.420118  0.157208
      ESP Fit Center  196 is at  -2.283666  4.230330  0.157208
      ESP Fit Center  197 is at  -2.986196  3.393088  0.157208
      ESP Fit Center  198 is at  -1.179631  3.785765 -0.682792
      ESP Fit Center  199 is at  -2.283666  3.427042 -0.682792
      ESP Fit Center  200 is at  -1.171294 -2.852925  0.671285
      ESP Fit Center  201 is at  -2.275329 -3.297491 -0.168715
      ESP Fit Center  202 is at  -1.198991 -3.487278 -0.168715
      ESP Fit Center  203 is at  -0.252475 -2.940807 -0.168715
      ESP Fit Center  204 is at  -2.275329 -3.297491 -1.207012
      ESP Fit Center  205 is at  -1.198991 -3.487278 -1.207012
      ESP Fit Center  206 is at  -2.275329 -2.494203 -2.047012
      ESP Fit Center  207 is at  -1.171294 -2.852925 -2.047012
      ESP Fit Center  208 is at  -1.476441 -1.913777 -2.367864
      ESP Fit Center  209 is at   5.887266 -1.822584  2.427925
      ESP Fit Center  210 is at   5.204935 -2.761732  2.427925
      ESP Fit Center  211 is at   6.497562 -1.822584  1.587925
      ESP Fit Center  212 is at   5.177237 -3.396085  1.587925
      ESP Fit Center  213 is at   6.123753 -2.849614  1.587925
      ESP Fit Center  214 is at   6.497562 -1.822584  0.549627
      ESP Fit Center  215 is at   6.123753 -0.795554  0.549627
      ESP Fit Center  216 is at   4.100899 -3.206297  0.549627
      ESP Fit Center  217 is at   5.177237 -3.396085  0.549627
      ESP Fit Center  218 is at   6.123753 -2.849614  0.549627
      ESP Fit Center  219 is at   5.887266 -1.822584 -0.290373
      ESP Fit Center  220 is at   5.204935 -2.761732 -0.290373
      ESP Fit Center  221 is at   4.531255 -0.201384  3.337779
      ESP Fit Center  222 is at   5.518734 -0.201384  3.016927
      ESP Fit Center  223 is at   4.836403  0.737765  3.016927
      ESP Fit Center  224 is at   3.732367  0.379042  3.016927
      ESP Fit Center  225 is at   6.129030 -0.201384  2.176927
      ESP Fit Center  226 is at   5.755222  0.825646  2.176927
      ESP Fit Center  227 is at   4.808706  1.372117  2.176927
      ESP Fit Center  228 is at   3.732367  1.182330  2.176927
      ESP Fit Center  229 is at   6.129030 -0.201384  1.138630
      ESP Fit Center  230 is at   5.755222  0.825646  1.138630
      ESP Fit Center  231 is at   4.808706  1.372117  1.138630
      ESP Fit Center  232 is at   3.732367  1.182330  1.138630
      ESP Fit Center  233 is at   4.836403  0.737765  0.298630
      ESP Fit Center  234 is at   3.501647 -1.568938  3.825251
      ESP Fit Center  235 is at   4.489126 -1.568938  3.504400
      ESP Fit Center  236 is at   3.806795 -0.629789  3.504400
      ESP Fit Center  237 is at   2.702759 -0.988512  3.504400
      ESP Fit Center  238 is at   2.702759 -2.149364  3.504400
      ESP Fit Center  239 is at   3.806795 -2.508086  3.504400
      ESP Fit Center  240 is at   2.702759 -0.185224  2.664400
      ESP Fit Center  241 is at   2.000230 -1.022467  2.664400
      ESP Fit Center  242 is at   2.000230 -2.115409  2.664400
      ESP Fit Center  243 is at   2.702759 -2.952652  2.664400
      ESP Fit Center  244 is at   3.779098 -3.142439  2.664400
      ESP Fit Center  245 is at   2.702759 -2.952652  1.626102
      ESP Fit Center  246 is at  -0.078680 -3.159706 -0.889435
      ESP Fit Center  247 is at   0.997658 -3.349494 -0.889435
      ESP Fit Center  248 is at  -0.078680 -3.159706 -1.927732
      ESP Fit Center  249 is at   0.997658 -3.349494 -1.927732
      ESP Fit Center  250 is at   1.944174 -2.803023 -1.927732
      ESP Fit Center  251 is at   1.707686 -1.775993 -2.767732
      ESP Fit Center  252 is at  -0.078680 -1.195567 -2.767732
      ESP Fit Center  253 is at  -0.078680 -2.356418 -2.767732
      ESP Fit Center  254 is at   1.025355 -2.715141 -2.767732
      ESP Fit Center  255 is at   0.720207 -1.775993 -3.088583
      ESP Fit Center  256 is at   2.766274  0.798397 -2.151406
      ESP Fit Center  257 is at   2.529787 -0.228632 -2.991406
      ESP Fit Center  258 is at   1.847456  0.710516 -2.991406
      ESP Fit Center  259 is at   0.743420  0.351793 -2.991406
      ESP Fit Center  260 is at   1.847456 -1.167781 -2.991406
      ESP Fit Center  261 is at   1.542308 -0.228632 -3.312258
      ESP Fit Center  262 is at   1.544695 -1.432620  2.739736
      ESP Fit Center  263 is at   1.849843 -0.493471  2.418885
      ESP Fit Center  264 is at   0.745807 -0.852194  2.418885
      ESP Fit Center  265 is at   0.745807 -2.013045  2.418885
      ESP Fit Center  266 is at   1.849843 -2.371768  2.418885
      ESP Fit Center  267 is at   0.043278 -0.886148  1.578885
      ESP Fit Center  268 is at   0.043278 -1.979091  1.578885
      ESP Fit Center  269 is at   0.745807 -2.816333  1.578885
      ESP Fit Center  270 is at   1.822146 -3.006121  1.578885
      ESP Fit Center  271 is at   0.745807 -2.816333  0.540587
      ESP Fit Center  272 is at  -2.671558  1.064294  2.840334
      ESP Fit Center  273 is at  -3.192219  1.966105  2.602659
      ESP Fit Center  274 is at  -3.192219  0.162484  2.602659
      ESP Fit Center  275 is at  -2.150898  0.162484  2.602659
      ESP Fit Center  276 is at  -3.900336  2.482379 -1.056042
      ESP Fit Center  277 is at  -4.471947  1.592936 -1.056042
      ESP Fit Center  278 is at  -3.192219  1.966105 -1.721991
      ESP Fit Center  279 is at  -3.712879  1.064294 -1.721991
      ESP Fit Center  280 is at  -2.671558  1.064294 -1.959666
      ESP Fit Center  281 is at  -1.489826  1.801688  2.785328
      ESP Fit Center  282 is at  -0.448505  1.801688  2.547653
      ESP Fit Center  283 is at  -0.969166  2.703499  2.547653
      ESP Fit Center  284 is at  -2.010487  2.703499  2.547653
      ESP Fit Center  285 is at  -0.969166  0.899878  2.547653
      ESP Fit Center  286 is at  -1.756865  3.658985 -1.111047
      ESP Fit Center  287 is at  -2.718604  3.219774 -1.111047
      ESP Fit Center  288 is at  -2.010487  2.703499 -1.776997
      ESP Fit Center  289 is at  -0.948746 -1.773218  1.777732
      ESP Fit Center  290 is at  -1.736446 -2.728704  1.111782
      ESP Fit Center  291 is at  -0.689924 -2.578237  1.111782
      ESP Fit Center  292 is at  -1.990067  0.030403 -2.546918
      ESP Fit Center  293 is at  -2.510728 -0.871408 -2.546918
      ESP Fit Center  294 is at  -1.990067 -1.773218 -2.546918
      ESP Fit Center  295 is at  -0.948746 -1.773218 -2.546918
      ESP Fit Center  296 is at  -1.469407 -0.871408 -2.784593
      ESP Fit Center  297 is at  -0.272693 -0.146056  1.957233
      ESP Fit Center  298 is at  -0.793353  0.755755 -2.605092
      ESP Fit Center  299 is at  -0.272693 -0.146056 -2.842767
      ESP Fit Center  300 is at  -2.649381 -0.272459  2.451235
      ESP Fit Center  301 is at  -1.608060 -0.272459  2.213560
      ESP Fit Center  302 is at  -2.128720 -1.174269  2.213560
      ESP Fit Center  303 is at  -3.170041  0.629352 -2.111091
      ESP Fit Center  304 is at   0.211743  0.300031  2.112450
      ESP Fit Center  305 is at  -0.829578  2.103652 -2.212200
      ESP Fit Center  306 is at  -1.350239  1.201842 -2.212200
      ESP Fit Center  307 is at  -0.308918  1.201842 -2.449875
      ESP Fit Center  308 is at   2.998680  0.988249  1.563329
      ESP Fit Center  309 is at   3.786379  1.412115  0.601003
      ESP Fit Center  310 is at   3.786379 -3.150210 -0.467097
      ESP Fit Center  311 is at   2.998680 -2.726344 -1.429422
      ESP Fit Center  312 is at   5.123560 -1.141451  3.483864
      ESP Fit Center  313 is at   5.958634 -1.141451  2.817914
      ESP Fit Center  314 is at   2.853461  0.276635  2.817914
      ESP Fit Center  315 is at   4.861722 -2.848280  2.817914
      ESP Fit Center  316 is at   5.660763 -2.155907  2.817914
      ESP Fit Center  317 is at   2.623381  0.687900  1.855589
      ESP Fit Center  318 is at   3.561578 -3.422613  0.787488
      ESP Fit Center  319 is at   2.570467 -1.850946 -2.405470
      ESP Fit Center  320 is at  -0.049378 -0.836490 -3.071419
      ESP Fit Center  321 is at   1.396568 -3.369361  0.720720
      ESP Fit Center  322 is at   2.437889 -3.369361  0.720720
      ESP Fit Center  323 is at   1.396568 -3.369361 -0.347380
      ESP Fit Center  324 is at   2.437889 -3.369361 -0.347380
      ESP Fit Center  325 is at   2.696712 -2.795028 -1.309706
      ESP Fit Center  326 is at   5.963139 -0.474263 -0.472460
      ESP Fit Center  327 is at   5.712993  0.540617 -0.472460
      ESP Fit Center  328 is at   5.019862  1.323001 -0.472460
      ESP Fit Center  329 is at   4.042533  1.693653 -0.472460
      ESP Fit Center  330 is at   5.963139 -0.474263 -1.469353
      ESP Fit Center  331 is at   5.712993  0.540617 -1.469353
      ESP Fit Center  332 is at   5.019862  1.323001 -1.469353
      ESP Fit Center  333 is at   4.042533  1.693653 -1.469353
      ESP Fit Center  334 is at   4.042533 -2.642179 -1.469353
      ESP Fit Center  335 is at   5.019862 -2.271527 -1.469353
      ESP Fit Center  336 is at   5.712993 -1.489144 -1.469353
      ESP Fit Center  337 is at   5.530603 -0.474263 -2.367524
      ESP Fit Center  338 is at   5.196134  0.555126 -2.367524
      ESP Fit Center  339 is at   4.320482  1.191324 -2.367524
      ESP Fit Center  340 is at   3.238118  1.191324 -2.367524
      ESP Fit Center  341 is at   3.238118 -2.139851 -2.367524
      ESP Fit Center  342 is at   4.320482 -2.139851 -2.367524
      ESP Fit Center  343 is at   5.196134 -1.503653 -2.367524
      ESP Fit Center  344 is at   4.751200 -0.474263 -2.989077
      ESP Fit Center  345 is at   4.265250  0.367426 -2.989077
      ESP Fit Center  346 is at   3.293350  0.367426 -2.989077
      ESP Fit Center  347 is at   3.293350 -1.315953 -2.989077
      ESP Fit Center  348 is at   4.265250 -1.315953 -2.989077
      ESP Fit Center  349 is at   3.779300 -0.474263 -3.210907
      ESP Fit Center  350 is at  -4.127135 -1.220189  2.829526
      ESP Fit Center  351 is at  -3.086236 -1.220189  2.622478
      ESP Fit Center  352 is at  -3.606686 -0.318744  2.622478
      ESP Fit Center  353 is at  -4.647585 -0.318744  2.622478
      ESP Fit Center  354 is at  -5.168034 -1.220189  2.622478
      ESP Fit Center  355 is at  -4.647585 -2.121634  2.622478
      ESP Fit Center  356 is at  -3.606686 -2.121634  2.622478
      ESP Fit Center  357 is at  -5.088801  0.445464  2.032856
      ESP Fit Center  358 is at  -5.792788 -0.258524  2.032856
      ESP Fit Center  359 is at  -6.050466 -1.220189  2.032856
      ESP Fit Center  360 is at  -5.792788 -2.181854  2.032856
      ESP Fit Center  361 is at  -5.088801 -2.885842  2.032856
      ESP Fit Center  362 is at  -4.127135 -3.143520  2.032856
      ESP Fit Center  363 is at  -3.165470 -2.885842  2.032856
      ESP Fit Center  364 is at  -2.461482 -2.181854  2.032856
      ESP Fit Center  365 is at  -6.160156  0.256887  1.150425
      ESP Fit Center  366 is at  -6.585174 -0.697717  1.150425
      ESP Fit Center  367 is at  -6.585174 -1.742661  1.150425
      ESP Fit Center  368 is at  -6.160156 -2.697266  1.150425
      ESP Fit Center  369 is at  -5.383611 -3.396470  1.150425
      ESP Fit Center  370 is at  -4.389810 -3.719375  1.150425
      ESP Fit Center  371 is at  -3.350590 -3.610149  1.150425
      ESP Fit Center  372 is at  -2.445642 -3.087677  1.150425
      ESP Fit Center  373 is at  -5.766302  0.950418  0.109526
      ESP Fit Center  374 is at  -6.439726  0.211706  0.109526
      ESP Fit Center  375 is at  -6.800822 -0.720391  0.109526
      ESP Fit Center  376 is at  -6.800822 -1.719988  0.109526
      ESP Fit Center  377 is at  -6.439726 -2.652085  0.109526
      ESP Fit Center  378 is at  -5.766302 -3.390796  0.109526
      ESP Fit Center  379 is at  -4.871499 -3.836355  0.109526
      ESP Fit Center  380 is at  -3.876165 -3.928586  0.109526
      ESP Fit Center  381 is at  -2.914727 -3.655033  0.109526
      ESP Fit Center  382 is at  -5.383611  0.956091 -0.931373
      ESP Fit Center  383 is at  -6.160156  0.256887 -0.931373
      ESP Fit Center  384 is at  -6.585174 -0.697717 -0.931373
      ESP Fit Center  385 is at  -6.585174 -1.742661 -0.931373
      ESP Fit Center  386 is at  -6.160156 -2.697266 -0.931373
      ESP Fit Center  387 is at  -5.383611 -3.396470 -0.931373
      ESP Fit Center  388 is at  -4.389810 -3.719375 -0.931373
      ESP Fit Center  389 is at  -3.350590 -3.610149 -0.931373
      ESP Fit Center  390 is at  -4.127135  0.703141 -1.813805
      ESP Fit Center  391 is at  -5.088801  0.445464 -1.813805
      ESP Fit Center  392 is at  -5.792788 -0.258524 -1.813805
      ESP Fit Center  393 is at  -6.050466 -1.220189 -1.813805
      ESP Fit Center  394 is at  -5.792788 -2.181854 -1.813805
      ESP Fit Center  395 is at  -5.088801 -2.885842 -1.813805
      ESP Fit Center  396 is at  -4.127135 -3.143520 -1.813805
      ESP Fit Center  397 is at  -3.165470 -2.885842 -1.813805
      ESP Fit Center  398 is at  -3.086236 -1.220189 -2.403426
      ESP Fit Center  399 is at  -3.606686 -0.318744 -2.403426
      ESP Fit Center  400 is at  -4.647585 -0.318744 -2.403426
      ESP Fit Center  401 is at  -5.168034 -1.220189 -2.403426
      ESP Fit Center  402 is at  -4.647585 -2.121634 -2.403426
      ESP Fit Center  403 is at  -3.606686 -2.121634 -2.403426
      ESP Fit Center  404 is at  -4.127135 -1.220189 -2.610474
      ESP Fit Center  405 is at   1.144280  2.184807  2.606350
      ESP Fit Center  406 is at   2.185179  2.184807  2.399303
      ESP Fit Center  407 is at   1.664729  3.086252  2.399303
      ESP Fit Center  408 is at   0.623830  3.086252  2.399303
      ESP Fit Center  409 is at   0.103381  2.184807  2.399303
      ESP Fit Center  410 is at   0.623830  1.283363  2.399303
      ESP Fit Center  411 is at   1.664729  1.283363  2.399303
      ESP Fit Center  412 is at   3.067610  2.184807  1.809681
      ESP Fit Center  413 is at   2.809933  3.146473  1.809681
      ESP Fit Center  414 is at   2.105945  3.850461  1.809681
      ESP Fit Center  415 is at   1.144280  4.108138  1.809681
      ESP Fit Center  416 is at   0.182614  3.850461  1.809681
      ESP Fit Center  417 is at   2.809933  1.223142  1.809681
      ESP Fit Center  418 is at   3.657232  2.184807  0.927249
      ESP Fit Center  419 is at   3.439976  3.206917  0.927249
      ESP Fit Center  420 is at   2.825773  4.052295  0.927249
      ESP Fit Center  421 is at   1.920825  4.574767  0.927249
      ESP Fit Center  422 is at   0.881605  4.683994  0.927249
      ESP Fit Center  423 is at  -0.112197  4.361088  0.927249
      ESP Fit Center  424 is at   3.864280  2.184807 -0.113650
      ESP Fit Center  425 is at   3.680604  3.167385 -0.113650
      ESP Fit Center  426 is at   3.154384  4.017260 -0.113650
      ESP Fit Center  427 is at   2.356688  4.619652 -0.113650
      ESP Fit Center  428 is at   1.395250  4.893204 -0.113650
      ESP Fit Center  429 is at   0.399916  4.800973 -0.113650
      ESP Fit Center  430 is at  -0.494887  4.355414 -0.113650
      ESP Fit Center  431 is at   3.657232  2.184807 -1.154549
      ESP Fit Center  432 is at   3.439976  3.206917 -1.154549
      ESP Fit Center  433 is at   2.825773  4.052295 -1.154549
      ESP Fit Center  434 is at   1.920825  4.574767 -1.154549
      ESP Fit Center  435 is at   0.881605  4.683994 -1.154549
      ESP Fit Center  436 is at  -0.112197  4.361088 -1.154549
      ESP Fit Center  437 is at  -0.888742  3.661884 -1.154549
      ESP Fit Center  438 is at   3.067610  2.184807 -2.036980
      ESP Fit Center  439 is at   2.809933  3.146473 -2.036980
      ESP Fit Center  440 is at   2.105945  3.850461 -2.036980
      ESP Fit Center  441 is at   1.144280  4.108138 -2.036980
      ESP Fit Center  442 is at   0.182614  3.850461 -2.036980
      ESP Fit Center  443 is at  -0.521373  3.146473 -2.036980
      ESP Fit Center  444 is at   2.185179  2.184807 -2.626602
      ESP Fit Center  445 is at   1.664729  3.086252 -2.626602
      ESP Fit Center  446 is at   0.623830  3.086252 -2.626602
      ESP Fit Center  447 is at   0.103381  2.184807 -2.626602
      ESP Fit Center  448 is at   0.623830  1.283363 -2.626602
      ESP Fit Center  449 is at   1.144280  2.184807 -2.833650
      ESP Fit Center  450 is at  -3.593840  1.524815  2.697121
      ESP Fit Center  451 is at  -3.113840  2.356199  2.439889
      ESP Fit Center  452 is at  -4.073840  2.356199  2.439889
      ESP Fit Center  453 is at  -4.553840  1.524815  2.439889
      ESP Fit Center  454 is at  -4.073840  0.693431  2.439889
      ESP Fit Center  455 is at  -3.080017  3.106202  1.737121
      ESP Fit Center  456 is at  -4.107664  3.106202  1.737121
      ESP Fit Center  457 is at  -4.939049  2.502166  1.737121
      ESP Fit Center  458 is at  -5.256609  1.524815  1.737121
      ESP Fit Center  459 is at  -3.593840  3.444815  0.777121
      ESP Fit Center  460 is at  -4.553840  3.187584  0.777121
      ESP Fit Center  461 is at  -5.256609  2.484815  0.777121
      ESP Fit Center  462 is at  -5.513840  1.524815  0.777121
      ESP Fit Center  463 is at  -4.107664  3.106202 -0.182879
      ESP Fit Center  464 is at  -4.939049  2.502166 -0.182879
      ESP Fit Center  465 is at  -5.256609  1.524815 -0.182879
      ESP Fit Center  466 is at  -1.484778  2.846617  2.596357
      ESP Fit Center  467 is at  -0.524778  2.846617  2.339126
      ESP Fit Center  468 is at  -1.004778  3.678001  2.339126
      ESP Fit Center  469 is at  -1.964778  3.678001  2.339126
      ESP Fit Center  470 is at  -2.444778  2.846617  2.339126
      ESP Fit Center  471 is at  -0.970955  4.428004  1.636357
      ESP Fit Center  472 is at  -1.998602  4.428004  1.636357
      ESP Fit Center  473 is at  -2.829987  3.823968  1.636357
      ESP Fit Center  474 is at  -0.524778  4.509385  0.676357
      ESP Fit Center  475 is at  -1.484778  4.766617  0.676357
      ESP Fit Center  476 is at  -2.444778  4.509385  0.676357
      ESP Fit Center  477 is at  -3.147547  3.806617  0.676357
      ESP Fit Center  478 is at  -0.970955  4.428004 -0.283643
      ESP Fit Center  479 is at  -1.998602  4.428004 -0.283643
      ESP Fit Center  480 is at  -2.829987  3.823968 -0.283643
      ESP Fit Center  481 is at  -1.990265 -3.495164  0.272136
      ESP Fit Center  482 is at  -0.962618 -3.495164  0.272136
      ESP Fit Center  483 is at  -0.131233 -2.891128  0.272136
      ESP Fit Center  484 is at  -2.436441 -3.576546 -0.687864
      ESP Fit Center  485 is at  -1.476441 -3.833777 -0.687864
      ESP Fit Center  486 is at  -0.516441 -3.576546 -0.687864
      ESP Fit Center  487 is at  -2.821650 -2.891128 -1.647864
      ESP Fit Center  488 is at  -1.990265 -3.495164 -1.647864
      ESP Fit Center  489 is at  -0.962618 -3.495164 -1.647864
      ESP Fit Center  490 is at  -2.436441 -1.913777 -2.350632
      ESP Fit Center  491 is at  -1.956441 -2.745161 -2.350632
      ESP Fit Center  492 is at  -0.996441 -2.745161 -2.350632
      ESP Fit Center  493 is at  -1.476441 -1.913777 -2.607864
      ESP Fit Center  494 is at   5.379787 -2.653968  2.731545
      ESP Fit Center  495 is at   6.562555 -1.822584  2.028776
      ESP Fit Center  496 is at   5.413611 -3.403971  2.028776
      ESP Fit Center  497 is at   6.244995 -2.799935  2.028776
      ESP Fit Center  498 is at   6.819787 -1.822584  1.068776
      ESP Fit Center  499 is at   6.562555 -0.862584  1.068776
      ESP Fit Center  500 is at   4.899787 -3.742584  1.068776
      ESP Fit Center  501 is at   5.859787 -3.485352  1.068776
      ESP Fit Center  502 is at   6.562555 -2.782584  1.068776
      ESP Fit Center  503 is at   6.562555 -1.822584  0.108776
      ESP Fit Center  504 is at   6.244995 -0.845233  0.108776
      ESP Fit Center  505 is at   4.385963 -3.403971  0.108776
      ESP Fit Center  506 is at   5.413611 -3.403971  0.108776
      ESP Fit Center  507 is at   6.244995 -2.799935  0.108776
      ESP Fit Center  508 is at   5.859787 -1.822584 -0.593993
      ESP Fit Center  509 is at   5.379787 -2.653968 -0.593993
      ESP Fit Center  510 is at   4.531255 -0.201384  3.577779
      ESP Fit Center  511 is at   5.491255 -0.201384  3.320548
      ESP Fit Center  512 is at   5.011255  0.630000  3.320548
      ESP Fit Center  513 is at   4.051255  0.630000  3.320548
      ESP Fit Center  514 is at   6.194024 -0.201384  2.617779
      ESP Fit Center  515 is at   5.876463  0.775967  2.617779
      ESP Fit Center  516 is at   5.045079  1.380003  2.617779
      ESP Fit Center  517 is at   4.017431  1.380003  2.617779
      ESP Fit Center  518 is at   3.186047  0.775967  2.617779
      ESP Fit Center  519 is at   6.451255 -0.201384  1.657779
      ESP Fit Center  520 is at   6.194024  0.758616  1.657779
      ESP Fit Center  521 is at   5.491255  1.461385  1.657779
      ESP Fit Center  522 is at   4.531255  1.718616  1.657779
      ESP Fit Center  523 is at   3.571255  1.461385  1.657779
      ESP Fit Center  524 is at   5.876463  0.775967  0.697779
      ESP Fit Center  525 is at   5.045079  1.380003  0.697779
      ESP Fit Center  526 is at   4.017431  1.380003  0.697779
      ESP Fit Center  527 is at   3.501647 -1.568938  4.065251
      ESP Fit Center  528 is at   4.461647 -1.568938  3.808020
      ESP Fit Center  529 is at   3.981647 -0.737553  3.808020
      ESP Fit Center  530 is at   3.021647 -0.737553  3.808020
      ESP Fit Center  531 is at   2.541647 -1.568938  3.808020
      ESP Fit Center  532 is at   3.021647 -2.400322  3.808020
      ESP Fit Center  533 is at   3.981647 -2.400322  3.808020
      ESP Fit Center  534 is at   2.156439 -0.591587  3.105251
      ESP Fit Center  535 is at   1.838878 -1.568938  3.105251
      ESP Fit Center  536 is at   2.156439 -2.546289  3.105251
      ESP Fit Center  537 is at   2.987823 -3.150325  3.105251
      ESP Fit Center  538 is at   4.015471 -3.150325  3.105251
      ESP Fit Center  539 is at   2.541647 -3.231707  2.145251
      ESP Fit Center  540 is at   3.501647 -3.488938  2.145251
      ESP Fit Center  541 is at   0.206383 -3.357380 -0.448583
      ESP Fit Center  542 is at   1.234031 -3.357380 -0.448583
      ESP Fit Center  543 is at  -0.239793 -3.438761 -1.408583
      ESP Fit Center  544 is at   0.720207 -3.695993 -1.408583
      ESP Fit Center  545 is at   1.680207 -3.438761 -1.408583
      ESP Fit Center  546 is at  -0.625001 -2.753344 -2.368583
      ESP Fit Center  547 is at   0.206383 -3.357380 -2.368583
      ESP Fit Center  548 is at   1.234031 -3.357380 -2.368583
      ESP Fit Center  549 is at   2.065415 -2.753344 -2.368583
      ESP Fit Center  550 is at   1.680207 -1.775993 -3.071352
      ESP Fit Center  551 is at  -0.239793 -1.775993 -3.071352
      ESP Fit Center  552 is at   0.240207 -2.607377 -3.071352
      ESP Fit Center  553 is at   1.200207 -2.607377 -3.071352
      ESP Fit Center  554 is at   0.720207 -1.775993 -3.328583
      ESP Fit Center  555 is at   2.056132  1.352755 -2.592258
      ESP Fit Center  556 is at   2.502308 -0.228632 -3.295027
      ESP Fit Center  557 is at   2.022308  0.602752 -3.295027
      ESP Fit Center  558 is at   1.062308  0.602752 -3.295027
      ESP Fit Center  559 is at   0.582308 -0.228632 -3.295027
      ESP Fit Center  560 is at   2.022308 -1.060017 -3.295027
      ESP Fit Center  561 is at   1.542308 -0.228632 -3.552258
      ESP Fit Center  562 is at   1.544695 -1.432620  2.979736
      ESP Fit Center  563 is at   1.064695 -0.601235  2.722505
      ESP Fit Center  564 is at   0.584695 -1.432620  2.722505
      ESP Fit Center  565 is at   1.064695 -2.264004  2.722505
      ESP Fit Center  566 is at   0.199487 -0.455269  2.019736
      ESP Fit Center  567 is at  -0.118074 -1.432620  2.019736
      ESP Fit Center  568 is at   0.199487 -2.409971  2.019736
      ESP Fit Center  569 is at   1.030871 -3.014007  2.019736
      ESP Fit Center  570 is at   2.058519 -3.014007  2.019736
      ESP Fit Center  571 is at  -0.118074 -2.392620  1.059736
      ESP Fit Center  572 is at   0.584695 -3.095388  1.059736
      ESP Fit Center  573 is at   1.544695 -3.352620  1.059736
      ESP Fit Center  574 is at  -2.671558  1.064294  3.140334
      ESP Fit Center  575 is at  -3.188181  1.959111  2.934809
      ESP Fit Center  576 is at  -3.704804  1.064294  2.934809
[...]
  506 Fit       0.006386
  507 Fit       0.003397
  508 Fit      -0.017590
  509 Fit      -0.006475
  510 Fit       0.012625
  511 Fit       0.010998
  512 Fit       0.011432
  513 Fit       0.011710
  514 Fit       0.008250
  515 Fit       0.008911
  516 Fit       0.009220
  517 Fit       0.008641
  518 Fit       0.009951
  519 Fit       0.003026
  520 Fit       0.003186
  521 Fit       0.003570
  522 Fit       0.003195
  523 Fit       0.002289
  524 Fit      -0.008590
  525 Fit      -0.009046
  526 Fit      -0.008586
  527 Fit       0.018076
  528 Fit       0.014432
  529 Fit       0.014552
  530 Fit       0.018128
  531 Fit       0.023578
  532 Fit       0.021799
  533 Fit       0.017076
  534 Fit       0.024972
  535 Fit       0.035425
  536 Fit       0.030876
  537 Fit       0.022465
  538 Fit       0.016697
  539 Fit       0.027206
  540 Fit       0.018112
  541 Fit       0.024742
  542 Fit       0.014176
  543 Fit       0.025195
  544 Fit       0.016842
  545 Fit       0.008892
  546 Fit       0.022264
  547 Fit       0.017135
  548 Fit       0.010402
  549 Fit       0.000281
  550 Fit      -0.000766
  551 Fit       0.013273
  552 Fit       0.013060
  553 Fit       0.006843
  554 Fit       0.007572
  555 Fit      -0.017611
  556 Fit      -0.019872
  557 Fit      -0.010882
  558 Fit      -0.000321
  559 Fit       0.005639
  560 Fit      -0.008485
  561 Fit      -0.002750
  562 Fit       0.037215
  563 Fit       0.028504
  564 Fit       0.033912
  565 Fit       0.037938
  566 Fit       0.021084
  567 Fit       0.028809
  568 Fit       0.034737
  569 Fit       0.035092
  570 Fit       0.034654
  571 Fit       0.033235
  572 Fit       0.031035
  573 Fit       0.024917
  574 Fit       0.005697
  575 Fit       0.012100
  576 Fit       0.008994
  577 Fit       0.003390
  578 Fit       0.002575
  579 Fit       0.019539
  580 Fit       0.003845
  581 Fit       0.001880
  582 Fit      -0.002094
  583 Fit      -0.002906
  584 Fit       0.005745
  585 Fit       0.004026
  586 Fit       0.008299
  587 Fit       0.011916
  588 Fit       0.003364
  589 Fit       0.011730
  590 Fit       0.002444
  591 Fit       0.003122
  592 Fit      -0.002492
  593 Fit       0.013942
  594 Fit       0.010207
  595 Fit       0.020902
  596 Fit      -0.002046
  597 Fit       0.000336
  598 Fit       0.007304
  599 Fit       0.012929
  600 Fit       0.003808
  601 Fit      -0.001148
  602 Fit       0.002884
  603 Fit       0.003042
  604 Fit      -0.003880
  605 Fit       0.009303
  606 Fit      -0.004967
  607 Fit      -0.004078
  608 Fit       0.009141
  609 Fit      -0.003097
  610 Fit      -0.011581
  611 Fit      -0.011755
  612 Fit       0.010837
  613 Fit       0.008626
  614 Fit       0.012657
  615 Fit       0.012611
  616 Fit       0.010087
  617 Fit       0.006204
  618 Fit       0.006230
  619 Fit       0.012725
  620 Fit       0.017179
  621 Fit       0.012535
  622 Fit      -0.014660
  623 Fit       0.010740
  624 Fit      -0.017517
  625 Fit       0.006754
  626 Fit       0.019907
  627 Fit       0.018901
  628 Fit       0.011617
  629 Fit       0.009921
  630 Fit       0.003295
  631 Fit      -0.006567
  632 Fit      -0.027403
  633 Fit      -0.031106
  634 Fit      -0.031136
  635 Fit      -0.029252
  636 Fit      -0.037928
  637 Fit      -0.040197
  638 Fit      -0.039836
  639 Fit      -0.037959
  640 Fit      -0.017726
  641 Fit      -0.025204
  642 Fit      -0.032503
  643 Fit      -0.041563
  644 Fit      -0.042908
  645 Fit      -0.041833
  646 Fit      -0.038492
  647 Fit      -0.024449
  648 Fit      -0.031492
  649 Fit      -0.037442
  650 Fit      -0.041212
  651 Fit      -0.041252
  652 Fit      -0.034834
  653 Fit      -0.029980
  654 Fit      -0.036767
  655 Fit      -0.037308
  656 Fit      -0.002841
  657 Fit      -0.000161
  658 Fit       0.001056
  659 Fit      -0.000820
  660 Fit      -0.003990
  661 Fit      -0.004534
  662 Fit      -0.002867
  663 Fit       0.003628
  664 Fit      -0.002061
  665 Fit      -0.003498
  666 Fit      -0.003463
  667 Fit      -0.003888
  668 Fit      -0.003847
  669 Fit      -0.001383
  670 Fit       0.002417
  671 Fit       0.001790
  672 Fit      -0.002365
  673 Fit      -0.002285
  674 Fit      -0.001298
  675 Fit      -0.001375
  676 Fit      -0.002501
  677 Fit      -0.002892
  678 Fit      -0.000366
  679 Fit       0.005311
  680 Fit      -0.000401
  681 Fit      -0.002747
  682 Fit      -0.001646
  683 Fit       0.000010
  684 Fit       0.000382
  685 Fit      -0.000764
  686 Fit      -0.002004
  687 Fit      -0.000890
  688 Fit       0.004985
  689 Fit       0.003747
  690 Fit      -0.002529
  691 Fit      -0.003869
  692 Fit      -0.002409
  693 Fit      -0.000570
  694 Fit      -0.000038
  695 Fit      -0.000973
  696 Fit      -0.001849
  697 Fit       0.000089
  698 Fit       0.008676
  699 Fit      -0.000560
  700 Fit      -0.004355
  701 Fit      -0.005561
  702 Fit      -0.004390
  703 Fit      -0.002831
  704 Fit      -0.002388
  705 Fit      -0.002778
  706 Fit      -0.001786
  707 Fit       0.004225
  708 Fit      -0.003498
  709 Fit      -0.005215
  710 Fit      -0.006846
  711 Fit      -0.006447
  712 Fit      -0.005373
  713 Fit      -0.004718
  714 Fit      -0.002904
  715 Fit       0.003081
  716 Fit      -0.000828
  717 Fit      -0.004001
  718 Fit      -0.006238
  719 Fit      -0.007085
  720 Fit      -0.005782
  721 Fit      -0.002112
  722 Fit      -0.005238
  723 Fit      -0.000852
  724 Fit      -0.002462
  725 Fit      -0.003799
  726 Fit      -0.000439
  727 Fit       0.002491
  728 Fit       0.003301
  729 Fit       0.002157
  730 Fit      -0.002506
  731 Fit      -0.004640
  732 Fit      -0.004888
  733 Fit      -0.003287
  734 Fit       0.002666
  735 Fit       0.002862
  736 Fit      -0.004258
  737 Fit      -0.005249
  738 Fit      -0.004828
  739 Fit      -0.004877
  740 Fit      -0.003776
  741 Fit       0.002028
  742 Fit      -0.013751
  743 Fit      -0.008586
  744 Fit      -0.005670
  745 Fit      -0.005158
  746 Fit      -0.005378
  747 Fit      -0.003467
  748 Fit       0.004537
  749 Fit      -0.027213
  750 Fit      -0.013789
  751 Fit      -0.008281
  752 Fit      -0.006914
  753 Fit      -0.007088
  754 Fit      -0.005944
  755 Fit      -0.000893
  756 Fit      -0.032065
  757 Fit      -0.017360
  758 Fit      -0.011460
  759 Fit      -0.009875
  760 Fit      -0.009368
  761 Fit      -0.007244
  762 Fit      -0.003043
  763 Fit      -0.026642
  764 Fit      -0.017561
  765 Fit      -0.013477
  766 Fit      -0.011765
  767 Fit      -0.009400
  768 Fit      -0.006418
  769 Fit      -0.018434
  770 Fit      -0.014786
  771 Fit      -0.011283
  772 Fit      -0.007317
  773 Fit      -0.003310
  774 Fit      -0.011817
  775 Fit       0.011275
  776 Fit       0.016223
  777 Fit       0.012632
  778 Fit       0.020408
  779 Fit       0.017775
  780 Fit       0.014606
  781 Fit       0.008474
  782 Fit       0.018631
  783 Fit       0.016227
  784 Fit       0.012763
  785 Fit       0.014906
  786 Fit       0.013140
  787 Fit       0.009923
  788 Fit       0.011736
  789 Fit       0.015894
  790 Fit       0.011150
  791 Fit       0.015800
  792 Fit       0.018869
  793 Fit       0.012164
  794 Fit       0.015798
  795 Fit       0.018714
  796 Fit       0.010605
  797 Fit       0.013161
  798 Fit       0.014900
  799 Fit       0.021349
  800 Fit       0.013204
  801 Fit       0.018913
  802 Fit       0.023147
  803 Fit       0.009429
  804 Fit       0.016200
  805 Fit       0.020921
  806 Fit       0.012319
  807 Fit       0.017992
  808 Fit       0.006661
  809 Fit       0.012519
  810 Fit       0.010527
  811 Fit       0.008830
  812 Fit       0.002650
  813 Fit      -0.001084
  814 Fit       0.011877
  815 Fit       0.009583
  816 Fit       0.008092
  817 Fit       0.005927
  818 Fit      -0.005046
  819 Fit      -0.014571
  820 Fit       0.005818
  821 Fit       0.003686
  822 Fit       0.000612
  823 Fit      -0.020439
  824 Fit      -0.009163
  825 Fit       0.011485
  826 Fit       0.009476
  827 Fit       0.009477
  828 Fit       0.010152
  829 Fit       0.006700
  830 Fit       0.006686
  831 Fit       0.006829
  832 Fit       0.006503
  833 Fit       0.006832
  834 Fit       0.001641
  835 Fit       0.001103
  836 Fit       0.001130
  837 Fit       0.000808
  838 Fit      -0.000344
  839 Fit      -0.010787
  840 Fit      -0.011665
  841 Fit      -0.012526
  842 Fit       0.015892
  843 Fit       0.012804
  844 Fit       0.013011
  845 Fit       0.016020
  846 Fit       0.020847
  847 Fit       0.019193
  848 Fit       0.015036
  849 Fit       0.017894
  850 Fit       0.028826
  851 Fit       0.031619
  852 Fit       0.024718
  853 Fit       0.018302
  854 Fit       0.014257
  855 Fit       0.021289
  856 Fit       0.015242
  857 Fit       0.020226
  858 Fit       0.019557
  859 Fit       0.013050
  860 Fit       0.005874
  861 Fit       0.017715
  862 Fit       0.012894
  863 Fit       0.006602
  864 Fit      -0.003542
  865 Fit       0.010611
  866 Fit       0.010496
  867 Fit       0.004505
  868 Fit       0.005296
  869 Fit      -0.020895
  870 Fit      -0.012557
  871 Fit      -0.002394
  872 Fit       0.003676
  873 Fit      -0.009470
  874 Fit      -0.004409
  875 Fit       0.031417
  876 Fit       0.023458
  877 Fit       0.028013
  878 Fit       0.031884
  879 Fit       0.026164
  880 Fit       0.029651
  881 Fit       0.029483
  882 Fit       0.028879
  883 Fit       0.025341
  884 Fit       0.005759
  885 Fit       0.010135
  886 Fit       0.007555
  887 Fit       0.003616
  888 Fit       0.003654
  889 Fit       0.015399
  890 Fit       0.007976
  891 Fit       0.007183
  892 Fit       0.002113
  893 Fit       0.000260
  894 Fit      -0.001977
  895 Fit       0.005946
  896 Fit       0.004553
  897 Fit       0.007272
  898 Fit       0.010064
  899 Fit       0.004546
  900 Fit       0.015690
  901 Fit       0.007408
  902 Fit       0.000461
  903 Fit       0.001537
  904 Fit      -0.002529
  905 Fit       0.013511
  906 Fit       0.019429
  907 Fit       0.019873
  908 Fit      -0.001257
  909 Fit       0.000394
  910 Fit       0.005639
  911 Fit       0.009784
  912 Fit       0.003241
  913 Fit      -0.001066
  914 Fit       0.003668
  915 Fit      -0.003310
  916 Fit       0.009637
  917 Fit       0.004069
  918 Fit      -0.002483
  919 Fit      -0.008693
  920 Fit       0.010016
  921 Fit       0.010293
  922 Fit       0.008043
  923 Fit       0.011805
  924 Fit       0.011684
  925 Fit       0.009279
  926 Fit       0.006029
  927 Fit       0.005931
  928 Fit       0.012140
  929 Fit       0.011355
  930 Fit       0.015275
  931 Fit       0.011477
  932 Fit      -0.006005
  933 Fit       0.012037
  934 Fit      -0.021013
  935 Fit      -0.009598
  936 Fit      -0.015423
  937 Fit       0.004343
  938 Fit      -0.001680
  939 Fit       0.000018
  940 Fit       0.023678
  941 Fit       0.017956
  942 Fit       0.013770
  943 Fit       0.014041
  944 Fit       0.007973
  945 Fit       0.000288
  946 Fit      -0.020079
  947 Fit      -0.019496
  948 Fit      -0.027190
  949 Fit      -0.029742
  950 Fit      -0.030264
  951 Fit      -0.029433
  952 Fit      -0.022094
  953 Fit      -0.033019
  954 Fit      -0.034758
  955 Fit      -0.034778
  956 Fit      -0.033607
  957 Fit      -0.013394
  958 Fit      -0.019131
  959 Fit      -0.024488
  960 Fit      -0.029392
  961 Fit      -0.034988
  962 Fit      -0.036138
  963 Fit      -0.035583
  964 Fit      -0.033311
  965 Fit      -0.016316
  966 Fit      -0.022787
  967 Fit      -0.027888
  968 Fit      -0.032084
  969 Fit      -0.034317
  970 Fit      -0.034313
  971 Fit      -0.028972
  972 Fit      -0.024907
  973 Fit      -0.030578
  974 Fit      -0.030790
  975 Fit      -0.001032
  976 Fit       0.001035
  977 Fit       0.001775
  978 Fit       0.000424
  979 Fit      -0.002116
  980 Fit      -0.002539
  981 Fit      -0.000977
  982 Fit       0.003758
  983 Fit       0.003694
  984 Fit      -0.000584
  985 Fit      -0.002196
  986 Fit      -0.002487
  987 Fit      -0.002595
  988 Fit      -0.002029
  989 Fit       0.000234
  990 Fit       0.003260
  991 Fit       0.002777
  992 Fit      -0.001004
  993 Fit      -0.001691
  994 Fit      -0.001418
  995 Fit      -0.001466
  996 Fit      -0.001851
  997 Fit      -0.001485
  998 Fit       0.000942
  999 Fit       0.005495
 1000 Fit       0.003825
 1001 Fit      -0.000667
 1002 Fit      -0.001505
 1003 Fit      -0.000872
 1004 Fit      -0.000265
 1005 Fit      -0.000394
 1006 Fit      -0.001009
 1007 Fit      -0.001035
 1008 Fit       0.000965
 1009 Fit       0.006080
 1010 Fit       0.000753
 1011 Fit      -0.001798
 1012 Fit      -0.001892
 1013 Fit      -0.000958
 1014 Fit      -0.000128
 1015 Fit      -0.000011
 1016 Fit      -0.000515
 1017 Fit      -0.000857
 1018 Fit       0.000242
 1019 Fit       0.004347
 1020 Fit       0.003964
 1021 Fit      -0.000735
 1022 Fit      -0.002950
 1023 Fit      -0.002943
 1024 Fit      -0.001916
 1025 Fit      -0.001054
 1026 Fit      -0.000934
 1027 Fit      -0.001210
 1028 Fit      -0.000640
 1029 Fit       0.002729
 1030 Fit      -0.001074
 1031 Fit      -0.003381
 1032 Fit      -0.004397
 1033 Fit      -0.003917
 1034 Fit      -0.003010
 1035 Fit      -0.002524
 1036 Fit      -0.002220
 1037 Fit      -0.000633
 1038 Fit       0.004598
 1039 Fit      -0.003176
 1040 Fit      -0.004097
 1041 Fit      -0.005172
 1042 Fit      -0.005087
 1043 Fit      -0.004382
 1044 Fit      -0.003558
 1045 Fit      -0.001631
 1046 Fit       0.002950
 1047 Fit      -0.000625
 1048 Fit      -0.003213
 1049 Fit      -0.004693
 1050 Fit      -0.005209
 1051 Fit      -0.004072
 1052 Fit      -0.001213
 1053 Fit      -0.003761
 1054 Fit       0.001070
 1055 Fit      -0.000072
 1056 Fit      -0.001562
 1057 Fit       0.000994
 1058 Fit       0.003235
 1059 Fit       0.004500
 1060 Fit       0.004107
 1061 Fit      -0.000198
 1062 Fit      -0.002793
 1063 Fit      -0.003097
 1064 Fit      -0.001459
 1065 Fit       0.003147
 1066 Fit      -0.000925
 1067 Fit      -0.003738
 1068 Fit      -0.003963
 1069 Fit      -0.003650
 1070 Fit      -0.002035
 1071 Fit       0.003066
 1072 Fit      -0.007457
 1073 Fit      -0.006679
 1074 Fit      -0.005181
 1075 Fit      -0.004488
 1076 Fit      -0.004046
 1077 Fit      -0.002283
 1078 Fit       0.003187
 1079 Fit      -0.020534
 1080 Fit      -0.012103
 1081 Fit      -0.007831
 1082 Fit      -0.005983
 1083 Fit      -0.005406
 1084 Fit      -0.004770
 1085 Fit      -0.002530
 1086 Fit       0.003028
 1087 Fit      -0.016356
 1088 Fit      -0.010241
 1089 Fit      -0.007856
 1090 Fit      -0.007034
 1091 Fit      -0.005950
 1092 Fit      -0.003110
 1093 Fit       0.001795
 1094 Fit      -0.030793
 1095 Fit      -0.017721
 1096 Fit      -0.011972
 1097 Fit      -0.009695
 1098 Fit      -0.008421
 1099 Fit      -0.006395
 1100 Fit      -0.003504
 1101 Fit      -0.023892
 1102 Fit      -0.016406
 1103 Fit      -0.012392
 1104 Fit      -0.010238
 1105 Fit      -0.008053
 1106 Fit      -0.005870
 1107 Fit      -0.004707
 1108 Fit      -0.016192
 1109 Fit      -0.012867
 1110 Fit      -0.009618
 1111 Fit      -0.006607
 1112 Fit      -0.004121
 1113 Fit      -0.010372
 1114 Fit       0.013485
 1115 Fit       0.010477
 1116 Fit       0.017141
 1117 Fit       0.014922
 1118 Fit       0.012126
 1119 Fit       0.017663
 1120 Fit       0.015141
 1121 Fit       0.012696
 1122 Fit       0.008489
 1123 Fit       0.015579
 1124 Fit       0.013335
 1125 Fit       0.010898
 1126 Fit       0.009597
 1127 Fit       0.006700
 1128 Fit       0.009853
 1129 Fit       0.013265
 1130 Fit       0.009344
 1131 Fit       0.013228
 1132 Fit       0.016000
 1133 Fit       0.009647
 1134 Fit       0.013210
 1135 Fit       0.015872
 1136 Fit       0.007180
 1137 Fit       0.011143
 1138 Fit       0.013630
 1139 Fit       0.007083
 1140 Fit       0.009404
 1141 Fit       0.012425
 1142 Fit       0.019267
 1143 Fit       0.012201
 1144 Fit       0.017145
 1145 Fit       0.021276
 1146 Fit       0.012768
 1147 Fit       0.016879
 1148 Fit       0.007737
 1149 Fit       0.013187
 1150 Fit       0.017228
 1151 Fit       0.009904
 1152 Fit       0.014405
 1153 Fit       0.006455
 1154 Fit       0.009673
 1155 Fit       0.007999
 1156 Fit       0.003436
 1157 Fit       0.008957
 1158 Fit       0.007440
 1159 Fit       0.005659
 1160 Fit      -0.001321
 1161 Fit      -0.005824
 1162 Fit       0.008259
 1163 Fit       0.006242
 1164 Fit       0.004512
 1165 Fit       0.002133
 1166 Fit      -0.009688
 1167 Fit       0.001791
 1168 Fit      -0.000326
 1169 Fit      -0.003614
 1170 Fit       0.008674
 1171 Fit       0.008392
 1172 Fit       0.009338
 1173 Fit       0.006513
 1174 Fit       0.006166
 1175 Fit       0.006168
 1176 Fit       0.006110
 1177 Fit       0.007015
 1178 Fit       0.003193
 1179 Fit       0.002559
 1180 Fit       0.002462
 1181 Fit       0.002242
 1182 Fit       0.001487
 1183 Fit      -0.004060
 1184 Fit      -0.004496
 1185 Fit      -0.004947
 1186 Fit      -0.017934
 1187 Fit       0.014187
 1188 Fit       0.011817
 1189 Fit       0.012001
 1190 Fit       0.014346
 1191 Fit       0.017814
 1192 Fit       0.016714
 1193 Fit       0.013582
 1194 Fit       0.015650
 1195 Fit       0.022629
 1196 Fit       0.024818
 1197 Fit       0.020882
 1198 Fit       0.016333
 1199 Fit       0.013133
 1200 Fit       0.024443
 1201 Fit       0.017386
 1202 Fit       0.013507
 1203 Fit       0.017195
 1204 Fit       0.011648
 1205 Fit       0.013871
 1206 Fit       0.008940
 1207 Fit       0.002368
 1208 Fit       0.013277
 1209 Fit       0.009822
 1210 Fit       0.004413
 1211 Fit      -0.004579
 1212 Fit       0.007917
 1213 Fit       0.007805
 1214 Fit       0.002802
 1215 Fit       0.003548
 1216 Fit      -0.017822
 1217 Fit      -0.012021
 1218 Fit      -0.003732
 1219 Fit      -0.009046
 1220 Fit      -0.005367
 1221 Fit       0.020897
 1222 Fit       0.024089
 1223 Fit       0.027384
 1224 Fit       0.017818
 1225 Fit       0.022654
 1226 Fit       0.025730
 1227 Fit       0.026511
 1228 Fit       0.024707
 1229 Fit       0.023164
 -----------------------------------------------------------------
 Leave Link  602 at Sat Feb 17 21:05:21 2018, MaxMem=   33554432 cpu:       0.4

 Test job not archived.
 1\1\GINC-NODE014\SP\RHF\6-31G(d)\C9H9Cl2N1O1\WULSDORT\17-Feb-2018\0\\#
 HF/6-31G* Geom=AllCheck Guess=Read Pop=(MK,ReadRadii) Integral=(Grid=U
 ltraFine) iop(6/33=2)\\Optimization for frag45-conf1\\0,1\C,0,2.126284
 0746,-1.2802540821,-0.131798734\C,0,1.0060278031,-0.6042334147,0.34912
 58228\C,0,2.8603764724,-1.6306004673,2.1509586152\C,0,1.7388286281,-0.
 9571175011,2.6511550277\C,0,3.0482283418,-1.788479966,0.7795323372\C,0
 ,0.8177218838,-0.4472411631,1.7215894703\C,0,-0.4040721485,-1.24270062
 56,5.5887233341\C,0,-1.467487616,-2.2570342211,5.9826360334\C,0,1.5632
 709934,-0.8180597221,4.1489221808\N,0,0.5068706942,-1.6793419988,4.661
 1926602\O,0,-0.3728562023,-0.1151611197,6.0624881803\Cl,0,4.4687192265
 ,-2.6412886504,0.196204083\Cl,0,-0.6031433916,0.4274693978,2.267570536
 4\H,0,2.2793550976,-1.4052962617,-1.1981206405\H,0,0.2783282856,-0.193
 2634536,-0.342361765\H,0,3.5946982785,-2.0308016604,2.8431768483\H,0,-
 1.4810060092,-2.3480268487,7.0724769184\H,0,-2.4461009485,-1.875938454
 8,5.6736371841\H,0,-1.3204880922,-3.2484064796,5.5422873245\H,0,2.5185
 880048,-1.0442507303,4.6410618065\H,0,1.2827594083,0.2002833677,4.4311
 430921\H,0,0.4493845603,-2.626085273,4.3147477564\\Version=AM64L-G09Re
 vC.01\State=1-A\HF=-1394.3455759\RMSD=4.181e-09\Dipole=0.0206162,-1.27
 21163,-0.6749202\Quadrupole=0.4238122,-0.3841404,-0.0396717,5.5497163,
 4.3792884,-9.7514272\PG=C01 [X(C9H9Cl2N1O1)]\\@


 HOW IS IT THAT THE SKY FEEDS THE STARS?

                           -- LUCRETIUS
 Job cpu time:  0 days  0 hours  2 minutes 28.0 seconds.
 File lengths (MBytes):  RWF=     30 Int=      0 D2E=      0 Chk=      4 Scr=      1
 Normal termination of Gaussian 09 at Sat Feb 17 21:05:21 2018.
