 Entering Gaussian System, Link 0=g09
 Initial command:
 /home/fb_chem/chemsoft/lx24-amd64/Gaussian_09_C.01_NBO_3.1_64_istanbul-64/g09/l1.exe /local/2397391.1.parallel_long/Gau-9097.inp -scrdir=/local/2397391.1.parallel_long/
 Entering Link 1 = /home/fb_chem/chemsoft/lx24-amd64/Gaussian_09_C.01_NBO_3.1_64_istanbul-64/g09/l1.exe PID=      9098.
  
 Copyright (c) 1988,1990,1992,1993,1995,1998,2003,2009,2011,
            Gaussian, Inc.  All Rights Reserved.
  
 This is part of the Gaussian(R) 09 program.  It is based on
 the Gaussian(R) 03 system (copyright 2003, Gaussian, Inc.),
 the Gaussian(R) 98 system (copyright 1998, Gaussian, Inc.),
 the Gaussian(R) 94 system (copyright 1995, Gaussian, Inc.),
 the Gaussian 92(TM) system (copyright 1992, Gaussian, Inc.),
 the Gaussian 90(TM) system (copyright 1990, Gaussian, Inc.),
 the Gaussian 88(TM) system (copyright 1988, Gaussian, Inc.),
 the Gaussian 86(TM) system (copyright 1986, Carnegie Mellon
 University), and the Gaussian 82(TM) system (copyright 1983,
 Carnegie Mellon University). Gaussian is a federally registered
 trademark of Gaussian, Inc.
  
 This software contains proprietary and confidential information,
 including trade secrets, belonging to Gaussian, Inc.
  
 This software is provided under written license and may be
 used, copied, transmitted, or stored only in accord with that
 written license.
  
 The following legend is applicable only to US Government
 contracts under FAR:
  
                    RESTRICTED RIGHTS LEGEND
  
 Use, reproduction and disclosure by the US Government is
 subject to restrictions as set forth in subparagraphs (a)
 and (c) of the Commercial Computer Software - Restricted
 Rights clause in FAR 52.227-19.
  
 Gaussian, Inc.
 340 Quinnipiac St., Bldg. 40, Wallingford CT 06492
  
  
 ---------------------------------------------------------------
 Warning -- This program may not be used in any manner that
 competes with the business of Gaussian, Inc. or will provide
 assistance to any competitor of Gaussian, Inc.  The licensee
 of this program is prohibited from giving any competitor of
 Gaussian, Inc. access to this program.  By using this program,
 the user acknowledges that Gaussian, Inc. is engaged in the
 business of creating and licensing software in the field of
 computational chemistry and represents and warrants to the
 licensee that it is not a competitor of Gaussian, Inc. and that
 it will not use this program in any manner prohibited above.
 ---------------------------------------------------------------
  

 Cite this work as:
 Gaussian 09, Revision C.01,
 M. J. Frisch, G. W. Trucks, H. B. Schlegel, G. E. Scuseria, 
 M. A. Robb, J. R. Cheeseman, G. Scalmani, V. Barone, B. Mennucci, 
 G. A. Petersson, H. Nakatsuji, M. Caricato, X. Li, H. P. Hratchian, 
 A. F. Izmaylov, J. Bloino, G. Zheng, J. L. Sonnenberg, M. Hada, 
 M. Ehara, K. Toyota, R. Fukuda, J. Hasegawa, M. Ishida, T. Nakajima, 
 Y. Honda, O. Kitao, H. Nakai, T. Vreven, J. A. Montgomery, Jr., 
 J. E. Peralta, F. Ogliaro, M. Bearpark, J. J. Heyd, E. Brothers, 
 K. N. Kudin, V. N. Staroverov, T. Keith, R. Kobayashi, J. Normand, 
 K. Raghavachari, A. Rendell, J. C. Burant, S. S. Iyengar, J. Tomasi, 
 M. Cossi, N. Rega, J. M. Millam, M. Klene, J. E. Knox, J. B. Cross, 
 V. Bakken, C. Adamo, J. Jaramillo, R. Gomperts, R. E. Stratmann, 
 O. Yazyev, A. J. Austin, R. Cammi, C. Pomelli, J. W. Ochterski, 
 R. L. Martin, K. Morokuma, V. G. Zakrzewski, G. A. Voth, 
 P. Salvador, J. J. Dannenberg, S. Dapprich, A. D. Daniels, 
 O. Farkas, J. B. Foresman, J. V. Ortiz, J. Cioslowski, 
 and D. J. Fox, Gaussian, Inc., Wallingford CT, 2010.
 
 ******************************************
 Gaussian 09:  AM64L-G09RevC.01 23-Sep-2011
                16-Feb-2018 
 ******************************************
 %nprocs=4
 Will use up to    4 processors via shared memory.
 %chk=frag34-conf1.chk
 ---------------------------------------------------------
 #B3LYP/6-31G* Integral=(Grid=UltraFine) freq Opt pop=none
 ---------------------------------------------------------
 1/14=-1,18=20,19=15,26=3,38=1/1,3;
 2/9=110,12=2,17=6,18=5,40=1/2;
 3/5=1,6=6,7=1,11=2,16=1,25=1,30=1,71=1,74=-5,75=-5/1,2,3;
 4//1;
 5/5=2,38=5/2;
 7//1,2,3,16;
 1/14=-1,18=20,19=15/3(2);
 2/9=110/2;
 99//99;
 2/9=110/2;
 3/5=1,6=6,7=1,11=2,16=1,25=1,30=1,71=1,74=-5,75=-5/1,2,3;
 4/5=5,16=3/1;
 5/5=2,38=5/2;
 7//1,2,3,16;
 1/14=-1,18=20,19=15/3(-5);
 2/9=110/2;
 99/9=1/99;
 -----------------------------
 Optimization for frag34-conf1
 -----------------------------
 Charge =  0 Multiplicity = 1
 Symbolic Z-Matrix:
 C                     1.7167   -0.87719  -0.07656 
 C                     0.74895  -0.46417   0.84499 
 C                     2.07701  -1.36975   2.65942 
 C                     2.87127  -1.53931   0.35708 
 C                     0.93131  -0.71802   2.20604 
 C                     3.03928  -1.77893   1.73399 
 C                    -2.77636  -1.01921   3.84091 
 C                     3.71254  -1.75076  -1.87027 
 N                    -1.51325  -1.33294   3.14462 
 O                     0.21429  -0.33721   4.71139 
 O                    -0.80255   1.11448   2.91323 
 O                     3.87146  -1.9794   -0.47223 
 S                    -0.29158  -0.16843   3.36128 
 Cl                    4.44613  -2.5894    2.33603 
 H                     1.53555  -0.66379  -1.12677 
 H                    -0.14445   0.05012   0.49438 
 H                     2.22221  -1.5601    3.71951 
 H                    -3.21225  -0.09376   3.45639 
 H                    -2.61479  -0.94454   4.91971 
 H                    -3.48568  -1.83244   3.66107 
 H                     4.5898   -2.16486  -2.37651 
 H                     3.67482  -0.67924  -2.09197 
 H                     2.82915  -2.26977  -2.2563 
 H                    -1.14466  -2.23828   3.46263 
 

 GradGradGradGradGradGradGradGradGradGradGradGradGradGradGradGradGradGrad
 Berny optimization.
 Initialization pass.
                           ----------------------------
                           !    Initial Parameters    !
                           ! (Angstroms and Degrees)  !
 --------------------------                            --------------------------
 ! Name  Definition              Value          Derivative Info.                !
 --------------------------------------------------------------------------------
 ! R1    R(1,2)                  1.3987         estimate D2E/DX2                !
 ! R2    R(1,4)                  1.3998         estimate D2E/DX2                !
 ! R3    R(1,15)                 1.0869         estimate D2E/DX2                !
 ! R4    R(2,5)                  1.3965         estimate D2E/DX2                !
 ! R5    R(2,16)                 1.0888         estimate D2E/DX2                !
 ! R6    R(3,5)                  1.3939         estimate D2E/DX2                !
 ! R7    R(3,6)                  1.3964         estimate D2E/DX2                !
 ! R8    R(3,17)                 1.0868         estimate D2E/DX2                !
 ! R9    R(4,6)                  1.4077         estimate D2E/DX2                !
 ! R10   R(4,12)                 1.3718         estimate D2E/DX2                !
 ! R11   R(5,13)                 1.7698         estimate D2E/DX2                !
 ! R12   R(6,14)                 1.7316         estimate D2E/DX2                !
 ! R13   R(7,9)                  1.476          estimate D2E/DX2                !
 ! R14   R(7,18)                 1.0929         estimate D2E/DX2                !
 ! R15   R(7,19)                 1.0934         estimate D2E/DX2                !
 ! R16   R(7,20)                 1.094          estimate D2E/DX2                !
 ! R17   R(8,12)                 1.4255         estimate D2E/DX2                !
 ! R18   R(8,21)                 1.0942         estimate D2E/DX2                !
 ! R19   R(8,22)                 1.0949         estimate D2E/DX2                !
 ! R20   R(8,23)                 1.0949         estimate D2E/DX2                !
 ! R21   R(9,13)                 1.7016         estimate D2E/DX2                !
 ! R22   R(9,24)                 1.0279         estimate D2E/DX2                !
 ! R23   R(10,13)                1.4516         estimate D2E/DX2                !
 ! R24   R(11,13)                1.4518         estimate D2E/DX2                !
 ! A1    A(2,1,4)              120.4136         estimate D2E/DX2                !
 ! A2    A(2,1,15)             117.6026         estimate D2E/DX2                !
 ! A3    A(4,1,15)             121.9838         estimate D2E/DX2                !
 ! A4    A(1,2,5)              119.8754         estimate D2E/DX2                !
 ! A5    A(1,2,16)             119.6702         estimate D2E/DX2                !
 ! A6    A(5,2,16)             120.4539         estimate D2E/DX2                !
 ! A7    A(5,3,6)              119.201          estimate D2E/DX2                !
 ! A8    A(5,3,17)             120.5959         estimate D2E/DX2                !
 ! A9    A(6,3,17)             120.203          estimate D2E/DX2                !
 ! A10   A(1,4,6)              118.8146         estimate D2E/DX2                !
 ! A11   A(1,4,12)             124.4608         estimate D2E/DX2                !
 ! A12   A(6,4,12)             116.7246         estimate D2E/DX2                !
 ! A13   A(2,5,3)              120.6196         estimate D2E/DX2                !
 ! A14   A(2,5,13)             119.3087         estimate D2E/DX2                !
 ! A15   A(3,5,13)             120.0554         estimate D2E/DX2                !
 ! A16   A(3,6,4)              121.0732         estimate D2E/DX2                !
 ! A17   A(3,6,14)             117.8145         estimate D2E/DX2                !
 ! A18   A(4,6,14)             121.1123         estimate D2E/DX2                !
 ! A19   A(9,7,18)             110.8136         estimate D2E/DX2                !
 ! A20   A(9,7,19)             110.7012         estimate D2E/DX2                !
 ! A21   A(9,7,20)             108.6205         estimate D2E/DX2                !
 ! A22   A(18,7,19)            110.3814         estimate D2E/DX2                !
 ! A23   A(18,7,20)            108.2429         estimate D2E/DX2                !
 ! A24   A(19,7,20)            107.9855         estimate D2E/DX2                !
 ! A25   A(12,8,21)            107.6765         estimate D2E/DX2                !
 ! A26   A(12,8,22)            111.0635         estimate D2E/DX2                !
 ! A27   A(12,8,23)            111.082          estimate D2E/DX2                !
 ! A28   A(21,8,22)            107.7168         estimate D2E/DX2                !
 ! A29   A(21,8,23)            107.7185         estimate D2E/DX2                !
 ! A30   A(22,8,23)            111.3918         estimate D2E/DX2                !
 ! A31   A(7,9,13)             114.133          estimate D2E/DX2                !
 ! A32   A(7,9,24)             110.3717         estimate D2E/DX2                !
 ! A33   A(13,9,24)            107.8133         estimate D2E/DX2                !
 ! A34   A(4,12,8)             117.397          estimate D2E/DX2                !
 ! A35   A(5,13,9)             101.5637         estimate D2E/DX2                !
 ! A36   A(5,13,10)            109.2811         estimate D2E/DX2                !
 ! A37   A(5,13,11)            108.4311         estimate D2E/DX2                !
 ! A38   A(9,13,10)            106.8011         estimate D2E/DX2                !
 ! A39   A(9,13,11)            108.2262         estimate D2E/DX2                !
 ! A40   A(10,13,11)           120.8262         estimate D2E/DX2                !
 ! D1    D(4,1,2,5)             -0.2696         estimate D2E/DX2                !
 ! D2    D(4,1,2,16)           179.9841         estimate D2E/DX2                !
 ! D3    D(15,1,2,5)           179.7841         estimate D2E/DX2                !
 ! D4    D(15,1,2,16)            0.0378         estimate D2E/DX2                !
 ! D5    D(2,1,4,6)             -0.0757         estimate D2E/DX2                !
 ! D6    D(2,1,4,12)          -179.9834         estimate D2E/DX2                !
 ! D7    D(15,1,4,6)           179.8682         estimate D2E/DX2                !
 ! D8    D(15,1,4,12)           -0.0395         estimate D2E/DX2                !
 ! D9    D(1,2,5,3)              0.6018         estimate D2E/DX2                !
 ! D10   D(1,2,5,13)           179.1336         estimate D2E/DX2                !
 ! D11   D(16,2,5,3)          -179.6539         estimate D2E/DX2                !
 ! D12   D(16,2,5,13)           -1.1221         estimate D2E/DX2                !
 ! D13   D(6,3,5,2)             -0.577          estimate D2E/DX2                !
 ! D14   D(6,3,5,13)          -179.0979         estimate D2E/DX2                !
 ! D15   D(17,3,5,2)           179.5132         estimate D2E/DX2                !
 ! D16   D(17,3,5,13)            0.9924         estimate D2E/DX2                !
 ! D17   D(5,3,6,4)              0.2262         estimate D2E/DX2                !
 ! D18   D(5,3,6,14)          -179.8223         estimate D2E/DX2                !
 ! D19   D(17,3,6,4)          -179.8637         estimate D2E/DX2                !
 ! D20   D(17,3,6,14)            0.0878         estimate D2E/DX2                !
 ! D21   D(1,4,6,3)              0.0974         estimate D2E/DX2                !
 ! D22   D(1,4,6,14)          -179.8525         estimate D2E/DX2                !
 ! D23   D(12,4,6,3)          -179.9878         estimate D2E/DX2                !
 ! D24   D(12,4,6,14)            0.0623         estimate D2E/DX2                !
 ! D25   D(1,4,12,8)            -0.4276         estimate D2E/DX2                !
 ! D26   D(6,4,12,8)           179.6629         estimate D2E/DX2                !
 ! D27   D(2,5,13,9)            77.0411         estimate D2E/DX2                !
 ! D28   D(2,5,13,10)         -170.3681         estimate D2E/DX2                !
 ! D29   D(2,5,13,11)          -36.8312         estimate D2E/DX2                !
 ! D30   D(3,5,13,9)          -104.4187         estimate D2E/DX2                !
 ! D31   D(3,5,13,10)            8.1722         estimate D2E/DX2                !
 ! D32   D(3,5,13,11)          141.709          estimate D2E/DX2                !
 ! D33   D(18,7,9,13)           62.518          estimate D2E/DX2                !
 ! D34   D(18,7,9,24)         -175.8849         estimate D2E/DX2                !
 ! D35   D(19,7,9,13)          -60.2983         estimate D2E/DX2                !
 ! D36   D(19,7,9,24)           61.2988         estimate D2E/DX2                !
 ! D37   D(20,7,9,13)         -178.6997         estimate D2E/DX2                !
 ! D38   D(20,7,9,24)          -57.1026         estimate D2E/DX2                !
 ! D39   D(21,8,12,4)         -179.7504         estimate D2E/DX2                !
 ! D40   D(22,8,12,4)           62.5394         estimate D2E/DX2                !
 ! D41   D(23,8,12,4)          -62.0277         estimate D2E/DX2                !
 ! D42   D(7,9,13,5)          -171.0881         estimate D2E/DX2                !
 ! D43   D(7,9,13,10)           74.4648         estimate D2E/DX2                !
 ! D44   D(7,9,13,11)          -57.0631         estimate D2E/DX2                !
 ! D45   D(24,9,13,5)           65.9137         estimate D2E/DX2                !
 ! D46   D(24,9,13,10)         -48.5334         estimate D2E/DX2                !
 ! D47   D(24,9,13,11)         179.9387         estimate D2E/DX2                !
 --------------------------------------------------------------------------------
 Trust Radius=3.00D-01 FncErr=1.00D-07 GrdErr=1.00D-06
 Number of steps in this run=    121 maximum allowed number of steps=    144.
 GradGradGradGradGradGradGradGradGradGradGradGradGradGradGradGradGradGrad

                          Input orientation:                          
 ---------------------------------------------------------------------
 Center     Atomic      Atomic             Coordinates (Angstroms)
 Number     Number       Type             X           Y           Z
 ---------------------------------------------------------------------
      1          6           0        1.716697   -0.877194   -0.076561
      2          6           0        0.748946   -0.464173    0.844993
      3          6           0        2.077012   -1.369749    2.659417
      4          6           0        2.871275   -1.539307    0.357083
      5          6           0        0.931310   -0.718020    2.206042
      6          6           0        3.039282   -1.778930    1.733989
      7          6           0       -2.776363   -1.019214    3.840909
      8          6           0        3.712536   -1.750756   -1.870271
      9          7           0       -1.513250   -1.332941    3.144619
     10          8           0        0.214294   -0.337210    4.711392
     11          8           0       -0.802549    1.114480    2.913231
     12          8           0        3.871463   -1.979402   -0.472225
     13         16           0       -0.291584   -0.168429    3.361279
     14         17           0        4.446127   -2.589396    2.336030
     15          1           0        1.535547   -0.663787   -1.126770
     16          1           0       -0.144448    0.050124    0.494375
     17          1           0        2.222215   -1.560103    3.719511
     18          1           0       -3.212253   -0.093756    3.456386
     19          1           0       -2.614790   -0.944544    4.919709
     20          1           0       -3.485677   -1.832438    3.661068
     21          1           0        4.589801   -2.164861   -2.376505
     22          1           0        3.674822   -0.679240   -2.091966
     23          1           0        2.829153   -2.269766   -2.256299
     24          1           0       -1.144664   -2.238275    3.462626
 ---------------------------------------------------------------------
                    Distance matrix (angstroms):
                    1          2          3          4          5
     1  C    0.000000
     2  C    1.398710   0.000000
     3  C    2.803214   2.424038   0.000000
     4  C    1.399818   2.428631   2.441381   0.000000
     5  C    2.419182   1.396477   1.393891   2.802967   0.000000
     6  C    2.416702   2.786492   1.396356   1.407663   2.406639
     7  C    5.962744   4.659547   5.007399   6.656076   4.063293
     8  C    2.822035   4.220287   4.830961   2.390301   5.041636
     9  N    4.584349   3.340743   3.623087   5.199711   2.689782
    10  O    5.047107   3.905254   2.957441   5.240667   2.633611
    11  O    4.387735   3.029338   3.811520   5.203216   2.620007
    12  O    2.452433   3.712290   3.660452   1.371791   4.172373
    13  S    4.044043   2.738952   2.747003   4.572546   1.769772
    14  Cl   4.025173   4.517622   2.684180   2.738444   3.984079
    15  H    1.086875   2.132238   3.889316   2.180029   3.387577
    16  H    2.156327   1.088846   3.411499   3.411704   2.162661
    17  H    3.889996   3.410929   1.086792   3.424562   2.160122
    18  H    6.114739   4.758957   5.499058   6.978868   4.372892
    19  H    6.612793   5.305543   5.225201   7.160182   4.471033
    20  H    6.476654   5.266352   5.671058   7.170291   4.782134
    21  H    3.899046   5.293634   5.683909   3.288945   6.039673
    22  H    2.816967   4.151233   5.060182   2.717213   5.099140
    23  H    2.815684   4.147945   5.053713   2.713874   5.091386
    24  H    4.750344   3.685810   3.432008   5.124521   2.863538
                    6          7          8          9         10
     6  C    0.000000
     7  C    6.232015   0.000000
     8  C    3.666709   8.675168   0.000000
     9  N    4.786891   1.476042   7.254828   0.000000
    10  O    4.350177   3.188558   7.586442   2.535876   0.000000
    11  O    4.951979   3.051094   7.174780   2.559004   2.524827
    12  O    2.366451   7.982397   1.425507   6.518788   6.552981
    13  S    4.041838   2.669832   6.775386   1.701615   1.451622
    14  Cl   1.731624   7.542844   4.351372   6.143832   5.350056
    15  H    3.418875   6.587620   2.544322   5.290340   5.994706
    16  H    3.875334   4.389731   4.869400   3.287898   4.249935
    17  H    2.158189   5.029222   5.788183   3.786265   2.551674
    18  H    6.699862   1.092854   8.892223   2.125885   3.657258
    19  H    6.543206   1.093385   9.316055   2.124897   2.901029
    20  H    6.803792   1.093985   9.078362   2.099211   4.126581
    21  H    4.410126   9.707168   1.094235   8.271767   8.527817
    22  H    4.031272   8.771110   1.094860   7.400354   7.640544
    23  H    4.025851   8.376254   1.094877   6.993141   7.689017
    24  H    4.550230   2.071630   7.229790   1.027918   2.649572
                   11         12         13         14         15
    11  O    0.000000
    12  O    6.548267   0.000000
    13  S    1.451787   5.941913   0.000000
    14  Cl   6.449841   2.930636   5.418314   0.000000
    15  H    4.995051   2.759669   4.870972   4.916343   0.000000
    16  H    2.723383   4.602264   2.878984   5.606437   2.441345
    17  H    4.117362   4.523989   2.895561   2.814116   4.976076
    18  H    2.749823   8.316770   2.923171   8.132294   6.623584
    19  H    3.398493   8.497962   2.903162   7.696590   7.339213
    20  H    4.054967   8.439977   3.614004   8.077266   7.035754
    21  H    8.234854   2.043695   7.793319   4.733799   3.625401
    22  H    6.950991   2.086300   6.762484   4.883723   2.346985
    23  H    7.167037   2.086538   6.761050   4.879165   2.351260
    24  H    3.414651   6.380564   2.241044   5.713970   5.543023
                   16         17         18         19         20
    16  H    0.000000
    17  H    4.312241   0.000000
    18  H    4.266806   5.634967   0.000000
    19  H    5.164836   5.021555   1.795026   0.000000
    20  H    4.973509   5.714684   1.771911   1.769456   0.000000
    21  H    5.963324   6.567542   9.959124  10.326183  10.088417
    22  H    4.669899   6.054688   8.863340   9.423015   9.257430
    23  H    4.668020   6.048330   8.594671   9.104275   8.665078
    24  H    3.879138   3.444094   2.978913   2.440923   2.384204
                   21         22         23         24
    21  H    0.000000
    22  H    1.767829   0.000000
    23  H    1.767862   1.808850   0.000000
    24  H    8.184432   7.517415   6.964073   0.000000
 Stoichiometry    C8H10ClNO3S
 Framework group  C1[X(C8H10ClNO3S)]
 Deg. of freedom    66
 Full point group                 C1      NOp   1
 Largest Abelian subgroup         C1      NOp   1
 Largest concise Abelian subgroup C1      NOp   1
                         Standard orientation:                         
 ---------------------------------------------------------------------
 Center     Atomic      Atomic             Coordinates (Angstroms)
 Number     Number       Type             X           Y           Z
 ---------------------------------------------------------------------
      1          6           0        1.353853   -1.617323   -0.092974
      2          6           0       -0.025666   -1.426977   -0.223687
      3          6           0        0.286089    0.974472   -0.115007
      4          6           0        2.212477   -0.518448    0.028392
      5          6           0       -0.552098   -0.133532   -0.227716
      6          6           0        1.662338    0.777189    0.014714
      7          6           0       -4.332068   -0.410739    1.236978
      8          6           0        4.146567   -1.914451    0.183343
      9          7           0       -2.863082   -0.306194    1.137740
     10          8           0       -2.580205    1.500274   -0.619336
     11          8           0       -2.790132   -0.907850   -1.348461
     12          8           0        3.574913   -0.608789    0.160366
     13         16           0       -2.297328    0.090908   -0.417164
     14         17           0        2.669617    2.178513    0.156850
     15          1           0        1.723201   -2.639515   -0.090806
     16          1           0       -0.682392   -2.290395   -0.317532
     17          1           0       -0.123275    1.981158   -0.126095
     18          1           0       -4.708286   -1.213555    0.598012
     19          1           0       -4.805786    0.538949    0.973967
     20          1           0       -4.596449   -0.644764    2.272419
     21          1           0        5.228935   -1.801307    0.297479
     22          1           0        3.964135   -2.440528   -0.759355
     23          1           0        3.779597   -2.490035    1.039376
     24          1           0       -2.509889    0.403865    1.791716
 ---------------------------------------------------------------------
 Rotational constants (GHZ):      1.0731497      0.2895516      0.2485949
 Standard basis: 6-31G(d) (6D, 7F)
 There are   238 symmetry adapted basis functions of A   symmetry.
 Integral buffers will be    131072 words long.
 Raffenetti 2 integral format.
 Two-electron integral symmetry is turned on.
   238 basis functions,   480 primitive gaussians,   238 cartesian basis functions
    61 alpha electrons       61 beta electrons
       nuclear repulsion energy      1150.1924567751 Hartrees.
 NAtoms=   24 NActive=   24 NUniq=   24 SFac= 1.00D+00 NAtFMM=   60 NAOKFM=F Big=F
 One-electron integrals computed using PRISM.
 NBasis=   238 RedAO= T  NBF=   238
 NBsUse=   238 1.00D-06 NBFU=   238
 Harris functional with IExCor=  402 diagonalized for initial guess.
 ExpMin= 1.17D-01 ExpMax= 2.52D+04 ExpMxC= 3.78D+03 IAcc=3 IRadAn=         5 AccDes= 0.00D+00
 HarFok:  IExCor=  402 AccDes= 0.00D+00 IRadAn=         5 IDoV= 1
 ScaDFX=  1.000000  1.000000  1.000000  1.000000
 FoFCou: FMM=F IPFlag=           0 FMFlag=      100000 FMFlg1=           0
         NFxFlg=           0 DoJE=T BraDBF=F KetDBF=T FulRan=T
         Omega=  0.000000  0.000000  1.000000  0.000000  0.000000 ICntrl=     500 IOpCl=  0
         NMat0=    1 NMatS0=    1 NMatT0=    0 NMatD0=    1 NMtDS0=    0 NMtDT0=    0
         I1Cent=           4 NGrid=           0.
 Petite list used in FoFCou.
 Initial guess orbital symmetries:
       Occupied  (A) (A) (A) (A) (A) (A) (A) (A) (A) (A) (A) (A)
                 (A) (A) (A) (A) (A) (A) (A) (A) (A) (A) (A) (A)
                 (A) (A) (A) (A) (A) (A) (A) (A) (A) (A) (A) (A)
                 (A) (A) (A) (A) (A) (A) (A) (A) (A) (A) (A) (A)
                 (A) (A) (A) (A) (A) (A) (A) (A) (A) (A) (A) (A)
                 (A)
       Virtual   (A) (A) (A) (A) (A) (A) (A) (A) (A) (A) (A) (A)
                 (A) (A) (A) (A) (A) (A) (A) (A) (A) (A) (A) (A)
                 (A) (A) (A) (A) (A) (A) (A) (A) (A) (A) (A) (A)
                 (A) (A) (A) (A) (A) (A) (A) (A) (A) (A) (A) (A)
                 (A) (A) (A) (A) (A) (A) (A) (A) (A) (A) (A) (A)
                 (A) (A) (A) (A) (A) (A) (A) (A) (A) (A) (A) (A)
                 (A) (A) (A) (A) (A) (A) (A) (A) (A) (A) (A) (A)
                 (A) (A) (A) (A) (A) (A) (A) (A) (A) (A) (A) (A)
                 (A) (A) (A) (A) (A) (A) (A) (A) (A) (A) (A) (A)
                 (A) (A) (A) (A) (A) (A) (A) (A) (A) (A) (A) (A)
                 (A) (A) (A) (A) (A) (A) (A) (A) (A) (A) (A) (A)
                 (A) (A) (A) (A) (A) (A) (A) (A) (A) (A) (A) (A)
                 (A) (A) (A) (A) (A) (A) (A) (A) (A) (A) (A) (A)
                 (A) (A) (A) (A) (A) (A) (A) (A) (A) (A) (A) (A)
                 (A) (A) (A) (A) (A) (A) (A) (A) (A)
 The electronic state of the initial guess is 1-A.
 Requested convergence on RMS density matrix=1.00D-08 within 128 cycles.
 Requested convergence on MAX density matrix=1.00D-06.
 Requested convergence on             energy=1.00D-06.
 No special actions if energy rises.
 Integral accuracy reduced to 1.0D-05 until final iterations.
 Initial convergence to 1.0D-05 achieved.  Increase integral accuracy.
 SCF Done:  E(RB3LYP) =  -1449.58919655     A.U. after   15 cycles
             Convg  =    0.6538D-08             -V/T =  2.0058
 Calling FoFJK, ICntrl=      2127 FMM=F ISym2X=0 I1Cent= 0 IOpClX= 0 NMat=1 NMatS=1 NMatT=0.
 ***** Axes restored to original set *****
 -------------------------------------------------------------------
 Center     Atomic                   Forces (Hartrees/Bohr)
 Number     Number              X              Y              Z
 -------------------------------------------------------------------
      1        6          -0.009395178    0.004506004    0.002380332
      2        6           0.001633980   -0.001111046   -0.004041820
      3        6           0.002290756   -0.001942915   -0.002884210
      4        6           0.012585499   -0.005349584   -0.009796589
      5        6           0.002709015   -0.001729436   -0.007177635
      6        6          -0.008341570    0.003666970    0.007133400
      7        6           0.001331553   -0.002716103    0.003294753
      8        6           0.003738267   -0.001607802   -0.001930869
      9        7          -0.005858635   -0.004647528   -0.011716767
     10        8           0.015796279    0.002469850    0.020479676
     11        8          -0.008622482    0.011527320   -0.004619481
     12        8          -0.009392758    0.004091196    0.006224917
     13       16          -0.008077514   -0.013456302   -0.002036011
     14       17           0.007656059   -0.003923736   -0.000898372
     15        1           0.003443233   -0.001913240    0.001800040
     16        1           0.002581702   -0.000941040    0.001899837
     17        1          -0.000012318    0.000999670   -0.001866468
     18        1           0.003530753   -0.000161262   -0.000276691
     19        1          -0.003309783    0.003631065    0.003414364
     20        1           0.001502411   -0.000487241   -0.002546984
     21        1           0.000738943   -0.000953578    0.005581892
     22        1          -0.003300908    0.000876036   -0.000511773
     23        1          -0.002579355    0.002291759   -0.000344849
     24        1          -0.000647949    0.006880943   -0.001560693
 -------------------------------------------------------------------
 Cartesian Forces:  Max     0.020479676 RMS     0.005815664

 GradGradGradGradGradGradGradGradGradGradGradGradGradGradGradGradGradGrad
 Berny optimization.
 Internal  Forces:  Max     0.024265657 RMS     0.004346351
 Search for a local minimum.
 Step number   1 out of a maximum of  121
 All quantities printed in internal units (Hartrees-Bohrs-Radians)
 Mixed Optimization -- RFO/linear search
 Second derivative matrix not updated -- first step.
 ITU=  0
     Eigenvalues ---    0.00686   0.00770   0.01275   0.01354   0.01604
     Eigenvalues ---    0.02034   0.02059   0.02065   0.02067   0.02098
     Eigenvalues ---    0.02114   0.02121   0.02148   0.02155   0.02819
     Eigenvalues ---    0.07181   0.07563   0.09976   0.10544   0.10628
     Eigenvalues ---    0.10748   0.11341   0.12454   0.16000   0.16000
     Eigenvalues ---    0.16000   0.16000   0.16000   0.16000   0.16000
     Eigenvalues ---    0.16000   0.16000   0.18496   0.22374   0.23384
     Eigenvalues ---    0.23493   0.24609   0.24992   0.25000   0.25000
     Eigenvalues ---    0.25000   0.25000   0.28650   0.32338   0.34255
     Eigenvalues ---    0.34257   0.34328   0.34356   0.34424   0.34485
     Eigenvalues ---    0.34946   0.35027   0.35176   0.35186   0.35697
     Eigenvalues ---    0.41567   0.41642   0.42007   0.43099   0.45094
     Eigenvalues ---    0.45909   0.46067   0.46434   0.50634   0.95146
     Eigenvalues ---    0.95219
 RFO step:  Lambda=-6.81084782D-03 EMin= 6.85895599D-03
 Linear search not attempted -- first point.
 Iteration  1 RMS(Cart)=  0.04014823 RMS(Int)=  0.00095726
 Iteration  2 RMS(Cart)=  0.00111584 RMS(Int)=  0.00017363
 Iteration  3 RMS(Cart)=  0.00000076 RMS(Int)=  0.00017363
 Variable       Old X    -DE/DX   Delta X   Delta X   Delta X     New X
                                 (Linear)    (Quad)   (Total)
    R1        2.64318  -0.00556   0.00000  -0.01199  -0.01199   2.63119
    R2        2.64527   0.00182   0.00000   0.00395   0.00395   2.64922
    R3        2.05390  -0.00269   0.00000  -0.00750  -0.00750   2.04640
    R4        2.63896  -0.00139   0.00000  -0.00304  -0.00304   2.63592
    R5        2.05762  -0.00317   0.00000  -0.00891  -0.00891   2.04871
    R6        2.63407   0.00208   0.00000   0.00437   0.00437   2.63844
    R7        2.63873  -0.00467   0.00000  -0.00991  -0.00990   2.62883
    R8        2.05374  -0.00200   0.00000  -0.00557  -0.00557   2.04817
    R9        2.66010   0.00013   0.00000   0.00037   0.00036   2.66046
   R10        2.59231  -0.01483   0.00000  -0.02890  -0.02890   2.56341
   R11        3.34438   0.00685   0.00000   0.02334   0.02334   3.36773
   R12        3.27230   0.00774   0.00000   0.02345   0.02345   3.29575
   R13        2.78931  -0.00072   0.00000  -0.00203  -0.00203   2.78729
   R14        2.06519  -0.00145   0.00000  -0.00412  -0.00412   2.06108
   R15        2.06620   0.00313   0.00000   0.00891   0.00891   2.07511
   R16        2.06733  -0.00019   0.00000  -0.00055  -0.00055   2.06678
   R17        2.69382  -0.00249   0.00000  -0.00587  -0.00587   2.68794
   R18        2.06780  -0.00163   0.00000  -0.00465  -0.00465   2.06315
   R19        2.06899   0.00107   0.00000   0.00308   0.00308   2.07206
   R20        2.06902   0.00112   0.00000   0.00320   0.00320   2.07221
   R21        3.21559   0.00196   0.00000   0.00539   0.00539   3.22098
   R22        1.94248  -0.00678   0.00000  -0.01548  -0.01548   1.92701
   R23        2.74317   0.02427   0.00000   0.02530   0.02530   2.76847
   R24        2.74348   0.01465   0.00000   0.01528   0.01528   2.75876
    A1        2.10161   0.00030   0.00000   0.00129   0.00129   2.10290
    A2        2.05255   0.00333   0.00000   0.02024   0.02024   2.07279
    A3        2.12902  -0.00364   0.00000  -0.02154  -0.02154   2.10748
    A4        2.09222  -0.00099   0.00000  -0.00460  -0.00461   2.08761
    A5        2.08864   0.00139   0.00000   0.00770   0.00768   2.09632
    A6        2.10232  -0.00040   0.00000  -0.00306  -0.00308   2.09924
    A7        2.08045   0.00081   0.00000   0.00359   0.00359   2.08404
    A8        2.10480  -0.00048   0.00000  -0.00228  -0.00231   2.10249
    A9        2.09794  -0.00032   0.00000  -0.00130  -0.00133   2.09661
   A10        2.07371   0.00131   0.00000   0.00525   0.00525   2.07896
   A11        2.17225   0.00093   0.00000   0.00354   0.00354   2.17579
   A12        2.03723  -0.00224   0.00000  -0.00879  -0.00879   2.02844
   A13        2.10521   0.00084   0.00000   0.00312   0.00313   2.10834
   A14        2.08233   0.00166   0.00000   0.00654   0.00654   2.08887
   A15        2.09536  -0.00250   0.00000  -0.00967  -0.00968   2.08568
   A16        2.11313  -0.00227   0.00000  -0.00865  -0.00864   2.10449
   A17        2.05625   0.00744   0.00000   0.02887   0.02886   2.08511
   A18        2.11381  -0.00517   0.00000  -0.02023  -0.02023   2.09357
   A19        1.93406  -0.00577   0.00000  -0.04153  -0.04164   1.89242
   A20        1.93210   0.00829   0.00000   0.05454   0.05469   1.98679
   A21        1.89579  -0.00380   0.00000  -0.02077  -0.02129   1.87450
   A22        1.92652  -0.00211   0.00000  -0.01634  -0.01585   1.91066
   A23        1.88920   0.00265   0.00000   0.00569   0.00482   1.89401
   A24        1.88470   0.00075   0.00000   0.01879   0.01857   1.90327
   A25        1.87931  -0.00755   0.00000  -0.04343  -0.04337   1.83594
   A26        1.93842   0.00148   0.00000   0.00789   0.00793   1.94636
   A27        1.93875   0.00142   0.00000   0.00756   0.00760   1.94634
   A28        1.88001   0.00376   0.00000   0.02443   0.02449   1.90450
   A29        1.88004   0.00379   0.00000   0.02460   0.02466   1.90470
   A30        1.94415  -0.00293   0.00000  -0.02081  -0.02078   1.92337
   A31        1.99200  -0.00154   0.00000  -0.00754  -0.00755   1.98445
   A32        1.92635   0.00195   0.00000   0.01231   0.01224   1.93859
   A33        1.88170  -0.00116   0.00000  -0.01399  -0.01396   1.86774
   A34        2.04896   0.00298   0.00000   0.01162   0.01162   2.06058
   A35        1.77262  -0.00497   0.00000  -0.01913  -0.01923   1.75339
   A36        1.90731  -0.00528   0.00000  -0.02526  -0.02510   1.88221
   A37        1.89248   0.00395   0.00000   0.00428   0.00362   1.89610
   A38        1.86403   0.01318   0.00000   0.08136   0.08151   1.94555
   A39        1.88890  -0.00616   0.00000  -0.03872  -0.03884   1.85006
   A40        2.10882  -0.00138   0.00000  -0.00461  -0.00464   2.10418
    D1       -0.00471   0.00000   0.00000   0.00015   0.00015  -0.00455
    D2        3.14131  -0.00030   0.00000  -0.01047  -0.01050   3.13081
    D3        3.13783   0.00014   0.00000   0.00499   0.00505  -3.14031
    D4        0.00066  -0.00016   0.00000  -0.00563  -0.00561  -0.00495
    D5       -0.00132   0.00000   0.00000  -0.00001  -0.00003  -0.00135
    D6       -3.14130   0.00008   0.00000   0.00281   0.00279  -3.13852
    D7        3.13929  -0.00014   0.00000  -0.00504  -0.00500   3.13429
    D8       -0.00069  -0.00006   0.00000  -0.00222  -0.00218  -0.00287
    D9        0.01050  -0.00001   0.00000  -0.00042  -0.00041   0.01009
   D10        3.12647  -0.00006   0.00000  -0.00111  -0.00111   3.12536
   D11       -3.13555   0.00030   0.00000   0.01030   0.01029  -3.12526
   D12       -0.01959   0.00025   0.00000   0.00961   0.00960  -0.00999
   D13       -0.01007   0.00001   0.00000   0.00051   0.00050  -0.00957
   D14       -3.12585   0.00000   0.00000   0.00097   0.00095  -3.12489
   D15        3.13310  -0.00034   0.00000  -0.01202  -0.01204   3.12106
   D16        0.01732  -0.00035   0.00000  -0.01157  -0.01158   0.00574
   D17        0.00395  -0.00002   0.00000  -0.00041  -0.00041   0.00354
   D18       -3.13849  -0.00013   0.00000  -0.00457  -0.00462   3.14007
   D19       -3.13921   0.00033   0.00000   0.01207   0.01208  -3.12714
   D20        0.00153   0.00022   0.00000   0.00791   0.00787   0.00940
   D21        0.00170   0.00001   0.00000   0.00014   0.00016   0.00186
   D22       -3.13902   0.00011   0.00000   0.00441   0.00436  -3.13465
   D23       -3.14138  -0.00006   0.00000  -0.00245  -0.00241   3.13939
   D24        0.00109   0.00005   0.00000   0.00182   0.00179   0.00288
   D25       -0.00746   0.00009   0.00000   0.00327   0.00328  -0.00418
   D26        3.13571   0.00016   0.00000   0.00603   0.00602  -3.14146
   D27        1.34462  -0.00602   0.00000  -0.03741  -0.03740   1.30722
   D28       -2.97348   0.00451   0.00000   0.03566   0.03561  -2.93787
   D29       -0.64283   0.00166   0.00000   0.01297   0.01302  -0.62981
   D30       -1.82245  -0.00602   0.00000  -0.03791  -0.03790  -1.86035
   D31        0.14263   0.00451   0.00000   0.03517   0.03511   0.17774
   D32        2.47329   0.00166   0.00000   0.01248   0.01252   2.48581
   D33        1.09115   0.00101   0.00000   0.00653   0.00600   1.09715
   D34       -3.06977  -0.00013   0.00000  -0.00783  -0.00842  -3.07819
   D35       -1.05240   0.00194   0.00000   0.01827   0.01858  -1.03383
   D36        1.06987   0.00080   0.00000   0.00391   0.00416   1.07402
   D37       -3.11890  -0.00153   0.00000  -0.02399  -0.02368   3.14061
   D38       -0.99663  -0.00266   0.00000  -0.03835  -0.03809  -1.03472
   D39       -3.13724   0.00000   0.00000  -0.00015  -0.00015  -3.13739
   D40        1.09152  -0.00084   0.00000  -0.00799  -0.00796   1.08356
   D41       -1.08259   0.00083   0.00000   0.00769   0.00766  -1.07492
   D42       -2.98605  -0.00025   0.00000   0.02746   0.02713  -2.95892
   D43        1.29966   0.00292   0.00000   0.03406   0.03415   1.33381
   D44       -0.99594  -0.00038   0.00000   0.00924   0.00958  -0.98636
   D45        1.15041  -0.00086   0.00000   0.02710   0.02670   1.17711
   D46       -0.84707   0.00231   0.00000   0.03369   0.03372  -0.81335
   D47        3.14052  -0.00099   0.00000   0.00888   0.00915  -3.13351
         Item               Value     Threshold  Converged?
 Maximum Force            0.024266     0.000450     NO 
 RMS     Force            0.004346     0.000300     NO 
 Maximum Displacement     0.175309     0.001800     NO 
 RMS     Displacement     0.040225     0.001200     NO 
 Predicted change in Energy=-3.532079D-03
 GradGradGradGradGradGradGradGradGradGradGradGradGradGradGradGradGradGrad

                          Input orientation:                          
 ---------------------------------------------------------------------
 Center     Atomic      Atomic             Coordinates (Angstroms)
 Number     Number       Type             X           Y           Z
 ---------------------------------------------------------------------
      1          6           0        1.692051   -0.885630   -0.066747
      2          6           0        0.733383   -0.478145    0.857155
      3          6           0        2.091611   -1.370117    2.659656
      4          6           0        2.857601   -1.538254    0.358598
      5          6           0        0.934708   -0.727478    2.214713
      6          6           0        3.047230   -1.775082    1.733374
      7          6           0       -2.776844   -1.017004    3.814752
      8          6           0        3.694682   -1.748112   -1.862651
      9          7           0       -1.505932   -1.338663    3.138846
     10          8           0        0.307064   -0.319587    4.736986
     11          8           0       -0.827234    1.093298    2.956682
     12          8           0        3.845933   -1.967498   -0.465436
     13         16           0       -0.279228   -0.184721    3.401197
     14         17           0        4.494008   -2.575920    2.287585
     15          1           0        1.522312   -0.683979   -1.117086
     16          1           0       -0.161041    0.034972    0.522407
     17          1           0        2.251269   -1.544164    3.717454
     18          1           0       -3.159708   -0.082618    3.402547
     19          1           0       -2.688904   -0.927029    4.905620
     20          1           0       -3.484513   -1.816704    3.578431
     21          1           0        4.591883   -2.172353   -2.317642
     22          1           0        3.643725   -0.678530   -2.098626
     23          1           0        2.812305   -2.265520   -2.257822
     24          1           0       -1.141460   -2.238050    3.452066
 ---------------------------------------------------------------------
                    Distance matrix (angstroms):
                    1          2          3          4          5
     1  C    0.000000
     2  C    1.392366   0.000000
     3  C    2.797793   2.426810   0.000000
     4  C    1.401906   2.425838   2.431024   0.000000
     5  C    2.409074   1.394870   1.396203   2.792854   0.000000
     6  C    2.422410   2.793509   1.391115   1.407855   2.406638
     7  C    5.920669   4.621628   5.016054   6.630511   4.052107
     8  C    2.824832   4.216568   4.812897   2.383001   5.028324
     9  N    4.550622   3.310761   3.629454   5.177841   2.680354
    10  O    5.031346   3.906403   2.933177   5.211590   2.631003
    11  O    4.405006   3.051717   3.830965   5.220451   2.640111
    12  O    2.443071   3.695319   3.633278   1.356497   4.146815
    13  S    4.050166   2.753839   2.752440   4.574839   1.782125
    14  Cl   4.031243   4.537520   2.713652   2.734150   4.011317
    15  H    1.082907   2.135978   3.880550   2.165739   3.383498
    16  H    2.151409   1.084131   3.408306   3.407942   2.155434
    17  H    3.881568   3.409060   1.083845   3.413149   2.158365
    18  H    6.018339   4.668150   5.457646   6.898732   4.311733
    19  H    6.627135   5.320115   5.300378   7.198105   4.517894
    20  H    6.399300   5.194972   5.668929   7.118095   4.751385
    21  H    3.889885   5.276144   5.627471   3.251473   6.000403
    22  H    2.824969   4.152936   5.052583   2.719387   5.093727
    23  H    2.821325   4.149663   5.050023   2.715994   5.088665
    24  H    4.715916   3.653199   3.440054   5.104091   2.850148
                    6          7          8          9         10
     6  C    0.000000
     7  C    6.231104   0.000000
     8  C    3.653946   8.639912   0.000000
     9  N    4.785091   1.474968   7.226964   0.000000
    10  O    4.318410   3.293539   7.554592   2.622885   0.000000
    11  O    4.973485   2.998440   7.193560   2.531453   2.540149
    12  O    2.347279   7.942583   1.422398   6.482958   6.504184
    13  S    4.046752   2.664923   6.778218   1.704470   1.465012
    14  Cl   1.744035   7.591295   4.306814   6.185041   5.349870
    15  H    3.411892   6.551082   2.531292   5.264203   5.989973
    16  H    3.877595   4.334583   4.871806   3.246746   4.255292
    17  H    2.150221   5.056609   5.767375   3.807044   2.513756
    18  H    6.646552   1.090676   8.802207   2.093361   3.722282
    19  H    6.609506   1.098100   9.339906   2.165723   3.061576
    20  H    6.787462   1.093693   9.008381   2.082436   4.237885
    21  H    4.353678   9.656046   1.091772   8.225062   8.459326
    22  H    4.030193   8.735348   1.096488   7.374677   7.614968
    23  H    4.028072   8.347068   1.096568   6.973541   7.680510
    24  H    4.551193   2.072916   7.202397   1.019728   2.725756
                   11         12         13         14         15
    11  O    0.000000
    12  O    6.551172   0.000000
    13  S    1.459875   5.928414   0.000000
    14  Cl   6.498189   2.892975   5.453599   0.000000
    15  H    5.027392   2.733365   4.889753   4.899205   0.000000
    16  H    2.736706   4.587108   2.889578   5.621574   2.457337
    17  H    4.124580   4.496525   2.889900   2.852880   4.964280
    18  H    2.649908   8.221501   2.882290   8.126442   6.535291
    19  H    3.368368   8.522612   2.936129   7.820944   7.352986
    20  H    3.989464   8.373234   3.601200   8.117851   6.956957
    21  H    8.237099   2.007255   7.770683   4.623912   3.616470
    22  H    6.977462   2.090367   6.773585   4.854062   2.337486
    23  H    7.191589   2.090419   6.775825   4.856460   2.338084
    24  H    3.382606   6.347764   2.227599   5.764431   5.512528
                   16         17         18         19         20
    16  H    0.000000
    17  H    4.303631   0.000000
    18  H    4.159452   5.613729   0.000000
    19  H    5.150543   5.118389   1.787153   0.000000
    20  H    4.879903   5.743937   1.772989   1.784922   0.000000
    21  H    5.960575   6.503497   9.857724  10.331322  10.005915
    22  H    4.674948   6.042768   8.769533   9.445814   9.183474
    23  H    4.675760   6.044754   8.512919   9.130705   8.597280
    24  H    3.835460   3.473114   2.953247   2.495232   2.383989
                   21         22         23         24
    21  H    0.000000
    22  H    1.782829   0.000000
    23  H    1.783019   1.798650   0.000000
    24  H    8.134191   7.492681   6.945202   0.000000
 Stoichiometry    C8H10ClNO3S
 Framework group  C1[X(C8H10ClNO3S)]
 Deg. of freedom    66
 Full point group                 C1      NOp   1
 Largest Abelian subgroup         C1      NOp   1
 Largest concise Abelian subgroup C1      NOp   1
                         Standard orientation:                         
 ---------------------------------------------------------------------
 Center     Atomic      Atomic             Coordinates (Angstroms)
 Number     Number       Type             X           Y           Z
 ---------------------------------------------------------------------
      1          6           0        1.324061   -1.623921   -0.113592
      2          6           0       -0.047872   -1.421495   -0.238119
      3          6           0        0.293073    0.976910   -0.093840
      4          6           0        2.194477   -0.533400    0.022359
      5          6           0       -0.557272   -0.123072   -0.221656
      6          6           0        1.663207    0.770346    0.029712
      7          6           0       -4.324771   -0.466535    1.230086
      8          6           0        4.120326   -1.931698    0.143025
      9          7           0       -2.858448   -0.337930    1.135812
     10          8           0       -2.528373    1.570340   -0.633108
     11          8           0       -2.834261   -0.849236   -1.343347
     12          8           0        3.541714   -0.632307    0.145858
     13         16           0       -2.310285    0.139589   -0.405846
     14         17           0        2.727097    2.143300    0.187172
     15          1           0        1.704755   -2.637583   -0.129338
     16          1           0       -0.714431   -2.268755   -0.352968
     17          1           0       -0.106759    1.984287   -0.100754
     18          1           0       -4.646427   -1.253839    0.547251
     19          1           0       -4.867133    0.460493    1.001421
     20          1           0       -4.560962   -0.775404    2.252327
     21          1           0        5.193632   -1.767190    0.256681
     22          1           0        3.935084   -2.452378   -0.804004
     23          1           0        3.758184   -2.535065    0.984014
     24          1           0       -2.506903    0.348231    1.803228
 ---------------------------------------------------------------------
 Rotational constants (GHZ):      1.0754714      0.2892787      0.2484165
 Standard basis: 6-31G(d) (6D, 7F)
 There are   238 symmetry adapted basis functions of A   symmetry.
 Integral buffers will be    131072 words long.
 Raffenetti 2 integral format.
 Two-electron integral symmetry is turned on.
   238 basis functions,   480 primitive gaussians,   238 cartesian basis functions
    61 alpha electrons       61 beta electrons
       nuclear repulsion energy      1149.4080590316 Hartrees.
 NAtoms=   24 NActive=   24 NUniq=   24 SFac= 1.00D+00 NAtFMM=   60 NAOKFM=F Big=F
 One-electron integrals computed using PRISM.
 NBasis=   238 RedAO= T  NBF=   238
 NBsUse=   238 1.00D-06 NBFU=   238
 Initial guess read from the read-write file.
 B after Tr=     0.000000    0.000000    0.000000
         Rot=    1.000000    0.000000    0.000000    0.000000 Ang=   0.00 deg.
 Initial guess orbital symmetries:
       Occupied  (A) (A) (A) (A) (A) (A) (A) (A) (A) (A) (A) (A)
                 (A) (A) (A) (A) (A) (A) (A) (A) (A) (A) (A) (A)
                 (A) (A) (A) (A) (A) (A) (A) (A) (A) (A) (A) (A)
                 (A) (A) (A) (A) (A) (A) (A) (A) (A) (A) (A) (A)
                 (A) (A) (A) (A) (A) (A) (A) (A) (A) (A) (A) (A)
                 (A)
       Virtual   (A) (A) (A) (A) (A) (A) (A) (A) (A) (A) (A) (A)
                 (A) (A) (A) (A) (A) (A) (A) (A) (A) (A) (A) (A)
                 (A) (A) (A) (A) (A) (A) (A) (A) (A) (A) (A) (A)
                 (A) (A) (A) (A) (A) (A) (A) (A) (A) (A) (A) (A)
                 (A) (A) (A) (A) (A) (A) (A) (A) (A) (A) (A) (A)
                 (A) (A) (A) (A) (A) (A) (A) (A) (A) (A) (A) (A)
                 (A) (A) (A) (A) (A) (A) (A) (A) (A) (A) (A) (A)
                 (A) (A) (A) (A) (A) (A) (A) (A) (A) (A) (A) (A)
                 (A) (A) (A) (A) (A) (A) (A) (A) (A) (A) (A) (A)
                 (A) (A) (A) (A) (A) (A) (A) (A) (A) (A) (A) (A)
                 (A) (A) (A) (A) (A) (A) (A) (A) (A) (A) (A) (A)
                 (A) (A) (A) (A) (A) (A) (A) (A) (A) (A) (A) (A)
                 (A) (A) (A) (A) (A) (A) (A) (A) (A) (A) (A) (A)
                 (A) (A) (A) (A) (A) (A) (A) (A) (A) (A) (A) (A)
                 (A) (A) (A) (A) (A) (A) (A) (A) (A)
 Harris functional with IExCor=  402 diagonalized for initial guess.
 ExpMin= 1.17D-01 ExpMax= 2.52D+04 ExpMxC= 3.78D+03 IAcc=3 IRadAn=         5 AccDes= 0.00D+00
 HarFok:  IExCor=  402 AccDes= 0.00D+00 IRadAn=         5 IDoV= 1
 ScaDFX=  1.000000  1.000000  1.000000  1.000000
 FoFCou: FMM=F IPFlag=           0 FMFlag=      100000 FMFlg1=           0
         NFxFlg=           0 DoJE=T BraDBF=F KetDBF=T FulRan=T
         Omega=  0.000000  0.000000  1.000000  0.000000  0.000000 ICntrl=     500 IOpCl=  0
         NMat0=    1 NMatS0=    1 NMatT0=    0 NMatD0=    1 NMtDS0=    0 NMtDT0=    0
         I1Cent=           4 NGrid=           0.
 Petite list used in FoFCou.
 Requested convergence on RMS density matrix=1.00D-08 within 128 cycles.
 Requested convergence on MAX density matrix=1.00D-06.
 Requested convergence on             energy=1.00D-06.
 No special actions if energy rises.
 Integral accuracy reduced to 1.0D-05 until final iterations.
 Initial convergence to 1.0D-05 achieved.  Increase integral accuracy.
 SCF Done:  E(RB3LYP) =  -1449.59277402     A.U. after   12 cycles
             Convg  =    0.6487D-08             -V/T =  2.0058
 Calling FoFJK, ICntrl=      2127 FMM=F ISym2X=0 I1Cent= 0 IOpClX= 0 NMat=1 NMatS=1 NMatT=0.
 ***** Axes restored to original set *****
 -------------------------------------------------------------------
 Center     Atomic                   Forces (Hartrees/Bohr)
 Number     Number              X              Y              Z
 -------------------------------------------------------------------
      1        6          -0.002414530    0.001128774    0.000989894
      2        6           0.000648632   -0.000504742    0.000014313
      3        6           0.001577219   -0.000930828   -0.000575469
      4        6           0.006077231   -0.002599270   -0.003477832
      5        6           0.001548079   -0.001808469   -0.001983372
      6        6          -0.004143609    0.001807765    0.003634315
      7        6          -0.001969014   -0.000605482   -0.000753821
      8        6           0.003671038   -0.001692326   -0.001503889
      9        7           0.000136508   -0.000055110    0.001357302
     10        8           0.001778544   -0.000959006    0.005781427
     11        8          -0.004332639    0.005825125   -0.000105992
     12        8          -0.005150889    0.002300749    0.001558770
     13       16           0.001966648   -0.002027981   -0.005406291
     14       17           0.001333492   -0.000743591   -0.000040836
     15        1           0.001060710   -0.000447136   -0.000530516
     16        1          -0.000275965    0.000204350    0.000413061
     17        1          -0.000233327    0.000380623    0.000258372
     18        1           0.000083135    0.000602340    0.000422207
     19        1           0.000392508    0.000190426   -0.000408487
     20        1           0.000164047    0.000142929   -0.000078421
     21        1          -0.000491989    0.000278490   -0.000170411
     22        1          -0.000949622    0.000104459    0.000109576
     23        1          -0.000620265    0.000686672    0.000140821
     24        1           0.000144058   -0.001278759    0.000355281
 -------------------------------------------------------------------
 Cartesian Forces:  Max     0.006077231 RMS     0.002067688

 GradGradGradGradGradGradGradGradGradGradGradGradGradGradGradGradGradGrad
 Berny optimization.
 Using GEDIIS/GDIIS optimizer.
 Internal  Forces:  Max     0.006757575 RMS     0.001228833
 Search for a local minimum.
 Step number   2 out of a maximum of  121
 All quantities printed in internal units (Hartrees-Bohrs-Radians)
 Mixed Optimization -- RFO/linear search
 Update second derivatives using D2CorX and points    1    2
 DE= -3.58D-03 DEPred=-3.53D-03 R= 1.01D+00
 SS=  1.41D+00  RLast= 1.96D-01 DXNew= 5.0454D-01 5.8950D-01
 Trust test= 1.01D+00 RLast= 1.96D-01 DXMaxT set to 5.05D-01
 ITU=  1  0
 Use linear search instead of GDIIS.
     Eigenvalues ---    0.00685   0.00770   0.01264   0.01354   0.01605
     Eigenvalues ---    0.02034   0.02059   0.02065   0.02070   0.02098
     Eigenvalues ---    0.02114   0.02121   0.02149   0.02154   0.02870
     Eigenvalues ---    0.06988   0.07807   0.09807   0.10523   0.10714
     Eigenvalues ---    0.11237   0.11293   0.12787   0.15516   0.15999
     Eigenvalues ---    0.16000   0.16000   0.16000   0.16000   0.16000
     Eigenvalues ---    0.16000   0.16914   0.17919   0.22362   0.23419
     Eigenvalues ---    0.23525   0.24264   0.24698   0.24992   0.25000
     Eigenvalues ---    0.25000   0.25846   0.28309   0.32102   0.34248
     Eigenvalues ---    0.34256   0.34313   0.34356   0.34451   0.34516
     Eigenvalues ---    0.34952   0.35065   0.35183   0.35255   0.35680
     Eigenvalues ---    0.41518   0.41731   0.42035   0.43571   0.45245
     Eigenvalues ---    0.45718   0.45994   0.46370   0.49591   0.89557
     Eigenvalues ---    0.95407
 RFO step:  Lambda=-6.34222398D-04 EMin= 6.84977430D-03
 Quartic linear search produced a step of  0.06779.
 Iteration  1 RMS(Cart)=  0.01812375 RMS(Int)=  0.00018864
 Iteration  2 RMS(Cart)=  0.00027302 RMS(Int)=  0.00002740
 Iteration  3 RMS(Cart)=  0.00000006 RMS(Int)=  0.00002740
 Variable       Old X    -DE/DX   Delta X   Delta X   Delta X     New X
                                 (Linear)    (Quad)   (Total)
    R1        2.63119  -0.00023  -0.00081  -0.00081  -0.00162   2.62957
    R2        2.64922   0.00098   0.00027   0.00256   0.00282   2.65204
    R3        2.04640   0.00026  -0.00051   0.00064   0.00013   2.04653
    R4        2.63592  -0.00043  -0.00021  -0.00124  -0.00145   2.63448
    R5        2.04871   0.00020  -0.00060   0.00040  -0.00020   2.04851
    R6        2.63844   0.00008   0.00030   0.00011   0.00041   2.63885
    R7        2.62883  -0.00160  -0.00067  -0.00391  -0.00458   2.62424
    R8        2.04817   0.00016  -0.00038   0.00035  -0.00003   2.04814
    R9        2.66046   0.00253   0.00002   0.00627   0.00630   2.66676
   R10        2.56341  -0.00319  -0.00196  -0.00737  -0.00933   2.55408
   R11        3.36773   0.00245   0.00158   0.00962   0.01120   3.37893
   R12        3.29575   0.00143   0.00159   0.00525   0.00684   3.30259
   R13        2.78729   0.00084  -0.00014   0.00252   0.00238   2.78967
   R14        2.06108   0.00033  -0.00028   0.00092   0.00064   2.06172
   R15        2.07511  -0.00036   0.00060  -0.00091  -0.00031   2.07480
   R16        2.06678  -0.00019  -0.00004  -0.00061  -0.00065   2.06613
   R17        2.68794   0.00113  -0.00040   0.00277   0.00237   2.69031
   R18        2.06315  -0.00044  -0.00032  -0.00148  -0.00179   2.06136
   R19        2.07206   0.00012   0.00021   0.00045   0.00066   2.07272
   R20        2.07221   0.00012   0.00022   0.00046   0.00067   2.07289
   R21        3.22098   0.00130   0.00037   0.00400   0.00436   3.22534
   R22        1.92701   0.00129  -0.00105   0.00284   0.00179   1.92880
   R23        2.76847   0.00607   0.00172   0.00737   0.00909   2.77756
   R24        2.75876   0.00676   0.00104   0.00792   0.00896   2.76772
    A1        2.10290   0.00021   0.00009   0.00140   0.00149   2.10439
    A2        2.07279   0.00116   0.00137   0.00818   0.00956   2.08235
    A3        2.10748  -0.00137  -0.00146  -0.00958  -0.01105   2.09643
    A4        2.08761   0.00012  -0.00031   0.00008  -0.00024   2.08737
    A5        2.09632   0.00045   0.00052   0.00342   0.00394   2.10026
    A6        2.09924  -0.00056  -0.00021  -0.00352  -0.00373   2.09551
    A7        2.08404  -0.00031   0.00024  -0.00176  -0.00152   2.08251
    A8        2.10249  -0.00028  -0.00016  -0.00202  -0.00218   2.10031
    A9        2.09661   0.00059  -0.00009   0.00375   0.00366   2.10027
   A10        2.07896  -0.00132   0.00036  -0.00484  -0.00448   2.07447
   A11        2.17579  -0.00072   0.00024  -0.00334  -0.00310   2.17269
   A12        2.02844   0.00204  -0.00060   0.00818   0.00758   2.03602
   A13        2.10834   0.00052   0.00021   0.00164   0.00185   2.11019
   A14        2.08887  -0.00002   0.00044   0.00037   0.00081   2.08968
   A15        2.08568  -0.00050  -0.00066  -0.00202  -0.00268   2.08300
   A16        2.10449   0.00078  -0.00059   0.00347   0.00288   2.10737
   A17        2.08511   0.00047   0.00196   0.00247   0.00443   2.08954
   A18        2.09357  -0.00125  -0.00137  -0.00594  -0.00731   2.08626
   A19        1.89242   0.00029  -0.00282   0.00062  -0.00222   1.89020
   A20        1.98679  -0.00070   0.00371  -0.00444  -0.00072   1.98606
   A21        1.87450   0.00010  -0.00144   0.00144  -0.00004   1.87445
   A22        1.91066  -0.00021  -0.00107  -0.00416  -0.00521   1.90545
   A23        1.89401   0.00020   0.00033   0.00363   0.00389   1.89791
   A24        1.90327   0.00036   0.00126   0.00340   0.00464   1.90791
   A25        1.83594   0.00114  -0.00294   0.00891   0.00596   1.84190
   A26        1.94636  -0.00043   0.00054  -0.00388  -0.00337   1.94299
   A27        1.94634  -0.00038   0.00051  -0.00356  -0.00307   1.94327
   A28        1.90450   0.00034   0.00166   0.00509   0.00674   1.91124
   A29        1.90470   0.00033   0.00167   0.00501   0.00667   1.91137
   A30        1.92337  -0.00087  -0.00141  -0.01019  -0.01164   1.91173
   A31        1.98445   0.00072  -0.00051   0.00608   0.00551   1.98995
   A32        1.93859  -0.00010   0.00083   0.00615   0.00689   1.94548
   A33        1.86774   0.00015  -0.00095   0.00875   0.00771   1.87546
   A34        2.06058   0.00306   0.00079   0.01330   0.01409   2.07467
   A35        1.75339  -0.00044  -0.00130  -0.00142  -0.00270   1.75069
   A36        1.88221   0.00020  -0.00170   0.00220   0.00047   1.88268
   A37        1.89610   0.00280   0.00025   0.02185   0.02203   1.91813
   A38        1.94555  -0.00072   0.00553  -0.00786  -0.00235   1.94319
   A39        1.85006  -0.00117  -0.00263  -0.00950  -0.01215   1.83791
   A40        2.10418  -0.00056  -0.00031  -0.00410  -0.00458   2.09960
    D1       -0.00455   0.00004   0.00001   0.00183   0.00184  -0.00271
    D2        3.13081  -0.00002  -0.00071  -0.00100  -0.00172   3.12909
    D3       -3.14031   0.00003   0.00034   0.00152   0.00186  -3.13845
    D4       -0.00495  -0.00002  -0.00038  -0.00131  -0.00169  -0.00664
    D5       -0.00135  -0.00004   0.00000  -0.00202  -0.00202  -0.00337
    D6       -3.13852  -0.00006   0.00019  -0.00273  -0.00254  -3.14106
    D7        3.13429  -0.00003  -0.00034  -0.00164  -0.00198   3.13231
    D8       -0.00287  -0.00005  -0.00015  -0.00235  -0.00249  -0.00537
    D9        0.01009   0.00002  -0.00003   0.00060   0.00058   0.01067
   D10        3.12536   0.00000  -0.00007  -0.00005  -0.00013   3.12524
   D11       -3.12526   0.00007   0.00070   0.00341   0.00410  -3.12116
   D12       -0.00999   0.00005   0.00065   0.00275   0.00340  -0.00659
   D13       -0.00957  -0.00006   0.00003  -0.00277  -0.00274  -0.01231
   D14       -3.12489  -0.00005   0.00006  -0.00215  -0.00209  -3.12698
   D15        3.12106  -0.00012  -0.00082  -0.00581  -0.00662   3.11444
   D16        0.00574  -0.00010  -0.00078  -0.00519  -0.00598  -0.00023
   D17        0.00354   0.00005  -0.00003   0.00254   0.00251   0.00605
   D18        3.14007   0.00005  -0.00031   0.00245   0.00213  -3.14098
   D19       -3.12714   0.00011   0.00082   0.00561   0.00643  -3.12070
   D20        0.00940   0.00011   0.00053   0.00552   0.00605   0.01546
   D21        0.00186   0.00000   0.00001  -0.00019  -0.00018   0.00168
   D22       -3.13465  -0.00001   0.00030  -0.00012   0.00017  -3.13449
   D23        3.13939   0.00001  -0.00016   0.00044   0.00028   3.13967
   D24        0.00288   0.00001   0.00012   0.00050   0.00062   0.00350
   D25       -0.00418   0.00009   0.00022   0.00467   0.00490   0.00072
   D26       -3.14146   0.00008   0.00041   0.00401   0.00442  -3.13704
   D27        1.30722   0.00011  -0.00254   0.00019  -0.00236   1.30487
   D28       -2.93787  -0.00082   0.00241  -0.00840  -0.00602  -2.94390
   D29       -0.62981   0.00068   0.00088   0.00415   0.00508  -0.62472
   D30       -1.86035   0.00010  -0.00257  -0.00040  -0.00298  -1.86332
   D31        0.17774  -0.00082   0.00238  -0.00899  -0.00665   0.17110
   D32        2.48581   0.00068   0.00085   0.00356   0.00446   2.49027
   D33        1.09715  -0.00078   0.00041  -0.03508  -0.03472   1.06243
   D34       -3.07819  -0.00015  -0.00057  -0.01481  -0.01541  -3.09359
   D35       -1.03383  -0.00026   0.00126  -0.02722  -0.02595  -1.05978
   D36        1.07402   0.00038   0.00028  -0.00695  -0.00664   1.06738
   D37        3.14061  -0.00034  -0.00161  -0.02972  -0.03132   3.10929
   D38       -1.03472   0.00029  -0.00258  -0.00946  -0.01201  -1.04674
   D39       -3.13739  -0.00002  -0.00001  -0.00139  -0.00140  -3.13879
   D40        1.08356  -0.00088  -0.00054  -0.01072  -0.01123   1.07232
   D41       -1.07492   0.00085   0.00052   0.00802   0.00851  -1.06641
   D42       -2.95892  -0.00036   0.00184   0.02910   0.03093  -2.92799
   D43        1.33381  -0.00009   0.00232   0.03029   0.03266   1.36647
   D44       -0.98636   0.00214   0.00065   0.04928   0.04993  -0.93643
   D45        1.17711  -0.00081   0.00181   0.01100   0.01277   1.18988
   D46       -0.81335  -0.00055   0.00229   0.01220   0.01450  -0.79885
   D47       -3.13351   0.00168   0.00062   0.03119   0.03177  -3.10174
         Item               Value     Threshold  Converged?
 Maximum Force            0.006758     0.000450     NO 
 RMS     Force            0.001229     0.000300     NO 
 Maximum Displacement     0.079460     0.001800     NO 
 RMS     Displacement     0.018121     0.001200     NO 
 Predicted change in Energy=-3.328101D-04
 GradGradGradGradGradGradGradGradGradGradGradGradGradGradGradGradGradGrad

                          Input orientation:                          
 ---------------------------------------------------------------------
 Center     Atomic      Atomic             Coordinates (Angstroms)
 Number     Number       Type             X           Y           Z
 ---------------------------------------------------------------------
      1          6           0        1.689134   -0.889183   -0.063359
      2          6           0        0.733524   -0.482903    0.862946
      3          6           0        2.102226   -1.365072    2.663424
      4          6           0        2.859530   -1.539562    0.357014
      5          6           0        0.941529   -0.728158    2.219453
      6          6           0        3.052574   -1.770774    1.735682
      7          6           0       -2.783951   -1.014451    3.798129
      8          6           0        3.694066   -1.752341   -1.872296
      9          7           0       -1.497027   -1.345130    3.154913
     10          8           0        0.319752   -0.323525    4.753235
     11          8           0       -0.852422    1.091204    2.991952
     12          8           0        3.837735   -1.966465   -0.472190
     13         16           0       -0.272187   -0.185298    3.415000
     14         17           0        4.508664   -2.569662    2.279627
     15          1           0        1.524169   -0.693674   -1.115688
     16          1           0       -0.163728    0.029480    0.535056
     17          1           0        2.266102   -1.528657    3.722232
     18          1           0       -3.141818   -0.070958    3.383319
     19          1           0       -2.723633   -0.928081    4.891000
     20          1           0       -3.492829   -1.804636    3.536383
     21          1           0        4.590318   -2.177236   -2.326274
     22          1           0        3.635809   -0.682786   -2.108329
     23          1           0        2.806686   -2.263540   -2.265329
     24          1           0       -1.139320   -2.245479    3.476158
 ---------------------------------------------------------------------
                    Distance matrix (angstroms):
                    1          2          3          4          5
     1  C    0.000000
     2  C    1.391508   0.000000
     3  C    2.798653   2.427609   0.000000
     4  C    1.403401   2.427426   2.433820   0.000000
     5  C    2.407504   1.394104   1.396419   2.793883   0.000000
     6  C    2.423370   2.792538   1.388690   1.411187   2.403663
     7  C    5.910607   4.611993   5.028441   6.630678   4.056277
     8  C    2.834969   4.225853   4.822519   2.389885   5.036649
     9  N    4.551569   3.312387   3.632710   5.181277   2.683709
    10  O    5.039320   3.915476   2.937574   5.220725   2.640148
    11  O    4.440311   3.086374   3.856315   5.257606   2.669287
    12  O    2.438066   3.690484   3.633970   1.351559   4.143230
    13  S    4.054777   2.759167   2.755825   4.581807   1.788053
    14  Cl   4.032784   4.540179   2.718323   2.734445   4.014874
    15  H    1.082975   2.141154   3.881574   2.160456   3.385828
    16  H    2.152937   1.084024   3.407238   3.410818   2.152394
    17  H    3.882334   3.408506   1.083831   3.417158   2.157229
    18  H    5.990591   4.641148   5.449126   6.879789   4.296535
    19  H    6.634733   5.326850   5.333101   7.218216   4.539883
    20  H    6.375652   5.172650   5.679782   7.108524   4.749383
    21  H    3.898299   5.283630   5.634474   3.256116   6.006424
    22  H    2.830909   4.158328   5.058361   2.722975   5.098128
    23  H    2.826031   4.153886   5.059260   2.720959   5.094063
    24  H    4.729468   3.666482   3.455904   5.120368   2.865571
                    6          7          8          9         10
     6  C    0.000000
     7  C    6.236244   0.000000
     8  C    3.664609   8.640771   0.000000
     9  N    4.784795   1.476228   7.237825   0.000000
    10  O    4.320703   3.320027   7.571339   2.626594   0.000000
    11  O    5.001813   2.968924   7.239974   2.525429   2.545107
    12  O    2.351483   7.936541   1.423653   6.480866   6.510032
    13  S    4.048195   2.672685   6.792812   1.706778   1.469820
    14  Cl   1.747655   7.609650   4.309299   6.191440   5.358251
    15  H    3.409762   6.542813   2.530155   5.271627   6.002657
    16  H    3.876469   4.313120   4.883933   3.245133   4.260445
    17  H    2.150242   5.076732   5.778223   3.810076   2.510695
    18  H    6.631333   1.091016   8.785093   2.093089   3.731344
    19  H    6.635565   1.097936   9.359938   2.166215   3.105907
    20  H    6.788666   1.093348   8.994888   2.083241   4.267340
    21  H    4.362265   9.656098   1.090825   8.233564   8.473100
    22  H    4.037363   8.729810   1.096837   7.381492   7.629309
    23  H    4.038733   8.341521   1.096924   6.981722   7.694721
    24  H    4.563614   2.079401   7.225702   1.020677   2.730150
                   11         12         13         14         15
    11  O    0.000000
    12  O    6.583859   0.000000
    13  S    1.464616   5.930789   0.000000
    14  Cl   6.530742   2.895944   5.461758   0.000000
    15  H    5.070176   2.717844   4.900253   4.894355   0.000000
    16  H    2.763674   4.583672   2.889977   5.624083   2.469191
    17  H    4.137895   4.500542   2.888238   2.862496   4.965192
    18  H    2.597137   8.195856   2.872083   8.123517   6.511550
    19  H    3.344446   8.537774   2.956330   7.862580   7.360643
    20  H    3.956519   8.356555   3.606872   8.135637   6.931542
    21  H    8.281887   2.012072   7.782930   4.623310   3.614933
    22  H    7.021690   2.089391   6.784327   4.855547   2.333341
    23  H    7.230656   2.089656   6.787097   4.862825   2.330451
    24  H    3.383817   6.359117   2.236069   5.782430   5.530581
                   16         17         18         19         20
    16  H    0.000000
    17  H    4.299994   0.000000
    18  H    4.122100   5.611181   0.000000
    19  H    5.142400   5.159861   1.783995   0.000000
    20  H    4.843021   5.768535   1.775465   1.787456   0.000000
    21  H    5.971411   6.512070   9.839806  10.351005   9.992339
    22  H    4.683086   6.048722   8.744642   9.460088   9.161812
    23  H    4.682249   6.056663   8.491133   9.142260   8.576383
    24  H    3.844125   3.488737   2.957560   2.499472   2.395199
                   21         22         23         24
    21  H    0.000000
    22  H    1.786608   0.000000
    23  H    1.786758   1.791892   0.000000
    24  H    8.154852   7.512014   6.966775   0.000000
 Stoichiometry    C8H10ClNO3S
 Framework group  C1[X(C8H10ClNO3S)]
 Deg. of freedom    66
 Full point group                 C1      NOp   1
 Largest Abelian subgroup         C1      NOp   1
 Largest concise Abelian subgroup C1      NOp   1
                         Standard orientation:                         
 ---------------------------------------------------------------------
 Center     Atomic      Atomic             Coordinates (Angstroms)
 Number     Number       Type             X           Y           Z
 ---------------------------------------------------------------------
      1          6           0        1.322538   -1.623308   -0.122159
      2          6           0       -0.048202   -1.417627   -0.244879
      3          6           0        0.297016    0.980522   -0.093247
      4          6           0        2.197739   -0.535410    0.019380
      5          6           0       -0.554206   -0.118770   -0.223497
      6          6           0        1.664173    0.770968    0.030969
      7          6           0       -4.321359   -0.504105    1.230278
      8          6           0        4.128295   -1.939604    0.132273
      9          7           0       -2.857798   -0.335619    1.136184
     10          8           0       -2.528058    1.589065   -0.620477
     11          8           0       -2.872459   -0.827556   -1.340826
     12          8           0        3.539213   -0.643595    0.143703
     13         16           0       -2.312325    0.151052   -0.406119
     14         17           0        2.739050    2.139128    0.195520
     15          1           0        1.710857   -2.634068   -0.142320
     16          1           0       -0.719610   -2.260087   -0.365636
     17          1           0       -0.103801    1.987468   -0.102945
     18          1           0       -4.623154   -1.278731    0.523746
     19          1           0       -4.887138    0.413628    1.022615
     20          1           0       -4.546556   -0.846205    2.244016
     21          1           0        5.200296   -1.774249    0.247904
     22          1           0        3.937611   -2.456069   -0.816387
     23          1           0        3.760306   -2.552717    0.964090
     24          1           0       -2.516403    0.349054    1.811797
 ---------------------------------------------------------------------
 Rotational constants (GHZ):      1.0735280      0.2882712      0.2475217
 Standard basis: 6-31G(d) (6D, 7F)
 There are   238 symmetry adapted basis functions of A   symmetry.
 Integral buffers will be    131072 words long.
 Raffenetti 2 integral format.
 Two-electron integral symmetry is turned on.
   238 basis functions,   480 primitive gaussians,   238 cartesian basis functions
    61 alpha electrons       61 beta electrons
       nuclear repulsion energy      1147.8101249578 Hartrees.
 NAtoms=   24 NActive=   24 NUniq=   24 SFac= 1.00D+00 NAtFMM=   60 NAOKFM=F Big=F
 One-electron integrals computed using PRISM.
 NBasis=   238 RedAO= T  NBF=   238
 NBsUse=   238 1.00D-06 NBFU=   238
 Initial guess read from the read-write file.
 B after Tr=     0.000000    0.000000    0.000000
         Rot=    1.000000    0.000000    0.000000    0.000000 Ang=   0.00 deg.
 Initial guess orbital symmetries:
       Occupied  (A) (A) (A) (A) (A) (A) (A) (A) (A) (A) (A) (A)
                 (A) (A) (A) (A) (A) (A) (A) (A) (A) (A) (A) (A)
                 (A) (A) (A) (A) (A) (A) (A) (A) (A) (A) (A) (A)
                 (A) (A) (A) (A) (A) (A) (A) (A) (A) (A) (A) (A)
                 (A) (A) (A) (A) (A) (A) (A) (A) (A) (A) (A) (A)
                 (A)
       Virtual   (A) (A) (A) (A) (A) (A) (A) (A) (A) (A) (A) (A)
                 (A) (A) (A) (A) (A) (A) (A) (A) (A) (A) (A) (A)
                 (A) (A) (A) (A) (A) (A) (A) (A) (A) (A) (A) (A)
                 (A) (A) (A) (A) (A) (A) (A) (A) (A) (A) (A) (A)
                 (A) (A) (A) (A) (A) (A) (A) (A) (A) (A) (A) (A)
                 (A) (A) (A) (A) (A) (A) (A) (A) (A) (A) (A) (A)
                 (A) (A) (A) (A) (A) (A) (A) (A) (A) (A) (A) (A)
                 (A) (A) (A) (A) (A) (A) (A) (A) (A) (A) (A) (A)
                 (A) (A) (A) (A) (A) (A) (A) (A) (A) (A) (A) (A)
                 (A) (A) (A) (A) (A) (A) (A) (A) (A) (A) (A) (A)
                 (A) (A) (A) (A) (A) (A) (A) (A) (A) (A) (A) (A)
                 (A) (A) (A) (A) (A) (A) (A) (A) (A) (A) (A) (A)
                 (A) (A) (A) (A) (A) (A) (A) (A) (A) (A) (A) (A)
                 (A) (A) (A) (A) (A) (A) (A) (A) (A) (A) (A) (A)
                 (A) (A) (A) (A) (A) (A) (A) (A) (A)
 Harris functional with IExCor=  402 diagonalized for initial guess.
 ExpMin= 1.17D-01 ExpMax= 2.52D+04 ExpMxC= 3.78D+03 IAcc=3 IRadAn=         5 AccDes= 0.00D+00
 HarFok:  IExCor=  402 AccDes= 0.00D+00 IRadAn=         5 IDoV= 1
 ScaDFX=  1.000000  1.000000  1.000000  1.000000
 FoFCou: FMM=F IPFlag=           0 FMFlag=      100000 FMFlg1=           0
         NFxFlg=           0 DoJE=T BraDBF=F KetDBF=T FulRan=T
         Omega=  0.000000  0.000000  1.000000  0.000000  0.000000 ICntrl=     500 IOpCl=  0
         NMat0=    1 NMatS0=    1 NMatT0=    0 NMatD0=    1 NMtDS0=    0 NMtDT0=    0
         I1Cent=           4 NGrid=           0.
 Petite list used in FoFCou.
 Requested convergence on RMS density matrix=1.00D-08 within 128 cycles.
 Requested convergence on MAX density matrix=1.00D-06.
 Requested convergence on             energy=1.00D-06.
 No special actions if energy rises.
 Integral accuracy reduced to 1.0D-05 until final iterations.
 Initial convergence to 1.0D-05 achieved.  Increase integral accuracy.
 SCF Done:  E(RB3LYP) =  -1449.59311446     A.U. after   11 cycles
             Convg  =    0.6375D-08             -V/T =  2.0058
 Calling FoFJK, ICntrl=      2127 FMM=F ISym2X=0 I1Cent= 0 IOpClX= 0 NMat=1 NMatS=1 NMatT=0.
 ***** Axes restored to original set *****
 -------------------------------------------------------------------
 Center     Atomic                   Forces (Hartrees/Bohr)
 Number     Number              X              Y              Z
 -------------------------------------------------------------------
      1        6          -0.000323488    0.000050255    0.000360571
      2        6          -0.000109526    0.000178367    0.000298585
      3        6           0.000632645   -0.000145404    0.000522085
      4        6           0.001746956   -0.000745755   -0.001116395
      5        6           0.000195475    0.000332492   -0.000451556
      6        6          -0.000906544    0.000407305    0.000024112
      7        6          -0.000206337    0.000169174   -0.000985514
      8        6          -0.000116892    0.000116281    0.000076202
      9        7           0.000717882   -0.000197078    0.000967133
     10        8           0.001078639   -0.000385182    0.000200817
     11        8           0.000557387    0.001378067   -0.000527837
     12        8          -0.000847592    0.000250487    0.000607839
     13       16          -0.002043164   -0.001210661   -0.000376778
     14       17           0.000003212   -0.000029684    0.000075011
     15        1           0.000007641    0.000029508   -0.000300573
     16        1          -0.000366424    0.000136532   -0.000080669
     17        1          -0.000102533    0.000052347    0.000201830
     18        1          -0.000067591    0.000040487    0.000177514
     19        1           0.000302188   -0.000273215   -0.000230539
     20        1           0.000020889    0.000033251    0.000066032
     21        1          -0.000162628    0.000076180    0.000118889
     22        1           0.000104437    0.000017978   -0.000000007
     23        1           0.000066367   -0.000118553   -0.000022837
     24        1          -0.000180998   -0.000163178    0.000396086
 -------------------------------------------------------------------
 Cartesian Forces:  Max     0.002043164 RMS     0.000546002

 GradGradGradGradGradGradGradGradGradGradGradGradGradGradGradGradGradGrad
 Berny optimization.
 Using GEDIIS/GDIIS optimizer.
 Internal  Forces:  Max     0.001279629 RMS     0.000348227
 Search for a local minimum.
 Step number   3 out of a maximum of  121
 All quantities printed in internal units (Hartrees-Bohrs-Radians)
[...]
 31141,0.00125693,-0.00176074,0.00008246,-0.00045626,0.00056894,-0.0000
 3527,-0.00012556,-0.00002745,0.00000599,0.00005134,-0.00040252,-0.0001
 3036,0.00020742,0.00005268,0.00031368,-0.00002496,-0.00024484,-0.00016
 373,-0.00054831,0.00098796,-0.00103198,0.00035872,-0.00019522,-0.00117
 184,-0.00019098,0.00067878,-0.00008529,-0.00023928,-0.00003175,-0.0000
 2761,-0.00215117,-0.00026880,0.26990971,0.00619246,-0.00015226,0.00279
 038,0.12003031,-0.10060837,0.04109447,0.00179768,0.00475134,0.00098400
 ,0.00293083,0.00604582,-0.00079346,0.00348839,-0.00036120,0.00139243,-
 0.00047339,-0.00044459,-0.00016382,-0.00021684,-0.00018203,-0.00005665
 ,0.00001749,0.00000990,0.00016640,-0.00051943,0.00006531,-0.00059097,-
 0.00000817,-0.00002867,-0.00007239,0.00053526,-0.00106555,0.00007378,0
 .00021100,-0.00045109,0.00003534,-0.00038411,-0.00059574,-0.00009963,-
 0.00021905,-0.00043917,-0.00004760,-0.00200957,-0.00307984,-0.00033624
 ,-0.13171898,0.09602638,0.01932306,-0.01037141,0.01009446,-0.06934987,
 0.04033309,-0.08405457,0.00061215,0.00074600,-0.00610841,0.00273765,-0
 .00041309,-0.00308845,-0.02623493,0.01350409,-0.00408913,0.00068454,-0
 .00032777,-0.00073765,0.00025126,0.00005109,-0.00012755,-0.00002325,-0
 .00002192,0.00035077,0.00026683,-0.00051841,0.00021015,0.00065798,-0.0
 0052417,0.00061385,0.00106151,-0.00103013,0.00165159,0.00118573,-0.000
 66361,0.00038198,-0.00353309,0.00310094,-0.00215681,-0.00009888,-0.000
 01452,0.00012997,-0.00049545,-0.00022332,0.00100274,0.07448401,-0.0443
 9203,0.08586847,-0.00082427,-0.00000735,0.00055221,-0.00372918,0.00450
 681,-0.00025979,-0.06168418,0.01515276,-0.04958839,-0.00162954,0.00386
 816,0.00157784,0.00043871,0.00291996,-0.02488157,0.00598184,-0.0028891
 0,0.02193005,-0.00018071,-0.00007926,0.00014210,-0.00027839,-0.0000217
 7,0.00003242,-0.00012215,0.00046645,0.00042624,0.00160107,-0.00105206,
 0.00193978,0.00069676,-0.00046877,0.00082073,0.00029681,-0.00015743,0.
 00136335,-0.00258324,-0.00044411,-0.00534137,0.00030293,-0.00167011,0.
 00048028,-0.00002274,-0.00019569,-0.00003882,0.00015438,0.00033119,-0.
 00140433,0.06171225,-0.00003398,-0.00057009,-0.00034007,0.00461024,0.0
 0277467,0.00034603,0.01474292,-0.04682922,0.04325936,0.00372821,0.0045
 4211,-0.00017927,0.00140003,0.00129843,0.01294577,-0.00087424,0.004515
 69,-0.00923590,0.00008041,-0.00027358,0.00003748,-0.00005036,-0.000299
 84,-0.00006291,-0.00093114,-0.00000957,-0.00037049,-0.00129006,-0.0000
 4001,-0.00132735,0.00045047,-0.00012607,-0.00056301,-0.00001277,0.0003
 0326,-0.00053710,0.00003898,-0.00217333,0.00295734,-0.00158518,-0.0021
 8350,-0.00053927,-0.00020544,-0.00034052,-0.00001474,0.00024360,0.0004
 4820,0.00075395,-0.02007207,0.03881218,0.00047878,-0.00030192,0.000465
 97,-0.00061850,0.00045784,0.00124549,-0.04838459,0.04363781,-0.3344671
 5,0.00244932,-0.00089917,-0.00008734,-0.00290491,0.00175411,-0.0042763
 5,-0.00420799,0.00333960,-0.01522925,-0.00000607,-0.00005986,-0.000034
 94,0.00015985,-0.00010750,0.00008030,-0.00014815,-0.00007059,-0.000132
 39,0.00160835,-0.00075893,-0.00142174,-0.00015827,-0.00008406,-0.00003
 897,-0.00022948,0.00019321,-0.00070515,0.00071957,-0.00017117,-0.00004
 854,-0.00093910,0.00024025,0.00113986,0.00000068,-0.00002411,-0.000056
 15,0.00009860,0.00000686,-0.00002797,0.05220849,-0.04721640,0.35357897
 ,0.00004059,-0.00003494,0.00003841,-0.00003771,-0.00001007,-0.00002894
 ,0.00002556,-0.00001105,-0.00014932,-0.00005886,0.00003392,0.00009553,
 0.00030246,-0.00036311,0.00025065,-0.00000387,0.00001389,-0.00009018,-
 0.06303695,0.05022901,-0.03008077,0.00000687,-0.00000344,0.00007305,-0
 .01493870,0.03079290,-0.01231932,-0.00033400,-0.00143037,0.00018927,0.
 00176352,-0.00224273,0.00103127,0.00010694,-0.00004740,-0.00012893,-0.
 00134688,0.00721560,-0.00260966,0.00006397,-0.00003535,0.00001386,0.00
 000844,0.00000614,-0.00000974,-0.00002336,0.00001834,0.00007811,0.0000
 2038,0.00001455,0.00000437,0.07586613,0.00002115,-0.00001970,-0.000046
 65,0.00006284,-0.00004009,0.00010458,0.00005129,-0.00002331,-0.0001703
 9,-0.00006923,0.00003295,0.00003949,0.00027022,-0.00005614,0.00011945,
 -0.00002033,0.00001961,0.00001363,0.05980278,-0.24661331,0.11287409,0.
 00000849,-0.00000425,0.00005255,0.00582528,-0.00741088,0.00113793,0.00
 026670,0.00017903,0.00018344,-0.00204692,-0.00065806,0.00012078,0.0000
 5342,-0.00002185,-0.00008702,-0.00157464,-0.00099161,0.00022566,0.0000
 3736,-0.00001851,-0.00000132,0.00001557,-0.00000047,-0.00001418,0.0000
 2031,0.00003085,-0.00000340,-0.00002440,0.00000312,0.00000533,-0.06683
 722,0.26530643,-0.00000742,0.00000077,-0.00003431,0.00007693,-0.000057
 96,0.00005953,-0.00001963,-0.00002985,-0.00006571,-0.00002125,0.000008
 45,0.00002349,-0.00004460,-0.00017579,0.00003095,0.00000076,0.00002670
 ,-0.00000469,-0.03421721,0.11607036,-0.11968158,0.00000601,-0.00000185
 ,0.00002182,0.00211300,-0.01296932,0.00703671,0.00002695,-0.00008762,0
 .00008892,0.00119448,-0.00025584,-0.00067534,0.00001850,-0.00000620,-0
 .00003962,-0.00053784,0.00137982,0.00049497,0.00000721,-0.00000075,-0.
 00000344,0.00000989,-0.00000276,-0.00000866,0.00005181,0.00003661,-0.0
 0001798,-0.00002481,-0.00000264,-0.00000448,0.03177959,-0.12197184,0.1
 2174450,0.00003323,-0.00002359,-0.00010402,-0.00008932,0.00001152,-0.0
 0006508,0.00013771,-0.00018439,0.00013597,0.00009155,-0.00002396,-0.00
 029502,-0.00102528,-0.00063449,-0.00056911,0.00006375,0.00003644,0.000
 28517,-0.05108324,-0.00092149,0.00063260,-0.00001440,0.00001907,-0.000
 16171,-0.01645095,0.00513530,0.03530732,0.00035170,0.00001646,-0.00181
 349,0.00043408,-0.00136108,-0.00024892,-0.00021991,0.00009434,0.000300
 86,0.00426384,0.00639987,0.00580844,-0.00010092,0.00006767,-0.00003098
 ,-0.00000494,-0.00000188,0.00001542,-0.00000062,0.00006347,-0.00004108
 ,-0.00003761,-0.00002410,0.00001561,0.00102640,-0.00274985,-0.00737151
 ,0.05955049,0.00000858,0.00000672,-0.00000073,0.00008845,-0.00006113,0
 .00005613,-0.00005429,0.00004228,-0.00007092,-0.00006604,0.00002051,0.
 00010533,0.00011558,0.00006386,-0.00002144,-0.00004487,0.00002251,-0.0
 0009945,-0.00042697,-0.06075605,-0.03405008,0.00000543,-0.00000765,0.0
 0006915,0.00515139,0.00107138,-0.00918255,0.00080453,0.00005727,0.0003
 9307,0.00008457,0.00039029,-0.00056070,0.00009497,-0.00003809,-0.00012
 764,-0.00191168,-0.00100835,0.00120106,0.00005142,-0.00002970,0.000014
 72,0.00000814,-0.00000324,-0.00001152,0.00001532,-0.00001751,0.0000140
 4,-0.00001233,0.00002906,0.00000101,-0.00071150,0.00666626,0.02795778,
 -0.00348080,0.05578364,0.00004418,-0.00001332,0.00004232,0.00006369,-0
 .00000165,0.00004640,-0.00010775,0.00008506,-0.00007862,-0.00013446,0.
 00003975,0.00019163,0.00032673,0.00033837,0.00005112,-0.00009813,0.000
 02667,-0.00018874,0.00301353,-0.03348768,-0.30287894,0.00000289,-0.000
 01775,0.00013025,0.01132834,-0.00171122,-0.00324525,0.00088544,0.00073
 724,0.00089910,-0.00009097,0.00097353,0.00028216,0.00018975,-0.0000712
 3,-0.00023627,-0.00243133,-0.00407058,-0.00106685,0.00009864,-0.000054
 98,0.00003323,0.00000068,-0.00000687,-0.00001326,-0.00001838,-0.000035
 85,0.00004480,-0.00000295,0.00002542,-0.00000777,-0.00104024,-0.003080
 91,-0.01396281,-0.01152447,0.04034719,0.32649693,-0.00007651,0.0001486
 4,0.00012218,-0.00025652,0.00011234,-0.00014939,0.00006353,-0.00013037
 ,0.00023727,0.00022446,-0.00012069,-0.00021710,-0.00061657,-0.00091134
 ,0.00017305,0.00012682,0.00002361,0.00019542,-0.14728249,-0.12059807,-
 0.04622178,-0.00002672,0.00000999,-0.00018935,-0.03054841,-0.02236911,
 -0.00088095,-0.00100667,-0.00104528,-0.00147131,0.00114160,-0.00077044
 ,0.00015648,-0.00026108,0.00010434,0.00034022,-0.00195389,0.00599344,0
 .00030955,-0.00012390,0.00007791,-0.00002403,-0.00002827,0.00001880,0.
 00004411,-0.00003934,-0.00008292,-0.00001530,0.00002002,-0.00008766,-0
 .00002784,0.00735675,0.00601489,0.00385801,0.00204576,0.00051992,-0.00
 107848,0.17084184,-0.00001236,-0.00002632,-0.00004788,0.00002854,-0.00
 002447,0.00000421,0.00003345,-0.00000503,-0.00002953,0.00001342,0.0000
 0505,-0.00005293,0.00023421,0.00057851,-0.00005357,-0.00000316,-0.0000
 5046,0.00005200,-0.12663982,-0.19829475,-0.05386762,-0.00000396,0.0000
 0346,-0.00003660,0.00996717,0.00952701,0.00183376,0.00018480,0.0006905
 7,0.00056760,-0.00206715,0.00069989,0.00005235,-0.00003628,0.00001621,
 0.00005981,0.00405306,-0.00217665,-0.00007116,-0.00001012,0.00000370,-
 0.00000415,-0.00000223,-0.00000952,-0.00000047,0.00000657,0.00001421,-
 0.00004707,0.00002397,0.00002023,0.00000978,-0.01716960,-0.01729787,-0
 .00923779,-0.00130793,-0.00221207,-0.00018522,0.13319077,0.20814371,0.
 00000924,-0.00005808,-0.00004285,0.00009790,-0.00007329,0.00006423,-0.
 00003825,0.00003238,-0.00010528,-0.00006988,0.00004251,0.00009036,0.00
 037113,0.00044596,0.00002823,-0.00002900,-0.00001988,-0.00007519,-0.04
 784068,-0.05721556,-0.07215381,0.00001407,-0.00000467,0.00007570,0.008
 64398,0.00983009,0.00288350,0.00032596,0.00023839,0.00101280,0.0002326
 1,0.00026227,0.00014695,0.00009390,-0.00003833,-0.00013339,0.00193766,
 -0.00060751,-0.00125364,0.00003569,-0.00002276,0.00000248,0.00001518,-
 0.00000338,-0.00001898,0.00001610,0.00005410,0.00000558,-0.00000557,0.
 00003345,0.00001286,0.01157267,0.01119192,0.00502001,-0.02041897,-0.02
 472492,-0.00713299,0.04562266,0.06067408,0.07126635,-0.00037301,0.0004
 4621,-0.00036637,0.00023261,-0.00005221,0.00007395,-0.00008435,0.00002
 959,0.00001599,0.00137223,-0.00023778,-0.00232360,-0.00005433,-0.00000
 691,0.00017270,0.00016505,0.00006679,-0.00015008,0.00003474,-0.0000246
 3,-0.00000963,-0.24726363,0.08850435,0.09746162,-0.00009233,0.00000158
 ,0.00003289,-0.00004013,0.00001235,0.00010025,-0.00006542,0.00004412,0
 .00003771,0.00731581,-0.00315600,-0.00237321,0.00022630,-0.00007423,-0
 .00018195,0.00007290,-0.00005721,0.00009847,0.00008022,-0.00033506,0.0
 0050927,0.00001433,0.00000791,-0.00001277,0.00000810,-0.00002169,-0.00
 001653,0.00000440,0.00000223,-0.00000020,-0.00000853,0.00000445,0.0000
 0976,-0.00001029,-0.00000160,0.00000238,0.25720261,0.00048502,0.000177
 34,0.00027280,-0.00006623,0.00019288,-0.00004729,0.00009111,-0.0000480
 5,0.00002629,-0.00019206,0.00044574,0.00160749,-0.00001279,-0.00004032
 ,-0.00008929,-0.00012619,0.00032069,0.00016813,-0.00001316,0.00000795,
 0.00000428,0.08962298,-0.09490344,-0.04599808,0.00003005,0.00000477,-0
 .00000906,0.00001790,0.00000024,-0.00004621,0.00002626,-0.00001443,-0.
 00001757,-0.00627696,0.00337546,0.00427961,-0.00009578,0.00000137,0.00
 006386,-0.00003009,-0.00000805,-0.00005411,-0.00030094,-0.00031272,-0.
 00035690,0.00000482,0.00002644,0.00001383,-0.00003303,-0.00002497,0.00
 001224,-0.00000188,-0.00000120,0.00000011,0.00000289,-0.00000135,-0.00
 000351,0.00000347,0.00000100,-0.00000126,-0.09570765,0.09276402,-0.000
 77492,0.00048793,-0.00058994,0.00027400,-0.00014718,0.00026810,-0.0005
 5792,0.00029881,-0.00036948,-0.00273497,0.00185120,-0.00431276,0.00014
 947,-0.00009479,-0.00004229,0.00198421,-0.00089263,-0.00070184,-0.0000
 4084,0.00003447,-0.00000024,0.08526161,-0.03985130,-0.08780806,0.00014
 677,-0.00000350,-0.00002776,0.00007368,-0.00001916,-0.00008753,0.00011
 439,-0.00007051,-0.00003809,0.03151301,-0.01283987,-0.03301754,-0.0003
 6230,0.00009362,0.00030834,-0.00024272,0.00011748,0.00002046,0.0001203
 3,-0.00016499,0.00061456,0.00004104,-0.00001268,-0.00004915,0.00010533
 ,-0.00004589,-0.00006612,-0.00000561,-0.00000379,-0.00000169,0.0000129
 9,-0.00000565,-0.00001043,0.00001474,0.00000274,-0.00000565,-0.1021414
 3,0.04544680,0.11456458,0.00048025,-0.00048770,-0.00036242,-0.00015196
 ,0.00046091,0.00048978,0.00036094,-0.00014831,-0.00010563,0.00014475,-
 0.00088490,0.00044110,-0.00006330,0.00007024,-0.00059076,0.00011136,-0
 .00005375,0.00040155,-0.00004293,0.00003111,0.00000844,-0.05550900,0.0
 1649553,-0.00229382,0.00013030,0.00000707,-0.00002919,0.00007144,-0.00
 000362,-0.00014369,0.00011338,-0.00006907,-0.00004944,0.00121334,0.004
 78450,-0.00373522,-0.00041548,0.00005213,0.00028454,-0.00016022,0.0000
 7603,-0.00007418,-0.00135627,-0.00058822,0.00064691,-0.00000052,-0.000
 03376,0.00000383,0.00000510,-0.00000128,-0.00000496,-0.00000640,-0.000
 00362,-0.00000056,0.00001091,-0.00000522,-0.00001141,0.00001466,0.0000
 0255,-0.00000482,0.00048496,0.02701875,-0.00519183,0.05166882,0.000161
 05,0.00002236,0.00121056,-0.00016970,-0.00013310,-0.00076766,0.0000371
 5,0.00000588,-0.00017180,0.00252781,0.00014565,-0.00199598,-0.00020731
 ,-0.00000043,0.00044974,-0.00047827,-0.00007509,0.00047095,0.00003680,
 -0.00003142,0.00000436,0.01575796,-0.30295753,0.04159404,-0.00013083,0
 .00003358,0.00003026,-0.00005152,0.00001635,0.00007561,-0.00012483,0.0
 0010201,0.00001411,0.00050069,0.00280126,0.01110399,0.00040155,-0.0001
 3460,-0.00034109,-0.00000400,0.00003980,-0.00007837,-0.00013700,0.0003
 8237,-0.00077368,-0.00001974,0.00003985,0.00003516,-0.00001281,0.00001
 105,0.00001124,0.00000336,0.00000381,0.00000228,-0.00001286,0.00000490
 ,0.00000969,-0.00000983,-0.00000289,0.00000509,-0.00034726,-0.00974066
 ,0.00084481,-0.01997858,0.32354456,0.00071786,-0.00077099,0.00067215,0
 .00012977,-0.00040266,-0.00054884,-0.00111223,0.00023968,0.00032995,-0
 .00571648,0.00455096,0.00607948,0.00076396,-0.00044830,0.00025295,0.00
 025360,-0.00069975,-0.00201219,-0.00004809,0.00004985,-0.00000463,-0.0
 0133713,0.03595472,-0.05743777,0.00020805,-0.00002471,-0.00004828,0.00
 004746,-0.00002886,-0.00012390,0.00013210,-0.00009826,-0.00004690,-0.0
 0177267,0.03660710,-0.02742129,-0.00039442,0.00022276,0.00043877,0.000
 15780,-0.00001372,0.00005071,0.00119321,0.00051771,-0.00040477,0.00004
 479,-0.00000003,-0.00002299,0.00005299,0.00006909,-0.00000832,-0.00000
 668,-0.00000411,-0.00000141,0.00001817,-0.00000685,-0.00001376,0.00001
 969,0.00000261,-0.00000768,-0.00075596,-0.01291576,0.00460597,0.005231
 18,-0.05307994,0.07108371,0.00035141,0.00026905,-0.00122280,-0.0003585
 7,-0.00038901,0.00087629,0.00023246,-0.00016028,0.00005073,-0.00028714
 ,0.00156867,0.00166487,0.00000964,-0.00004936,-0.00074301,0.00020150,-
 0.00037659,-0.00003824,-0.00004806,0.00005333,-0.00000011,-0.22369000,
 -0.10439361,-0.06282227,0.00022222,-0.00000754,-0.00002850,0.00008153,
 -0.00001718,-0.00011657,0.00013914,-0.00006950,-0.00004341,0.00265530,
 0.00220391,-0.00881124,-0.00051181,0.00019633,0.00041909,-0.00007345,0
 .00006868,0.00001884,-0.00001129,0.00089825,0.00121329,0.00005304,0.00
 002364,-0.00001668,0.00002004,0.00000841,-0.00000969,-0.00000837,-0.00
 000591,-0.00000265,0.00001612,-0.00000709,-0.00001193,0.00002385,0.000
 00324,-0.00000933,-0.01922650,-0.01444558,-0.00775213,0.00290170,0.002
 24795,0.00218207,0.23731737,-0.00069999,0.00024957,-0.00055220,0.00029
 040,-0.00005105,0.00015713,-0.00016573,0.00004339,0.00013545,-0.000438
 15,0.00064620,0.00000538,0.00001765,-0.00007992,0.00016009,-0.00003476
 ,-0.00019368,-0.00033087,0.00001983,-0.00001321,-0.00001141,-0.1041726
 4,-0.11854065,-0.03946386,-0.00004163,0.00000591,0.00002946,-0.0000177
 1,0.00001648,0.00009081,-0.00002809,0.00003790,0.00003076,0.00800832,0
 .00703435,0.00205832,0.00011022,-0.00006595,-0.00009051,0.00012128,-0.
 00004805,0.00009997,0.00046120,-0.00089176,-0.00009870,0.00000091,-0.0
 0000653,-0.00002080,0.00000980,0.00001337,-0.00000009,0.00000233,-0.00
 000017,-0.00000187,-0.00000393,0.00000223,0.00000706,-0.00000531,0.000
 00057,-0.00000005,0.01089461,0.00777914,0.00498454,-0.02672878,-0.0140
 7970,-0.00970931,0.11239793,0.11813546,0.00095219,-0.00015747,0.000580
 44,0.00045402,0.00017253,-0.00040921,-0.00090287,0.00070280,0.00038227
 ,-0.00765822,0.00131103,0.00594800,0.00079378,-0.00043946,0.00023025,0
 .00087253,0.00043777,-0.00198903,-0.00004974,0.00004391,-0.00000727,-0
 .05775623,-0.03701700,-0.07316657,0.00019892,0.00001418,-0.00002308,0.
 00008046,0.00000609,-0.00012751,0.00017988,-0.00008493,-0.00005520,-0.
 02732120,-0.01498217,-0.03300769,-0.00053578,0.00002276,0.00044772,0.0
 0012263,-0.00013321,0.00005404,0.00041294,-0.00129517,-0.00050101,0.00
 003399,-0.00003045,-0.00003143,-0.00001670,-0.00007911,-0.00001799,-0.
 00000888,-0.00000507,-0.00000282,0.00001713,-0.00000703,-0.00001197,0.
 00002068,0.00000431,-0.00000862,0.00982338,0.00764208,0.00674190,0.005
 08788,0.00136425,0.00458255,0.07520386,0.04252496,0.09039773,0.0001775
 3,-0.00012023,-0.00012177,0.00003060,-0.00000081,0.00033551,-0.0003076
 2,0.00016028,0.00057846,-0.00020760,0.00006440,-0.00001543,-0.00066842
 ,0.00137717,-0.00115502,-0.00024445,0.00014096,-0.00001764,-0.00903619
 ,0.03036838,-0.01710044,0.00000850,-0.00001822,0.00009141,-0.09164714,
 0.09095846,-0.04281982,-0.00094274,0.00201665,-0.00096704,-0.00280066,
 -0.00759983,-0.00057453,0.00009824,-0.00002460,-0.00014530,0.01064551,
 -0.02246552,0.01267608,-0.00003659,0.00003344,0.00001175,-0.00000802,-
 0.00001767,-0.00000192,0.00002770,0.00001826,-0.00012101,-0.00016639,-
 0.00012782,-0.00008753,-0.00679731,0.00087960,0.00310455,0.00101016,-0
 .00023193,0.00058690,0.00037137,-0.00048754,-0.00057461,0.00000426,-0.
 00000091,-0.00000692,-0.00000584,0.00001023,-0.00000903,-0.00001014,0.
 00000225,-0.00000467,0.10050522,0.00012869,-0.00007474,-0.00016055,0.0
 0024384,-0.00003581,0.00010527,-0.00018724,-0.00002253,0.00018427,-0.0
 0018269,0.00010369,0.00007513,-0.00122422,0.00057765,-0.00089124,-0.00
 016657,0.00010281,-0.00015060,0.00152279,-0.00383388,0.00487061,0.0000
 2422,-0.00000149,0.00012009,0.09048110,-0.30573564,0.13330179,0.002323
 94,0.00530119,-0.00070254,-0.00341749,-0.00280177,-0.00065914,0.000173
 36,-0.00008279,-0.00022425,0.00589220,-0.02544618,0.01571090,0.0000849
 4,-0.00006199,0.00003178,0.00002596,-0.00001451,-0.00003406,0.00000776
 ,-0.00002576,0.00001945,-0.00013881,0.00009934,0.00002452,0.00056863,0
 .00091537,-0.00068080,-0.00111667,-0.00002577,0.00015081,-0.00008709,0
 .00039593,-0.00004055,0.00000805,-0.00000183,-0.00001047,-0.00001200,0
 .00000198,-0.00001124,-0.00001773,0.00000609,-0.00001561,-0.09493497,0
 .33066065,-0.00010052,0.00000708,-0.00009402,0.00006092,-0.00002070,-0
 .00048796,0.00038956,-0.00011089,-0.00006237,0.00021215,0.00000714,-0.
 00006386,-0.00008242,-0.00051620,0.00017694,0.00015205,-0.00015940,0.0
 0002208,0.00786548,-0.01339569,0.00207574,0.00002700,0.00004109,-0.000
 06997,-0.05004187,0.17950333,-0.09737321,0.00065854,0.00179377,-0.0008
 4252,-0.00077300,-0.00164207,0.00270370,-0.00011469,-0.00000318,0.0001
 1198,-0.00507383,-0.01295928,-0.00014866,-0.00002524,-0.00001161,-0.00
 003900,0.00002686,0.00001624,-0.00002489,-0.00005477,-0.00000255,0.000
 15771,-0.00006752,0.00008627,0.00010719,0.00135150,-0.00068018,-0.0000
 1636,0.00009471,-0.00129000,0.00062974,-0.00083853,0.00037076,0.000329
 01,-0.00000663,0.00000151,0.00000468,0.00000271,-0.00001763,0.00000649
 ,-0.00000049,-0.00000427,-0.00000549,0.04633802,-0.15101356,0.09290307
 \\-0.00000075,-0.00000002,0.00000464,-0.00000057,0.00000267,0.00000525
 ,0.00002104,-0.00000896,0.00000948,0.00002376,-0.00001529,-0.00001464,
 -0.00000984,0.00001057,-0.00000036,-0.00003526,0.00001905,-0.00001239,
 -0.00001250,0.00000585,0.00000285,-0.00000952,0.00000381,-0.00000689,0
 .00001831,0.00000910,0.00000098,0.00000552,-0.00000328,0.00001997,-0.0
 0000195,0.00001512,-0.00000431,-0.00000464,0.00000654,0.00001505,-0.00
 000684,-0.00003140,-0.00002690,0.00001376,-0.00000876,0.00000595,-0.00
 000220,0.00000239,-0.00000152,-0.00000157,0.00000102,-0.00000107,-0.00
 000398,0.00000051,-0.00000001,0.00000045,-0.00000301,-0.00000071,0.000
 00158,-0.00000378,-0.00000234,-0.00000013,-0.00000024,0.00000164,0.000
 00002,0.00000064,0.00000005,0.00000516,-0.00000017,0.00000179,0.000003
 32,-0.00000097,0.00000197,-0.00000316,-0.00000139,0.00000153\\\@


 IN THE LONG RUN, DIGGING FOR TRUTH HAS ALWAYS PROVED NOT ONLY 
 MORE INTERESTING BUT MORE PROFITABLE THAN DIGGING FOR GOLD.

                             -- GEORGE R. HARRISON
 Job cpu time:  0 days  1 hours 26 minutes 21.0 seconds.
 File lengths (MBytes):  RWF=    193 Int=      0 D2E=      0 Chk=      5 Scr=      1
 Normal termination of Gaussian 09 at Fri Feb 16 21:06:21 2018.
