 Entering Gaussian System, Link 0=g09
 Initial command:
 /home/fb_chem/chemsoft/lx24-amd64/Gaussian_09_C.01_NBO_3.1_64_istanbul-64/g09/l1.exe /local/2401520.1.parallel_long/Gau-28765.inp -scrdir=/local/2401520.1.parallel_long/
 Entering Link 1 = /home/fb_chem/chemsoft/lx24-amd64/Gaussian_09_C.01_NBO_3.1_64_istanbul-64/g09/l1.exe PID=     28766.
  
 Copyright (c) 1988,1990,1992,1993,1995,1998,2003,2009,2011,
            Gaussian, Inc.  All Rights Reserved.
  
 This is part of the Gaussian(R) 09 program.  It is based on
 the Gaussian(R) 03 system (copyright 2003, Gaussian, Inc.),
 the Gaussian(R) 98 system (copyright 1998, Gaussian, Inc.),
 the Gaussian(R) 94 system (copyright 1995, Gaussian, Inc.),
 the Gaussian 92(TM) system (copyright 1992, Gaussian, Inc.),
 the Gaussian 90(TM) system (copyright 1990, Gaussian, Inc.),
 the Gaussian 88(TM) system (copyright 1988, Gaussian, Inc.),
 the Gaussian 86(TM) system (copyright 1986, Carnegie Mellon
 University), and the Gaussian 82(TM) system (copyright 1983,
 Carnegie Mellon University). Gaussian is a federally registered
 trademark of Gaussian, Inc.
  
 This software contains proprietary and confidential information,
 including trade secrets, belonging to Gaussian, Inc.
  
 This software is provided under written license and may be
 used, copied, transmitted, or stored only in accord with that
 written license.
  
 The following legend is applicable only to US Government
 contracts under FAR:
  
                    RESTRICTED RIGHTS LEGEND
  
 Use, reproduction and disclosure by the US Government is
 subject to restrictions as set forth in subparagraphs (a)
 and (c) of the Commercial Computer Software - Restricted
 Rights clause in FAR 52.227-19.
  
 Gaussian, Inc.
 340 Quinnipiac St., Bldg. 40, Wallingford CT 06492
  
  
 ---------------------------------------------------------------
 Warning -- This program may not be used in any manner that
 competes with the business of Gaussian, Inc. or will provide
 assistance to any competitor of Gaussian, Inc.  The licensee
 of this program is prohibited from giving any competitor of
 Gaussian, Inc. access to this program.  By using this program,
 the user acknowledges that Gaussian, Inc. is engaged in the
 business of creating and licensing software in the field of
 computational chemistry and represents and warrants to the
 licensee that it is not a competitor of Gaussian, Inc. and that
 it will not use this program in any manner prohibited above.
 ---------------------------------------------------------------
  

 Cite this work as:
 Gaussian 09, Revision C.01,
 M. J. Frisch, G. W. Trucks, H. B. Schlegel, G. E. Scuseria, 
 M. A. Robb, J. R. Cheeseman, G. Scalmani, V. Barone, B. Mennucci, 
 G. A. Petersson, H. Nakatsuji, M. Caricato, X. Li, H. P. Hratchian, 
 A. F. Izmaylov, J. Bloino, G. Zheng, J. L. Sonnenberg, M. Hada, 
 M. Ehara, K. Toyota, R. Fukuda, J. Hasegawa, M. Ishida, T. Nakajima, 
 Y. Honda, O. Kitao, H. Nakai, T. Vreven, J. A. Montgomery, Jr., 
 J. E. Peralta, F. Ogliaro, M. Bearpark, J. J. Heyd, E. Brothers, 
 K. N. Kudin, V. N. Staroverov, T. Keith, R. Kobayashi, J. Normand, 
 K. Raghavachari, A. Rendell, J. C. Burant, S. S. Iyengar, J. Tomasi, 
 M. Cossi, N. Rega, J. M. Millam, M. Klene, J. E. Knox, J. B. Cross, 
 V. Bakken, C. Adamo, J. Jaramillo, R. Gomperts, R. E. Stratmann, 
 O. Yazyev, A. J. Austin, R. Cammi, C. Pomelli, J. W. Ochterski, 
 R. L. Martin, K. Morokuma, V. G. Zakrzewski, G. A. Voth, 
 P. Salvador, J. J. Dannenberg, S. Dapprich, A. D. Daniels, 
 O. Farkas, J. B. Foresman, J. V. Ortiz, J. Cioslowski, 
 and D. J. Fox, Gaussian, Inc., Wallingford CT, 2010.
 
 ******************************************
 Gaussian 09:  AM64L-G09RevC.01 23-Sep-2011
                18-Feb-2018 
 ******************************************
 %nprocs=2
 Will use up to    2 processors via shared memory.
 %chk=frag4-conf1.chk
 ----------------------------------------------------------------------
 #HF/6-31G* Geom=AllCheck Guess=Read Pop=(MK,ReadRadii) Integral=(Grid=
 UltraFine) iop(6/33=2)
 ----------------------------------------------------------------------
 1/29=7,38=1/1;
 2/12=2,40=1/2;
 3/5=1,6=6,7=1,11=9,14=-4,16=1,25=1,30=1,75=-5,116=-2/1,2,3;
 4/5=1/1;
 5/5=2,38=6/2;
 6/7=2,8=2,9=2,10=2,15=8,20=101,28=1,33=2/1,2;
 99/5=1,9=1/99;
 Structure from the checkpoint file:  frag4-conf1.chk
 ----------------------------
 Optimization for frag4-conf1
 ----------------------------
 Charge =  0 Multiplicity = 1
 Redundant internal coordinates found in file.
 C,0,0.5982088921,-1.3241837591,-1.4934489319
 C,0,-0.1654892817,-2.3183623055,1.5318487313
 C,0,0.3855444033,-4.5179558519,-1.3872711649
 C,0,1.6501686226,-3.6469449011,-1.3184214084
 C,0,-0.2700567749,-4.3095499369,-0.0140000717
 C,0,1.1827047295,-2.4077216522,-0.5466617241
 C,0,-1.1036721195,-3.0494889687,2.4766705517
 C,0,-0.331249662,0.9538087109,-1.5528493915
 N,0,0.1514138345,-2.950092898,0.3692723668
 N,0,0.2899556055,-0.1626781412,-0.865019624
 O,0,0.4550497719,-1.5243518028,-2.6977555089
 O,0,0.2804790531,-1.1979905831,1.8103065657
 H,0,-0.2663360469,-4.1387350141,-2.1797097882
 H,0,0.5935569572,-5.5735385499,-1.5850483525
 H,0,2.4421171917,-4.155001331,-0.7556561481
 H,0,2.0271878122,-3.379934355,-2.3064960677
 H,0,-1.3618399148,-4.3894569499,-0.0506444036
 H,0,0.0967818195,-5.0434958955,0.7173630678
 H,0,1.9729482003,-1.952755012,0.0594730859
 H,0,-0.7013594228,-4.0254690269,2.7718613038
 H,0,-2.0790633133,-3.2250235424,2.0080018448
 H,0,-1.2398690178,-2.4318220457,3.3649591556
 H,0,-0.2859197788,0.756600863,-2.6248841826
 H,0,0.2016449857,1.8855014157,-1.3327569508
 H,0,-1.3818621291,1.0752540134,-1.2584019032
 H,0,0.3616248329,-0.1603051003,0.1516279427
 Recover connectivity data from disk.
                          Input orientation:                          
 ---------------------------------------------------------------------
 Center     Atomic      Atomic             Coordinates (Angstroms)
 Number     Number       Type             X           Y           Z
 ---------------------------------------------------------------------
      1          6           0        0.598209   -1.324184   -1.493449
      2          6           0       -0.165489   -2.318362    1.531849
      3          6           0        0.385544   -4.517956   -1.387271
      4          6           0        1.650169   -3.646945   -1.318421
      5          6           0       -0.270057   -4.309550   -0.014000
      6          6           0        1.182705   -2.407722   -0.546662
      7          6           0       -1.103672   -3.049489    2.476671
      8          6           0       -0.331250    0.953809   -1.552849
      9          7           0        0.151414   -2.950093    0.369272
     10          7           0        0.289956   -0.162678   -0.865020
     11          8           0        0.455050   -1.524352   -2.697756
     12          8           0        0.280479   -1.197991    1.810307
     13          1           0       -0.266336   -4.138735   -2.179710
     14          1           0        0.593557   -5.573539   -1.585048
     15          1           0        2.442117   -4.155001   -0.755656
     16          1           0        2.027188   -3.379934   -2.306496
     17          1           0       -1.361840   -4.389457   -0.050644
     18          1           0        0.096782   -5.043496    0.717363
     19          1           0        1.972948   -1.952755    0.059473
     20          1           0       -0.701359   -4.025469    2.771861
     21          1           0       -2.079063   -3.225024    2.008002
     22          1           0       -1.239869   -2.431822    3.364959
     23          1           0       -0.285920    0.756601   -2.624884
     24          1           0        0.201645    1.885501   -1.332757
     25          1           0       -1.381862    1.075254   -1.258402
     26          1           0        0.361625   -0.160305    0.151628
 ---------------------------------------------------------------------
                    Distance matrix (angstroms):
                    1          2          3          4          5
     1  C    0.000000
     2  C    3.274760   0.000000
     3  C    3.202605   3.696365   0.000000
     4  C    2.555870   3.631224   1.537099   0.000000
     5  C    3.443119   2.522977   1.535943   2.414089   0.000000
     6  C    1.553092   2.479076   2.407317   1.532909   2.451774
     7  C    4.651336   1.519020   4.393655   4.726872   2.913093
     8  C    2.461031   4.499994   5.520998   5.014769   5.484045
     9  N    2.512556   1.360549   2.366106   2.362240   1.473994
    10  N    1.356112   3.255669   4.387520   3.767740   4.270175
    11  O    1.229193   4.347996   3.268618   2.799334   3.935181
    12  O    3.321397   1.237602   4.610609   4.202662   3.648696
    13  H    3.023258   4.135165   1.093945   2.157931   2.172439
    14  H    4.250344   4.570270   1.093910   2.213432   2.193556
    15  H    3.458014   3.924988   2.181780   1.096362   2.815995
    16  H    2.632325   4.546170   2.198877   1.090747   3.375953
    17  H    3.913997   2.867921   2.203732   3.351235   1.095317
    18  H    4.355732   2.856313   2.188392   2.916811   1.099154
    19  H    2.167159   2.621922   3.345620   2.207501   3.254374
    20  H    5.213319   2.176925   4.326926   4.733221   2.833328
    21  H    4.800118   2.170374   4.390199   5.015005   2.921848
    22  H    5.311264   2.127783   5.438531   5.635858   3.985444
    23  H    2.528140   5.171879   5.459258   4.984626   5.699373
    24  H    3.238080   5.100316   6.406329   5.718950   6.351400
    25  H    3.119812   4.558694   5.867225   5.612128   5.637443
    26  H    2.029006   2.615353   4.621461   3.997255   4.200320
                    6          7          8          9         10
     6  C    0.000000
     7  C    3.844466   0.000000
     8  C    3.821565   5.732369   0.000000
     9  N    1.482114   2.454842   4.378123   0.000000
    10  N    2.436919   4.630634   1.451051   3.051615   0.000000
    11  O    2.436602   5.615189   2.840837   3.395820   2.289177
    12  O    2.798707   2.405818   4.039217   2.272246   2.868681
    13  H    2.786211   4.854839   5.131391   2.843360   4.224559
    14  H    3.383451   5.074345   6.592615   3.301110   5.466994
    15  H    2.163974   4.923689   5.867454   2.822161   4.536783
    16  H    2.180680   5.726269   4.991146   3.295911   3.930212
    17  H    3.263130   2.872192   5.645283   2.130267   4.610563
    18  H    3.118380   2.917587   6.426876   2.122849   5.134553
    19  H    1.094933   4.063405   4.044382   2.099678   2.625172
    20  H    4.144804   1.096143   6.605552   2.766964   5.397292
    21  H    4.222963   1.096290   5.761697   2.781375   4.821251
    22  H    4.601111   1.090467   6.039282   3.343413   5.038065
    23  H    4.060641   6.417235   1.090965   4.784957   2.067324
    24  H    4.473498   6.369436   1.095659   5.126636   2.102764
    25  H    4.383457   5.571504   1.097832   4.604745   2.117121
    26  H    2.492521   3.987518   2.150946   2.806149   1.019173
                   11         12         13         14         15
    11  O    0.000000
    12  O    4.523230   0.000000
    13  H    2.761117   4.986704   0.000000
    14  H    4.201573   5.547240   1.775303   0.000000
    15  H    3.826291   4.472221   3.060051   2.473320   0.000000
    16  H    2.463308   4.975935   2.419112   2.718029   1.782694
    17  H    4.303152   4.042995   2.407470   2.753184   3.875835
    18  H    4.916886   4.002022   3.056710   2.414297   2.908575
    19  H    3.176453   2.549419   3.847966   4.209186   2.394670
    20  H    6.124506   3.143760   4.971934   4.801665   4.726691
    21  H    5.608758   3.116951   4.653792   5.056524   5.379938
    22  H    6.360249   2.500149   5.882574   6.142834   5.788423
    23  H    2.399394   4.879770   4.915575   6.474983   5.921152
    24  H    3.681648   4.403747   6.101456   7.473588   6.468418
    25  H    3.493413   4.165092   5.410997   6.943732   6.498549
    26  H    3.160433   1.958211   4.653748   5.689722   4.594476
                   16         17         18         19         20
    16  H    0.000000
    17  H    4.194462   0.000000
    18  H    3.954444   1.773465   0.000000
    19  H    2.763620   4.131641   3.674983   0.000000
    20  H    5.800983   2.921517   2.427833   4.336486   0.000000
    21  H    5.958203   2.471505   3.115589   4.672711   1.766992
    22  H    6.613470   3.938726   3.951865   4.634430   1.783667
    23  H    4.750028   5.853736   6.705088   4.432704   7.222579
    24  H    5.657348   6.592678   7.226686   4.450622   7.252784
    25  H    5.706910   5.596619   6.597661   4.707482   6.536320
    26  H    4.379782   4.571320   4.922982   2.411998   4.789055
                   21         22         23         24         25
    21  H    0.000000
    22  H    1.781782   0.000000
    23  H    6.366501   6.852320   0.000000
    24  H    6.517650   6.541084   1.783740   0.000000
    25  H    5.444986   5.804758   1.780422   1.780316   0.000000
    26  H    4.335387   4.248537   2.994837   2.532650   2.560183
                   26
    26  H    0.000000
 Stoichiometry    C8H14N2O2
 Framework group  C1[X(C8H14N2O2)]
 Deg. of freedom    72
 Full point group                 C1      NOp   1
 Largest Abelian subgroup         C1      NOp   1
 Largest concise Abelian subgroup C1      NOp   1
                         Standard orientation:                         
 ---------------------------------------------------------------------
 Center     Atomic      Atomic             Coordinates (Angstroms)
 Number     Number       Type             X           Y           Z
 ---------------------------------------------------------------------
      1          6           0        1.460033    0.431811   -0.089263
      2          6           0       -1.278298   -1.362463   -0.167867
      3          6           0       -1.100676    2.276873    0.454058
      4          6           0       -0.337575    2.074837   -0.864856
      5          6           0       -1.865243    0.956848    0.633196
      6          6           0        0.091019    0.604403   -0.802081
      7          6           0       -2.532060   -1.876581    0.518562
      8          6           0        3.163556   -1.228871    0.540671
      9          7           0       -1.008301   -0.035025   -0.040969
     10          7           0        1.934570   -0.838077   -0.124476
     11          8           0        2.042181    1.379128    0.434769
     12          8           0       -0.538422   -2.122602   -0.805388
     13          1           0       -0.380267    2.410615    1.266363
     14          1           0       -1.772590    3.140008    0.441062
     15          1           0       -0.999689    2.229701   -1.724874
     16          1           0        0.525421    2.736036   -0.953081
     17          1           0       -2.018055    0.696747    1.686151
     18          1           0       -2.851819    0.999986    0.150552
     19          1           0        0.147101    0.128388   -1.786531
     20          1           0       -3.429926   -1.357981    0.163006
     21          1           0       -2.476984   -1.730374    1.603662
     22          1           0       -2.622824   -2.942192    0.305595
     23          1           0        3.685053   -0.320564    0.845996
     24          1           0        3.802890   -1.802845   -0.139237
     25          1           0        2.964152   -1.839885    1.430690
     26          1           0        1.309041   -1.549273   -0.500810
 ---------------------------------------------------------------------
 Rotational constants (GHZ):      1.1467686      0.8689866      0.5628443
 Standard basis: 6-31G(d) (6D, 7F)
 There are   208 symmetry adapted basis functions of A   symmetry.
 Integral buffers will be    131072 words long.
 Raffenetti 1 integral format.
 Two-electron integral symmetry is turned on.
   208 basis functions,   392 primitive gaussians,   208 cartesian basis functions
    46 alpha electrons       46 beta electrons
       nuclear repulsion energy       761.7107454212 Hartrees.
 NAtoms=   26 NActive=   26 NUniq=   26 SFac= 1.00D+00 NAtFMM=   60 NAOKFM=F Big=F
 One-electron integrals computed using PRISM.
 NBasis=   208 RedAO= T  NBF=   208
 NBsUse=   208 1.00D-06 NBFU=   208
 Initial guess read from the checkpoint file:  frag4-conf1.chk
 B after Tr=     0.000000    0.000000    0.000000
         Rot=    1.000000    0.000000    0.000000    0.000000 Ang=   0.00 deg.
 Initial guess orbital symmetries:
       Occupied  (A) (A) (A) (A) (A) (A) (A) (A) (A) (A) (A) (A)
                 (A) (A) (A) (A) (A) (A) (A) (A) (A) (A) (A) (A)
                 (A) (A) (A) (A) (A) (A) (A) (A) (A) (A) (A) (A)
                 (A) (A) (A) (A) (A) (A) (A) (A) (A) (A)
       Virtual   (A) (A) (A) (A) (A) (A) (A) (A) (A) (A) (A) (A)
                 (A) (A) (A) (A) (A) (A) (A) (A) (A) (A) (A) (A)
                 (A) (A) (A) (A) (A) (A) (A) (A) (A) (A) (A) (A)
                 (A) (A) (A) (A) (A) (A) (A) (A) (A) (A) (A) (A)
                 (A) (A) (A) (A) (A) (A) (A) (A) (A) (A) (A) (A)
                 (A) (A) (A) (A) (A) (A) (A) (A) (A) (A) (A) (A)
                 (A) (A) (A) (A) (A) (A) (A) (A) (A) (A) (A) (A)
                 (A) (A) (A) (A) (A) (A) (A) (A) (A) (A) (A) (A)
                 (A) (A) (A) (A) (A) (A) (A) (A) (A) (A) (A) (A)
                 (A) (A) (A) (A) (A) (A) (A) (A) (A) (A) (A) (A)
                 (A) (A) (A) (A) (A) (A) (A) (A) (A) (A) (A) (A)
                 (A) (A) (A) (A) (A) (A) (A) (A) (A) (A) (A) (A)
                 (A) (A) (A) (A) (A) (A) (A) (A) (A) (A) (A) (A)
                 (A) (A) (A) (A) (A) (A)
 Requested convergence on RMS density matrix=1.00D-08 within 128 cycles.
 Requested convergence on MAX density matrix=1.00D-06.
 Requested convergence on             energy=1.00D-06.
 No special actions if energy rises.
 SCF Done:  E(RHF) =  -569.757224118     A.U. after   14 cycles
             Convg  =    0.3114D-08             -V/T =  2.0025

 **********************************************************************

            Population analysis using the SCF density.

 **********************************************************************

 Orbital symmetries:
 BldTbl:  Degeneracy threshold= 1.00D-02
       Occupied  (A) (A) (A) (A) (A) (A) (A) (A) (A) (A) (A) (A)
                 (A) (A) (A) (A) (A) (A) (A) (A) (A) (A) (A) (A)
                 (A) (A) (A) (A) (A) (A) (A) (A) (A) (A) (A) (A)
                 (A) (A) (A) (A) (A) (A) (A) (A) (A) (A)
       Virtual   (A) (A) (A) (A) (A) (A) (A) (A) (A) (A) (A) (A)
                 (A) (A) (A) (A) (A) (A) (A) (A) (A) (A) (A) (A)
                 (A) (A) (A) (A) (A) (A) (A) (A) (A) (A) (A) (A)
                 (A) (A) (A) (A) (A) (A) (A) (A) (A) (A) (A) (A)
                 (A) (A) (A) (A) (A) (A) (A) (A) (A) (A) (A) (A)
                 (A) (A) (A) (A) (A) (A) (A) (A) (A) (A) (A) (A)
                 (A) (A) (A) (A) (A) (A) (A) (A) (A) (A) (A) (A)
                 (A) (A) (A) (A) (A) (A) (A) (A) (A) (A) (A) (A)
                 (A) (A) (A) (A) (A) (A) (A) (A) (A) (A) (A) (A)
                 (A) (A) (A) (A) (A) (A) (A) (A) (A) (A) (A) (A)
                 (A) (A) (A) (A) (A) (A) (A) (A) (A) (A) (A) (A)
                 (A) (A) (A) (A) (A) (A) (A) (A) (A) (A) (A) (A)
                 (A) (A) (A) (A) (A) (A) (A) (A) (A) (A) (A) (A)
                 (A) (A) (A) (A) (A) (A)
 The electronic state is 1-A.
 Alpha  occ. eigenvalues --  -20.53520 -20.51578 -15.60305 -15.56951 -11.36625
 Alpha  occ. eigenvalues --  -11.34174 -11.28197 -11.28178 -11.24819 -11.24665
 Alpha  occ. eigenvalues --  -11.23624 -11.23250  -1.38570  -1.36362  -1.26319
 Alpha  occ. eigenvalues --   -1.21120  -1.08030  -1.02700  -0.99734  -0.94290
 Alpha  occ. eigenvalues --   -0.87660  -0.81856  -0.78114  -0.75145  -0.71431
 Alpha  occ. eigenvalues --   -0.69050  -0.65113  -0.63924  -0.63077  -0.61274
 Alpha  occ. eigenvalues --   -0.60332  -0.58919  -0.58592  -0.56646  -0.55906
 Alpha  occ. eigenvalues --   -0.54649  -0.53304  -0.51474  -0.51178  -0.49993
 Alpha  occ. eigenvalues --   -0.49286  -0.48494  -0.42946  -0.42265  -0.37289
 Alpha  occ. eigenvalues --   -0.37033
 Alpha virt. eigenvalues --    0.17358   0.20223   0.21050   0.24261   0.25367
 Alpha virt. eigenvalues --    0.26925   0.28552   0.28848   0.30915   0.31177
 Alpha virt. eigenvalues --    0.31800   0.32700   0.33093   0.33580   0.34503
 Alpha virt. eigenvalues --    0.35150   0.36415   0.39159   0.39585   0.40469
 Alpha virt. eigenvalues --    0.41414   0.43835   0.46382   0.49909   0.51662
 Alpha virt. eigenvalues --    0.54329   0.57512   0.61953   0.69434   0.69725
 Alpha virt. eigenvalues --    0.71498   0.73723   0.74129   0.74789   0.76119
 Alpha virt. eigenvalues --    0.76755   0.80337   0.81409   0.85294   0.85793
 Alpha virt. eigenvalues --    0.89251   0.89534   0.90936   0.92620   0.93143
 Alpha virt. eigenvalues --    0.95966   0.97336   0.98345   0.99501   1.00188
 Alpha virt. eigenvalues --    1.03992   1.04753   1.08622   1.08912   1.10093
 Alpha virt. eigenvalues --    1.11564   1.11874   1.12914   1.14233   1.14524
 Alpha virt. eigenvalues --    1.15069   1.16777   1.17056   1.17245   1.18363
 Alpha virt. eigenvalues --    1.18899   1.21344   1.21658   1.23185   1.23967
 Alpha virt. eigenvalues --    1.24946   1.30533   1.33452   1.34250   1.38416
 Alpha virt. eigenvalues --    1.39957   1.44843   1.47710   1.49476   1.52078
 Alpha virt. eigenvalues --    1.53730   1.58268   1.63530   1.64712   1.66563
 Alpha virt. eigenvalues --    1.67391   1.70862   1.73664   1.77186   1.81340
 Alpha virt. eigenvalues --    1.84187   1.87653   1.91052   1.95342   1.95725
 Alpha virt. eigenvalues --    2.00235   2.00711   2.06542   2.09339   2.10284
 Alpha virt. eigenvalues --    2.11339   2.12321   2.14052   2.16796   2.17372
 Alpha virt. eigenvalues --    2.19157   2.20760   2.22739   2.24012   2.26676
 Alpha virt. eigenvalues --    2.28118   2.32257   2.35287   2.35913   2.38697
 Alpha virt. eigenvalues --    2.39501   2.41308   2.44408   2.45346   2.48475
 Alpha virt. eigenvalues --    2.51096   2.52590   2.57177   2.57836   2.60438
 Alpha virt. eigenvalues --    2.63473   2.65510   2.66730   2.70301   2.71556
 Alpha virt. eigenvalues --    2.73795   2.77461   2.83529   2.85252   2.86211
 Alpha virt. eigenvalues --    2.90311   2.91528   2.94850   2.97472   3.00864
 Alpha virt. eigenvalues --    3.02682   3.09501   3.10253   3.18602   3.27067
 Alpha virt. eigenvalues --    3.33857   3.37745   3.39369   3.52195   3.56520
 Alpha virt. eigenvalues --    4.39584   4.42375   4.47366   4.60467   4.61873
 Alpha virt. eigenvalues --    4.66042   4.67447   4.76826   4.87586   4.98635
 Alpha virt. eigenvalues --    5.01867   5.10742
          Condensed to atoms (all electrons):
              1          2          3          4          5          6
     1  C    4.143480  -0.003187  -0.004082  -0.052173   0.002453   0.354953
     2  C   -0.003187   4.149406   0.001492   0.004157  -0.022058  -0.026218
     3  C   -0.004082   0.001492   5.153644   0.326238   0.343346  -0.066183
     4  C   -0.052173   0.004157   0.326238   5.136608  -0.076941   0.341234
     5  C    0.002453  -0.022058   0.343346  -0.076941   4.943635  -0.044916
     6  C    0.354953  -0.026218  -0.066183   0.341234  -0.044916   5.161421
     7  C   -0.000234   0.373643  -0.000065  -0.000086  -0.009665   0.003636
     8  C   -0.029247  -0.000080   0.000000  -0.000081   0.000005   0.004522
     9  N   -0.054816   0.290319  -0.054446  -0.055633   0.204947   0.193441
    10  N    0.324774   0.004563  -0.000231   0.003747  -0.000090  -0.116152
    11  O    0.581129  -0.000033  -0.001814   0.001661  -0.000082  -0.079454
    12  O   -0.003004   0.551346  -0.000115   0.000446   0.001738   0.007764
    13  H    0.002339  -0.000185   0.397739  -0.037098  -0.036467  -0.002235
    14  H   -0.000003  -0.000008   0.396851  -0.031469  -0.035325   0.004223
    15  H    0.004210  -0.000308  -0.042423   0.398988   0.001405  -0.043075
    16  H   -0.001050  -0.000037  -0.027167   0.398972   0.004075  -0.035177
    17  H    0.000124  -0.001447  -0.031709   0.004776   0.409593   0.002290
    18  H   -0.000125  -0.002127  -0.034457  -0.001521   0.404092   0.003022
    19  H   -0.035312  -0.000934   0.004937  -0.026838   0.001686   0.400400
    20  H    0.000002  -0.030115   0.000058  -0.000009  -0.001079  -0.000162
    21  H    0.000015  -0.030722   0.000005  -0.000001  -0.001403  -0.000069
    22  H    0.000003  -0.032738   0.000002   0.000002   0.000239  -0.000086
    23  H   -0.001299  -0.000005   0.000000  -0.000010   0.000001   0.000564
    24  H    0.001671   0.000010   0.000000   0.000001   0.000000  -0.000084
    25  H   -0.000197  -0.000011   0.000000   0.000001  -0.000001  -0.000082
    26  H   -0.015940  -0.002615  -0.000030   0.000051  -0.000010   0.001534
              7          8          9         10         11         12
     1  C   -0.000234  -0.029247  -0.054816   0.324774   0.581129  -0.003004
     2  C    0.373643  -0.000080   0.290319   0.004563  -0.000033   0.551346
     3  C   -0.000065   0.000000  -0.054446  -0.000231  -0.001814  -0.000115
     4  C   -0.000086  -0.000081  -0.055633   0.003747   0.001661   0.000446
     5  C   -0.009665   0.000005   0.204947  -0.000090  -0.000082   0.001738
     6  C    0.003636   0.004522   0.193441  -0.116152  -0.079454   0.007764
     7  C    5.257255   0.000001  -0.108250  -0.000074   0.000000  -0.064050
     8  C    0.000001   4.930618  -0.000273   0.197738  -0.002924   0.000395
     9  N   -0.108250  -0.000273   7.497377   0.004883   0.001108  -0.100318
    10  N   -0.000074   0.197738   0.004883   7.355004  -0.091919  -0.019405
    11  O    0.000000  -0.002924   0.001108  -0.091919   8.214529  -0.000003
    12  O   -0.064050   0.000395  -0.100318  -0.019405  -0.000003   8.247587
    13  H   -0.000006   0.000002   0.000893   0.000044   0.005056   0.000002
    14  H    0.000003   0.000000   0.003099   0.000002   0.000083   0.000001
    15  H   -0.000003   0.000001   0.000790  -0.000036   0.000260   0.000004
    16  H    0.000002  -0.000005   0.003265   0.000263   0.006283  -0.000001
    17  H   -0.000850   0.000000  -0.043947   0.000001  -0.000011   0.000013
    18  H   -0.000736   0.000000  -0.052947   0.000002   0.000000   0.000033
    19  H    0.000190  -0.000164  -0.041766   0.002537   0.001649   0.004414
    20  H    0.375981   0.000000   0.001464   0.000000   0.000000   0.001274
    21  H    0.376761   0.000000   0.002070   0.000018   0.000000   0.000953
    22  H    0.383246   0.000000   0.003962   0.000002   0.000000   0.003955
    23  H    0.000000   0.398325  -0.000021  -0.036645   0.009717  -0.000007
    24  H    0.000000   0.400772  -0.000003  -0.043883   0.000244  -0.000009
    25  H    0.000000   0.400466   0.000034  -0.046666   0.000391   0.000026
    26  H    0.000601  -0.015777  -0.002387   0.285637   0.001690   0.033748
             13         14         15         16         17         18
     1  C    0.002339  -0.000003   0.004210  -0.001050   0.000124  -0.000125
     2  C   -0.000185  -0.000008  -0.000308  -0.000037  -0.001447  -0.002127
     3  C    0.397739   0.396851  -0.042423  -0.027167  -0.031709  -0.034457
     4  C   -0.037098  -0.031469   0.398988   0.398972   0.004776  -0.001521
     5  C   -0.036467  -0.035325   0.001405   0.004075   0.409593   0.404092
     6  C   -0.002235   0.004223  -0.043075  -0.035177   0.002290   0.003022
     7  C   -0.000006   0.000003  -0.000003   0.000002  -0.000850  -0.000736
     8  C    0.000002   0.000000   0.000001  -0.000005   0.000000   0.000000
     9  N    0.000893   0.003099   0.000790   0.003265  -0.043947  -0.052947
    10  N    0.000044   0.000002  -0.000036   0.000263   0.000001   0.000002
    11  O    0.005056   0.000083   0.000260   0.006283  -0.000011   0.000000
    12  O    0.000002   0.000001   0.000004  -0.000001   0.000013   0.000033
    13  H    0.477887  -0.020433   0.003514  -0.003493  -0.004710   0.003422
    14  H   -0.020433   0.509259  -0.003458  -0.000262   0.000729  -0.002693
    15  H    0.003514  -0.003458   0.534494  -0.021692  -0.000064   0.000991
    16  H   -0.003493  -0.000262  -0.021692   0.452247  -0.000042  -0.000123
    17  H   -0.004710   0.000729  -0.000064  -0.000042   0.518314  -0.038199
    18  H    0.003422  -0.002693   0.000991  -0.000123  -0.038199   0.549145
    19  H   -0.000007  -0.000032  -0.004275   0.000451  -0.000130   0.000155
    20  H    0.000000  -0.000001  -0.000001   0.000000  -0.000638   0.001485
    21  H   -0.000003   0.000000   0.000000   0.000000   0.001278  -0.000311
    22  H    0.000000   0.000000   0.000000   0.000000   0.000026  -0.000003
    23  H   -0.000002   0.000000   0.000000  -0.000003   0.000000   0.000000
    24  H    0.000000   0.000000   0.000000   0.000000   0.000000   0.000000
    25  H    0.000001   0.000000   0.000000   0.000000   0.000000   0.000000
    26  H   -0.000003   0.000000  -0.000004  -0.000002   0.000008  -0.000002
             19         20         21         22         23         24
     1  C   -0.035312   0.000002   0.000015   0.000003  -0.001299   0.001671
     2  C   -0.000934  -0.030115  -0.030722  -0.032738  -0.000005   0.000010
     3  C    0.004937   0.000058   0.000005   0.000002   0.000000   0.000000
     4  C   -0.026838  -0.000009  -0.000001   0.000002  -0.000010   0.000001
     5  C    0.001686  -0.001079  -0.001403   0.000239   0.000001   0.000000
     6  C    0.400400  -0.000162  -0.000069  -0.000086   0.000564  -0.000084
     7  C    0.000190   0.375981   0.376761   0.383246   0.000000   0.000000
     8  C   -0.000164   0.000000   0.000000   0.000000   0.398325   0.400772
     9  N   -0.041766   0.001464   0.002070   0.003962  -0.000021  -0.000003
    10  N    0.002537   0.000000   0.000018   0.000002  -0.036645  -0.043883
    11  O    0.001649   0.000000   0.000000   0.000000   0.009717   0.000244
    12  O    0.004414   0.001274   0.000953   0.003955  -0.000007  -0.000009
    13  H   -0.000007   0.000000  -0.000003   0.000000  -0.000002   0.000000
    14  H   -0.000032  -0.000001   0.000000   0.000000   0.000000   0.000000
    15  H   -0.004275  -0.000001   0.000000   0.000000   0.000000   0.000000
    16  H    0.000451   0.000000   0.000000   0.000000  -0.000003   0.000000
    17  H   -0.000130  -0.000638   0.001278   0.000026   0.000000   0.000000
    18  H    0.000155   0.001485  -0.000311  -0.000003   0.000000   0.000000
    19  H    0.464821  -0.000003  -0.000006  -0.000001  -0.000024  -0.000003
    20  H   -0.000003   0.504242  -0.025340  -0.018566   0.000000   0.000000
    21  H   -0.000006  -0.025340   0.499269  -0.017904   0.000000   0.000000
    22  H   -0.000001  -0.018566  -0.017904   0.456295   0.000000   0.000000
    23  H   -0.000024   0.000000   0.000000   0.000000   0.457464  -0.023043
    24  H   -0.000003   0.000000   0.000000   0.000000  -0.023043   0.535479
    25  H    0.000002   0.000000   0.000000   0.000000  -0.025662  -0.038105
    26  H   -0.000161  -0.000007  -0.000044  -0.000002   0.001830  -0.001675
             25         26
     1  C   -0.000197  -0.015940
     2  C   -0.000011  -0.002615
     3  C    0.000000  -0.000030
     4  C    0.000001   0.000051
     5  C   -0.000001  -0.000010
     6  C   -0.000082   0.001534
     7  C    0.000000   0.000601
     8  C    0.400466  -0.015777
     9  N    0.000034  -0.002387
    10  N   -0.046666   0.285637
    11  O    0.000391   0.001690
    12  O    0.000026   0.033748
    13  H    0.000001  -0.000003
    14  H    0.000000   0.000000
    15  H    0.000000  -0.000004
    16  H    0.000000  -0.000002
    17  H    0.000000   0.000008
    18  H    0.000000  -0.000002
    19  H    0.000002  -0.000161
    20  H    0.000000  -0.000007
    21  H    0.000000  -0.000044
    22  H    0.000000  -0.000002
    23  H   -0.025662   0.001830
    24  H   -0.038105  -0.001675
    25  H    0.546721  -0.000021
    26  H   -0.000021   0.253414
 Mulliken atomic charges:
              1
     1  C    0.785518
     2  C    0.777890
     3  C   -0.361591
     4  C   -0.335023
     5  C   -0.089177
     6  C   -0.065112
     7  C   -0.587301
     8  C   -0.284293
     9  N   -0.692844
    10  N   -0.824113
    11  O   -0.647562
    12  O   -0.666787
    13  H    0.213743
    14  H    0.179434
    15  H    0.170681
    16  H    0.223496
    17  H    0.184594
    18  H    0.170896
    19  H    0.228413
    20  H    0.191415
    21  H    0.195435
    22  H    0.221566
    23  H    0.218821
    24  H    0.168628
    25  H    0.163105
    26  H    0.460166
 Sum of Mulliken atomic charges =   0.00000
 Mulliken charges with hydrogens summed into heavy atoms:
              1
     1  C    0.785518
     2  C    0.777890
     3  C    0.031586
     4  C    0.059154
     5  C    0.266313
     6  C    0.163301
     7  C    0.021116
     8  C    0.266261
     9  N   -0.692844
    10  N   -0.363947
    11  O   -0.647562
    12  O   -0.666787
 Sum of Mulliken charges with hydrogens summed into heavy atoms =   0.00000
 DipInt: DoE/N= T F RetVal/Mat= T F Init=T NMatP=  1 IDeriv=0 Min/MaxMlt=  0  4
 Entering OneElI...
 OneElI was handed    33440844 working-precision words.
 Multipole integrals L=0 to 4 MinM= 0 MaxM= 0.
 Requested accuracy = 0.1000D-12
 PrsmSu:  NPrtUS=   1 ThrOK=F IAlg=1 NPAlg=1 LenDen=           0.
 Prism:   IPart=     0 DynPar=F LinDyn=F Incr=          26.
 PRISM was handed    33214151 working-precision words and  2685 shell-pairs
 IPart=  0 NShTot=        2685 NBatch=          59 AvBLen=        45.5
 PrSmSu:  NxtVal=             27.
 Electronic moments (au):
        -92.00000000         -1.47562503         -0.00615586          0.25245492
      -1118.35035108       -827.22798361       -195.88274741         -5.37911504
         -2.48953102         -4.46058677      -1251.62619220       -226.00887959
         27.12048578        692.87956677       1103.01987291       -789.54686185
         79.17090032        -59.87773971         60.95609327         45.71981513
     -29367.51971752     -14509.02985675      -1331.58285718       1303.46057794
       -809.83668968       -460.68670373       -122.09982277         52.69061157
        243.31885818      -9126.96197131      -2140.12133052      -2069.95167773
        887.95589515        131.64296972        148.68943942
 Electronic spatial extent (au):  <R**2>=           2141.4611
 DipInt: DoE/N= F T RetVal/Mat= T F Init=T NMatP=  1 IDeriv=0 Min/MaxMlt=  0  4
 Nuclear    moments (au):
         92.00000000          0.00000000          0.00000000          0.00000000
       1068.08942706        769.61597962        142.34284783          0.00000000
          0.00000000          0.00000000       1240.21467720        234.55024960
        -26.31168740       -704.23650680      -1139.54972754        791.44468546
        -78.19208272         61.94246890        -51.78988352        -48.17151577
      25610.24106489      11606.14375438        683.66757963      -1375.40202924
        831.65070012        434.29927133         75.99629479        -54.73848671
       -238.99623796       8029.52276232       1376.79835033       1464.49463819
       -910.39784019       -165.11280021       -150.50084928
 Total      moments (au):
          0.00000000         -1.47562503         -0.00615586          0.25245492
        -50.26092402        -57.61200399        -53.53989958         -5.37911504
         -2.48953102         -4.46058677        -11.41151500          8.54137001
          0.80879839        -11.35694003        -36.52985463          1.89782361
          0.97881760          2.06472919          9.16620975         -2.45170065
      -3757.27865263      -2902.88610237       -647.91527754        -71.94145131
         21.81401044        -26.38743240        -46.10352799         -2.04787515
          4.32262022      -1097.43920899       -763.32298018       -605.45703955
        -22.44194504        -33.46983049         -1.81140986
 Traceless Quadrup. (au):
          3.54335185         -3.80772813          0.26437628         -5.37911504
         -2.48953102         -4.46058677
 Charge=              0.0000 electrons
 Dipole moment (field-independent basis, Debye):
    X=             -3.7507    Y=             -0.0156    Z=              0.6417  Tot=              3.8052
 Quadrupole moment (field-independent basis, Debye-Ang):
   XX=            -67.6027   YY=            -77.4901   ZZ=            -72.0130
   XY=             -7.2351   XZ=             -3.3485   YZ=             -5.9996
 Traceless Quadrupole moment (field-independent basis, Debye-Ang):
   XX=              4.7659   YY=             -5.1215   ZZ=              0.3556
   XY=             -7.2351   XZ=             -3.3485   YZ=             -5.9996
 Octapole moment (field-independent basis, Debye-Ang**2):
  XXX=             -8.1223  YYY=              6.0794  ZZZ=              0.5757  XYY=             -8.0834
  XXY=            -26.0005  XXZ=              1.3508  XZZ=              0.6967  YZZ=              1.4696
  YYZ=              6.5242  XYZ=             -1.7450
 Hexadecapole moment (field-independent basis, Debye-Ang**3):
 XXXX=          -1415.1712 YYYY=          -1093.3660 ZZZZ=           -244.0359 XXXY=            -27.0966
 XXXZ=              8.2162 YYYX=             -9.9388 YYYZ=            -17.3648 ZZZX=             -0.7713
 ZZZY=              1.6281 XXYY=           -413.3482 XXZZ=           -287.5040 YYZZ=           -228.0441
 XXYZ=             -8.4527 YYXZ=            -12.6063 ZZXY=             -0.6823
 N-N= 7.617107454212D+02 E-N=-2.857301260063D+03  KE= 5.683244835487D+02
 Entering OneElI...
 OneElI was handed    33353458 working-precision words.
 Calculate electrostatic properties
    NBasis =   208  MinDer = 0  MaxDer = 0
    NGrid  =    26  NMatD  =   1
 Requested accuracy = 0.1000D-12
 PrsmSu:  NPrtUS=   2 ThrOK=T IAlg=1 NPAlg=1 LenDen=           0.
 Prism:   IPart=     0 DynPar=F LinDyn=F Incr=         328.
 PRISM was handed    16532323 working-precision words and  2524 shell-pairs
 PRISM was handed    16532323 working-precision words and  2524 shell-pairs
 IPart=  0 NShTot=       33124 NBatch=        1274 AvBLen=        26.0
 IPart=  1 NShTot=       32500 NBatch=        1250 AvBLen=        26.0
 PrSmSu:  NxtVal=            657.
 --------------------------------------------------------
       Center         ----      EFG at Nuclei      ----
                      3XX-RR        3YY-RR        3ZZ-RR
 --------------------------------------------------------
     1   Atom        0.126562      0.203817     -0.330378
     2   Atom        0.108494      0.172755     -0.281249
     3   Atom        0.010796     -0.037625      0.026829
     4   Atom        0.045843     -0.038618     -0.007225
     5   Atom        0.013177     -0.074342      0.061165
     6   Atom       -0.112578      0.077835      0.034743
     7   Atom       -0.044871      0.043804      0.001067
     8   Atom       -0.167648      0.139334      0.028313
     9   Atom       -0.062372     -0.443118      0.505490
    10   Atom       -0.179484     -0.412362      0.591846
    11   Atom        0.543887     -0.028897     -0.514990
    12   Atom        0.069368      0.538110     -0.607478
    13   Atom       -0.035618      0.135291     -0.099673
    14   Atom       -0.022058     -0.128979      0.151037
    15   Atom       -0.014074      0.136773     -0.122699
    16   Atom       -0.123481     -0.023671      0.147152
    17   Atom        0.140684      0.114055     -0.254739
    18   Atom       -0.198977      0.136865      0.062111
    19   Atom        0.134849      0.070131     -0.204981
    20   Atom       -0.149754      0.046351      0.103402
    21   Atom        0.143219      0.140925     -0.284144
    22   Atom        0.144145     -0.278981      0.134837
    23   Atom        0.032868     -0.146031      0.113163
    24   Atom       -0.007325      0.031804     -0.024479
    25   Atom        0.121303      0.015918     -0.137221
    26   Atom       -0.016148     -0.111059      0.127207
 --------------------------------------------------------
                        XY            XZ            YZ
 --------------------------------------------------------
     1   Atom       -0.014905      0.374292      0.147351
     2   Atom        0.049416     -0.424116      0.111658
     3   Atom       -0.046894      0.056760      0.025520
     4   Atom        0.070680      0.018413     -0.015316
     5   Atom        0.184041      0.099930     -0.142918
     6   Atom       -0.145398      0.132286      0.145869
     7   Atom       -0.041623      0.022606      0.036488
     8   Atom        0.112162     -0.142607      0.065344
     9   Atom       -0.128291      0.722760     -0.171318
    10   Atom        0.197328     -0.539372     -0.127273
    11   Atom       -1.127276      0.424404     -0.516382
    12   Atom        1.218623     -0.140283     -0.498743
    13   Atom       -0.036842     -0.211820     -0.038160
    14   Atom        0.214853     -0.001903      0.006735
    15   Atom        0.039712     -0.207974      0.046115
    16   Atom       -0.211986      0.036257      0.021209
    17   Atom       -0.009343      0.060875      0.098055
    18   Atom        0.017640     -0.167961      0.001173
    19   Atom        0.007453      0.022123     -0.162050
    20   Atom        0.168831     -0.114635      0.073419
    21   Atom       -0.008947     -0.020942     -0.059452
    22   Atom       -0.040837     -0.004506     -0.083857
    23   Atom       -0.175105     -0.069631     -0.099620
    24   Atom        0.138765      0.151850     -0.143751
    25   Atom       -0.042657      0.061084      0.200256
    26   Atom       -0.191213     -0.132372     -0.131619
 --------------------------------------------------------


 ---------------------------------------------------------------------------------
              Nuclear Quadrupole in Principal Axis System
 ---------------------------------------------------------------------------------

       Atom             a.u.   MegaHertz   Gauss  10(-4) cm-1        Axes

              Baa    -0.5645   -75.756   -27.032   -25.270 -0.4718 -0.1749  0.8642
     1 C(13)  Bbb     0.2026    27.182     9.699     9.067 -0.4278  0.9024 -0.0509
              Bcc     0.3620    48.574    17.332    16.202  0.7710  0.3937  0.5006
 
              Baa    -0.5727   -76.846   -27.421   -25.633  0.5301 -0.1599  0.8327
     2 C(13)  Bbb     0.1905    25.564     9.122     8.527  0.1673  0.9825  0.0821
              Bcc     0.3822    51.282    18.299    17.106  0.8313 -0.0958 -0.5476
 
              Baa    -0.0906   -12.158    -4.338    -4.055  0.5653  0.7060 -0.4267
     3 C(13)  Bbb     0.0130     1.748     0.624     0.583 -0.4493  0.6973  0.5584
              Bcc     0.0776    10.410     3.714     3.472  0.6918 -0.1240  0.7114
 
              Baa    -0.0852   -11.433    -4.079    -3.814 -0.4860  0.8287  0.2776
     4 C(13)  Bbb    -0.0015    -0.206    -0.074    -0.069  0.0566 -0.2871  0.9562
              Bcc     0.0867    11.639     4.153     3.882  0.8721  0.4804  0.0926
 
              Baa    -0.3030   -40.663   -14.510   -13.564 -0.5518  0.7137  0.4315
     5 C(13)  Bbb     0.1399    18.771     6.698     6.261  0.5880 -0.0339  0.8081
              Bcc     0.1631    21.892     7.812     7.302  0.5914  0.6996 -0.4010
 
              Baa    -0.2979   -39.975   -14.264   -13.334  0.7268  0.4742 -0.4970
     6 C(13)  Bbb     0.0912    12.243     4.369     4.084  0.6759 -0.3650  0.6402
              Bcc     0.2067    27.732     9.895     9.250 -0.1222  0.8012  0.5858
 
              Baa    -0.0774   -10.392    -3.708    -3.466  0.8110  0.4054 -0.4219
     7 C(13)  Bbb     0.0064     0.860     0.307     0.287  0.5316 -0.2092  0.8208
              Bcc     0.0710     9.532     3.401     3.179 -0.2445  0.8899  0.3851
 
              Baa    -0.2826   -37.917   -13.530   -12.648  0.8439 -0.2939  0.4489
     8 C(13)  Bbb     0.1030    13.820     4.931     4.610 -0.4863 -0.0657  0.8713
              Bcc     0.1796    24.097     8.598     8.038  0.2266  0.9536  0.1983
 
              Baa    -0.5561   -21.446    -7.652    -7.154  0.8297  0.1133 -0.5466
     9 N(14)  Bbb    -0.4731   -18.246    -6.511    -6.086 -0.0140  0.9831  0.1825
              Bcc     1.0291    39.692    14.163    13.240  0.5581 -0.1437  0.8173
 
              Baa    -0.5666   -21.851    -7.797    -7.289  0.6905 -0.6799  0.2468
    10 N(14)  Bbb    -0.3344   -12.898    -4.602    -4.302  0.5551  0.7169  0.4218
              Bcc     0.9010    34.750    12.400    11.591 -0.4637 -0.1542  0.8725
 
              Baa    -0.9806    70.953    25.318    23.667  0.4462  0.7731  0.4507
    11 O(17)  Bbb    -0.6399    46.303    16.522    15.445 -0.4972 -0.2046  0.8432
              Bcc     1.6205  -117.256   -41.840   -39.112  0.7441 -0.6003  0.2931
 
              Baa    -1.0578    76.538    27.311    25.530 -0.6079  0.6194  0.4967
    12 O(17)  Bbb    -0.5874    42.503    15.166    14.177  0.5083 -0.1769  0.8428
              Bcc     1.6451  -119.041   -42.477   -39.708  0.6099  0.7648 -0.2073
 
              Baa    -0.2885  -153.925   -54.924   -51.344  0.6477  0.1240  0.7517
    13 H(1)   Bbb     0.1404    74.924    26.735    24.992  0.2612  0.8907 -0.3720
              Bcc     0.1481    79.001    28.190    26.352  0.7157 -0.4373 -0.5446
 
              Baa    -0.2970  -158.474   -56.547   -52.861 -0.6157  0.7878 -0.0145
    14 H(1)   Bbb     0.1448    77.248    27.564    25.767  0.7306  0.5639 -0.3849
              Bcc     0.1522    81.225    28.983    27.094  0.2951  0.2475  0.9229
 
              Baa    -0.2920  -155.771   -55.583   -51.960  0.6060 -0.1404  0.7829
    15 H(1)   Bbb     0.1427    76.145    27.171    25.399 -0.4403  0.7605  0.4772
              Bcc     0.1492    79.626    28.412    26.560  0.6624  0.6340 -0.3991
 
              Baa    -0.2953  -157.541   -56.214   -52.550  0.7813  0.6171 -0.0936
    16 H(1)   Bbb     0.1408    75.150    26.815    25.067 -0.5012  0.7097  0.4951
              Bcc     0.1544    82.391    29.399    27.483  0.3720 -0.3399  0.8638
 
              Baa    -0.2880  -153.644   -54.824   -51.250 -0.1417 -0.2377  0.9610
    17 H(1)   Bbb     0.1361    72.641    25.920    24.230 -0.3840  0.9079  0.1680
              Bcc     0.1518    81.003    28.904    27.020  0.9124  0.3452  0.2199
 
              Baa    -0.2818  -150.355   -53.650   -50.153  0.8978 -0.0391  0.4386
    18 H(1)   Bbb     0.1334    71.173    25.396    23.741 -0.1998  0.8515  0.4848
              Bcc     0.1484    79.182    28.254    26.412 -0.3924 -0.5229  0.7567
 
              Baa    -0.2813  -150.077   -53.551   -50.060 -0.0557  0.4191  0.9062
    19 H(1)   Bbb     0.1355    72.287    25.794    24.112  0.9659  0.2523 -0.0573
              Bcc     0.1458    77.790    27.757    25.948 -0.2527  0.8722 -0.4189
 
              Baa    -0.2935  -156.615   -55.884   -52.241  0.8175 -0.4761  0.3241
    20 H(1)   Bbb     0.1399    74.631    26.630    24.894  0.5756  0.6569 -0.4870
              Bcc     0.1537    81.984    29.254    27.347  0.0189  0.5847  0.8110
 
              Baa    -0.2934  -156.549   -55.860   -52.219  0.0502  0.1365  0.9894
    21 H(1)   Bbb     0.1402    74.826    26.700    24.959  0.8260  0.5511 -0.1180
              Bcc     0.1532    81.723    29.161    27.260 -0.5614  0.8232 -0.0850
 
              Baa    -0.2991  -159.591   -56.946   -53.234  0.0920  0.9775  0.1898
    22 H(1)   Bbb     0.1458    77.795    27.759    25.950  0.8433  0.0249 -0.5369
              Bcc     0.1533    81.796    29.187    27.284  0.5296 -0.2095  0.8220
 
              Baa    -0.2898  -154.598   -55.164   -51.568  0.5041  0.8141  0.2884
    23 H(1)   Bbb     0.1363    72.735    25.954    24.262  0.6815 -0.5801  0.4462
              Bcc     0.1534    81.863    29.211    27.307 -0.5305  0.0284  0.8472
 
              Baa    -0.2915  -155.515   -55.492   -51.874 -0.5862  0.5257  0.6164
    24 H(1)   Bbb     0.1360    72.577    25.897    24.209  0.6886 -0.0776  0.7210
              Bcc     0.1554    82.938    29.594    27.665  0.4269  0.8471 -0.3165
 
              Baa    -0.2886  -153.977   -54.943   -51.361 -0.1788 -0.5580  0.8104
    25 H(1)   Bbb     0.1348    71.940    25.670    23.997  0.9835 -0.0796  0.1622
              Bcc     0.1538    82.037    29.273    27.365 -0.0260  0.8260  0.5630
 
              Baa    -0.3350  -178.754   -63.784   -59.626  0.5861  0.7194  0.3727
    26 H(1)   Bbb     0.1273    67.936    24.241    22.661 -0.6822  0.6863 -0.2520
              Bcc     0.2077   110.818    39.543    36.965 -0.4371 -0.1066  0.8931
 

 ---------------------------------------------------------------------------------

 No NMR shielding tensors so no spin-rotation constants.
 Leave Link  601 at Sun Feb 18 17:07:10 2018, MaxMem=   33554432 cpu:       0.4
 Merz-Kollman atomic radii used.
 Read replacement radii for each type of atom:
 Atom Element Radius
    1     6    1.50
    2     6    1.50
    3     6    1.50
    4     6    1.50
    5     6    1.50
    6     6    1.50
    7     6    1.50
    8     6    1.50
    9     7    1.50
   10     7    1.50
   11     8    1.40
   12     8    1.40
   13     1    1.20
   14     1    1.20
   15     1    1.20
   16     1    1.20
   17     1    1.20
   18     1    1.20
   19     1    1.20
   20     1    1.20
   21     1    1.20
   22     1    1.20
   23     1    1.20
   24     1    1.20
   25     1    1.20
   26     1    1.20
 Generate VDW surfaces: Layer= 4 Dens= 1 Start= 1.400 Inc= 0.200

 **********************************************************************

            Electrostatic Properties Using The SCF Density

 **********************************************************************

       Atomic Center    1 is at   1.460033  0.431811 -0.089263
       Atomic Center    2 is at  -1.278298 -1.362463 -0.167867
       Atomic Center    3 is at  -1.100676  2.276873  0.454058
       Atomic Center    4 is at  -0.337575  2.074837 -0.864856
       Atomic Center    5 is at  -1.865243  0.956848  0.633196
       Atomic Center    6 is at   0.091019  0.604403 -0.802081
       Atomic Center    7 is at  -2.532060 -1.876581  0.518562
       Atomic Center    8 is at   3.163556 -1.228871  0.540671
       Atomic Center    9 is at  -1.008301 -0.035025 -0.040969
       Atomic Center   10 is at   1.934570 -0.838077 -0.124476
       Atomic Center   11 is at   2.042181  1.379128  0.434769
       Atomic Center   12 is at  -0.538422 -2.122602 -0.805388
       Atomic Center   13 is at  -0.380267  2.410615  1.266363
       Atomic Center   14 is at  -1.772590  3.140008  0.441062
       Atomic Center   15 is at  -0.999689  2.229701 -1.724874
       Atomic Center   16 is at   0.525421  2.736036 -0.953081
       Atomic Center   17 is at  -2.018055  0.696747  1.686151
       Atomic Center   18 is at  -2.851819  0.999986  0.150552
       Atomic Center   19 is at   0.147101  0.128388 -1.786531
       Atomic Center   20 is at  -3.429926 -1.357981  0.163006
       Atomic Center   21 is at  -2.476984 -1.730374  1.603662
       Atomic Center   22 is at  -2.622824 -2.942192  0.305595
       Atomic Center   23 is at   3.685053 -0.320564  0.845996
       Atomic Center   24 is at   3.802890 -1.802845 -0.139237
       Atomic Center   25 is at   2.964152 -1.839885  1.430690
       Atomic Center   26 is at   1.309041 -1.549273 -0.500810
      ESP Fit Center   27 is at   0.410033  0.431811  1.729391
      ESP Fit Center   28 is at   0.935033 -0.477516  1.729391
      ESP Fit Center   29 is at   3.278686  0.431811 -1.139263
      ESP Fit Center   30 is at   2.510033  0.431811 -1.907916
      ESP Fit Center   31 is at   1.985033  1.341137 -1.907916
      ESP Fit Center   32 is at  -0.228298 -1.362463  1.650786
      ESP Fit Center   33 is at  -0.753298 -2.271790  1.650786
      ESP Fit Center   34 is at  -1.803298 -0.453137 -1.986521
      ESP Fit Center   35 is at  -2.328298 -1.362463 -1.986521
      ESP Fit Center   36 is at  -1.625676  3.186200  2.272711
      ESP Fit Center   37 is at  -2.150676  2.276873  2.272711
      ESP Fit Center   38 is at   0.092260  4.005139  0.454058
      ESP Fit Center   39 is at  -1.082245  4.038371 -0.864856
      ESP Fit Center   40 is at  -0.596396  3.874979 -1.914856
      ESP Fit Center   41 is at   0.712425  2.074837 -2.683509
      ESP Fit Center   42 is at   0.187425  2.984163 -2.683509
      ESP Fit Center   43 is at  -3.056207  2.331295  1.683196
      ESP Fit Center   44 is at  -3.610228  1.469222  1.683196
      ESP Fit Center   45 is at   1.620968  1.587641 -1.852081
      ESP Fit Center   46 is at  -4.277045 -2.388955  1.568562
      ESP Fit Center   47 is at  -3.723024 -3.251028  1.568562
      ESP Fit Center   48 is at  -1.002111 -2.859820  1.568562
      ESP Fit Center   49 is at   2.638556 -0.319544  2.359324
      ESP Fit Center   50 is at   4.982210 -1.228871  1.590671
      ESP Fit Center   51 is at   4.693505 -2.212109  1.590671
      ESP Fit Center   52 is at   5.263556 -1.228871  0.540671
      ESP Fit Center   53 is at   2.418886 -3.192405  0.540671
      ESP Fit Center   54 is at   3.416683 -3.313559  0.540671
      ESP Fit Center   55 is at   4.693505 -0.245633 -0.509329
      ESP Fit Center   56 is at   3.688556 -0.319544 -1.277983
      ESP Fit Center   57 is at   0.041699 -0.035025  1.777685
      ESP Fit Center   58 is at  -0.483301 -0.944351  1.777685
      ESP Fit Center   59 is at  -2.058301 -0.035025 -1.859622
      ESP Fit Center   60 is at   0.884570 -0.838077  1.694177
      ESP Fit Center   61 is at   3.464518  0.145162 -1.174476
      ESP Fit Center   62 is at   2.984570 -0.838077 -1.943130
      ESP Fit Center   63 is at   2.459570  0.071250 -1.943130
      ESP Fit Center   64 is at   2.459570 -1.747403 -1.943130
      ESP Fit Center   65 is at   1.934570 -0.838077 -2.224476
      ESP Fit Center   66 is at   2.042181  1.379128  2.394769
      ESP Fit Center   67 is at   3.022181  1.379128  2.132179
      ESP Fit Center   68 is at   2.532181  2.227833  2.132179
      ESP Fit Center   69 is at   1.552181  2.227833  2.132179
      ESP Fit Center   70 is at   1.062181  1.379128  2.132179
      ESP Fit Center   71 is at   1.552181  0.530423  2.132179
      ESP Fit Center   72 is at   2.532181  0.530423  2.132179
      ESP Fit Center   73 is at   3.739591  1.379128  1.414769
      ESP Fit Center   74 is at   3.415414  2.376840  1.414769
      ESP Fit Center   75 is at   2.566709  2.993461  1.414769
      ESP Fit Center   76 is at   1.517652  2.993461  1.414769
      ESP Fit Center   77 is at   4.002181  1.379128  0.434769
      ESP Fit Center   78 is at   3.739591  2.359128  0.434769
      ESP Fit Center   79 is at   3.022181  3.076538  0.434769
      ESP Fit Center   80 is at   2.042181  3.339128  0.434769
      ESP Fit Center   81 is at   3.739591  1.379128 -0.545231
      ESP Fit Center   82 is at   3.415414  2.376840 -0.545231
      ESP Fit Center   83 is at   2.566709  2.993461 -0.545231
      ESP Fit Center   84 is at   3.022181  1.379128 -1.262641
      ESP Fit Center   85 is at   2.532181  2.227833 -1.262641
      ESP Fit Center   86 is at   0.441578 -2.122602  0.892022
      ESP Fit Center   87 is at  -0.048422 -2.971307  0.892022
      ESP Fit Center   88 is at  -1.062950 -3.736934  0.174612
      ESP Fit Center   89 is at  -0.013893 -3.736934  0.174612
      ESP Fit Center   90 is at   0.834812 -3.120314  0.174612
      ESP Fit Center   91 is at  -1.518422 -3.820011 -0.805388
      ESP Fit Center   92 is at  -0.538422 -4.082602 -0.805388
      ESP Fit Center   93 is at   0.441578 -3.820011 -0.805388
      ESP Fit Center   94 is at  -1.911655 -3.120314 -1.785388
      ESP Fit Center   95 is at  -1.062950 -3.736934 -1.785388
      ESP Fit Center   96 is at  -0.013893 -3.736934 -1.785388
      ESP Fit Center   97 is at   0.834812 -3.120314 -1.785388
      ESP Fit Center   98 is at   0.441578 -2.122602 -2.502798
      ESP Fit Center   99 is at  -1.028422 -1.273897 -2.502798
      ESP Fit Center  100 is at  -1.518422 -2.122602 -2.502798
      ESP Fit Center  101 is at  -1.028422 -2.971307 -2.502798
      ESP Fit Center  102 is at  -0.048422 -2.971307 -2.502798
      ESP Fit Center  103 is at  -0.538422 -2.122602 -2.765388
      ESP Fit Center  104 is at  -0.380267  2.410615  2.946363
      ESP Fit Center  105 is at   0.607212  2.410615  2.625512
      ESP Fit Center  106 is at  -0.075119  3.349763  2.625512
      ESP Fit Center  107 is at  -1.179155  2.991040  2.625512
      ESP Fit Center  108 is at  -1.179155  1.830189  2.625512
      ESP Fit Center  109 is at  -0.075119  1.471466  2.625512
      ESP Fit Center  110 is at   0.843699  3.437644  1.785512
      ESP Fit Center  111 is at  -0.102817  3.984116  1.785512
      ESP Fit Center  112 is at  -0.102817  0.837113  1.785512
      ESP Fit Center  113 is at   0.843699  3.437644  0.747215
      ESP Fit Center  114 is at  -1.467442  4.079157  1.800211
      ESP Fit Center  115 is at  -2.571477  3.720434  1.800211
      ESP Fit Center  116 is at  -1.495139  4.713509  0.960211
      ESP Fit Center  117 is at  -2.571477  4.523722  0.960211
      ESP Fit Center  118 is at  -3.274007  3.686480  0.960211
      ESP Fit Center  119 is at  -3.274007  2.593537  0.960211
      ESP Fit Center  120 is at  -1.495139  4.713509 -0.078086
      ESP Fit Center  121 is at  -2.571477  4.523722 -0.078086
      ESP Fit Center  122 is at  -3.274007  3.686480 -0.078086
      ESP Fit Center  123 is at  -1.467442  4.079157 -0.918086
      ESP Fit Center  124 is at  -2.571477  3.720434 -0.918086
      ESP Fit Center  125 is at  -1.798577  3.613414 -1.205725
      ESP Fit Center  126 is at  -2.501107  2.776172 -1.205725
      ESP Fit Center  127 is at  -0.722239  3.803202 -2.244022
      ESP Fit Center  128 is at  -1.798577  3.613414 -2.244022
      ESP Fit Center  129 is at  -2.501107  2.776172 -2.244022
      ESP Fit Center  130 is at  -2.501107  1.683229 -2.244022
      ESP Fit Center  131 is at  -1.798577  0.845987 -2.244022
      ESP Fit Center  132 is at  -0.012210  2.229701 -3.084022
      ESP Fit Center  133 is at  -0.694541  3.168849 -3.084022
      ESP Fit Center  134 is at  -1.798577  2.810126 -3.084022
      ESP Fit Center  135 is at  -1.798577  1.649275 -3.084022
      ESP Fit Center  136 is at  -0.694541  1.290552 -3.084022
      ESP Fit Center  137 is at  -0.999689  2.229701 -3.404874
      ESP Fit Center  138 is at   0.830569  3.675184  0.406067
      ESP Fit Center  139 is at   1.749387  3.763066 -0.433933
      ESP Fit Center  140 is at   0.802872  4.309537 -0.433933
      ESP Fit Center  141 is at   2.123196  2.736036 -1.472230
      ESP Fit Center  142 is at   1.749387  3.763066 -1.472230
      ESP Fit Center  143 is at   0.802872  4.309537 -1.472230
      ESP Fit Center  144 is at  -0.273467  4.119750 -1.472230
      ESP Fit Center  145 is at   1.512900  2.736036 -2.312230
      ESP Fit Center  146 is at   0.830569  3.675184 -2.312230
      ESP Fit Center  147 is at  -2.018055  0.696747  3.366151
      ESP Fit Center  148 is at  -1.030575  0.696747  3.045299
      ESP Fit Center  149 is at  -1.712907  1.635896  3.045299
      ESP Fit Center  150 is at  -2.816942  1.277173  3.045299
      ESP Fit Center  151 is at  -2.816942  0.116322  3.045299
      ESP Fit Center  152 is at  -1.712907 -0.242401  3.045299
      ESP Fit Center  153 is at  -0.420280  0.696747  2.205299
      ESP Fit Center  154 is at  -2.816942  2.080461  2.205299
      ESP Fit Center  155 is at  -3.519472  1.243219  2.205299
      ESP Fit Center  156 is at  -3.519472  0.150276  2.205299
      ESP Fit Center  157 is at  -0.794088 -0.330282  2.205299
      ESP Fit Center  158 is at  -3.650707  2.383699  0.669701
      ESP Fit Center  159 is at  -4.353237  1.546457  0.669701
      ESP Fit Center  160 is at  -4.353237  0.453514  0.669701
      ESP Fit Center  161 is at  -3.650707  2.383699 -0.368596
      ESP Fit Center  162 is at  -4.353237  1.546457 -0.368596
      ESP Fit Center  163 is at  -4.353237  0.453514 -0.368596
      ESP Fit Center  164 is at  -3.650707  1.580411 -1.208596
      ESP Fit Center  165 is at  -3.650707  0.419560 -1.208596
      ESP Fit Center  166 is at  -2.851819  0.999986 -1.529448
      ESP Fit Center  167 is at   1.744876  0.128388 -2.305680
      ESP Fit Center  168 is at  -1.354316 -0.418083 -2.305680
      ESP Fit Center  169 is at   1.371068 -0.898642 -2.305680
      ESP Fit Center  170 is at   1.134580  0.128388 -3.145680
      ESP Fit Center  171 is at   0.452249  1.067537 -3.145680
      ESP Fit Center  172 is at  -0.651787  0.708814 -3.145680
      ESP Fit Center  173 is at  -0.651787 -0.452038 -3.145680
      ESP Fit Center  174 is at   0.452249 -0.810761 -3.145680
      ESP Fit Center  175 is at   0.147101  0.128388 -3.466531
      ESP Fit Center  176 is at  -4.228814 -0.777556  1.522155
      ESP Fit Center  177 is at  -4.228814  0.025732  0.682155
      ESP Fit Center  178 is at  -4.931343 -0.811510  0.682155
      ESP Fit Center  179 is at  -4.931343 -1.904453  0.682155
      ESP Fit Center  180 is at  -4.228814  0.025732 -0.356142
      ESP Fit Center  181 is at  -4.931343 -0.811510 -0.356142
      ESP Fit Center  182 is at  -4.931343 -1.904453 -0.356142
      ESP Fit Center  183 is at  -3.124778 -0.418833 -1.196142
      ESP Fit Center  184 is at  -4.228814 -0.777556 -1.196142
      ESP Fit Center  185 is at  -4.228814 -1.938407 -1.196142
      ESP Fit Center  186 is at  -3.429926 -1.357981 -1.516994
      ESP Fit Center  187 is at  -2.476984 -1.730374  3.283662
      ESP Fit Center  188 is at  -1.489505 -1.730374  2.962810
      ESP Fit Center  189 is at  -2.171836 -0.791225  2.962810
      ESP Fit Center  190 is at  -3.275872 -1.149948  2.962810
      ESP Fit Center  191 is at  -3.275872 -2.310800  2.962810
      ESP Fit Center  192 is at  -2.171836 -2.669522  2.962810
      ESP Fit Center  193 is at  -0.879209 -1.730374  2.122810
      ESP Fit Center  194 is at  -3.275872 -0.346660  2.122810
      ESP Fit Center  195 is at  -3.978402 -1.183903  2.122810
      ESP Fit Center  196 is at  -3.978402 -2.276845  2.122810
      ESP Fit Center  197 is at  -3.275872 -3.114088  2.122810
      ESP Fit Center  198 is at  -2.199534 -3.303875  2.122810
      ESP Fit Center  199 is at  -1.253018 -2.757404  2.122810
      ESP Fit Center  200 is at  -3.421711 -3.522618  1.664744
      ESP Fit Center  201 is at  -2.317676 -3.881340  1.664744
      ESP Fit Center  202 is at  -4.124241 -3.488663  0.824744
      ESP Fit Center  203 is at  -3.421711 -4.325906  0.824744
      ESP Fit Center  204 is at  -2.345373 -4.515693  0.824744
      ESP Fit Center  205 is at  -1.398857 -3.969222  0.824744
      ESP Fit Center  206 is at  -4.124241 -3.488663 -0.213553
      ESP Fit Center  207 is at  -3.421711 -4.325906 -0.213553
      ESP Fit Center  208 is at  -2.345373 -4.515693 -0.213553
      ESP Fit Center  209 is at  -1.398857 -3.969222 -0.213553
      ESP Fit Center  210 is at  -3.421711 -3.522618 -1.053553
      ESP Fit Center  211 is at  -2.317676 -3.881340 -1.053553
      ESP Fit Center  212 is at  -2.622824 -2.942192 -1.374405
      ESP Fit Center  213 is at   3.685053 -0.320564  2.525996
      ESP Fit Center  214 is at   4.672533 -0.320564  2.205145
      ESP Fit Center  215 is at   3.990201  0.618585  2.205145
      ESP Fit Center  216 is at   2.886166  0.259862  2.205145
      ESP Fit Center  217 is at   5.282828 -0.320564  1.365145
      ESP Fit Center  218 is at   4.909020  0.706466  1.365145
      ESP Fit Center  219 is at   3.962504  1.252937  1.365145
      ESP Fit Center  220 is at   5.282828 -0.320564  0.326848
      ESP Fit Center  221 is at   4.909020  0.706466  0.326848
      ESP Fit Center  222 is at   3.990201  0.618585 -0.513152
      ESP Fit Center  223 is at   5.400665 -1.802845  0.379911
      ESP Fit Center  224 is at   4.080340 -3.376347  0.379911
      ESP Fit Center  225 is at   5.026856 -2.829875  0.379911
      ESP Fit Center  226 is at   5.400665 -1.802845 -0.658386
      ESP Fit Center  227 is at   5.026856 -0.775816 -0.658386
      ESP Fit Center  228 is at   3.004002 -3.186559 -0.658386
      ESP Fit Center  229 is at   4.080340 -3.376347 -0.658386
      ESP Fit Center  230 is at   5.026856 -2.829875 -0.658386
      ESP Fit Center  231 is at   4.790369 -1.802845 -1.498386
      ESP Fit Center  232 is at   4.108038 -0.863697 -1.498386
      ESP Fit Center  233 is at   3.004002 -2.383271 -1.498386
      ESP Fit Center  234 is at   4.108038 -2.741994 -1.498386
      ESP Fit Center  235 is at   3.802890 -1.802845 -1.819237
      ESP Fit Center  236 is at   2.964152 -1.839885  3.110690
      ESP Fit Center  237 is at   3.951631 -1.839885  2.789838
      ESP Fit Center  238 is at   3.269299 -0.900737  2.789838
      ESP Fit Center  239 is at   2.165264 -1.259460  2.789838
      ESP Fit Center  240 is at   2.165264 -2.420311  2.789838
      ESP Fit Center  241 is at   3.269299 -2.779034  2.789838
      ESP Fit Center  242 is at   1.462734 -1.293414  1.949838
      ESP Fit Center  243 is at   1.462734 -2.386356  1.949838
      ESP Fit Center  244 is at   2.165264 -3.223599  1.949838
      ESP Fit Center  245 is at   3.241602 -3.413386  1.949838
      ESP Fit Center  246 is at   4.188118 -2.866915  1.949838
      ESP Fit Center  247 is at   2.165264 -3.223599  0.911541
      ESP Fit Center  248 is at   3.241602 -3.413386  0.911541
      ESP Fit Center  249 is at   0.510153 -2.129699  0.858339
      ESP Fit Center  250 is at   1.586491 -3.122775  0.018339
      ESP Fit Center  251 is at   1.586491 -3.122775 -1.019958
      ESP Fit Center  252 is at   1.614188 -2.488422 -1.859958
      ESP Fit Center  253 is at   1.309041 -1.549273 -2.180810
      ESP Fit Center  254 is at   0.418712  0.431811  2.073063
      ESP Fit Center  255 is at   0.939372 -0.470000  2.073063
      ESP Fit Center  256 is at   3.038557  1.446267 -1.585638
      ESP Fit Center  257 is at   2.501354  0.431811 -2.251588
      ESP Fit Center  258 is at   1.980693  1.333621 -2.251588
      ESP Fit Center  259 is at  -0.236977 -1.362463  1.994458
      ESP Fit Center  260 is at  -0.498815 -3.069293  1.328508
      ESP Fit Center  261 is at   0.300226 -2.376919  1.328508
      ESP Fit Center  262 is at  -3.078686 -0.833822 -1.664243
      ESP Fit Center  263 is at  -1.798958 -0.460653 -2.330193
      ESP Fit Center  264 is at  -2.319619 -1.362463 -2.330193
      ESP Fit Center  265 is at  -1.621336  3.178684  2.616383
      ESP Fit Center  266 is at  -0.580015  4.558036  0.988108
      ESP Fit Center  267 is at  -0.580015  4.558036 -0.079992
      ESP Fit Center  268 is at  -0.858235  4.355999 -1.398906
      ESP Fit Center  269 is at   0.703746  2.074837 -3.027181
      ESP Fit Center  270 is at  -3.094020  2.374933  2.129571
      ESP Fit Center  271 is at   1.669543  1.618859 -2.298456
      ESP Fit Center  272 is at  -4.332448 -1.347940  2.014938
      ESP Fit Center  273 is at  -4.332448 -2.405223  2.014938
      ESP Fit Center  274 is at  -3.760837 -3.294667  2.014938
      ESP Fit Center  275 is at  -1.752577 -3.583411  2.014938
      ESP Fit Center  276 is at  -0.953535 -2.891037  2.014938
      ESP Fit Center  277 is at  -4.640171 -2.891794  1.052613
      ESP Fit Center  278 is at  -4.640171 -2.891794 -0.015488
      ESP Fit Center  279 is at  -3.052720 -2.778392 -1.643763
      ESP Fit Center  280 is at   2.642896 -0.327060  2.702996
      ESP Fit Center  281 is at   5.039952 -1.228871  2.037046
      ESP Fit Center  282 is at   4.742081 -2.243327  2.037046
      ESP Fit Center  283 is at   5.503383 -1.228871  1.074721
      ESP Fit Center  284 is at   4.622415 -3.058221  1.074721
      ESP Fit Center  285 is at   5.271668 -2.244084  1.074721
      ESP Fit Center  286 is at   2.642896 -3.510034  0.006620
      ESP Fit Center  287 is at   4.742081 -0.214415 -0.955705
      ESP Fit Center  288 is at   3.943039  0.477959 -0.955705
      ESP Fit Center  289 is at   0.033020 -0.035025  2.121357
      ESP Fit Center  290 is at  -0.487640 -0.936835  2.121357
      ESP Fit Center  291 is at  -2.049622 -0.035025 -2.203294
      ESP Fit Center  292 is at   0.893249 -0.838077  2.037849
      ESP Fit Center  293 is at   0.705792 -2.256162  1.371899
      ESP Fit Center  294 is at   3.513094  0.176379 -1.620852
      ESP Fit Center  295 is at   2.714052 -2.544906 -1.620852
      ESP Fit Center  296 is at   2.975891 -0.838077 -2.286801
      ESP Fit Center  297 is at   2.455230  0.063734 -2.286801
      ESP Fit Center  298 is at   2.455230 -1.739887 -2.286801
      ESP Fit Center  299 is at   1.934570 -0.838077 -2.524476
      ESP Fit Center  300 is at   2.042181  1.379128  2.674769
      ESP Fit Center  301 is at   3.014080  1.379128  2.452939
      ESP Fit Center  302 is at   2.528131  2.220818  2.452939
      ESP Fit Center  303 is at   1.556231  2.220818  2.452939
      ESP Fit Center  304 is at   1.070281  1.379128  2.452939
      ESP Fit Center  305 is at   1.556231  0.537438  2.452939
      ESP Fit Center  306 is at   2.528131  0.537438  2.452939
      ESP Fit Center  307 is at   3.793483  1.379128  1.831386
      ESP Fit Center  308 is at   3.459014  2.408518  1.831386
      ESP Fit Center  309 is at   2.583363  3.044716  1.831386
      ESP Fit Center  310 is at   1.500999  3.044716  1.831386
      ESP Fit Center  311 is at   3.975874  2.394008  0.933216
      ESP Fit Center  312 is at   3.282743  3.176392  0.933216
      ESP Fit Center  313 is at   2.305414  3.547044  0.933216
      ESP Fit Center  314 is at   1.267781  3.421053  0.933216
      ESP Fit Center  315 is at   4.226019  1.379128 -0.063678
      ESP Fit Center  316 is at   3.975874  2.394008 -0.063678
      ESP Fit Center  317 is at   3.282743  3.176392 -0.063678
      ESP Fit Center  318 is at   2.305414  3.547044 -0.063678
      ESP Fit Center  319 is at   3.793483  1.379128 -0.961848
      ESP Fit Center  320 is at   3.459014  2.408518 -0.961848
      ESP Fit Center  321 is at   2.583363  3.044716 -0.961848
      ESP Fit Center  322 is at   2.528131  2.220818 -1.583401
      ESP Fit Center  323 is at  -0.052472 -2.964291  1.212783
      ESP Fit Center  324 is at   0.002760 -3.788189  0.591229
      ESP Fit Center  325 is at   0.878412 -3.151991  0.591229
      ESP Fit Center  326 is at  -0.275189 -4.290518 -0.306941
      ESP Fit Center  327 is at   0.702140 -3.919866 -0.306941
      ESP Fit Center  328 is at  -1.312822 -4.164526 -1.303835
      ESP Fit Center  329 is at  -0.275189 -4.290518 -1.303835
      ESP Fit Center  330 is at   0.702140 -3.919866 -1.303835
      ESP Fit Center  331 is at  -1.955255 -3.151991 -2.202005
      ESP Fit Center  332 is at  -1.079604 -3.788189 -2.202005
      ESP Fit Center  333 is at   0.002760 -3.788189 -2.202005
      ESP Fit Center  334 is at   0.878412 -3.151991 -2.202005
      ESP Fit Center  335 is at   0.433478 -2.122602 -2.823558
      ESP Fit Center  336 is at  -1.024372 -1.280912 -2.823558
      ESP Fit Center  337 is at  -1.510321 -2.122602 -2.823558
      ESP Fit Center  338 is at  -1.024372 -2.964291 -2.823558
      ESP Fit Center  339 is at  -0.052472 -2.964291 -2.823558
      ESP Fit Center  340 is at  -0.538422 -2.122602 -3.045388
      ESP Fit Center  341 is at  -0.380267  2.410615  3.186363
      ESP Fit Center  342 is at   0.579733  2.410615  2.929132
      ESP Fit Center  343 is at   0.099733  3.241999  2.929132
      ESP Fit Center  344 is at  -0.860267  3.241999  2.929132
      ESP Fit Center  345 is at  -1.340267  2.410615  2.929132
      ESP Fit Center  346 is at   0.099733  1.579230  2.929132
      ESP Fit Center  347 is at   0.964941  3.387965  2.226363
      ESP Fit Center  348 is at   0.133557  3.992002  2.226363
      ESP Fit Center  349 is at  -0.894091  3.992002  2.226363
      ESP Fit Center  350 is at   0.133557  0.829227  2.226363
      ESP Fit Center  351 is at   1.282502  3.370615  1.266363
      ESP Fit Center  352 is at   0.579733  4.073383  1.266363
      ESP Fit Center  353 is at  -2.252590  3.971393  2.103831
      ESP Fit Center  354 is at  -2.732590  3.140008  2.103831
      ESP Fit Center  355 is at  -1.258766  4.721395  1.401062
      ESP Fit Center  356 is at  -2.286414  4.721395  1.401062
      ESP Fit Center  357 is at  -3.117798  4.117359  1.401062
      ESP Fit Center  358 is at  -3.435359  3.140008  1.401062
      ESP Fit Center  359 is at  -0.812590  4.802777  0.441062
      ESP Fit Center  360 is at  -1.772590  5.060008  0.441062
      ESP Fit Center  361 is at  -2.732590  4.802777  0.441062
      ESP Fit Center  362 is at  -3.435359  4.100008  0.441062
      ESP Fit Center  363 is at  -3.692590  3.140008  0.441062
      ESP Fit Center  364 is at  -1.258766  4.721395 -0.518938
      ESP Fit Center  365 is at  -2.286414  4.721395 -0.518938
      ESP Fit Center  366 is at  -3.117798  4.117359 -0.518938
      ESP Fit Center  367 is at  -3.435359  3.140008 -0.518938
      ESP Fit Center  368 is at  -2.252590  3.971393 -1.221706
      ESP Fit Center  369 is at  -2.732590  3.140008 -1.221706
      ESP Fit Center  370 is at  -1.959689  3.892469 -1.724874
      ESP Fit Center  371 is at  -2.662458  3.189701 -1.724874
      ESP Fit Center  372 is at  -2.919689  2.229701 -1.724874
      ESP Fit Center  373 is at  -0.485866  3.811088 -2.684874
      ESP Fit Center  374 is at  -1.513513  3.811088 -2.684874
      ESP Fit Center  375 is at  -2.344898  3.207052 -2.684874
      ESP Fit Center  376 is at  -2.662458  2.229701 -2.684874
      ESP Fit Center  377 is at  -2.344898  1.252350 -2.684874
      ESP Fit Center  378 is at  -1.513513  0.648313 -2.684874
      ESP Fit Center  379 is at  -0.039689  2.229701 -3.387642
      ESP Fit Center  380 is at  -0.519689  3.061085 -3.387642
      ESP Fit Center  381 is at  -1.479689  3.061085 -3.387642
      ESP Fit Center  382 is at  -1.959689  2.229701 -3.387642
      ESP Fit Center  383 is at  -1.479689  1.398316 -3.387642
      ESP Fit Center  384 is at  -0.519689  1.398316 -3.387642
      ESP Fit Center  385 is at  -0.999689  2.229701 -3.644874
      ESP Fit Center  386 is at   1.870629  3.713387  0.006919
      ESP Fit Center  387 is at   1.039245  4.317423  0.006919
      ESP Fit Center  388 is at   2.188190  3.696036 -0.953081
      ESP Fit Center  389 is at   1.485421  4.398805 -0.953081
      ESP Fit Center  390 is at   0.525421  4.656036 -0.953081
      ESP Fit Center  391 is at   2.188190  2.736036 -1.913081
      ESP Fit Center  392 is at   1.870629  3.713387 -1.913081
      ESP Fit Center  393 is at   1.039245  4.317423 -1.913081
      ESP Fit Center  394 is at   0.011597  4.317423 -1.913081
      ESP Fit Center  395 is at   1.485421  2.736036 -2.615850
      ESP Fit Center  396 is at   1.005421  3.567420 -2.615850
      ESP Fit Center  397 is at  -2.018055  0.696747  3.606151
      ESP Fit Center  398 is at  -1.058055  0.696747  3.348920
      ESP Fit Center  399 is at  -1.538055  1.528132  3.348920
      ESP Fit Center  400 is at  -2.498055  1.528132  3.348920
      ESP Fit Center  401 is at  -2.978055  0.696747  3.348920
      ESP Fit Center  402 is at  -2.498055 -0.134637  3.348920
      ESP Fit Center  403 is at  -1.538055 -0.134637  3.348920
      ESP Fit Center  404 is at  -0.355286  0.696747  2.646151
      ESP Fit Center  405 is at  -2.531879  2.278135  2.646151
      ESP Fit Center  406 is at  -3.363263  1.674098  2.646151
      ESP Fit Center  407 is at  -3.680823  0.696747  2.646151
      ESP Fit Center  408 is at  -3.363263 -0.280603  2.646151
      ESP Fit Center  409 is at  -0.672847 -0.280603  2.646151
      ESP Fit Center  410 is at  -4.197028  1.977337  1.110552
      ESP Fit Center  411 is at  -4.514588  0.999986  1.110552
      ESP Fit Center  412 is at  -3.811819  2.662754  0.150552
      ESP Fit Center  413 is at  -4.514588  1.959986  0.150552
      ESP Fit Center  414 is at  -4.771819  0.999986  0.150552
      ESP Fit Center  415 is at  -3.365643  2.581373 -0.809448
      ESP Fit Center  416 is at  -4.197028  1.977337 -0.809448
      ESP Fit Center  417 is at  -4.514588  0.999986 -0.809448
      ESP Fit Center  418 is at  -3.331819  1.831370 -1.512216
      ESP Fit Center  419 is at  -3.811819  0.999986 -1.512216
      ESP Fit Center  420 is at  -3.331819  0.168601 -1.512216
      ESP Fit Center  421 is at  -2.851819  0.999986 -1.769448
      ESP Fit Center  422 is at   1.809870  0.128388 -2.746531
      ESP Fit Center  423 is at   1.492309  1.105739 -2.746531
      ESP Fit Center  424 is at  -1.515668  0.128388 -2.746531
      ESP Fit Center  425 is at  -1.198107 -0.848963 -2.746531
      ESP Fit Center  426 is at   0.660925 -1.452999 -2.746531
      ESP Fit Center  427 is at   1.492309 -0.848963 -2.746531
      ESP Fit Center  428 is at   1.107101  0.128388 -3.449300
      ESP Fit Center  429 is at   0.627101  0.959772 -3.449300
      ESP Fit Center  430 is at  -0.332899  0.959772 -3.449300
      ESP Fit Center  431 is at  -0.812899  0.128388 -3.449300
      ESP Fit Center  432 is at  -0.332899 -0.702996 -3.449300
      ESP Fit Center  433 is at   0.627101 -0.702996 -3.449300
      ESP Fit Center  434 is at   0.147101  0.128388 -3.706531
      ESP Fit Center  435 is at  -4.775134 -0.380630  1.123006
      ESP Fit Center  436 is at  -5.092695 -1.357981  1.123006
      ESP Fit Center  437 is at  -5.092695 -0.397981  0.163006
      ESP Fit Center  438 is at  -5.349926 -1.357981  0.163006
      ESP Fit Center  439 is at  -5.092695 -2.317981  0.163006
      ESP Fit Center  440 is at  -4.775134 -0.380630 -0.796994
      ESP Fit Center  441 is at  -5.092695 -1.357981 -0.796994
      ESP Fit Center  442 is at  -4.775134 -2.335332 -0.796994
      ESP Fit Center  443 is at  -3.909926 -0.526597 -1.499762
      ESP Fit Center  444 is at  -4.389926 -1.357981 -1.499762
      ESP Fit Center  445 is at  -3.909926 -2.189366 -1.499762
      ESP Fit Center  446 is at  -3.429926 -1.357981 -1.756994
      ESP Fit Center  447 is at  -2.476984 -1.730374  3.523662
      ESP Fit Center  448 is at  -1.516984 -1.730374  3.266431
      ESP Fit Center  449 is at  -1.996984 -0.898990  3.266431
      ESP Fit Center  450 is at  -2.956984 -0.898990  3.266431
      ESP Fit Center  451 is at  -3.436984 -1.730374  3.266431
      ESP Fit Center  452 is at  -2.956984 -2.561758  3.266431
      ESP Fit Center  453 is at  -1.996984 -2.561758  3.266431
      ESP Fit Center  454 is at  -0.814215 -1.730374  2.563662
      ESP Fit Center  455 is at  -3.822192 -0.753023  2.563662
      ESP Fit Center  456 is at  -4.139753 -1.730374  2.563662
      ESP Fit Center  457 is at  -3.822192 -2.707725  2.563662
      ESP Fit Center  458 is at  -2.990808 -3.311761  2.563662
      ESP Fit Center  459 is at  -1.963160 -3.311761  2.563662
      ESP Fit Center  460 is at  -1.131776 -2.707725  2.563662
      ESP Fit Center  461 is at  -3.102824 -3.773576  1.968364
      ESP Fit Center  462 is at  -2.142824 -3.773576  1.968364
      ESP Fit Center  463 is at  -3.968032 -3.919543  1.265595
      ESP Fit Center  464 is at  -3.136648 -4.523579  1.265595
      ESP Fit Center  465 is at  -2.109000 -4.523579  1.265595
      ESP Fit Center  466 is at  -1.277616 -3.919543  1.265595
      ESP Fit Center  467 is at  -4.285593 -3.902192  0.305595
      ESP Fit Center  468 is at  -3.582824 -4.604961  0.305595
      ESP Fit Center  469 is at  -2.622824 -4.862192  0.305595
      ESP Fit Center  470 is at  -1.662824 -4.604961  0.305595
      ESP Fit Center  471 is at  -3.968032 -3.919543 -0.654405
      ESP Fit Center  472 is at  -3.136648 -4.523579 -0.654405
      ESP Fit Center  473 is at  -2.109000 -4.523579 -0.654405
      ESP Fit Center  474 is at  -3.102824 -3.773576 -1.357174
      ESP Fit Center  475 is at  -2.142824 -3.773576 -1.357174
      ESP Fit Center  476 is at   3.685053 -0.320564  2.765996
      ESP Fit Center  477 is at   4.645053 -0.320564  2.508765
      ESP Fit Center  478 is at   4.165053  0.510820  2.508765
      ESP Fit Center  479 is at   3.205053  0.510820  2.508765
      ESP Fit Center  480 is at   5.347822 -0.320564  1.805996
[...]
  403 Fit       0.019237
  404 Fit       0.007574
  405 Fit       0.017725
  406 Fit       0.020120
  407 Fit       0.021945
  408 Fit       0.025931
  409 Fit       0.012960
  410 Fit       0.021305
  411 Fit       0.022528
  412 Fit       0.021175
  413 Fit       0.021235
  414 Fit       0.023203
  415 Fit       0.020467
  416 Fit       0.020815
  417 Fit       0.022802
  418 Fit       0.020132
  419 Fit       0.021074
  420 Fit       0.022539
  421 Fit       0.019424
  422 Fit       0.002554
  423 Fit       0.007481
  424 Fit       0.010520
  425 Fit      -0.003669
  426 Fit      -0.014652
  427 Fit      -0.003095
  428 Fit       0.005637
  429 Fit       0.008916
  430 Fit       0.011074
  431 Fit       0.008339
  432 Fit       0.000302
  433 Fit       0.000819
  434 Fit       0.007254
  435 Fit       0.023316
  436 Fit       0.019790
  437 Fit       0.023871
  438 Fit       0.020082
  439 Fit       0.016399
  440 Fit       0.023911
  441 Fit       0.019475
  442 Fit       0.014769
  443 Fit       0.022131
  444 Fit       0.017646
  445 Fit       0.011754
  446 Fit       0.016058
  447 Fit       0.020302
  448 Fit       0.018574
  449 Fit       0.023366
  450 Fit       0.023633
  451 Fit       0.020243
  452 Fit       0.017563
  453 Fit       0.016508
  454 Fit       0.016051
  455 Fit       0.022854
  456 Fit       0.019251
  457 Fit       0.016506
  458 Fit       0.014044
  459 Fit       0.012003
  460 Fit       0.012576
  461 Fit       0.012256
  462 Fit       0.009396
  463 Fit       0.012810
  464 Fit       0.010605
  465 Fit       0.005981
  466 Fit      -0.000339
  467 Fit       0.012178
  468 Fit       0.010391
  469 Fit       0.005931
  470 Fit      -0.003805
  471 Fit       0.009222
  472 Fit       0.005095
  473 Fit      -0.006334
  474 Fit       0.000536
  475 Fit      -0.018173
  476 Fit      -0.009652
  477 Fit      -0.005243
  478 Fit      -0.014504
  479 Fit      -0.025654
  480 Fit      -0.003144
  481 Fit      -0.010250
  482 Fit      -0.028385
  483 Fit      -0.003627
  484 Fit      -0.009783
  485 Fit      -0.025791
  486 Fit      -0.006211
  487 Fit      -0.014057
  488 Fit      -0.020196
  489 Fit       0.001975
  490 Fit       0.002656
  491 Fit       0.000676
  492 Fit      -0.003498
  493 Fit       0.001126
  494 Fit       0.002832
  495 Fit       0.002863
  496 Fit       0.000348
  497 Fit      -0.004964
  498 Fit       0.000181
  499 Fit       0.002201
  500 Fit       0.002716
  501 Fit      -0.001068
  502 Fit      -0.007023
  503 Fit      -0.001942
  504 Fit       0.000559
  505 Fit      -0.004466
  506 Fit       0.000611
  507 Fit       0.000412
  508 Fit      -0.004514
  509 Fit      -0.005013
  510 Fit       0.000565
  511 Fit       0.003256
  512 Fit       0.003083
  513 Fit       0.001011
  514 Fit      -0.007662
  515 Fit      -0.000946
  516 Fit       0.001865
  517 Fit       0.003012
  518 Fit       0.003287
  519 Fit       0.002671
  520 Fit      -0.002308
  521 Fit      -0.000150
  522 Fit       0.001144
  523 Fit       0.001902
  524 Fit      -0.014718
  525 Fit       0.002353
  526 Fit      -0.007586
  527 Fit      -0.010189
  528 Fit      -0.011268
  529 Fit      -0.004539
  530 Fit      -0.006293
  531 Fit      -0.016048
  532 Fit      -0.004645
  533 Fit       0.009189
  534 Fit      -0.000530
  535 Fit       0.014490
  536 Fit       0.005428
  537 Fit      -0.000822
  538 Fit       0.008059
  539 Fit       0.004983
  540 Fit       0.015648
  541 Fit       0.000790
  542 Fit      -0.000945
  543 Fit       0.002953
  544 Fit       0.005223
  545 Fit       0.001130
  546 Fit       0.004858
  547 Fit       0.017086
  548 Fit       0.019283
  549 Fit       0.002329
  550 Fit       0.015636
  551 Fit       0.013142
  552 Fit       0.010924
  553 Fit       0.008618
  554 Fit       0.016616
  555 Fit       0.013387
  556 Fit      -0.000716
  557 Fit       0.013299
  558 Fit       0.011815
  559 Fit       0.009396
  560 Fit      -0.001627
  561 Fit      -0.009267
  562 Fit      -0.011824
  563 Fit      -0.001678
  564 Fit      -0.001177
  565 Fit       0.001672
  566 Fit       0.000888
  567 Fit      -0.001650
  568 Fit      -0.002540
  569 Fit      -0.000710
  570 Fit      -0.007935
  571 Fit      -0.001684
  572 Fit      -0.010060
  573 Fit      -0.018529
  574 Fit       0.002552
  575 Fit       0.011605
  576 Fit       0.010134
  577 Fit      -0.004401
  578 Fit      -0.001969
  579 Fit      -0.004940
  580 Fit      -0.001785
  581 Fit      -0.014002
  582 Fit      -0.005407
  583 Fit      -0.010796
  584 Fit      -0.005915
  585 Fit      -0.009599
  586 Fit      -0.006221
  587 Fit      -0.029486
  588 Fit      -0.033606
  589 Fit      -0.035836
  590 Fit      -0.027986
  591 Fit      -0.018447
  592 Fit      -0.019486
  593 Fit      -0.025638
  594 Fit      -0.039057
  595 Fit      -0.038602
  596 Fit      -0.032449
  597 Fit      -0.038710
  598 Fit      -0.039990
  599 Fit      -0.037132
  600 Fit      -0.029356
  601 Fit      -0.036921
  602 Fit      -0.037580
  603 Fit      -0.033206
  604 Fit      -0.027720
  605 Fit      -0.031955
  606 Fit      -0.028767
  607 Fit      -0.018418
  608 Fit      -0.012846
  609 Fit      -0.017040
  610 Fit      -0.020596
  611 Fit      -0.025332
  612 Fit      -0.019863
  613 Fit      -0.027623
  614 Fit      -0.029586
  615 Fit      -0.024196
  616 Fit      -0.012783
  617 Fit      -0.024186
  618 Fit      -0.030275
  619 Fit      -0.029531
  620 Fit      -0.022929
  621 Fit      -0.021242
  622 Fit      -0.009609
  623 Fit      -0.017657
  624 Fit      -0.026651
  625 Fit      -0.027805
  626 Fit      -0.022056
  627 Fit       0.002936
  628 Fit      -0.009108
  629 Fit      -0.002524
  630 Fit       0.004308
  631 Fit       0.010452
  632 Fit      -0.001480
  633 Fit      -0.018366
  634 Fit      -0.005683
  635 Fit       0.001337
  636 Fit      -0.012745
  637 Fit       0.009288
  638 Fit       0.003408
  639 Fit       0.008074
  640 Fit       0.011616
  641 Fit       0.014757
  642 Fit       0.006823
  643 Fit       0.010437
  644 Fit       0.013207
  645 Fit       0.015952
  646 Fit       0.005874
  647 Fit       0.009465
  648 Fit       0.012532
  649 Fit       0.015397
  650 Fit       0.011893
  651 Fit       0.009224
  652 Fit       0.013061
  653 Fit       0.016281
  654 Fit       0.006972
  655 Fit       0.010371
  656 Fit       0.012900
  657 Fit       0.014004
  658 Fit       0.012873
  659 Fit       0.006048
  660 Fit       0.005764
  661 Fit       0.008785
  662 Fit       0.010859
  663 Fit       0.010335
  664 Fit       0.009588
  665 Fit       0.008349
  666 Fit      -0.012810
  667 Fit      -0.002489
  668 Fit      -0.021316
  669 Fit      -0.008863
  670 Fit      -0.001982
  671 Fit      -0.012566
  672 Fit      -0.007199
  673 Fit      -0.001730
  674 Fit       0.001771
  675 Fit      -0.001062
  676 Fit       0.000378
  677 Fit       0.015608
  678 Fit       0.010918
  679 Fit       0.012069
  680 Fit       0.015486
  681 Fit       0.018304
  682 Fit       0.020535
  683 Fit       0.016533
  684 Fit       0.004073
  685 Fit       0.017284
  686 Fit       0.018912
  687 Fit       0.021113
  688 Fit       0.009424
  689 Fit       0.019376
  690 Fit       0.019663
  691 Fit       0.022077
  692 Fit       0.018756
  693 Fit       0.019700
  694 Fit       0.022768
  695 Fit       0.018319
  696 Fit       0.019236
  697 Fit       0.022032
  698 Fit       0.018200
  699 Fit       0.018743
  700 Fit       0.020094
  701 Fit       0.017608
  702 Fit      -0.000469
  703 Fit       0.004919
  704 Fit      -0.013255
  705 Fit      -0.004998
  706 Fit       0.003220
  707 Fit       0.006672
  708 Fit       0.009241
  709 Fit       0.006528
  710 Fit      -0.001702
  711 Fit      -0.001401
  712 Fit       0.005033
  713 Fit       0.022709
  714 Fit       0.019186
  715 Fit       0.016461
  716 Fit       0.022940
  717 Fit       0.019156
  718 Fit       0.016107
  719 Fit       0.022956
  720 Fit       0.018698
  721 Fit       0.015014
  722 Fit       0.011419
  723 Fit       0.019312
  724 Fit       0.015074
  725 Fit       0.012888
  726 Fit       0.017349
  727 Fit       0.015480
  728 Fit       0.020233
  729 Fit       0.020844
  730 Fit       0.017674
  731 Fit       0.015089
  732 Fit       0.013860
  733 Fit       0.012572
  734 Fit       0.022768
  735 Fit       0.018784
  736 Fit       0.016058
  737 Fit       0.013790
  738 Fit       0.011634
  739 Fit       0.009763
  740 Fit       0.010119
  741 Fit       0.010489
  742 Fit       0.007780
  743 Fit       0.003272
  744 Fit       0.011872
  745 Fit       0.009795
  746 Fit       0.007231
  747 Fit       0.002189
  748 Fit      -0.007607
  749 Fit       0.009273
  750 Fit       0.006306
  751 Fit       0.000952
  752 Fit      -0.011662
  753 Fit      -0.001018
  754 Fit      -0.005771
  755 Fit      -0.014797
  756 Fit      -0.024951
  757 Fit      -0.004015
  758 Fit      -0.010194
  759 Fit      -0.024084
  760 Fit      -0.004322
  761 Fit      -0.009914
  762 Fit      -0.022568
  763 Fit      -0.013268
  764 Fit       0.001501
  765 Fit       0.001626
  766 Fit      -0.000373
  767 Fit       0.000565
  768 Fit       0.001725
  769 Fit       0.001498
  770 Fit      -0.000846
  771 Fit      -0.005127
  772 Fit      -0.000774
  773 Fit       0.001005
  774 Fit       0.001155
  775 Fit      -0.002190
  776 Fit      -0.007544
  777 Fit      -0.003319
  778 Fit      -0.000821
  779 Fit      -0.005258
  780 Fit      -0.000328
  781 Fit      -0.000520
  782 Fit      -0.005224
  783 Fit      -0.005614
  784 Fit      -0.000010
  785 Fit       0.002152
  786 Fit       0.001889
  787 Fit      -0.003033
  788 Fit       0.000603
  789 Fit       0.001396
  790 Fit       0.002002
  791 Fit       0.002124
  792 Fit       0.001578
  793 Fit      -0.003009
  794 Fit      -0.000807
  795 Fit       0.000526
  796 Fit       0.001368
  797 Fit      -0.010765
  798 Fit      -0.006916
  799 Fit      -0.011119
  800 Fit      -0.011029
  801 Fit      -0.003950
  802 Fit      -0.005228
  803 Fit      -0.011605
  804 Fit      -0.003902
  805 Fit       0.008712
  806 Fit       0.001448
  807 Fit       0.010351
  808 Fit       0.003027
  809 Fit      -0.001768
  810 Fit       0.007314
  811 Fit       0.004444
  812 Fit       0.009030
  813 Fit       0.013790
  814 Fit      -0.000960
  815 Fit      -0.003697
  816 Fit       0.000571
  817 Fit       0.005580
  818 Fit       0.003850
  819 Fit       0.000766
  820 Fit       0.001847
  821 Fit       0.004078
  822 Fit       0.016327
  823 Fit       0.017843
  824 Fit       0.019874
  825 Fit       0.001379
  826 Fit       0.012269
  827 Fit       0.010275
  828 Fit       0.019595
  829 Fit       0.016438
  830 Fit       0.013653
  831 Fit       0.011606
  832 Fit       0.010204
  833 Fit       0.001411
  834 Fit       0.013736
  835 Fit       0.011290
  836 Fit       0.010557
  837 Fit       0.008454
  838 Fit       0.008940
  839 Fit       0.003231
  840 Fit       0.006788
  841 Fit      -0.003019
  842 Fit      -0.008506
  843 Fit      -0.009973
  844 Fit      -0.002458
  845 Fit      -0.005979
  846 Fit      -0.001944
  847 Fit       0.001045
  848 Fit      -0.000044
  849 Fit      -0.002023
  850 Fit      -0.000236
  851 Fit       0.000730
  852 Fit       0.001043
  853 Fit       0.000083
  854 Fit      -0.003817
  855 Fit      -0.001035
  856 Fit      -0.007789
  857 Fit      -0.015317
  858 Fit      -0.009467
  859 Fit       0.003052
  860 Fit       0.010953
  861 Fit       0.014570
  862 Fit       0.008544
  863 Fit      -0.003176
  864 Fit       0.000131
  865 Fit      -0.008945
  866 Fit      -0.011208
  867 Fit      -0.006738
  868 Fit      -0.008503
  869 Fit      -0.004664
  870 Fit      -0.011075
  871 Fit      -0.008570
  872 Fit      -0.005181
  873 Fit      -0.023320
  874 Fit      -0.026941
  875 Fit      -0.028599
  876 Fit      -0.022135
  877 Fit      -0.014712
  878 Fit      -0.015836
  879 Fit      -0.020829
  880 Fit      -0.031555
  881 Fit      -0.031719
  882 Fit      -0.027754
  883 Fit      -0.031728
  884 Fit      -0.033362
  885 Fit      -0.031521
  886 Fit      -0.026117
  887 Fit      -0.030773
  888 Fit      -0.032676
  889 Fit      -0.031432
  890 Fit      -0.027073
  891 Fit      -0.024313
  892 Fit      -0.029040
  893 Fit      -0.029590
  894 Fit      -0.025869
  895 Fit      -0.021582
  896 Fit      -0.024254
  897 Fit      -0.022048
  898 Fit      -0.012926
  899 Fit      -0.008458
  900 Fit      -0.010245
  901 Fit      -0.014542
  902 Fit      -0.017333
  903 Fit      -0.012676
  904 Fit      -0.017756
  905 Fit      -0.021944
  906 Fit      -0.020583
  907 Fit      -0.013684
  908 Fit      -0.018712
  909 Fit      -0.023765
  910 Fit      -0.024021
  911 Fit      -0.019738
  912 Fit      -0.014790
  913 Fit      -0.021458
  914 Fit      -0.024493
  915 Fit      -0.023398
  916 Fit      -0.019029
  917 Fit      -0.016820
  918 Fit      -0.007512
  919 Fit      -0.013836
  920 Fit      -0.020779
  921 Fit      -0.021938
  922 Fit      -0.016963
  923 Fit       0.002291
  924 Fit      -0.007426
  925 Fit      -0.002441
  926 Fit       0.003722
  927 Fit      -0.001145
  928 Fit      -0.014955
  929 Fit      -0.005137
  930 Fit       0.001162
  931 Fit      -0.004436
  932 Fit      -0.013693
  933 Fit      -0.003770
  934 Fit       0.008336
  935 Fit       0.006739
  936 Fit       0.010002
  937 Fit       0.013145
  938 Fit       0.004401
  939 Fit       0.007857
  940 Fit       0.010573
  941 Fit       0.013068
  942 Fit       0.016457
  943 Fit       0.005243
  944 Fit       0.008374
  945 Fit       0.010931
  946 Fit       0.013334
  947 Fit       0.016761
  948 Fit       0.008445
  949 Fit       0.011188
  950 Fit       0.014017
  951 Fit       0.006855
  952 Fit       0.009987
  953 Fit       0.012631
  954 Fit       0.014884
  955 Fit       0.016056
  956 Fit       0.003632
  957 Fit       0.006247
  958 Fit       0.008950
  959 Fit       0.010966
  960 Fit       0.011750
  961 Fit       0.010680
  962 Fit       0.005342
  963 Fit       0.005234
  964 Fit       0.007553
  965 Fit       0.009170
  966 Fit       0.008674
  967 Fit       0.007781
  968 Fit       0.007144
  969 Fit      -0.014920
  970 Fit      -0.014159
  971 Fit      -0.005451
  972 Fit      -0.015795
  973 Fit      -0.007623
  974 Fit      -0.002246
  975 Fit       0.001593
  976 Fit      -0.008480
  977 Fit      -0.005558
  978 Fit      -0.001534
  979 Fit       0.001629
  980 Fit      -0.000656
  981 Fit       0.000349
  982 Fit       0.013516
  983 Fit       0.009590
  984 Fit       0.010485
  985 Fit       0.013515
  986 Fit       0.015990
  987 Fit       0.017496
  988 Fit       0.014157
  989 Fit       0.003531
  990 Fit       0.014979
  991 Fit       0.016712
  992 Fit       0.018733
  993 Fit       0.008576
  994 Fit       0.018237
  995 Fit       0.020310
  996 Fit       0.017350
  997 Fit       0.017391
  998 Fit       0.018896
  999 Fit       0.016880
 1000 Fit       0.017155
 1001 Fit       0.018751
 1002 Fit       0.016485
 1003 Fit       0.017103
 1004 Fit       0.019130
 1005 Fit       0.016624
 1006 Fit       0.016625
 1007 Fit       0.017100
 1008 Fit      -0.000969
 1009 Fit       0.002151
 1010 Fit       0.003592
 1011 Fit      -0.010568
 1012 Fit      -0.004361
 1013 Fit       0.001904
 1014 Fit       0.005004
 1015 Fit       0.007274
 1016 Fit       0.004990
 1017 Fit      -0.001475
 1018 Fit      -0.001681
 1019 Fit       0.003511
 1020 Fit       0.020717
 1021 Fit       0.017552
 1022 Fit       0.018478
 1023 Fit       0.015869
 1024 Fit       0.013748
 1025 Fit       0.018295
 1026 Fit       0.015439
 1027 Fit       0.012909
 1028 Fit       0.019662
 1029 Fit       0.016074
 1030 Fit       0.012849
 1031 Fit       0.016245
 1032 Fit       0.012745
 1033 Fit       0.015080
 1034 Fit       0.013453
 1035 Fit       0.017159
 1036 Fit       0.018040
 1037 Fit       0.015666
 1038 Fit       0.013470
 1039 Fit       0.012333
 1040 Fit       0.010787
 1041 Fit       0.020244
 1042 Fit       0.016980
 1043 Fit       0.014623
 1044 Fit       0.012639
 1045 Fit       0.010797
 1046 Fit       0.009319
 1047 Fit       0.009324
 1048 Fit       0.009603
 1049 Fit       0.007108
 1050 Fit       0.003836
 1051 Fit       0.010352
 1052 Fit       0.008358
 1053 Fit       0.005764
 1054 Fit       0.001515
 1055 Fit      -0.005301
 1056 Fit       0.008964
 1057 Fit       0.006634
 1058 Fit       0.003203
 1059 Fit      -0.003078
 1060 Fit       0.007327
 1061 Fit       0.003824
 1062 Fit      -0.001879
 1063 Fit      -0.014431
 1064 Fit      -0.002932
 1065 Fit      -0.006266
 1066 Fit      -0.013673
 1067 Fit      -0.020445
 1068 Fit      -0.004706
 1069 Fit      -0.010250
 1070 Fit      -0.021184
 1071 Fit      -0.004375
 1072 Fit      -0.009158
 1073 Fit      -0.018588
 1074 Fit      -0.005188
 1075 Fit      -0.010251
 1076 Fit      -0.020393
 1077 Fit      -0.013355
 1078 Fit      -0.000842
 1079 Fit       0.000350
 1080 Fit       0.000994
 1081 Fit       0.000639
 1082 Fit      -0.001261
 1083 Fit      -0.004414
 1084 Fit      -0.001784
 1085 Fit      -0.000034
 1086 Fit       0.000792
 1087 Fit       0.000425
 1088 Fit      -0.001855
 1089 Fit      -0.005424
 1090 Fit      -0.002098
 1091 Fit      -0.000353
 1092 Fit      -0.000197
 1093 Fit      -0.003136
 1094 Fit      -0.007294
 1095 Fit      -0.004456
 1096 Fit      -0.002116
 1097 Fit      -0.005596
 1098 Fit      -0.000863
 1099 Fit      -0.001110
 1100 Fit      -0.004841
 1101 Fit      -0.004856
 1102 Fit      -0.000295
 1103 Fit       0.001333
 1104 Fit       0.000970
 1105 Fit      -0.001722
 1106 Fit       0.001134
 1107 Fit       0.001379
 1108 Fit       0.001563
 1109 Fit       0.001489
 1110 Fit       0.000809
 1111 Fit      -0.001447
 1112 Fit      -0.001127
 1113 Fit       0.000021
 1114 Fit       0.000779
 1115 Fit       0.001111
 1116 Fit      -0.002033
 1117 Fit      -0.010088
 1118 Fit      -0.009240
 1119 Fit      -0.011654
 -----------------------------------------------------------------
 Leave Link  602 at Sun Feb 18 17:07:10 2018, MaxMem=   33554432 cpu:       0.3

 Test job not archived.
 1\1\GINC-NODE015\SP\RHF\6-31G(d)\C8H14N2O2\WULSDORT\18-Feb-2018\0\\#HF
 /6-31G* Geom=AllCheck Guess=Read Pop=(MK,ReadRadii) Integral=(Grid=Ult
 raFine) iop(6/33=2)\\Optimization for frag4-conf1\\0,1\C,0,0.598208892
 1,-1.3241837591,-1.4934489319\C,0,-0.1654892817,-2.3183623055,1.531848
 7313\C,0,0.3855444033,-4.5179558519,-1.3872711649\C,0,1.6501686226,-3.
 6469449011,-1.3184214084\C,0,-0.2700567749,-4.3095499369,-0.0140000717
 \C,0,1.1827047295,-2.4077216522,-0.5466617241\C,0,-1.1036721195,-3.049
 4889687,2.4766705517\C,0,-0.331249662,0.9538087109,-1.5528493915\N,0,0
 .1514138345,-2.950092898,0.3692723668\N,0,0.2899556055,-0.1626781412,-
 0.865019624\O,0,0.4550497719,-1.5243518028,-2.6977555089\O,0,0.2804790
 531,-1.1979905831,1.8103065657\H,0,-0.2663360469,-4.1387350141,-2.1797
 097882\H,0,0.5935569572,-5.5735385499,-1.5850483525\H,0,2.4421171917,-
 4.155001331,-0.7556561481\H,0,2.0271878122,-3.379934355,-2.3064960677\
 H,0,-1.3618399148,-4.3894569499,-0.0506444036\H,0,0.0967818195,-5.0434
 958955,0.7173630678\H,0,1.9729482003,-1.952755012,0.0594730859\H,0,-0.
 7013594228,-4.0254690269,2.7718613038\H,0,-2.0790633133,-3.2250235424,
 2.0080018448\H,0,-1.2398690178,-2.4318220457,3.3649591556\H,0,-0.28591
 97788,0.756600863,-2.6248841826\H,0,0.2016449857,1.8855014157,-1.33275
 69508\H,0,-1.3818621291,1.0752540134,-1.2584019032\H,0,0.3616248329,-0
 .1603051003,0.1516279427\\Version=AM64L-G09RevC.01\State=1-A\HF=-569.7
 572241\RMSD=3.114e-09\Dipole=-0.3945001,-1.1680156,0.8493231\Quadrupol
 e=2.6573085,5.6351751,-8.2924836,-0.4989581,-1.8841353,-3.3168783\PG=C
 01 [X(C8H14N2O2)]\\@


0EVERYBODY IS IGNORANT, ONLY ON DIFFERENT SUBJECTS.
0          WILL ROGERS
 Job cpu time:  0 days  0 hours  1 minutes 40.9 seconds.
 File lengths (MBytes):  RWF=     28 Int=      0 D2E=      0 Chk=      5 Scr=      1
 Normal termination of Gaussian 09 at Sun Feb 18 17:07:10 2018.
