 Entering Gaussian System, Link 0=g09
 Initial command:
 /home/fb_chem/chemsoft/lx24-amd64/Gaussian_09_C.01_NBO_3.1_64_istanbul-64/g09/l1.exe /local/2399970.1.parallel_long/Gau-3113.inp -scrdir=/local/2399970.1.parallel_long/
 Entering Link 1 = /home/fb_chem/chemsoft/lx24-amd64/Gaussian_09_C.01_NBO_3.1_64_istanbul-64/g09/l1.exe PID=      3114.
  
 Copyright (c) 1988,1990,1992,1993,1995,1998,2003,2009,2011,
            Gaussian, Inc.  All Rights Reserved.
  
 This is part of the Gaussian(R) 09 program.  It is based on
 the Gaussian(R) 03 system (copyright 2003, Gaussian, Inc.),
 the Gaussian(R) 98 system (copyright 1998, Gaussian, Inc.),
 the Gaussian(R) 94 system (copyright 1995, Gaussian, Inc.),
 the Gaussian 92(TM) system (copyright 1992, Gaussian, Inc.),
 the Gaussian 90(TM) system (copyright 1990, Gaussian, Inc.),
 the Gaussian 88(TM) system (copyright 1988, Gaussian, Inc.),
 the Gaussian 86(TM) system (copyright 1986, Carnegie Mellon
 University), and the Gaussian 82(TM) system (copyright 1983,
 Carnegie Mellon University). Gaussian is a federally registered
 trademark of Gaussian, Inc.
  
 This software contains proprietary and confidential information,
 including trade secrets, belonging to Gaussian, Inc.
  
 This software is provided under written license and may be
 used, copied, transmitted, or stored only in accord with that
 written license.
  
 The following legend is applicable only to US Government
 contracts under FAR:
  
                    RESTRICTED RIGHTS LEGEND
  
 Use, reproduction and disclosure by the US Government is
 subject to restrictions as set forth in subparagraphs (a)
 and (c) of the Commercial Computer Software - Restricted
 Rights clause in FAR 52.227-19.
  
 Gaussian, Inc.
 340 Quinnipiac St., Bldg. 40, Wallingford CT 06492
  
  
 ---------------------------------------------------------------
 Warning -- This program may not be used in any manner that
 competes with the business of Gaussian, Inc. or will provide
 assistance to any competitor of Gaussian, Inc.  The licensee
 of this program is prohibited from giving any competitor of
 Gaussian, Inc. access to this program.  By using this program,
 the user acknowledges that Gaussian, Inc. is engaged in the
 business of creating and licensing software in the field of
 computational chemistry and represents and warrants to the
 licensee that it is not a competitor of Gaussian, Inc. and that
 it will not use this program in any manner prohibited above.
 ---------------------------------------------------------------
  

 Cite this work as:
 Gaussian 09, Revision C.01,
 M. J. Frisch, G. W. Trucks, H. B. Schlegel, G. E. Scuseria, 
 M. A. Robb, J. R. Cheeseman, G. Scalmani, V. Barone, B. Mennucci, 
 G. A. Petersson, H. Nakatsuji, M. Caricato, X. Li, H. P. Hratchian, 
 A. F. Izmaylov, J. Bloino, G. Zheng, J. L. Sonnenberg, M. Hada, 
 M. Ehara, K. Toyota, R. Fukuda, J. Hasegawa, M. Ishida, T. Nakajima, 
 Y. Honda, O. Kitao, H. Nakai, T. Vreven, J. A. Montgomery, Jr., 
 J. E. Peralta, F. Ogliaro, M. Bearpark, J. J. Heyd, E. Brothers, 
 K. N. Kudin, V. N. Staroverov, T. Keith, R. Kobayashi, J. Normand, 
 K. Raghavachari, A. Rendell, J. C. Burant, S. S. Iyengar, J. Tomasi, 
 M. Cossi, N. Rega, J. M. Millam, M. Klene, J. E. Knox, J. B. Cross, 
 V. Bakken, C. Adamo, J. Jaramillo, R. Gomperts, R. E. Stratmann, 
 O. Yazyev, A. J. Austin, R. Cammi, C. Pomelli, J. W. Ochterski, 
 R. L. Martin, K. Morokuma, V. G. Zakrzewski, G. A. Voth, 
 P. Salvador, J. J. Dannenberg, S. Dapprich, A. D. Daniels, 
 O. Farkas, J. B. Foresman, J. V. Ortiz, J. Cioslowski, 
 and D. J. Fox, Gaussian, Inc., Wallingford CT, 2010.
 
 ******************************************
 Gaussian 09:  AM64L-G09RevC.01 23-Sep-2011
                17-Feb-2018 
 ******************************************
 %nprocs=4
 Will use up to    4 processors via shared memory.
 %chk=frag4-conf1.chk
 ---------------------------------------------------------
 #B3LYP/6-31G* Integral=(Grid=UltraFine) freq Opt pop=none
 ---------------------------------------------------------
 1/14=-1,18=20,19=15,26=3,38=1/1,3;
 2/9=110,12=2,17=6,18=5,40=1/2;
 3/5=1,6=6,7=1,11=2,16=1,25=1,30=1,71=1,74=-5,75=-5/1,2,3;
 4//1;
 5/5=2,38=5/2;
 7//1,2,3,16;
 1/14=-1,18=20,19=15/3(2);
 2/9=110/2;
 99//99;
 2/9=110/2;
 3/5=1,6=6,7=1,11=2,16=1,25=1,30=1,71=1,74=-5,75=-5/1,2,3;
 4/5=5,16=3/1;
 5/5=2,38=5/2;
 7//1,2,3,16;
 1/14=-1,18=20,19=15/3(-5);
 2/9=110/2;
 99/9=1/99;
 ----------------------------
 Optimization for frag4-conf1
 ----------------------------
 Charge =  0 Multiplicity = 1
 Symbolic Z-Matrix:
 C                     0.02029  -1.13271  -0.93932 
 C                    -0.46933  -2.66088   1.84255 
 C                     0.48391  -4.24721  -1.36402 
 C                     1.52878  -3.14779  -1.18888 
 C                    -0.11401  -4.38775   0.02806 
 C                     0.86373  -2.19313  -0.19709 
 C                    -1.29538  -3.66524   2.60316 
 C                     0.15015   0.98792  -2.19747 
 N                     0.02656  -3.06721   0.62768 
 N                     0.75857  -0.08949  -1.45862 
 O                    -1.1995   -1.21602  -1.09684 
 O                    -0.258    -1.53252   2.29224 
 H                    -0.2861   -3.9192   -2.07255 
 H                     0.9092   -5.18396  -1.73462 
 H                     2.43458  -3.57588  -0.74228 
 H                     1.80161  -2.68377  -2.14118 
 H                    -1.16234  -4.69803   0.00835 
 H                     0.45663  -5.09656   0.63775 
 H                     1.59846  -1.67828   0.43249 
 H                    -0.71725  -4.57599   2.77949 
 H                    -2.20343  -3.90215   2.04258 
 H                    -1.58196  -3.24373   3.57104 
 H                    -0.39142   0.57834  -3.05433 
 H                     0.93426   1.66715  -2.53915 
 H                    -0.54869   1.51895  -1.54572 
 H                     1.76336  -0.06854  -1.30093 
 

 GradGradGradGradGradGradGradGradGradGradGradGradGradGradGradGradGradGrad
 Berny optimization.
 Initialization pass.
                           ----------------------------
                           !    Initial Parameters    !
                           ! (Angstroms and Degrees)  !
 --------------------------                            --------------------------
 ! Name  Definition              Value          Derivative Info.                !
 --------------------------------------------------------------------------------
 ! R1    R(1,6)                  1.5449         estimate D2E/DX2                !
 ! R2    R(1,10)                 1.3795         estimate D2E/DX2                !
 ! R3    R(1,11)                 1.2327         estimate D2E/DX2                !
 ! R4    R(2,7)                  1.5065         estimate D2E/DX2                !
 ! R5    R(2,9)                  1.3737         estimate D2E/DX2                !
 ! R6    R(2,12)                 1.2329         estimate D2E/DX2                !
 ! R7    R(3,4)                  1.5268         estimate D2E/DX2                !
 ! R8    R(3,5)                  1.5216         estimate D2E/DX2                !
 ! R9    R(3,13)                 1.0966         estimate D2E/DX2                !
 ! R10   R(3,14)                 1.0935         estimate D2E/DX2                !
 ! R11   R(4,6)                  1.5288         estimate D2E/DX2                !
 ! R12   R(4,15)                 1.0969         estimate D2E/DX2                !
 ! R13   R(4,16)                 1.0939         estimate D2E/DX2                !
 ! R14   R(5,9)                  1.4571         estimate D2E/DX2                !
 ! R15   R(5,17)                 1.0935         estimate D2E/DX2                !
 ! R16   R(5,18)                 1.0953         estimate D2E/DX2                !
 ! R17   R(6,9)                  1.4646         estimate D2E/DX2                !
 ! R18   R(6,19)                 1.096          estimate D2E/DX2                !
 ! R19   R(7,20)                 1.0931         estimate D2E/DX2                !
 ! R20   R(7,21)                 1.0931         estimate D2E/DX2                !
 ! R21   R(7,22)                 1.0939         estimate D2E/DX2                !
 ! R22   R(8,10)                 1.4411         estimate D2E/DX2                !
 ! R23   R(8,23)                 1.0933         estimate D2E/DX2                !
 ! R24   R(8,24)                 1.0922         estimate D2E/DX2                !
 ! R25   R(8,25)                 1.0932         estimate D2E/DX2                !
 ! R26   R(10,26)                1.0173         estimate D2E/DX2                !
 ! A1    A(6,1,10)             114.0628         estimate D2E/DX2                !
 ! A2    A(6,1,11)             123.7254         estimate D2E/DX2                !
 ! A3    A(10,1,11)            122.1789         estimate D2E/DX2                !
 ! A4    A(7,2,9)              116.5676         estimate D2E/DX2                !
 ! A5    A(7,2,12)             121.3306         estimate D2E/DX2                !
 ! A6    A(9,2,12)             122.1013         estimate D2E/DX2                !
 ! A7    A(4,3,5)              103.326          estimate D2E/DX2                !
 ! A8    A(4,3,13)             109.8316         estimate D2E/DX2                !
 ! A9    A(4,3,14)             112.9277         estimate D2E/DX2                !
 ! A10   A(5,3,13)             110.0496         estimate D2E/DX2                !
 ! A11   A(5,3,14)             112.5688         estimate D2E/DX2                !
 ! A12   A(13,3,14)            108.081          estimate D2E/DX2                !
 ! A13   A(3,4,6)              103.0828         estimate D2E/DX2                !
 ! A14   A(3,4,15)             109.3172         estimate D2E/DX2                !
 ! A15   A(3,4,16)             112.1032         estimate D2E/DX2                !
 ! A16   A(6,4,15)             109.8032         estimate D2E/DX2                !
 ! A17   A(6,4,16)             114.1018         estimate D2E/DX2                !
 ! A18   A(15,4,16)            108.3031         estimate D2E/DX2                !
 ! A19   A(3,5,9)              104.7665         estimate D2E/DX2                !
 ! A20   A(3,5,17)             112.7346         estimate D2E/DX2                !
 ! A21   A(3,5,18)             111.3647         estimate D2E/DX2                !
 ! A22   A(9,5,17)             110.9207         estimate D2E/DX2                !
 ! A23   A(9,5,18)             107.8879         estimate D2E/DX2                !
 ! A24   A(17,5,18)            109.0183         estimate D2E/DX2                !
 ! A25   A(1,6,4)              110.7586         estimate D2E/DX2                !
 ! A26   A(1,6,9)              111.5997         estimate D2E/DX2                !
 ! A27   A(1,6,19)             108.6341         estimate D2E/DX2                !
 ! A28   A(4,6,9)              103.9632         estimate D2E/DX2                !
 ! A29   A(4,6,19)             111.9848         estimate D2E/DX2                !
 ! A30   A(9,6,19)             109.8791         estimate D2E/DX2                !
 ! A31   A(2,7,20)             110.2989         estimate D2E/DX2                !
 ! A32   A(2,7,21)             109.941          estimate D2E/DX2                !
 ! A33   A(2,7,22)             109.4801         estimate D2E/DX2                !
 ! A34   A(20,7,21)            109.9682         estimate D2E/DX2                !
 ! A35   A(20,7,22)            108.4752         estimate D2E/DX2                !
 ! A36   A(21,7,22)            108.6407         estimate D2E/DX2                !
 ! A37   A(10,8,23)            109.3212         estimate D2E/DX2                !
 ! A38   A(10,8,24)            108.7977         estimate D2E/DX2                !
 ! A39   A(10,8,25)            109.1097         estimate D2E/DX2                !
 ! A40   A(23,8,24)            110.0855         estimate D2E/DX2                !
 ! A41   A(23,8,25)            109.4241         estimate D2E/DX2                !
 ! A42   A(24,8,25)            110.0813         estimate D2E/DX2                !
 ! A43   A(2,9,5)              126.67           estimate D2E/DX2                !
 ! A44   A(2,9,6)              121.86           estimate D2E/DX2                !
 ! A45   A(5,9,6)              111.3628         estimate D2E/DX2                !
 ! A46   A(1,10,8)             122.1686         estimate D2E/DX2                !
 ! A47   A(1,10,26)            119.0662         estimate D2E/DX2                !
 ! A48   A(8,10,26)            118.7546         estimate D2E/DX2                !
 ! D1    D(10,1,6,4)           -79.9285         estimate D2E/DX2                !
 ! D2    D(10,1,6,9)           164.7555         estimate D2E/DX2                !
 ! D3    D(10,1,6,19)           43.4598         estimate D2E/DX2                !
 ! D4    D(11,1,6,4)            98.0235         estimate D2E/DX2                !
 ! D5    D(11,1,6,9)           -17.2925         estimate D2E/DX2                !
 ! D6    D(11,1,6,19)         -138.5881         estimate D2E/DX2                !
 ! D7    D(6,1,10,8)           179.2716         estimate D2E/DX2                !
 ! D8    D(6,1,10,26)           -1.9266         estimate D2E/DX2                !
 ! D9    D(11,1,10,8)            1.284          estimate D2E/DX2                !
 ! D10   D(11,1,10,26)        -179.9142         estimate D2E/DX2                !
 ! D11   D(9,2,7,20)            57.5671         estimate D2E/DX2                !
 ! D12   D(9,2,7,21)           -63.868          estimate D2E/DX2                !
 ! D13   D(9,2,7,22)           176.8573         estimate D2E/DX2                !
 ! D14   D(12,2,7,20)         -122.6888         estimate D2E/DX2                !
 ! D15   D(12,2,7,21)          115.8762         estimate D2E/DX2                !
 ! D16   D(12,2,7,22)           -3.3985         estimate D2E/DX2                !
 ! D17   D(7,2,9,5)             -2.9755         estimate D2E/DX2                !
 ! D18   D(7,2,9,6)           -178.8773         estimate D2E/DX2                !
 ! D19   D(12,2,9,5)           177.2825         estimate D2E/DX2                !
 ! D20   D(12,2,9,6)             1.3806         estimate D2E/DX2                !
 ! D21   D(5,3,4,6)            -36.7986         estimate D2E/DX2                !
 ! D22   D(5,3,4,15)            79.9469         estimate D2E/DX2                !
 ! D23   D(5,3,4,16)          -159.9515         estimate D2E/DX2                !
 ! D24   D(13,3,4,6)            80.5858         estimate D2E/DX2                !
 ! D25   D(13,3,4,15)         -162.6687         estimate D2E/DX2                !
 ! D26   D(13,3,4,16)          -42.5671         estimate D2E/DX2                !
 ! D27   D(14,3,4,6)          -158.6985         estimate D2E/DX2                !
 ! D28   D(14,3,4,15)          -41.953          estimate D2E/DX2                !
 ! D29   D(14,3,4,16)           78.1486         estimate D2E/DX2                !
 ! D30   D(4,3,5,9)             28.7983         estimate D2E/DX2                !
 ! D31   D(4,3,5,17)           149.5172         estimate D2E/DX2                !
 ! D32   D(4,3,5,18)           -87.5737         estimate D2E/DX2                !
 ! D33   D(13,3,5,9)           -88.4329         estimate D2E/DX2                !
 ! D34   D(13,3,5,17)           32.286          estimate D2E/DX2                !
 ! D35   D(13,3,5,18)          155.1951         estimate D2E/DX2                !
 ! D36   D(14,3,5,9)           150.9388         estimate D2E/DX2                !
 ! D37   D(14,3,5,17)          -88.3422         estimate D2E/DX2                !
 ! D38   D(14,3,5,18)           34.5669         estimate D2E/DX2                !
 ! D39   D(3,4,6,1)            -89.0753         estimate D2E/DX2                !
 ! D40   D(3,4,6,9)             30.9188         estimate D2E/DX2                !
 ! D41   D(3,4,6,19)           149.49           estimate D2E/DX2                !
 ! D42   D(15,4,6,1)           154.5245         estimate D2E/DX2                !
 ! D43   D(15,4,6,9)           -85.4814         estimate D2E/DX2                !
 ! D44   D(15,4,6,19)           33.0898         estimate D2E/DX2                !
 ! D45   D(16,4,6,1)            32.7385         estimate D2E/DX2                !
 ! D46   D(16,4,6,9)           152.7325         estimate D2E/DX2                !
 ! D47   D(16,4,6,19)          -88.6963         estimate D2E/DX2                !
 ! D48   D(3,5,9,2)            174.0872         estimate D2E/DX2                !
 ! D49   D(3,5,9,6)             -9.6498         estimate D2E/DX2                !
 ! D50   D(17,5,9,2)            52.174          estimate D2E/DX2                !
 ! D51   D(17,5,9,6)          -131.563          estimate D2E/DX2                !
 ! D52   D(18,5,9,2)           -67.1648         estimate D2E/DX2                !
 ! D53   D(18,5,9,6)           109.0982         estimate D2E/DX2                !
 ! D54   D(1,6,9,2)            -77.603          estimate D2E/DX2                !
 ! D55   D(1,6,9,5)            105.9258         estimate D2E/DX2                !
 ! D56   D(4,6,9,2)            162.974          estimate D2E/DX2                !
 ! D57   D(4,6,9,5)            -13.4972         estimate D2E/DX2                !
 ! D58   D(19,6,9,2)            42.9668         estimate D2E/DX2                !
 ! D59   D(19,6,9,5)          -133.5044         estimate D2E/DX2                !
 ! D60   D(23,8,10,1)          -57.4712         estimate D2E/DX2                !
 ! D61   D(23,8,10,26)         123.7234         estimate D2E/DX2                !
 ! D62   D(24,8,10,1)         -177.7205         estimate D2E/DX2                !
 ! D63   D(24,8,10,26)           3.4741         estimate D2E/DX2                !
 ! D64   D(25,8,10,1)           62.1613         estimate D2E/DX2                !
 ! D65   D(25,8,10,26)        -116.6441         estimate D2E/DX2                !
 --------------------------------------------------------------------------------
 Trust Radius=3.00D-01 FncErr=1.00D-07 GrdErr=1.00D-06
 Number of steps in this run=    149 maximum allowed number of steps=    156.
 GradGradGradGradGradGradGradGradGradGradGradGradGradGradGradGradGradGrad

                          Input orientation:                          
 ---------------------------------------------------------------------
 Center     Atomic      Atomic             Coordinates (Angstroms)
 Number     Number       Type             X           Y           Z
 ---------------------------------------------------------------------
      1          6           0        0.020288   -1.132710   -0.939320
      2          6           0       -0.469326   -2.660877    1.842551
      3          6           0        0.483907   -4.247214   -1.364015
      4          6           0        1.528780   -3.147794   -1.188884
      5          6           0       -0.114009   -4.387749    0.028058
      6          6           0        0.863729   -2.193130   -0.197093
      7          6           0       -1.295379   -3.665236    2.603160
      8          6           0        0.150153    0.987923   -2.197472
      9          7           0        0.026560   -3.067211    0.627676
     10          7           0        0.758575   -0.089495   -1.458623
     11          8           0       -1.199500   -1.216021   -1.096843
     12          8           0       -0.257996   -1.532516    2.292237
     13          1           0       -0.286099   -3.919198   -2.072548
     14          1           0        0.909198   -5.183959   -1.734620
     15          1           0        2.434577   -3.575885   -0.742277
     16          1           0        1.801607   -2.683770   -2.141182
     17          1           0       -1.162341   -4.698031    0.008348
     18          1           0        0.456627   -5.096565    0.637749
     19          1           0        1.598456   -1.678282    0.432492
     20          1           0       -0.717255   -4.575995    2.779488
     21          1           0       -2.203427   -3.902145    2.042580
     22          1           0       -1.581960   -3.243731    3.571035
     23          1           0       -0.391419    0.578342   -3.054328
     24          1           0        0.934258    1.667151   -2.539155
     25          1           0       -0.548695    1.518946   -1.545725
     26          1           0        1.763359   -0.068543   -1.300931
 ---------------------------------------------------------------------
                    Distance matrix (angstroms):
                    1          2          3          4          5
     1  C    0.000000
     2  C    3.211514   0.000000
     3  C    3.177333   3.702321   0.000000
     4  C    2.529505   3.663211   1.526812   0.000000
     5  C    3.398402   2.529964   1.521553   2.391066   0.000000
     6  C    1.544922   2.481123   2.392746   1.528831   2.413093
     7  C    4.549048   1.506528   4.386689   4.756388   2.923835
     8  C    2.469189   5.478985   5.311563   4.474596   5.824140
     9  N    2.489540   1.373655   2.359748   2.358612   1.457094
    10  N    1.379508   4.360906   4.167856   3.165307   4.631049
    11  O    1.232735   3.355712   3.477552   3.344208   3.536035
    12  O    3.268065   1.232914   4.613912   4.233190   3.646861
    13  H    3.023672   4.116423   1.096596   2.160951   2.159097
    14  H    4.223184   4.589381   1.093486   2.197197   2.188136
    15  H    3.440454   3.993898   2.154612   1.096900   2.783493
    16  H    2.650163   4.585607   2.187391   1.093903   3.358383
    17  H    3.874043   2.827466   2.190149   3.328474   1.093464
    18  H    4.288320   2.870803   2.174672   2.878161   1.095340
    19  H    2.161049   2.688770   3.327021   2.189333   3.230683
    20  H    5.121495   2.146391   4.326604   4.778327   2.823067
    21  H    4.637500   2.141930   4.352668   4.994074   2.942749
    22  H    5.231339   2.136664   5.443299   5.687068   4.002042
    23  H    2.751447   5.871800   5.187422   4.588151   5.851506
    24  H    3.351721   6.316741   6.046774   5.035909   6.659674
    25  H    2.778983   5.381230   5.860707   5.120713   6.128196
    26  H    2.074008   4.646133   4.370614   3.090204   4.893491
                    6          7          8          9         10
     6  C    0.000000
     7  C    3.830178   0.000000
     8  C    3.824893   6.840141   0.000000
     9  N    1.464621   2.451060   4.943769   0.000000
    10  N    2.455157   5.788155   1.441147   3.708812   0.000000
    11  O    2.453814   4.438229   2.808970   2.811422   2.287794
    12  O    2.809171   2.391931   5.164948   2.281890   4.145441
    13  H    2.796202   4.790135   4.928058   2.848657   4.016823
    14  H    3.363200   5.097354   6.235584   3.292433   5.104158
    15  H    2.162591   5.011238   5.307026   2.816748   3.934089
    16  H    2.213555   5.750077   4.026388   3.311253   2.878206
    17  H    3.228266   2.795964   6.238458   2.111073   5.203896
    18  H    3.048381   2.996843   6.719628   2.074449   5.436607
    19  H    1.096024   4.127235   4.015339   2.106675   2.608824
    20  H    4.127662   1.093069   7.515298   2.731297   6.345734
    21  H    4.164651   1.093127   6.886954   2.769821   5.963906
    22  H    4.613453   1.093882   7.360895   3.358847   6.381596
    23  H    4.173756   7.129676   1.093279   5.198261   2.077201
    24  H    4.515750   7.736216   1.092209   5.767748   2.069835
    25  H    4.194432   6.681806   1.093228   5.107585   2.074517
    26  H    2.557667   6.126500   2.126580   3.965855   1.017299
                   11         12         13         14         15
    11  O    0.000000
    12  O    3.531638   0.000000
    13  H    3.015537   4.974775   0.000000
    14  H    4.538490   5.559762   1.772724   0.000000
    15  H    4.347549   4.542420   3.047878   2.428462   0.000000
    16  H    3.500225   5.022207   2.426831   2.685634   1.775797
    17  H    3.653385   4.006804   2.388412   2.750516   3.841936
    18  H    4.561818   3.993803   3.046891   2.416732   2.851179
    19  H    3.221973   2.631789   3.853372   4.178662   2.383291
    20  H    5.152468   3.116263   4.915235   4.836542   4.830848
    21  H    4.251954   3.076065   4.539902   5.059517   5.419682
    22  H    5.103623   2.513257   5.829712   6.174166   5.903182
    23  H    2.775694   5.749720   4.604655   6.052879   5.530772
    24  H    3.865989   5.916222   5.737097   6.898232   5.741877
    25  H    2.846944   4.911810   5.469909   6.862220   5.958418
    26  H    3.183848   4.374922   4.429809   5.204339   3.614426
                   16         17         18         19         20
    16  H    0.000000
    17  H    4.178842   0.000000
    18  H    3.918291   1.782143   0.000000
    19  H    2.770573   4.113488   3.609787   0.000000
    20  H    5.842789   2.809308   2.497206   4.389493   0.000000
    21  H    5.918496   2.419791   3.236676   4.689591   1.790479
    22  H    6.662696   3.870892   4.024053   4.734568   1.774596
    23  H    4.035415   6.149343   6.823136   4.605417   7.791455
    24  H    4.454345   7.169453   7.487903   4.523689   8.366142
    25  H    4.851939   6.437586   7.038694   4.329650   7.475573
    26  H    2.747161   5.630816   5.545000   2.371330   6.566611
                   21         22         23         24         25
    21  H    0.000000
    22  H    1.776487   0.000000
    23  H    7.024002   7.740870   0.000000
    24  H    7.864758   8.233015   1.791181   0.000000
    25  H    6.708375   7.066255   1.784756   1.791094   0.000000
    26  H    6.450655   6.708876   2.852355   2.287628   2.815251
                   26
    26  H    0.000000
 Stoichiometry    C8H14N2O2
 Framework group  C1[X(C8H14N2O2)]
 Deg. of freedom    72
 Full point group                 C1      NOp   1
 Largest Abelian subgroup         C1      NOp   1
 Largest concise Abelian subgroup C1      NOp   1
                         Standard orientation:                         
 ---------------------------------------------------------------------
 Center     Atomic      Atomic             Coordinates (Angstroms)
 Number     Number       Type             X           Y           Z
 ---------------------------------------------------------------------
      1          6           0        1.313759   -0.209248    0.186754
      2          6           0       -1.743653   -1.102326   -0.223692
      3          6           0       -0.556245    2.352362    0.378281
      4          6           0        0.295695    1.885719   -0.799682
      5          6           0       -1.698981    1.348070    0.404227
      6          6           0        0.197650    0.362349   -0.715667
      7          6           0       -3.120377   -1.206889    0.379072
      8          6           0        3.707183   -0.812966    0.249537
      9          7           0       -1.130701    0.124559   -0.146410
     10          7           0        2.540536   -0.315856   -0.435094
     11          8           0        1.149363   -0.511129    1.370594
     12          8           0       -1.200061   -2.074134   -0.753009
     13          1           0        0.023919    2.285784    1.306450
     14          1           0       -0.905553    3.382837    0.269577
     15          1           0       -0.156283    2.236138   -1.735691
     16          1           0        1.318058    2.271161   -0.746474
     17          1           0       -2.089643    1.178369    1.411326
     18          1           0       -2.520399    1.661281   -0.249179
     19          1           0        0.269851   -0.108516   -1.702755
     20          1           0       -3.793346   -0.480786   -0.084271
     21          1           0       -3.069468   -1.033696    1.457191
     22          1           0       -3.519745   -2.210204    0.204599
     23          1           0        3.897168   -0.198341    1.133505
     24          1           0        4.560760   -0.766286   -0.430276
     25          1           0        3.528345   -1.846690    0.557076
     26          1           0        2.622888   -0.052296   -1.414201
 ---------------------------------------------------------------------
 Rotational constants (GHZ):      1.3728108      0.7053848      0.5457568
 Standard basis: 6-31G(d) (6D, 7F)
 There are   208 symmetry adapted basis functions of A   symmetry.
 Integral buffers will be    131072 words long.
 Raffenetti 2 integral format.
 Two-electron integral symmetry is turned on.
   208 basis functions,   392 primitive gaussians,   208 cartesian basis functions
    46 alpha electrons       46 beta electrons
       nuclear repulsion energy       755.9443039729 Hartrees.
 NAtoms=   26 NActive=   26 NUniq=   26 SFac= 1.00D+00 NAtFMM=   60 NAOKFM=F Big=F
 One-electron integrals computed using PRISM.
 NBasis=   208 RedAO= T  NBF=   208
 NBsUse=   208 1.00D-06 NBFU=   208
 Harris functional with IExCor=  402 diagonalized for initial guess.
 ExpMin= 1.61D-01 ExpMax= 5.48D+03 ExpMxC= 8.25D+02 IAcc=3 IRadAn=         5 AccDes= 0.00D+00
 HarFok:  IExCor=  402 AccDes= 0.00D+00 IRadAn=         5 IDoV= 1
 ScaDFX=  1.000000  1.000000  1.000000  1.000000
 FoFCou: FMM=F IPFlag=           0 FMFlag=      100000 FMFlg1=           0
         NFxFlg=           0 DoJE=T BraDBF=F KetDBF=T FulRan=T
         Omega=  0.000000  0.000000  1.000000  0.000000  0.000000 ICntrl=     500 IOpCl=  0
         NMat0=    1 NMatS0=    1 NMatT0=    0 NMatD0=    1 NMtDS0=    0 NMtDT0=    0
         I1Cent=           4 NGrid=           0.
 Petite list used in FoFCou.
 Initial guess orbital symmetries:
       Occupied  (A) (A) (A) (A) (A) (A) (A) (A) (A) (A) (A) (A)
                 (A) (A) (A) (A) (A) (A) (A) (A) (A) (A) (A) (A)
                 (A) (A) (A) (A) (A) (A) (A) (A) (A) (A) (A) (A)
                 (A) (A) (A) (A) (A) (A) (A) (A) (A) (A)
       Virtual   (A) (A) (A) (A) (A) (A) (A) (A) (A) (A) (A) (A)
                 (A) (A) (A) (A) (A) (A) (A) (A) (A) (A) (A) (A)
                 (A) (A) (A) (A) (A) (A) (A) (A) (A) (A) (A) (A)
                 (A) (A) (A) (A) (A) (A) (A) (A) (A) (A) (A) (A)
                 (A) (A) (A) (A) (A) (A) (A) (A) (A) (A) (A) (A)
                 (A) (A) (A) (A) (A) (A) (A) (A) (A) (A) (A) (A)
                 (A) (A) (A) (A) (A) (A) (A) (A) (A) (A) (A) (A)
                 (A) (A) (A) (A) (A) (A) (A) (A) (A) (A) (A) (A)
                 (A) (A) (A) (A) (A) (A) (A) (A) (A) (A) (A) (A)
                 (A) (A) (A) (A) (A) (A) (A) (A) (A) (A) (A) (A)
                 (A) (A) (A) (A) (A) (A) (A) (A) (A) (A) (A) (A)
                 (A) (A) (A) (A) (A) (A) (A) (A) (A) (A) (A) (A)
                 (A) (A) (A) (A) (A) (A) (A) (A) (A) (A) (A) (A)
                 (A) (A) (A) (A) (A) (A)
 The electronic state of the initial guess is 1-A.
 Requested convergence on RMS density matrix=1.00D-08 within 128 cycles.
 Requested convergence on MAX density matrix=1.00D-06.
 Requested convergence on             energy=1.00D-06.
 No special actions if energy rises.
 Integral accuracy reduced to 1.0D-05 until final iterations.
 Initial convergence to 1.0D-05 achieved.  Increase integral accuracy.
 SCF Done:  E(RB3LYP) =  -573.258229255     A.U. after   14 cycles
             Convg  =    0.5221D-08             -V/T =  2.0094
 Calling FoFJK, ICntrl=      2127 FMM=F ISym2X=0 I1Cent= 0 IOpClX= 0 NMat=1 NMatS=1 NMatT=0.
 ***** Axes restored to original set *****
 -------------------------------------------------------------------
 Center     Atomic                   Forces (Hartrees/Bohr)
 Number     Number              X              Y              Z
 -------------------------------------------------------------------
      1        6          -0.009561339    0.011548806   -0.004815725
      2        6           0.003551575    0.016043803    0.000236200
      3        6          -0.003442355   -0.001856012   -0.007295269
      4        6           0.006150179   -0.007436181   -0.002655490
      5        6          -0.004339708   -0.005153953    0.008819466
      6        6          -0.004511043    0.009968021    0.006525536
      7        6          -0.001401048   -0.001850676    0.003641876
      8        6          -0.002716246   -0.000588076    0.000266507
      9        7           0.004715261    0.009697323   -0.002931505
     10        7           0.008229536   -0.017980243    0.010530390
     11        8           0.016273113   -0.000295334    0.001145840
     12        8           0.002809096   -0.005901607   -0.006820602
     13        1           0.000044284   -0.000415844    0.001033330
     14        1          -0.000434424   -0.000679123   -0.000020417
     15        1           0.001208805    0.001580293   -0.000261503
     16        1           0.000743591    0.002241885    0.001674869
     17        1          -0.000249536   -0.002308710   -0.000354014
     18        1          -0.000689818   -0.007356145   -0.001276898
     19        1          -0.001318871    0.000564649    0.000791129
     20        1          -0.002445910   -0.004607415   -0.000753414
     21        1          -0.001195762   -0.004273060   -0.000149897
     22        1           0.001590236    0.001473284   -0.002807126
     23        1          -0.002262924    0.003548928   -0.001773340
     24        1          -0.001230455    0.000747459   -0.000584404
     25        1          -0.002481263    0.003498490   -0.003001453
     26        1          -0.007034973   -0.000210564    0.000835913
 -------------------------------------------------------------------
 Cartesian Forces:  Max     0.017980243 RMS     0.005335654

 GradGradGradGradGradGradGradGradGradGradGradGradGradGradGradGradGradGrad
 Berny optimization.
 Internal  Forces:  Max     0.016228631 RMS     0.003664989
 Search for a local minimum.
 Step number   1 out of a maximum of  149
 All quantities printed in internal units (Hartrees-Bohrs-Radians)
 Mixed Optimization -- RFO/linear search
 Second derivative matrix not updated -- first step.
 ITU=  0
     Eigenvalues ---    0.00230   0.00596   0.00680   0.00733   0.00912
     Eigenvalues ---    0.01131   0.01147   0.01229   0.01476   0.01963
     Eigenvalues ---    0.02040   0.02711   0.03126   0.04619   0.04871
     Eigenvalues ---    0.05261   0.05460   0.05856   0.06161   0.06443
     Eigenvalues ---    0.06709   0.06848   0.06950   0.07325   0.07478
     Eigenvalues ---    0.07810   0.07837   0.08588   0.09368   0.10738
     Eigenvalues ---    0.13736   0.15998   0.16000   0.16000   0.16000
     Eigenvalues ---    0.16000   0.16000   0.16000   0.19215   0.21253
     Eigenvalues ---    0.22001   0.24902   0.24985   0.25000   0.25000
     Eigenvalues ---    0.25000   0.27545   0.28087   0.28447   0.29301
     Eigenvalues ---    0.31702   0.34027   0.34061   0.34126   0.34203
     Eigenvalues ---    0.34365   0.34368   0.34413   0.34415   0.34436
     Eigenvalues ---    0.34442   0.34454   0.34460   0.34559   0.34922
     Eigenvalues ---    0.36146   0.39429   0.44772   0.49192   0.50281
     Eigenvalues ---    0.89883   0.89956
 RFO step:  Lambda=-7.63041446D-03 EMin= 2.30000000D-03
 Linear search not attempted -- first point.
 Iteration  1 RMS(Cart)=  0.08810274 RMS(Int)=  0.00355409
 Iteration  2 RMS(Cart)=  0.00465461 RMS(Int)=  0.00019091
 Iteration  3 RMS(Cart)=  0.00001384 RMS(Int)=  0.00019069
 Iteration  4 RMS(Cart)=  0.00000000 RMS(Int)=  0.00019069
 Variable       Old X    -DE/DX   Delta X   Delta X   Delta X     New X
                                 (Linear)    (Quad)   (Total)
    R1        2.91948  -0.00064   0.00000  -0.00221  -0.00221   2.91727
    R2        2.60689  -0.01468   0.00000  -0.02939  -0.02939   2.57751
    R3        2.32953  -0.01623   0.00000  -0.01789  -0.01789   2.31164
    R4        2.84693   0.00803   0.00000   0.02473   0.02473   2.87166
    R5        2.59583  -0.00667   0.00000  -0.01307  -0.01307   2.58276
    R6        2.32987  -0.00741   0.00000  -0.00817  -0.00817   2.32170
    R7        2.88526   0.00897   0.00000   0.02855   0.02840   2.91366
    R8        2.87532   0.00634   0.00000   0.02001   0.02015   2.89547
    R9        2.07227  -0.00082   0.00000  -0.00236  -0.00236   2.06990
   R10        2.06639   0.00042   0.00000   0.00119   0.00119   2.06758
   R11        2.88907   0.00815   0.00000   0.02562   0.02551   2.91458
   R12        2.07284   0.00027   0.00000   0.00079   0.00079   2.07363
   R13        2.06718  -0.00032   0.00000  -0.00092  -0.00092   2.06626
   R14        2.75351   0.01006   0.00000   0.02767   0.02781   2.78132
   R15        2.06635   0.00090   0.00000   0.00256   0.00256   2.06891
   R16        2.06989   0.00369   0.00000   0.01055   0.01055   2.08045
   R17        2.76773  -0.00668   0.00000  -0.01702  -0.01704   2.75070
   R18        2.07119  -0.00016   0.00000  -0.00047  -0.00047   2.07071
   R19        2.06560   0.00242   0.00000   0.00688   0.00688   2.07248
   R20        2.06571   0.00200   0.00000   0.00567   0.00567   2.07138
   R21        2.06714  -0.00233   0.00000  -0.00664  -0.00664   2.06050
   R22        2.72337   0.01167   0.00000   0.02903   0.02903   2.75240
   R23        2.06600   0.00118   0.00000   0.00336   0.00336   2.06935
   R24        2.06398  -0.00024   0.00000  -0.00067  -0.00067   2.06331
   R25        2.06590   0.00150   0.00000   0.00425   0.00425   2.07015
   R26        1.92242  -0.00682   0.00000  -0.01498  -0.01498   1.90743
    A1        1.99077   0.00196   0.00000   0.00742   0.00736   1.99813
    A2        2.15942  -0.00189   0.00000  -0.00751  -0.00757   2.15185
    A3        2.13242  -0.00009   0.00000  -0.00055  -0.00061   2.13181
    A4        2.03449  -0.00095   0.00000  -0.00365  -0.00373   2.03076
    A5        2.11762   0.00715   0.00000   0.02780   0.02770   2.14532
    A6        2.13107  -0.00620   0.00000  -0.02405  -0.02413   2.10694
    A7        1.80338   0.00082   0.00000   0.00005  -0.00010   1.80328
    A8        1.91692  -0.00059   0.00000   0.00115   0.00120   1.91813
    A9        1.97096   0.00080   0.00000   0.00769   0.00771   1.97867
   A10        1.92073  -0.00007   0.00000  -0.00483  -0.00482   1.91591
   A11        1.96470  -0.00110   0.00000  -0.00417  -0.00409   1.96060
   A12        1.88637   0.00015   0.00000  -0.00006  -0.00012   1.88625
   A13        1.79913  -0.00069   0.00000  -0.00357  -0.00380   1.79533
   A14        1.90794   0.00141   0.00000   0.02247   0.02233   1.93028
   A15        1.95657   0.00152   0.00000   0.01229   0.01230   1.96887
   A16        1.91643   0.00076   0.00000   0.00309   0.00304   1.91947
   A17        1.99145  -0.00223   0.00000  -0.02556  -0.02544   1.96602
   A18        1.89025  -0.00060   0.00000  -0.00641  -0.00675   1.88350
   A19        1.82852  -0.00672   0.00000  -0.02709  -0.02690   1.80162
   A20        1.96759   0.00121   0.00000  -0.00734  -0.00748   1.96011
   A21        1.94368  -0.00031   0.00000  -0.00960  -0.00924   1.93444
   A22        1.93593   0.00281   0.00000   0.01210   0.01168   1.94761
   A23        1.88300   0.00565   0.00000   0.05651   0.05638   1.93938
   A24        1.90273  -0.00239   0.00000  -0.02074  -0.02143   1.88130
   A25        1.93310   0.00237   0.00000   0.01511   0.01502   1.94812
   A26        1.94778  -0.00105   0.00000  -0.01505  -0.01501   1.93277
   A27        1.89602  -0.00066   0.00000   0.00418   0.00364   1.89966
   A28        1.81450  -0.00234   0.00000  -0.01984  -0.01994   1.79456
   A29        1.95450   0.00145   0.00000   0.02388   0.02354   1.97804
   A30        1.91775   0.00020   0.00000  -0.00926  -0.00895   1.90880
   A31        1.92508   0.00475   0.00000   0.02823   0.02824   1.95332
   A32        1.91883   0.00362   0.00000   0.01958   0.01957   1.93840
   A33        1.91079  -0.00475   0.00000  -0.02625  -0.02610   1.88469
   A34        1.91931  -0.00517   0.00000  -0.03483  -0.03497   1.88433
   A35        1.89325   0.00083   0.00000   0.00896   0.00912   1.90237
   A36        1.89614   0.00060   0.00000   0.00368   0.00381   1.89995
   A37        1.90802   0.00509   0.00000   0.03059   0.03023   1.93824
   A38        1.89888   0.00013   0.00000  -0.00026  -0.00033   1.89855
   A39        1.90432   0.00621   0.00000   0.03786   0.03747   1.94180
   A40        1.92135  -0.00293   0.00000  -0.01910  -0.01914   1.90221
   A41        1.90981  -0.00510   0.00000  -0.02831  -0.02896   1.88086
   A42        1.92128  -0.00321   0.00000  -0.01966  -0.01975   1.90153
   A43        2.21081   0.00234   0.00000   0.00897   0.00897   2.21977
   A44        2.12686  -0.01030   0.00000  -0.04023  -0.04028   2.08658
   A45        1.94365   0.00798   0.00000   0.03255   0.03239   1.97603
   A46        2.13224  -0.00293   0.00000  -0.01297  -0.01305   2.11919
   A47        2.07810   0.00045   0.00000   0.00026   0.00018   2.07828
   A48        2.07266   0.00247   0.00000   0.01229   0.01221   2.08486
    D1       -1.39502  -0.00265   0.00000  -0.12773  -0.12784  -1.52286
    D2        2.87553  -0.00058   0.00000  -0.10343  -0.10330   2.77223
    D3        0.75852   0.00027   0.00000  -0.08509  -0.08517   0.67335
    D4        1.71083  -0.00297   0.00000  -0.14765  -0.14772   1.56311
    D5       -0.30181  -0.00090   0.00000  -0.12335  -0.12318  -0.42499
    D6       -2.41882  -0.00004   0.00000  -0.10501  -0.10505  -2.52387
    D7        3.12888  -0.00060   0.00000  -0.02308  -0.02315   3.10572
    D8       -0.03363  -0.00112   0.00000  -0.04687  -0.04685  -0.08047
    D9        0.02241  -0.00025   0.00000  -0.00334  -0.00336   0.01905
   D10       -3.14010  -0.00077   0.00000  -0.02713  -0.02705   3.11604
   D11        1.00473  -0.00094   0.00000  -0.02338  -0.02341   0.98133
   D12       -1.11471   0.00006   0.00000  -0.01108  -0.01134  -1.12605
   D13        3.08674   0.00004   0.00000  -0.01139  -0.01156   3.07518
   D14       -2.14132  -0.00047   0.00000   0.00057   0.00085  -2.14048
   D15        2.02242   0.00052   0.00000   0.01287   0.01291   2.03534
   D16       -0.05932   0.00050   0.00000   0.01256   0.01269  -0.04662
   D17       -0.05193  -0.00015   0.00000   0.00100   0.00058  -0.05135
   D18       -3.12200  -0.00070   0.00000  -0.02485  -0.02490   3.13628
   D19        3.09416  -0.00065   0.00000  -0.02330  -0.02324   3.07092
   D20        0.02410  -0.00120   0.00000  -0.04914  -0.04873  -0.02463
   D21       -0.64226  -0.00177   0.00000  -0.02600  -0.02594  -0.66819
   D22        1.39534  -0.00063   0.00000  -0.01446  -0.01451   1.38083
   D23       -2.79168   0.00054   0.00000   0.00048   0.00061  -2.79108
   D24        1.40649  -0.00169   0.00000  -0.03103  -0.03102   1.37547
   D25       -2.83910  -0.00055   0.00000  -0.01949  -0.01959  -2.85869
   D26       -0.74294   0.00062   0.00000  -0.00455  -0.00448  -0.74741
   D27       -2.76981  -0.00139   0.00000  -0.02514  -0.02510  -2.79491
   D28       -0.73222  -0.00025   0.00000  -0.01360  -0.01366  -0.74588
   D29        1.36395   0.00092   0.00000   0.00134   0.00145   1.36540
   D30        0.50262   0.00015   0.00000   0.00512   0.00515   0.50777
   D31        2.60957  -0.00009   0.00000  -0.00166  -0.00165   2.60791
   D32       -1.52845  -0.00255   0.00000  -0.04148  -0.04144  -1.56989
   D33       -1.54345   0.00044   0.00000   0.00596   0.00599  -1.53745
   D34        0.56350   0.00020   0.00000  -0.00082  -0.00081   0.56269
   D35        2.70867  -0.00227   0.00000  -0.04065  -0.04060   2.66807
   D36        2.63438   0.00104   0.00000   0.01220   0.01220   2.64658
   D37       -1.54186   0.00081   0.00000   0.00542   0.00540  -1.53647
   D38        0.60331  -0.00166   0.00000  -0.03440  -0.03439   0.56891
   D39       -1.55466   0.00180   0.00000   0.04621   0.04618  -1.50847
   D40        0.53963   0.00040   0.00000   0.02452   0.02431   0.56395
   D41        2.60909  -0.00004   0.00000   0.01371   0.01329   2.62238
   D42        2.69696   0.00019   0.00000   0.02087   0.02109   2.71805
   D43       -1.49193  -0.00121   0.00000  -0.00082  -0.00078  -1.49272
   D44        0.57753  -0.00164   0.00000  -0.01163  -0.01181   0.56572
   D45        0.57139   0.00197   0.00000   0.04480   0.04495   0.61634
   D46        2.66569   0.00057   0.00000   0.02311   0.02308   2.68876
   D47       -1.54804   0.00013   0.00000   0.01230   0.01205  -1.53599
   D48        3.03839   0.00002   0.00000  -0.01064  -0.01099   3.02741
   D49       -0.16842  -0.00010   0.00000   0.01046   0.01066  -0.15777
   D50        0.91061   0.00115   0.00000   0.00819   0.00813   0.91874
   D51       -2.29621   0.00103   0.00000   0.02929   0.02978  -2.26643
   D52       -1.17225  -0.00108   0.00000  -0.00861  -0.00929  -1.18154
   D53        1.90412  -0.00120   0.00000   0.01249   0.01236   1.91648
   D54       -1.35443   0.00083   0.00000  -0.00247  -0.00260  -1.35703
   D55        1.84875   0.00044   0.00000  -0.02435  -0.02428   1.82447
   D56        2.84443  -0.00006   0.00000  -0.00099  -0.00141   2.84303
   D57       -0.23557  -0.00045   0.00000  -0.02287  -0.02309  -0.25866
   D58        0.74991  -0.00055   0.00000  -0.01329  -0.01352   0.73639
   D59       -2.33009  -0.00094   0.00000  -0.03516  -0.03520  -2.36530
   D60       -1.00306  -0.00060   0.00000  -0.01538  -0.01565  -1.01871
   D61        2.15938  -0.00005   0.00000   0.00848   0.00827   2.16765
   D62       -3.10181  -0.00016   0.00000  -0.01029  -0.01031  -3.11211
   D63        0.06063   0.00038   0.00000   0.01356   0.01361   0.07425
   D64        1.08492  -0.00003   0.00000  -0.00879  -0.00860   1.07632
   D65       -2.03582   0.00051   0.00000   0.01507   0.01532  -2.02051
         Item               Value     Threshold  Converged?
 Maximum Force            0.016229     0.000450     NO 
 RMS     Force            0.003665     0.000300     NO 
 Maximum Displacement     0.346830     0.001800     NO 
 RMS     Displacement     0.088648     0.001200     NO 
 Predicted change in Energy=-4.333223D-03
 GradGradGradGradGradGradGradGradGradGradGradGradGradGradGradGradGradGrad

                          Input orientation:                          
 ---------------------------------------------------------------------
 Center     Atomic      Atomic             Coordinates (Angstroms)
 Number     Number       Type             X           Y           Z
 ---------------------------------------------------------------------
      1          6           0        0.048854   -1.171169   -0.964578
      2          6           0       -0.413046   -2.619901    1.795939
      3          6           0        0.478751   -4.288708   -1.377589
      4          6           0        1.566144   -3.211230   -1.193494
      5          6           0       -0.128536   -4.420278    0.022976
      6          6           0        0.903337   -2.217653   -0.217649
      7          6           0       -1.288352   -3.577609    2.587057
      8          6           0        0.089630    0.992723   -2.134631
      9          7           0        0.063257   -3.080119    0.600400
     10          7           0        0.738134   -0.068822   -1.377015
     11          8           0       -1.135440   -1.333207   -1.224536
     12          8           0       -0.118709   -1.497045    2.198423
     13          1           0       -0.283032   -3.933448   -2.079912
     14          1           0        0.869063   -5.239584   -1.752533
     15          1           0        2.464556   -3.643790   -0.735395
     16          1           0        1.861727   -2.742003   -2.135843
     17          1           0       -1.187087   -4.698073   -0.007507
     18          1           0        0.403121   -5.184939    0.610061
     19          1           0        1.621539   -1.695188    0.424176
     20          1           0       -0.779793   -4.529058    2.784251
     21          1           0       -2.218414   -3.796393    2.049833
     22          1           0       -1.533637   -3.102611    3.537381
     23          1           0       -0.344774    0.605147   -3.062115
     24          1           0        0.833227    1.753241   -2.381255
     25          1           0       -0.716538    1.457638   -1.556691
     26          1           0        1.708688    0.028385   -1.117396
 ---------------------------------------------------------------------
                    Distance matrix (angstroms):
                    1          2          3          4          5
     1  C    0.000000
     2  C    3.151608   0.000000
     3  C    3.174026   3.694793   0.000000
     4  C    2.552729   3.633672   1.541841   0.000000
     5  C    3.400507   2.542774   1.532218   2.411129   0.000000
     6  C    1.543753   2.439099   2.411432   1.542330   2.444222
     7  C    4.493682   1.519615   4.398491   4.751310   2.937647
     8  C    2.460308   5.362193   5.349583   4.554015   5.831248
     9  N    2.468493   1.366740   2.354944   2.343911   1.471811
    10  N    1.363957   4.230940   4.227850   3.254844   4.652554
    11  O    1.223269   3.361652   3.371057   3.290363   3.478528
    12  O    3.184156   1.228590   4.575828   4.157194   3.643894
    13  H    2.997383   4.094451   1.095345   2.174118   2.164027
    14  H    4.224407   4.593277   1.094117   2.216453   2.195199
    15  H    3.464390   3.966937   2.184435   1.097318   2.811083
    16  H    2.669436   4.544052   2.209043   1.093418   3.382049
    17  H    3.857796   2.858383   2.195386   3.346274   1.094819
    18  H    4.326124   2.941404   2.181674   2.915641   1.100924
    19  H    2.162538   2.622282   3.358372   2.217726   3.263409
    20  H    5.100568   2.180858   4.354608   4.802348   2.839120
    21  H    4.595539   2.169781   4.389111   5.018413   2.977410
    22  H    5.148046   2.126347   5.441825   5.656998   4.007692
    23  H    2.776671   5.831490   5.240767   4.659194   5.900801
    24  H    3.342811   6.174667   6.134993   5.156929   6.694599
    25  H    2.801258   5.287586   5.872077   5.209691   6.114818
    26  H    2.053615   4.472438   4.496414   3.243642   4.946357
                    6          7          8          9         10
     6  C    0.000000
     7  C    3.810426   0.000000
     8  C    3.826677   6.714246   0.000000
     9  N    1.455605   2.453802   4.906030   0.000000
    10  N    2.447222   5.668517   1.456509   3.665179   0.000000
    11  O    2.439811   4.425942   2.781909   2.796242   2.265435
    12  O    2.720525   2.418232   5.001771   2.256749   3.944332
    13  H    2.796328   4.787263   4.940549   2.834107   4.058593
    14  H    3.389559   5.123343   6.292468   3.293768   5.186032
    15  H    2.177000   5.012722   5.394014   2.805051   4.021517
    16  H    2.207470   5.738206   4.133824   3.291784   2.997361
    17  H    3.250618   2.827977   6.208045   2.133233   5.197306
    18  H    3.120914   3.058284   6.767209   2.132104   5.498669
    19  H    1.095775   4.085220   4.014860   2.092208   2.582587
    20  H    4.145711   1.096710   7.445895   2.753064   6.286011
    21  H    4.168840   1.096126   6.765533   2.796413   5.863382
    22  H    4.563139   1.090369   7.181816   3.343117   6.206134
    23  H    4.197257   7.092173   1.095055   5.211688   2.113406
    24  H    4.522622   7.589675   1.091855   5.731011   2.082656
    25  H    4.233769   6.546092   1.095476   5.084522   2.116232
    26  H    2.550063   5.975651   2.141510   3.914214   1.009369
                   11         12         13         14         15
    11  O    0.000000
    12  O    3.574526   0.000000
    13  H    2.866971   4.926177   0.000000
    14  H    4.422284   5.531035   1.772143   0.000000
    15  H    4.305580   4.459715   3.072600   2.475222   0.000000
    16  H    3.434850   4.925232   2.454111   2.714814   1.771405
    17  H    3.578569   4.031643   2.386804   2.750656   3.869862
    18  H    4.535280   4.049169   3.045159   2.408722   2.904291
    19  H    3.232679   2.493126   3.861043   4.226940   2.419159
    20  H    5.139098   3.158058   4.925607   4.879137   4.867998
    21  H    4.238115   3.117346   4.562815   5.106203   5.450779
    22  H    5.095607   2.524415   5.814489   6.190542   5.876652
    23  H    2.785509   5.669530   4.644069   6.111406   5.599948
    24  H    3.839245   5.695962   5.803040   7.021123   5.873502
    25  H    2.841588   4.815437   5.433737   6.885148   6.067821
    26  H    3.155071   4.081786   4.537566   5.372138   3.768571
                   16         17         18         19         20
    16  H    0.000000
    17  H    4.201344   0.000000
    18  H    3.954170   1.774033   0.000000
    19  H    2.776185   4.134253   3.701008   0.000000
    20  H    5.863319   2.826369   2.560579   4.400815   0.000000
    21  H    5.939627   2.471702   3.297492   4.669375   1.773639
    22  H    6.621480   3.902797   4.081216   4.650594   1.780516
    23  H    4.114613   6.177724   6.897052   4.616508   7.792900
    24  H    4.617927   7.164901   7.567781   4.514813   8.291656
    25  H    4.961840   6.365074   7.076178   4.396675   7.395154
    26  H    2.955622   5.653032   5.645119   2.314032   6.495050
                   21         22         23         24         25
    21  H    0.000000
    22  H    1.778497   0.000000
    23  H    7.001150   7.662520   0.000000
    24  H    7.729521   8.013213   1.780274   0.000000
    25  H    6.547327   6.885716   1.769534   1.780185   0.000000
    26  H    6.331067   6.479410   2.886397   2.310606   2.849117
                   26
    26  H    0.000000
 Stoichiometry    C8H14N2O2
 Framework group  C1[X(C8H14N2O2)]
 Deg. of freedom    72
 Full point group                 C1      NOp   1
 Largest Abelian subgroup         C1      NOp   1
 Largest concise Abelian subgroup C1      NOp   1
                         Standard orientation:                         
 ---------------------------------------------------------------------
 Center     Atomic      Atomic             Coordinates (Angstroms)
 Number     Number       Type             X           Y           Z
 ---------------------------------------------------------------------
      1          6           0        1.305764   -0.134957    0.184289
      2          6           0       -1.646504   -1.164285   -0.212226
      3          6           0       -0.659656    2.351984    0.347662
      4          6           0        0.185160    1.905846   -0.862512
      5          6           0       -1.769807    1.297832    0.411051
      6          6           0        0.176078    0.368448   -0.739599
      7          6           0       -3.009185   -1.365506    0.429523
      8          6           0        3.677947   -0.778539    0.292289
      9          7           0       -1.128406    0.099044   -0.152634
     10          7           0        2.498023   -0.345676   -0.443800
     11          8           0        1.171908   -0.278484    1.391711
     12          8           0       -1.034961   -2.067364   -0.777822
     13          1           0       -0.055440    2.309153    1.260280
     14          1           0       -1.055486    3.367300    0.249970
     15          1           0       -0.294740    2.209724   -1.801373
     16          1           0        1.195753    2.323136   -0.850876
     17          1           0       -2.120043    1.124175    1.433698
     18          1           0       -2.636796    1.605342   -0.193765
     19          1           0        0.253195   -0.144584   -1.704779
     20          1           0       -3.762137   -0.685355    0.013313
     21          1           0       -2.963549   -1.197831    1.511786
     22          1           0       -3.319580   -2.394355    0.245048
     23          1           0        3.932014   -0.064912    1.083068
     24          1           0        4.517414   -0.853373   -0.401860
     25          1           0        3.516839   -1.754873    0.762273
     26          1           0        2.550891   -0.235275   -1.445720
 ---------------------------------------------------------------------
 Rotational constants (GHZ):      1.3453864      0.7224382      0.5568720
 Standard basis: 6-31G(d) (6D, 7F)
 There are   208 symmetry adapted basis functions of A   symmetry.
 Integral buffers will be    131072 words long.
 Raffenetti 2 integral format.
 Two-electron integral symmetry is turned on.
   208 basis functions,   392 primitive gaussians,   208 cartesian basis functions
    46 alpha electrons       46 beta electrons
       nuclear repulsion energy       757.7878375814 Hartrees.
 NAtoms=   26 NActive=   26 NUniq=   26 SFac= 1.00D+00 NAtFMM=   60 NAOKFM=F Big=F
 One-electron integrals computed using PRISM.
 NBasis=   208 RedAO= T  NBF=   208
 NBsUse=   208 1.00D-06 NBFU=   208
 Initial guess read from the read-write file.
 B after Tr=     0.000000    0.000000    0.000000
         Rot=    1.000000    0.000000    0.000000    0.000000 Ang=   0.00 deg.
 Initial guess orbital symmetries:
       Occupied  (A) (A) (A) (A) (A) (A) (A) (A) (A) (A) (A) (A)
                 (A) (A) (A) (A) (A) (A) (A) (A) (A) (A) (A) (A)
                 (A) (A) (A) (A) (A) (A) (A) (A) (A) (A) (A) (A)
                 (A) (A) (A) (A) (A) (A) (A) (A) (A) (A)
       Virtual   (A) (A) (A) (A) (A) (A) (A) (A) (A) (A) (A) (A)
                 (A) (A) (A) (A) (A) (A) (A) (A) (A) (A) (A) (A)
                 (A) (A) (A) (A) (A) (A) (A) (A) (A) (A) (A) (A)
                 (A) (A) (A) (A) (A) (A) (A) (A) (A) (A) (A) (A)
                 (A) (A) (A) (A) (A) (A) (A) (A) (A) (A) (A) (A)
                 (A) (A) (A) (A) (A) (A) (A) (A) (A) (A) (A) (A)
                 (A) (A) (A) (A) (A) (A) (A) (A) (A) (A) (A) (A)
                 (A) (A) (A) (A) (A) (A) (A) (A) (A) (A) (A) (A)
                 (A) (A) (A) (A) (A) (A) (A) (A) (A) (A) (A) (A)
                 (A) (A) (A) (A) (A) (A) (A) (A) (A) (A) (A) (A)
                 (A) (A) (A) (A) (A) (A) (A) (A) (A) (A) (A) (A)
                 (A) (A) (A) (A) (A) (A) (A) (A) (A) (A) (A) (A)
                 (A) (A) (A) (A) (A) (A) (A) (A) (A) (A) (A) (A)
                 (A) (A) (A) (A) (A) (A)
 Harris functional with IExCor=  402 diagonalized for initial guess.
 ExpMin= 1.61D-01 ExpMax= 5.48D+03 ExpMxC= 8.25D+02 IAcc=3 IRadAn=         5 AccDes= 0.00D+00
 HarFok:  IExCor=  402 AccDes= 0.00D+00 IRadAn=         5 IDoV= 1
 ScaDFX=  1.000000  1.000000  1.000000  1.000000
 FoFCou: FMM=F IPFlag=           0 FMFlag=      100000 FMFlg1=           0
         NFxFlg=           0 DoJE=T BraDBF=F KetDBF=T FulRan=T
         Omega=  0.000000  0.000000  1.000000  0.000000  0.000000 ICntrl=     500 IOpCl=  0
         NMat0=    1 NMatS0=    1 NMatT0=    0 NMatD0=    1 NMtDS0=    0 NMtDT0=    0
         I1Cent=           4 NGrid=           0.
 Petite list used in FoFCou.
 Requested convergence on RMS density matrix=1.00D-08 within 128 cycles.
 Requested convergence on MAX density matrix=1.00D-06.
 Requested convergence on             energy=1.00D-06.
 No special actions if energy rises.
 Integral accuracy reduced to 1.0D-05 until final iterations.
 Initial convergence to 1.0D-05 achieved.  Increase integral accuracy.
 SCF Done:  E(RB3LYP) =  -573.262044946     A.U. after   13 cycles
             Convg  =    0.8935D-08             -V/T =  2.0094
 Calling FoFJK, ICntrl=      2127 FMM=F ISym2X=0 I1Cent= 0 IOpClX= 0 NMat=1 NMatS=1 NMatT=0.
 ***** Axes restored to original set *****
 -------------------------------------------------------------------
 Center     Atomic                   Forces (Hartrees/Bohr)
 Number     Number              X              Y              Z
 -------------------------------------------------------------------
      1        6           0.000992283    0.003621549   -0.002148736
      2        6           0.002749356    0.000082737   -0.000085194
      3        6           0.000847346    0.000597906   -0.002538348
      4        6          -0.000769980   -0.002099089   -0.002663009
      5        6          -0.000622301    0.001932695    0.001346769
      6        6          -0.000695852    0.000124340    0.000929734
      7        6          -0.000428725    0.001209205    0.001383614
      8        6           0.000751674   -0.000202498    0.000627329
      9        7           0.000113913   -0.004570140    0.000720144
     10        7          -0.000628999   -0.001347360   -0.000674934
     11        8          -0.001248644   -0.002264193    0.000105369
     12        8          -0.002359570    0.000284453    0.001035358
     13        1           0.000494016    0.000498830    0.000747638
     14        1           0.000570165    0.000109384    0.000140354
     15        1          -0.000597916    0.000503411    0.000388477
     16        1           0.000374993    0.000350971   -0.000305274
     17        1          -0.000125946    0.000678241    0.000046384
     18        1          -0.000258342    0.000980221    0.000806710
     19        1           0.000518400   -0.000859673   -0.000743249
     20        1          -0.000192603    0.000067951   -0.000789723
     21        1           0.000220365   -0.000398446   -0.000333653
     22        1          -0.000170290    0.000200593    0.000352331
     23        1           0.000290607   -0.000798764    0.000308534
     24        1           0.000421034    0.000243132   -0.000051674
     25        1           0.000261388   -0.000620095    0.000617784
     26        1          -0.000506372    0.001674635    0.000777264
 -------------------------------------------------------------------
 Cartesian Forces:  Max     0.004570140 RMS     0.001177999

 GradGradGradGradGradGradGradGradGradGradGradGradGradGradGradGradGradGrad
 Berny optimization.
 Using GEDIIS/GDIIS optimizer.
 Internal  Forces:  Max     0.003022638 RMS     0.000801697
 Search for a local minimum.
 Step number   2 out of a maximum of  149
 All quantities printed in internal units (Hartrees-Bohrs-Radians)
 Mixed Optimization -- En-DIIS/RFO-DIIS
 Update second derivatives using D2CorX and points    1    2
 DE= -3.82D-03 DEPred=-4.33D-03 R= 8.81D-01
 SS=  1.41D+00  RLast= 3.67D-01 DXNew= 5.0454D-01 1.1020D+00
 Trust test= 8.81D-01 RLast= 3.67D-01 DXMaxT set to 5.05D-01
 ITU=  1  0
 Use linear search instead of GDIIS.
     Eigenvalues ---    0.00229   0.00611   0.00680   0.00741   0.00924
     Eigenvalues ---    0.01115   0.01147   0.01228   0.01464   0.01945
     Eigenvalues ---    0.02068   0.02741   0.03107   0.04613   0.04825
     Eigenvalues ---    0.05257   0.05559   0.06008   0.06307   0.06466
     Eigenvalues ---    0.06732   0.06824   0.06972   0.07100   0.07477
     Eigenvalues ---    0.07509   0.07685   0.08361   0.09344   0.10651
     Eigenvalues ---    0.13538   0.15823   0.15995   0.16000   0.16000
     Eigenvalues ---    0.16000   0.16000   0.16507   0.19470   0.21278
     Eigenvalues ---    0.21930   0.24350   0.24971   0.24998   0.25000
     Eigenvalues ---    0.26044   0.27535   0.28088   0.28392   0.28980
     Eigenvalues ---    0.31684   0.34027   0.34046   0.34121   0.34221
     Eigenvalues ---    0.34361   0.34387   0.34412   0.34416   0.34437
     Eigenvalues ---    0.34445   0.34449   0.34475   0.34567   0.34878
     Eigenvalues ---    0.37165   0.40591   0.44691   0.48550   0.50713
     Eigenvalues ---    0.89796   0.90213
 RFO step:  Lambda=-1.76155031D-03 EMin= 2.28950886D-03
 Quartic linear search produced a step of -0.00134.
 Iteration  1 RMS(Cart)=  0.10824854 RMS(Int)=  0.00847782
 Iteration  2 RMS(Cart)=  0.01799688 RMS(Int)=  0.00016286
 Iteration  3 RMS(Cart)=  0.00026119 RMS(Int)=  0.00009232
 Iteration  4 RMS(Cart)=  0.00000006 RMS(Int)=  0.00009232
 Variable       Old X    -DE/DX   Delta X   Delta X   Delta X     New X
                                 (Linear)    (Quad)   (Total)
    R1        2.91727   0.00024   0.00000   0.00063   0.00063   2.91790
    R2        2.57751  -0.00104   0.00004  -0.00446  -0.00442   2.57309
    R3        2.31164   0.00149   0.00002   0.00011   0.00013   2.31178
    R4        2.87166  -0.00003  -0.00003   0.00195   0.00192   2.87357
    R5        2.58276   0.00192   0.00002   0.00258   0.00259   2.58536
    R6        2.32170   0.00003   0.00001  -0.00064  -0.00063   2.32107
    R7        2.91366  -0.00163  -0.00004  -0.00253  -0.00260   2.91106
    R8        2.89547   0.00261  -0.00003   0.01066   0.01063   2.90610
    R9        2.06990  -0.00066   0.00000  -0.00205  -0.00205   2.06785
   R10        2.06758   0.00006   0.00000   0.00027   0.00026   2.06785
   R11        2.91458   0.00097  -0.00003   0.00564   0.00562   2.92020
   R12        2.07363  -0.00053   0.00000  -0.00141  -0.00142   2.07221
   R13        2.06626   0.00052   0.00000   0.00136   0.00136   2.06762
   R14        2.78132  -0.00302  -0.00004  -0.00597  -0.00599   2.77533
   R15        2.06891  -0.00005   0.00000   0.00007   0.00006   2.06897
   R16        2.08045  -0.00038  -0.00001  -0.00018  -0.00019   2.08026
   R17        2.75070   0.00099   0.00002   0.00045   0.00049   2.75119
   R18        2.07071  -0.00051   0.00000  -0.00146  -0.00146   2.06926
   R19        2.07248  -0.00029  -0.00001  -0.00024  -0.00024   2.07224
   R20        2.07138   0.00006  -0.00001   0.00062   0.00062   2.07199
   R21        2.06050   0.00043   0.00001   0.00066   0.00066   2.06116
   R22        2.75240  -0.00255  -0.00004  -0.00380  -0.00384   2.74857
   R23        2.06935  -0.00009   0.00000   0.00002   0.00001   2.06937
   R24        2.06331   0.00047   0.00000   0.00124   0.00124   2.06455
   R25        2.07015  -0.00013  -0.00001  -0.00001  -0.00001   2.07014
   R26        1.90743  -0.00013   0.00002  -0.00151  -0.00149   1.90594
    A1        1.99813   0.00011  -0.00001   0.00127   0.00123   1.99936
    A2        2.15185  -0.00245   0.00001  -0.00980  -0.00982   2.14202
    A3        2.13181   0.00236   0.00000   0.00924   0.00922   2.14103
    A4        2.03076  -0.00007   0.00001  -0.00025  -0.00074   2.03001
    A5        2.14532  -0.00238  -0.00004  -0.00650  -0.00703   2.13830
    A6        2.10694   0.00246   0.00003   0.00776   0.00729   2.11423
    A7        1.80328   0.00007   0.00000   0.00186   0.00183   1.80511
    A8        1.91813  -0.00014   0.00000  -0.00572  -0.00573   1.91240
    A9        1.97867  -0.00040  -0.00001  -0.00132  -0.00132   1.97735
   A10        1.91591  -0.00031   0.00001  -0.00275  -0.00274   1.91316
   A11        1.96060   0.00039   0.00001   0.00242   0.00243   1.96304
   A12        1.88625   0.00035   0.00000   0.00496   0.00495   1.89120
   A13        1.79533  -0.00078   0.00001  -0.00354  -0.00354   1.79179
   A14        1.93028   0.00041  -0.00003   0.00304   0.00298   1.93326
   A15        1.96887   0.00036  -0.00002   0.00560   0.00558   1.97445
   A16        1.91947  -0.00048   0.00000  -0.00641  -0.00641   1.91306
   A17        1.96602   0.00052   0.00003  -0.00010  -0.00005   1.96596
   A18        1.88350  -0.00006   0.00001   0.00105   0.00103   1.88453
   A19        1.80162   0.00072   0.00004   0.00174   0.00179   1.80340
   A20        1.96011  -0.00011   0.00001  -0.00086  -0.00088   1.95923
   A21        1.93444   0.00057   0.00001   0.00748   0.00752   1.94197
   A22        1.94761  -0.00061  -0.00002  -0.00436  -0.00437   1.94324
   A23        1.93938  -0.00081  -0.00008  -0.00469  -0.00479   1.93459
   A24        1.88130   0.00023   0.00003   0.00065   0.00066   1.88196
   A25        1.94812  -0.00109  -0.00002  -0.00471  -0.00471   1.94341
   A26        1.93277  -0.00005   0.00002  -0.00146  -0.00146   1.93132
   A27        1.89966   0.00079   0.00000   0.00673   0.00673   1.90639
   A28        1.79456   0.00097   0.00003   0.00223   0.00227   1.79683
   A29        1.97804  -0.00013  -0.00003   0.00004  -0.00001   1.97803
   A30        1.90880  -0.00051   0.00001  -0.00335  -0.00334   1.90546
   A31        1.95332  -0.00047  -0.00004  -0.00131  -0.00136   1.95196
   A32        1.93840  -0.00020  -0.00003  -0.00060  -0.00064   1.93776
   A33        1.88469   0.00036   0.00004   0.00184   0.00187   1.88656
   A34        1.88433  -0.00026   0.00005  -0.00785  -0.00781   1.87652
   A35        1.90237   0.00039  -0.00001   0.00508   0.00506   1.90743
   A36        1.89995   0.00020  -0.00001   0.00318   0.00317   1.90311
   A37        1.93824  -0.00110  -0.00004  -0.00443  -0.00448   1.93376
   A38        1.89855   0.00028   0.00000   0.00231   0.00232   1.90087
   A39        1.94180  -0.00112  -0.00005  -0.00391  -0.00397   1.93783
   A40        1.90221   0.00054   0.00003   0.00232   0.00235   1.90456
   A41        1.88086   0.00091   0.00004   0.00164   0.00167   1.88252
   A42        1.90153   0.00055   0.00003   0.00227   0.00230   1.90383
   A43        2.21977   0.00039  -0.00001   0.00309   0.00292   2.22269
   A44        2.08658   0.00039   0.00005  -0.00104  -0.00116   2.08542
   A45        1.97603  -0.00076  -0.00004  -0.00085  -0.00101   1.97503
   A46        2.11919  -0.00039   0.00002  -0.00309  -0.00329   2.11590
   A47        2.07828   0.00122   0.00000   0.00643   0.00620   2.08448
   A48        2.08486  -0.00085  -0.00002  -0.00481  -0.00504   2.07983
    D1       -1.52286  -0.00071   0.00017  -0.22797  -0.22774  -1.75060
    D2        2.77223  -0.00122   0.00014  -0.22705  -0.22689   2.54534
    D3        0.67335  -0.00106   0.00011  -0.22630  -0.22616   0.44719
    D4        1.56311  -0.00045   0.00020  -0.21333  -0.21315   1.34996
    D5       -0.42499  -0.00097   0.00017  -0.21241  -0.21229  -0.63729
    D6       -2.52387  -0.00081   0.00014  -0.21166  -0.21156  -2.73544
    D7        3.10572  -0.00013   0.00003   0.00157   0.00172   3.10745
    D8       -0.08047  -0.00079   0.00006  -0.03722  -0.03718  -0.11765
    D9        0.01905  -0.00021   0.00000  -0.01221  -0.01219   0.00686
   D10        3.11604  -0.00087   0.00004  -0.05100  -0.05109   3.06495
   D11        0.98133   0.00001   0.00003   0.01981   0.01974   1.00107
   D12       -1.12605   0.00080   0.00002   0.03116   0.03107  -1.09498
   D13        3.07518   0.00044   0.00002   0.02649   0.02640   3.10158
   D14       -2.14048  -0.00088   0.00000  -0.03850  -0.03839  -2.17887
   D15        2.03534  -0.00009  -0.00002  -0.02715  -0.02706   2.00827
   D16       -0.04662  -0.00045  -0.00002  -0.03182  -0.03173  -0.07835
   D17       -0.05135   0.00027   0.00000   0.00419   0.00405  -0.04730
   D18        3.13628  -0.00028   0.00003  -0.03040  -0.03052   3.10576
   D19        3.07092   0.00108   0.00003   0.06095   0.06115   3.13207
   D20       -0.02463   0.00053   0.00007   0.02637   0.02658   0.00194
   D21       -0.66819   0.00074   0.00003   0.00448   0.00452  -0.66367
   D22        1.38083  -0.00005   0.00002  -0.00350  -0.00348   1.37735
   D23       -2.79108   0.00042   0.00000   0.00390   0.00390  -2.78717
   D24        1.37547   0.00036   0.00004  -0.00029  -0.00025   1.37522
   D25       -2.85869  -0.00043   0.00003  -0.00828  -0.00826  -2.86695
   D26       -0.74741   0.00004   0.00001  -0.00088  -0.00087  -0.74829
   D27       -2.79491   0.00044   0.00003   0.00104   0.00108  -2.79383
   D28       -0.74588  -0.00035   0.00002  -0.00694  -0.00693  -0.75281
   D29        1.36540   0.00012   0.00000   0.00045   0.00046   1.36585
   D30        0.50777   0.00012  -0.00001  -0.00975  -0.00977   0.49800
   D31        2.60791  -0.00023   0.00000  -0.01434  -0.01435   2.59356
   D32       -1.56989   0.00038   0.00006  -0.00884  -0.00880  -1.57869
   D33       -1.53745   0.00037  -0.00001  -0.00288  -0.00289  -1.54034
   D34        0.56269   0.00003   0.00000  -0.00747  -0.00747   0.55521
   D35        2.66807   0.00064   0.00005  -0.00197  -0.00192   2.66615
   D36        2.64658  -0.00011  -0.00002  -0.00885  -0.00887   2.63771
   D37       -1.53647  -0.00046  -0.00001  -0.01344  -0.01345  -1.54992
   D38        0.56891   0.00016   0.00005  -0.00794  -0.00790   0.56102
   D39       -1.50847  -0.00002  -0.00006   0.00917   0.00910  -1.49937
   D40        0.56395  -0.00004  -0.00003   0.00649   0.00645   0.57040
   D41        2.62238  -0.00012  -0.00002   0.00387   0.00385   2.62623
   D42        2.71805   0.00014  -0.00003   0.01042   0.01039   2.72844
   D43       -1.49272   0.00011   0.00000   0.00774   0.00774  -1.48498
   D44        0.56572   0.00003   0.00002   0.00512   0.00513   0.57085
   D45        0.61634   0.00020  -0.00006   0.01362   0.01356   0.62990
   D46        2.68876   0.00017  -0.00003   0.01095   0.01091   2.69967
   D47       -1.53599   0.00009  -0.00002   0.00833   0.00831  -1.52768
   D48        3.02741  -0.00034   0.00001  -0.01649  -0.01652   3.01088
   D49       -0.15777   0.00020  -0.00001   0.01623   0.01620  -0.14157
   D50        0.91874  -0.00032  -0.00001  -0.01429  -0.01433   0.90441
   D51       -2.26643   0.00022  -0.00004   0.01843   0.01839  -2.24804
   D52       -1.18154   0.00035   0.00001  -0.00895  -0.00898  -1.19052
   D53        1.91648   0.00089  -0.00002   0.02377   0.02374   1.94022
   D54       -1.35703  -0.00017   0.00000   0.01114   0.01110  -1.34593
   D55        1.82447  -0.00067   0.00003  -0.01894  -0.01889   1.80558
   D56        2.84303   0.00058   0.00000   0.01609   0.01602   2.85905
   D57       -0.25866   0.00008   0.00003  -0.01399  -0.01397  -0.27263
   D58        0.73639   0.00044   0.00002   0.01641   0.01639   0.75277
   D59       -2.36530  -0.00006   0.00005  -0.01367  -0.01361  -2.37890
   D60       -1.01871  -0.00012   0.00002  -0.01643  -0.01636  -1.03507
   D61        2.16765   0.00049  -0.00001   0.02222   0.02215   2.18980
   D62       -3.11211  -0.00029   0.00001  -0.01805  -0.01799  -3.13010
   D63        0.07425   0.00032  -0.00002   0.02060   0.02053   0.09478
   D64        1.07632  -0.00046   0.00001  -0.01995  -0.01988   1.05644
   D65       -2.02051   0.00015  -0.00002   0.01870   0.01864  -2.00187
         Item               Value     Threshold  Converged?
 Maximum Force            0.003023     0.000450     NO 
 RMS     Force            0.000802     0.000300     NO 
 Maximum Displacement     0.548905     0.001800     NO 
 RMS     Displacement     0.122532     0.001200     NO 
 Predicted change in Energy=-1.156065D-03
 GradGradGradGradGradGradGradGradGradGradGradGradGradGradGradGradGradGrad

                          Input orientation:                          
 ---------------------------------------------------------------------
 Center     Atomic      Atomic             Coordinates (Angstroms)
 Number     Number       Type             X           Y           Z
 ---------------------------------------------------------------------
      1          6           0        0.086576   -1.234288   -1.058261
      2          6           0       -0.359659   -2.571089    1.752845
      3          6           0        0.465126   -4.356772   -1.380770
      4          6           0        1.575514   -3.297704   -1.244948
      5          6           0       -0.131833   -4.431737    0.034495
      6          6           0        0.941786   -2.263343   -0.287633
      7          6           0       -1.267644   -3.474818    2.572084
      8          6           0        0.043387    1.020532   -2.026348
      9          7           0        0.103776   -3.085866    0.573030
     10          7           0        0.700801   -0.039035   -1.277595
     11          8           0       -1.034572   -1.487347   -1.477246
     12          8           0       -0.082639   -1.425410    2.098240
     13          1           0       -0.296080   -4.001916   -2.082231
     14          1           0        0.832190   -5.326019   -1.731800
     15          1           0        2.469982   -3.729547   -0.780298
     16          1           0        1.870837   -2.859374   -2.202962
     17          1           0       -1.199341   -4.674582    0.021936
     18          1           0        0.379736   -5.192538    0.643832
     19          1           0        1.677195   -1.733305    0.326587
     20          1           0       -0.781979   -4.426931    2.817237
     21          1           0       -2.189692   -3.705781    2.025559
     22          1           0       -1.522415   -2.952209    3.494930
     23          1           0       -0.206848    0.684112   -3.037964
     24          1           0        0.716455    1.878674   -2.090787
     25          1           0       -0.885850    1.330262   -1.535796
     26          1           0        1.597862    0.142339   -0.853779
 ---------------------------------------------------------------------
                    Distance matrix (angstroms):
                    1          2          3          4          5
     1  C    0.000000
     2  C    3.144595   0.000000
     3  C    3.161838   3.699794   0.000000
     4  C    2.551367   3.641377   1.540465   0.000000
     5  C    3.386075   2.542960   1.537841   2.416204   0.000000
     6  C    1.544087   2.439676   2.409273   1.545304   2.440975
     7  C    4.475857   1.520630   4.405155   4.762841   2.940259
     8  C    2.454235   5.229196   5.432313   4.648135   5.831382
     9  N    2.467741   1.368112   2.358625   2.348602   1.468640
    10  N    1.361620   4.088941   4.325395   3.374183   4.659474
    11  O    1.223339   3.473254   3.239136   3.184949   3.430705
    12  O    3.166806   1.228258   4.582187   4.175148   3.646844
    13  H    2.975685   4.093790   1.094260   2.167906   2.166160
    14  H    4.213296   4.599228   1.094257   2.214411   2.202017
    15  H    3.461822   3.970606   2.184817   1.096568   2.815387
    16  H    2.671111   4.550454   2.212289   1.094139   3.389577
    17  H    3.828319   2.850578   2.199781   3.346731   1.094853
    18  H    4.318658   2.940852   2.191988   2.930490   1.100824
    19  H    2.167231   2.623904   3.356599   2.219775   3.261815
    20  H    5.095767   2.180696   4.379892   4.830556   2.857685
    21  H    4.560660   2.170465   4.367485   5.003950   2.954002
    22  H    5.125588   2.128876   5.449363   5.673003   4.012148
    23  H    2.772287   5.794094   5.348677   4.716627   5.968043
    24  H    3.339669   5.977618   6.280770   5.314914   6.712504
    25  H    2.783984   5.129579   5.847351   5.249854   6.019551
    26  H    2.054483   4.241353   4.669347   3.462283   4.970217
                    6          7          8          9         10
     6  C    0.000000
     7  C    3.811462   0.000000
     8  C    3.822837   6.562969   0.000000
     9  N    1.455866   2.455259   4.860341   0.000000
    10  N    2.446557   5.522627   1.454478   3.614475   0.000000
    11  O    2.433791   4.516796   2.784414   2.838086   2.269138
    12  O    2.728364   2.414299   4.796952   2.262329   3.732570
    13  H    2.788463   4.783766   5.034217   2.837154   4.164809
    14  H    3.387863   5.134167   6.402162   3.295621   5.308085
    15  H    2.174364   5.027246   5.477614   2.800848   4.122765
    16  H    2.210627   5.747165   4.292369   3.298474   3.190549
    17  H    3.239495   2.819105   6.178524   2.127402   5.175675
    18  H    3.124695   3.063100   6.770911   2.125849   5.509407
    19  H    1.095004   4.092336   3.973569   2.089450   2.529287
    20  H    4.158449   1.096581   7.335966   2.760341   6.182226
    21  H    4.151824   1.096452   6.613821   2.784624   5.719336
    22  H    4.566684   1.090721   6.979894   3.346619   6.017164
    23  H    4.191797   7.063613   1.095062   5.229579   2.108475
    24  H    4.523101   7.371492   1.092512   5.667271   2.083059
    25  H    4.220445   6.333186   1.095470   4.992864   2.111658
    26  H    2.557002   5.747303   2.136009   3.832673   1.008581
                   11         12         13         14         15
    11  O    0.000000
    12  O    3.700556   0.000000
    13  H    2.689690   4.915310   0.000000
    14  H    4.276097   5.542641   1.774555   0.000000
    15  H    4.218424   4.484519   3.069252   2.477184   0.000000
    16  H    3.294013   4.936868   2.452653   2.717557   1.772047
    17  H    3.526069   4.014372   2.386604   2.761717   3.873061
    18  H    4.497520   4.064523   3.050529   2.422016   2.921920
    19  H    3.266189   2.516063   3.852637   4.225942   2.416338
    20  H    5.210330   3.164674   4.941813   4.909953   4.899373
    21  H    4.304114   3.105648   4.532924   5.086717   5.439298
    22  H    5.206375   2.520875   5.806074   6.204663   5.900937
    23  H    2.799321   5.553927   4.783329   6.237574   5.634080
[...]
 205443,0.01201875,0.00628366,0.00632645,-0.00303859,0.00175034,0.00060
 571,-0.18394081,-0.07357491,-0.10597192,0.00016651,-0.00007750,0.00012
 390,0.00020799,0.00047475,-0.00001736,-0.02164994,-0.01437433,-0.00120
 330,0.00130855,0.00054972,0.00088398,-0.00067375,0.00235348,-0.0015685
 1,0.00268884,0.00379201,0.00000068,0.00010699,0.00010930,-0.00001967,0
 .00071041,0.00045031,-0.00017252,0.00103086,-0.00066569,-0.00005876,-0
 .00012999,-0.00019170,0.00013224,-0.00029297,-0.00109132,-0.00030974,-
 0.00002606,0.00002761,0.00003116,0.20130440,0.01668828,0.01276190,0.01
 221928,0.00022464,-0.00096026,-0.00192882,0.00081816,-0.00352120,-0.00
 146908,-0.01643640,-0.00912037,-0.01114134,-0.00160952,-0.00027559,-0.
 00064557,-0.07179962,-0.09028640,-0.05805602,-0.00022611,0.00002923,0.
 00010151,-0.00033049,0.00004398,-0.00031360,-0.01190574,-0.00697905,-0
 .00230009,-0.00070444,-0.00167757,-0.00044160,-0.00037344,-0.00355724,
 0.00352334,0.00091513,0.00028205,-0.00038398,-0.00010737,-0.00005189,-
 0.00007909,-0.00098417,-0.00058408,-0.00015617,-0.00042385,0.00083049,
 0.00053778,0.00021135,-0.00047512,-0.00054356,-0.00030716,-0.00070763,
 -0.00001812,-0.00000279,-0.00014023,0.00007421,0.08529208,0.10500393,-
 0.01442617,-0.01087899,-0.01150039,0.00188430,0.00246745,0.00273899,0.
 00187703,-0.00171478,-0.00129527,-0.01109934,-0.00479496,-0.00585152,0
 .00255924,0.00004580,-0.00134716,-0.11519891,-0.06274069,-0.13491897,-
 0.00071136,0.00057487,-0.00022553,0.00031503,0.00049488,-0.00009426,0.
 02096323,0.01145275,0.01013368,0.00143944,0.00072747,0.00112761,-0.000
 16175,0.00427053,-0.00299617,-0.00075859,-0.00166302,-0.00094764,0.000
 23098,0.00025875,0.00007197,-0.00070230,-0.00027779,0.00015367,0.00047
 110,0.00054282,0.00116295,0.00007526,-0.00018462,-0.00035775,0.0002699
 7,0.00083444,0.00022534,0.00006990,0.00012239,0.00000743,0.11338399,0.
 06058094,0.14376390,0.00005839,0.00015193,-0.00013154,0.01170567,-0.02
 078880,0.00417722,-0.00007234,-0.00008421,-0.00001994,0.00002356,-0.00
 004584,0.00006135,0.00014086,-0.00020250,0.00111208,-0.00063993,0.0001
 4242,-0.00028633,-0.08122713,0.08791725,-0.02387026,-0.00003186,0.0000
 2338,0.00000596,-0.00005868,0.00106495,-0.00036918,0.00006902,-0.00005
 440,0.00000428,-0.00000833,-0.00003187,0.00002221,-0.00493354,-0.00178
 240,0.00093953,0.00000522,0.00001664,0.00003054,0.00001339,0.00000872,
 0.00000701,-0.00002613,0.00001824,-0.00000015,-0.00002432,0.00000570,-
 0.00000557,-0.00037884,0.00041962,-0.00019892,0.00020732,0.00025833,0.
 00011889,-0.00002169,-0.00000593,0.00013011,0.08804984,0.00000370,-0.0
 0001444,-0.00025579,0.00506732,-0.01426956,0.00133808,-0.00018427,0.00
 026188,-0.00013364,-0.00000459,-0.00009670,0.00003720,0.00052511,0.000
 59343,-0.00100384,-0.00025722,0.00002240,0.00007647,0.09097465,-0.2566
 1136,0.06292862,-0.00000803,0.00005595,0.00001101,-0.00069636,-0.00036
 084,-0.00059502,-0.00000038,-0.00001843,0.00014300,0.00001982,0.000050
 07,0.00016865,-0.00316639,-0.00022389,0.00253672,0.00004078,-0.0000504
 0,-0.00009272,0.00001173,0.00001374,0.00004187,-0.00002717,0.00003141,
 0.00000592,-0.00000207,0.00004111,0.00001190,0.00007335,-0.00005109,0.
 00015314,0.00002266,0.00035631,0.00011651,0.00003640,0.00002717,0.0000
 7239,-0.09691863,0.27846070,-0.00008411,0.00000379,0.00035424,-0.01267
 213,0.01726248,-0.00320166,0.00023805,-0.00037214,-0.00002372,0.000029
 46,0.00014275,0.00010090,-0.00021873,0.00181715,-0.00097317,0.00061434
 ,-0.00016677,0.00020769,-0.02499505,0.06327214,-0.06893648,0.00001604,
 -0.00003965,-0.00000264,0.00143526,-0.00144049,-0.00087277,0.00002263,
 -0.00001884,-0.00011044,0.00000119,-0.00007812,-0.00020110,0.00280180,
 0.00080457,-0.00051013,-0.00010686,0.00000136,0.00015576,-0.00001248,-
 0.00002054,-0.00003886,0.00000975,-0.00003200,-0.00001060,-0.00005246,
 -0.00006805,-0.00002403,-0.00022306,-0.00009650,-0.00012843,0.00060227
 ,-0.00107229,-0.00024050,0.00002089,-0.00005515,-0.00013311,0.02687752
 ,-0.06923459,0.06836438,-0.00021531,-0.00019377,-0.00029913,-0.0162158
 0,-0.00244877,-0.01155627,0.00032761,0.00021496,0.00027956,0.00009610,
 -0.00004812,-0.00032459,-0.00079737,-0.00025499,-0.00080963,0.00033332
 ,-0.00045479,0.00040734,-0.25785899,-0.03621001,-0.10195198,-0.0000857
 1,0.00010681,0.00002098,0.00105978,-0.00069878,0.00168136,0.00004353,-
 0.00001571,0.00027766,0.00009377,0.00011216,0.00032918,-0.00042834,-0.
 00150702,0.00317645,-0.00002139,-0.00002600,0.00000091,0.00003338,0.00
 000799,-0.00002639,0.00002022,0.00001312,0.00001720,0.00009206,0.00003
 008,0.00002278,0.00053362,0.00046696,0.00070720,-0.00010101,0.00012414
 ,-0.00009381,0.00007231,0.00003682,-0.00010549,-0.01050113,-0.00195303
 ,-0.00515458,0.27744960,-0.00017648,0.00000754,-0.00006485,-0.01481062
 ,-0.00388699,-0.00910437,-0.00002071,-0.00008693,-0.00008560,0.0000648
 5,0.00001936,-0.00001051,0.00067377,0.00083327,0.00003334,0.00022400,-
 0.00024530,0.00019113,-0.03834827,-0.05002601,-0.02024784,-0.00011861,
 0.00010035,0.00001802,0.00076815,-0.00054889,-0.00034461,0.00015169,-0
 .00012405,0.00022083,0.00006885,-0.00001183,0.00012776,-0.00051642,-0.
 00303041,0.00379431,-0.00001918,-0.00000962,0.00003821,0.00001425,0.00
 000924,0.00000436,-0.00001210,-0.00000050,-0.00000419,-0.00001571,-0.0
 0002455,-0.00000507,-0.00019004,0.00013457,-0.00041477,0.00012511,0.00
 003144,0.00032685,0.00004881,-0.00006041,-0.00010117,0.02777371,0.0057
 5547,0.01294702,0.04183249,0.05327557,0.00023320,0.00016765,0.00013848
 ,0.02014572,0.00030610,0.01357851,0.00001548,-0.00008305,0.00002328,-0
 .00009936,0.00003064,0.00008583,0.00167348,0.00037851,-0.00035421,-0.0
 0052583,0.00062976,-0.00034281,-0.09938016,-0.01881359,-0.09774278,0.0
 0003875,-0.00006630,0.00000035,-0.00113563,-0.00062743,-0.00182505,-0.
 00003941,-0.00000636,-0.00023464,-0.00009166,-0.00006325,-0.00022985,-
 0.00020714,0.00316104,-0.00204033,-0.00000749,0.00000467,0.00001432,0.
 00000180,-0.00001477,-0.00001257,-0.00000372,-0.00001019,-0.00000110,-
 0.00001995,0.00001630,0.00002237,-0.00016148,-0.00045748,-0.00039573,-
 0.00036776,-0.00017850,-0.00004604,-0.00001899,-0.00001739,0.00006986,
 -0.00753046,-0.00207845,-0.00431168,0.11165222,0.01940615,0.10321360,-
 0.00033559,0.00033143,0.00003132,-0.00385016,0.01498242,0.01938228,0.0
 0024768,-0.00000659,0.00010966,-0.00013182,-0.00014982,0.00007733,-0.0
 0073855,-0.00056132,-0.00060563,0.00059695,0.00038846,0.00079424,-0.05
 268436,0.01858233,0.02493180,0.00003008,-0.00001993,-0.00004523,-0.002
 48537,-0.00341659,0.00253233,0.00000806,-0.00009659,-0.00013758,0.0001
 1182,-0.00009965,0.00006539,0.00102816,0.00088860,-0.00256648,-0.00003
 859,0.00000024,0.00004053,0.00001925,0.00000807,-0.00000866,-0.0000043
 7,0.00002266,0.00000819,-0.00001245,0.00009018,0.00004260,0.00034384,0
 .00012975,0.00020215,0.00006667,-0.00017459,-0.00011131,0.00002230,0.0
 0001246,-0.00006201,-0.00224798,0.00650406,0.01081784,0.00607086,-0.01
 748050,-0.02415905,0.05393040,-0.00007209,0.00017400,-0.00005354,-0.00
 195351,0.00958688,0.01590034,-0.00011246,0.00026773,0.00004591,-0.0001
 6037,-0.00018910,0.00010030,0.00012713,-0.00091575,-0.00028183,-0.0001
 8941,0.00066616,0.00052336,0.02144134,-0.14127611,-0.13335624,-0.00000
 095,-0.00001520,-0.00001602,-0.00292859,-0.00198909,0.00167572,0.00001
 555,-0.00004335,-0.00006118,0.00004383,-0.00002435,0.00001569,0.000826
 67,0.00079993,-0.00012600,0.00005460,-0.00000425,-0.00008314,0.0000000
 7,-0.00000221,0.00002254,-0.00000352,0.00001770,0.00000804,0.00000027,
 0.00010690,0.00005322,0.00020629,-0.00008712,0.00005450,-0.00025933,0.
 00036210,-0.00011031,0.00000347,0.00002608,-0.00000868,0.00208373,-0.0
 1408622,-0.02346645,0.00068939,-0.00226649,-0.00158519,-0.01981902,0.1
 4891191,0.00024529,-0.00049911,-0.00002560,0.00091739,-0.01550866,-0.0
 1989879,0.00011269,-0.00000782,0.00023176,0.00024645,0.00018734,-0.000
 37749,-0.00019578,0.00084571,0.00008378,-0.00032843,-0.00090848,-0.000
 17578,0.02790689,-0.12791505,-0.23379550,0.00003219,-0.00001162,0.0000
 7822,0.00358774,0.00314675,-0.00170626,-0.00007184,0.00019603,0.000129
 37,-0.00008825,0.00017787,-0.00000824,-0.00220048,0.00013496,0.0037864
 2,-0.00001985,0.00000060,0.00001932,0.00000888,-0.00001871,-0.00003653
 ,0.00001906,-0.00002017,0.00000308,0.00008618,-0.00011236,-0.00004083,
 0.00007982,0.00009521,0.00011265,0.00009079,-0.00015415,0.00007760,0.0
 0008497,0.00005196,-0.00003399,-0.00095585,0.00600382,0.01036918,0.002
 07405,-0.00639358,-0.00989075,-0.03158508,0.14061241,0.25136798,0.0014
 3006,-0.00024774,-0.00205281,-0.00012151,-0.00041321,-0.00022652,0.000
 01088,0.00000426,0.00000504,0.00000329,0.00004194,-0.00000389,-0.00000
 512,-0.00002057,-0.00000158,0.00012182,0.00005665,-0.00000833,0.000044
 60,0.00003679,0.00002833,-0.05306025,0.00204099,0.01712500,-0.00007198
 ,0.00003814,0.00019272,-0.00076115,-0.00146422,-0.01944880,-0.00132983
 ,-0.00058544,0.00134815,0.00013695,0.00051721,-0.00040735,0.00002817,0
 .00001889,0.00000373,-0.00000242,-0.00000757,0.00000892,-0.00000441,-0
 .00001791,0.00000443,-0.00003379,0.00003812,0.00001131,-0.00000798,0.0
 0000015,0.00001311,-0.00000250,0.00000809,0.00000280,0.00007609,-0.000
 07421,0.00006802,0.00000493,0.00000410,-0.00000416,0.00001155,0.000016
 62,-0.00000440,-0.00000955,-0.00000029,0.00000239,0.05285601,0.0007529
 4,0.00182736,0.00556286,0.00022097,0.00101502,0.00067005,0.00000337,-0
 .00002855,0.00004050,0.00001536,-0.00007420,-0.00007460,0.00001926,0.0
 0000457,0.00001605,-0.00012088,0.00013399,-0.00026448,-0.00003876,-0.0
 0007082,-0.00005007,0.00150652,-0.06020804,-0.05922816,0.00009740,-0.0
 0005786,-0.00069670,0.00030510,0.00241530,0.03383952,-0.00071009,-0.00
 066433,-0.00338432,-0.00025651,-0.00106998,0.00061214,-0.00006106,-0.0
 0007247,-0.00002153,-0.00000198,0.00003053,-0.00002873,-0.00001189,0.0
 0005611,-0.00002641,0.00011981,-0.00009939,-0.00000128,0.00000927,-0.0
 0001135,-0.00000981,-0.00000743,-0.00000753,-0.00002247,-0.00014734,0.
 00018375,-0.00017150,-0.00000426,-0.00000891,0.00000762,-0.00001569,-0
 .00001099,0.00000473,0.00001553,0.00000322,-0.00002134,-0.00626539,0.0
 6452676,0.00026720,-0.00306915,-0.00349974,-0.00015225,-0.00054691,-0.
 00024338,-0.00000463,0.00001792,-0.00001256,0.00003805,-0.00002901,-0.
 00001382,-0.00005209,-0.00009218,-0.00004225,0.00002174,0.00008578,-0.
 00024468,0.00008938,0.00004010,0.00004036,0.01173890,-0.04751921,-0.31
 489219,-0.00007766,0.00015600,0.00016035,-0.00319319,0.00333732,-0.020
 38624,0.00142536,-0.00246821,0.00229001,0.00007585,0.00068612,-0.00047
 428,0.00000358,0.00000308,0.00001074,0.00000611,0.00000996,0.00001259,
 -0.00000719,-0.00000265,0.00002025,-0.00000876,0.00001260,0.00004210,0
 .00001387,0.00002196,0.00000074,0.00000817,0.00003129,0.00000485,0.000
 04075,0.00002501,0.00002425,0.00000294,0.00001102,-0.00000766,0.000026
 68,0.00002224,-0.00001918,-0.00000641,-0.00000518,0.00000633,-0.010776
 06,0.05081397,0.34456833,0.00024842,0.00174930,-0.00256541,-0.00004159
 ,0.00002475,0.00006645,-0.00003841,0.00000601,-0.00000307,-0.00012538,
 0.00007890,-0.00020498,-0.00003961,-0.00003621,-0.00001097,-0.00073588
 ,0.00020851,0.00054135,0.00000342,-0.00000710,-0.00001706,-0.12013394,
 -0.11465541,-0.02937749,0.00007145,-0.00013759,0.00009374,0.01015605,0
 .02040588,0.00501244,0.00016195,-0.00001179,0.00062829,-0.00001729,-0.
 00000160,-0.00002868,-0.00000253,-0.00000505,0.00000752,0.00001269,0.0
 0000696,0.00000174,-0.00001385,0.00009596,0.00004313,0.00001574,-0.000
 02139,0.00000768,0.00001805,0.00001764,-0.00000941,0.00000788,0.000005
 31,0.00000250,-0.00004690,0.00006090,-0.00006912,0.00000680,0.00000020
 ,0.00000069,0.00001081,0.00001721,-0.00000689,0.00000173,0.00000070,-0
 .00000448,0.00104845,0.00310390,0.00046485,0.12479565,-0.00241504,0.00
 102130,0.00650754,0.00005882,-0.00023421,-0.00061851,0.00005694,0.0000
 0201,-0.00002689,0.00020996,-0.00011075,0.00040262,0.00003449,0.000159
 61,0.00003812,0.00084110,-0.00028550,-0.00097587,-0.00004628,0.0000054
 9,0.00002005,-0.11036691,-0.22783423,-0.04825289,-0.00002721,0.0001275
 0,0.00024848,-0.00213065,-0.03145494,-0.00303307,-0.00030750,-0.000283
 17,-0.00160984,0.00007205,0.00017668,0.00041945,0.00002581,0.00006207,
 0.00001507,-0.00001769,-0.00004746,0.00000884,0.00003464,-0.00020047,-
 0.00005689,-0.00007763,0.00007684,-0.00002036,-0.00003196,-0.00001695,
 0.00000470,-0.00000109,-0.00004616,0.00001638,0.00001949,-0.00014520,0
 .00011382,-0.00000661,-0.00000960,0.00000528,-0.00000952,-0.00001484,0
 .00000593,-0.00000986,-0.00000330,0.00002448,-0.00223638,-0.00298408,-
 0.00136500,0.11643340,0.25813830,0.00038488,-0.00067795,-0.00568712,0.
 00005360,0.00035794,0.00033003,-0.00003659,-0.00001027,-0.00000496,-0.
 00012242,0.00006053,-0.00019741,0.00001342,-0.00001567,-0.00000376,-0.
 00109730,-0.00002341,0.00049635,-0.00001413,-0.00002625,-0.00001773,-0
 .02875801,-0.05124470,-0.06445698,0.00007565,-0.00021809,-0.00003585,0
 .00557165,0.02232905,0.00530160,0.00163815,-0.00104451,0.00248999,-0.0
 0009397,-0.00038246,-0.00005347,0.00001523,0.00000941,0.00000059,0.000
 01337,0.00000305,0.00000185,-0.00001140,0.00006899,0.00005339,0.000012
 91,-0.00004059,0.00002636,0.00000948,0.00000437,-0.00000709,0.00000082
 ,-0.00000174,0.,-0.00003944,0.00016442,-0.00009286,0.00000018,-0.00000
 528,0.00000154,-0.00000453,-0.00000071,0.00000263,0.00000609,0.0000063
 0,-0.00001365,-0.01811767,-0.02661881,-0.00268951,0.03361642,0.0484084
 1,0.06191988,-0.00060483,-0.00437555,-0.00386407,-0.00016241,0.0003268
 6,0.00054054,-0.00003751,0.00001495,0.00001581,0.00001710,0.00003117,-
 0.00014742,-0.00006129,-0.00008512,-0.00006997,0.00008902,0.00016710,0
 .00026200,0.00005170,-0.00000413,-0.00001474,-0.28171764,0.01662637,0.
 07220417,0.00005566,0.00013473,-0.00046254,-0.01007441,0.01454648,-0.0
 0210115,-0.00009756,0.00055227,0.00191472,0.00012217,-0.00016346,-0.00
 038273,-0.00003243,-0.00005338,-0.00000075,0.00002008,0.00004280,-0.00
 000935,-0.00001601,0.00009105,-0.00000113,0.00006277,-0.00006027,-0.00
 000611,0.00004252,0.00002958,-0.00001193,0.00001642,0.00004867,-0.0000
 0893,0.00008188,0.00003372,0.00005941,0.00001611,-0.00000003,-0.000004
 13,0.00002560,0.00004343,-0.00001200,0.00000283,0.00000858,-0.00003248
 ,0.00071628,-0.00069728,0.00075861,-0.01577015,-0.00017862,0.00630994,
 0.30758260,0.00290267,0.00364519,0.00539854,0.00016168,-0.00033880,-0.
 00036518,0.00003838,-0.00001677,-0.00000770,-0.00002630,-0.00005693,0.
 00019432,0.00006692,0.00006246,0.00008807,-0.00080364,-0.00065702,-0.0
 0033287,-0.00004665,0.00001173,0.00003069,0.01458752,-0.05094716,-0.00
 659271,-0.00010330,-0.00027983,0.00048507,0.03225567,-0.01407439,-0.00
 602444,-0.00056511,-0.00020009,-0.00231970,-0.00009269,0.00015841,0.00
 021157,0.00002864,0.00004284,-0.00000816,-0.00002607,-0.00004095,0.000
 00239,0.00002681,-0.00009877,-0.00000485,-0.00005153,0.00003225,-0.000
 00216,-0.00004359,-0.00004493,0.00001816,-0.00002514,-0.00005132,0.000
 00331,-0.00013081,0.00000227,-0.00010168,-0.00001485,-0.00000307,-0.00
 000005,-0.00002799,-0.00004325,0.00002098,-0.00000948,-0.00000418,0.00
 002026,0.00616388,-0.00050237,-0.00207343,-0.02655957,0.00378413,0.008
 90902,-0.02743816,0.05910115,-0.00099141,-0.00220904,-0.00404583,0.000
 03293,0.00065962,0.00046809,0.00001008,-0.00001148,0.00002548,0.000033
 68,0.00002701,-0.00007174,0.00001417,0.00001673,-0.00003602,0.00092849
 ,0.00041031,0.00011802,-0.00000320,-0.00002933,-0.00002459,0.07315083,
 -0.00813459,-0.07393668,0.00003725,0.00017277,-0.00059637,-0.02074219,
 0.00862791,0.00687946,-0.00038904,-0.00075463,0.00249225,0.00003471,-0
 .00058417,0.00002753,-0.00000977,-0.00002916,-0.00000568,0.00000336,0.
 00001638,-0.00000958,-0.00001884,0.00002847,0.00000294,0.00001338,-0.0
 0000118,0.00000296,0.00000166,-0.00000153,0.00000216,-0.00000043,0.000
 01642,-0.00000650,0.00006895,-0.00002769,0.00008842,0.00000480,-0.0000
 0704,0.00000247,-0.00000416,0.00001103,0.00000210,0.00000627,0.0000089
 2,-0.00002242,0.03204290,-0.00073135,-0.00605411,-0.00826225,0.0000625
 0,0.00267248,-0.07541737,0.00288548,0.07194722,-0.00472004,-0.00822459
 ,0.00782175,-0.00039582,-0.00244037,0.00132083,0.00012405,-0.00014847,
 -0.00005395,-0.00056102,-0.00017151,-0.00010621,-0.00021672,-0.0003387
 2,-0.00018149,0.00099151,0.00042800,0.00038725,0.00007632,-0.00059550,
 0.00016837,-0.00258399,-0.00303508,-0.01356987,-0.00069437,0.00051585,
 0.00062981,-0.02419662,0.02460304,-0.02450203,0.00717330,0.00505168,0.
 00120897,-0.00358437,0.00079640,-0.00048477,-0.00009711,-0.00013294,-0
 .00001700,-0.00008578,-0.00001701,-0.00000896,-0.00001069,0.00010153,0
 .00001523,0.00005699,-0.00006783,0.00000456,-0.00003392,-0.00004567,0.
 00004134,-0.00001454,0.00013129,0.00000978,-0.00127658,0.00099770,-0.0
 0050198,-0.00012920,-0.00006573,0.00004004,-0.00004907,-0.00011430,0.0
 0001072,0.00005817,-0.00000208,-0.00001228,-0.00107860,0.00216910,-0.0
 0070380,0.00040643,0.00007628,0.00057367,-0.00032849,-0.00026728,-0.00
 054480,0.03117016,-0.00901071,0.00891519,-0.03392328,-0.00277914,-0.01
 059106,-0.00115545,-0.00008605,0.00021903,-0.00011530,0.00012253,-0.00
 000319,0.00010798,-0.00057687,-0.00083957,-0.00029890,0.00088091,-0.00
 127074,-0.00125168,0.00089705,0.00060148,0.00037060,-0.00066485,0.0031
 3706,0.02575891,-0.00105141,0.00081477,0.00321272,0.02308900,-0.066099
 76,-0.00171891,0.00469944,-0.00749393,-0.00479557,0.00096171,0.0043530
 7,-0.00316156,0.00012018,0.00011995,0.00005353,0.00002304,0.00003967,0
 .00012818,-0.00002283,0.00000018,0.00007322,-0.00029566,0.00032040,0.0
 0009769,0.00008062,0.00015073,0.00005541,0.00004892,0.00031864,0.00006
 638,0.00066968,-0.00064863,0.00007856,0.00005569,0.00013489,-0.0001025
 3,0.00022928,0.00022426,-0.00013050,-0.00011225,-0.00001584,0.00007363
 ,0.00234710,-0.00432571,0.00189656,-0.00077982,0.00011693,-0.00001105,
 0.00035824,0.00051938,-0.00042236,-0.01920379,0.07130279,0.00187042,-0
 .00762705,-0.01414282,0.00318985,0.01583356,0.01045244,-0.00018850,-0.
 00018574,0.00028167,-0.00019491,0.00032957,-0.00098557,0.00083624,0.00
 080348,0.00016966,-0.00140650,-0.00036970,0.00328416,-0.00139490,-0.00
 142752,-0.00082307,-0.00065384,0.00197716,-0.00149760,0.00099478,-0.00
 409515,-0.00724850,-0.03041740,-0.00775708,-0.41884692,-0.00001428,0.0
 0181511,0.00554061,-0.00192820,-0.01259290,-0.00560459,-0.00006343,-0.
 00016178,-0.00009768,0.00009940,0.00003115,-0.00017221,-0.00011194,0.0
 0039323,0.00011123,0.00029013,-0.00036302,-0.00003624,-0.00004956,-0.0
 0020387,-0.00010354,-0.00005263,-0.00033139,-0.00010656,0.00022115,0.0
 0029883,0.00022654,-0.00012640,-0.00024998,0.00017084,-0.00034303,-0.0
 0036398,0.00029538,0.00023941,0.00012651,-0.00023987,0.00019470,-0.000
 21587,0.00139870,0.00007301,-0.00034235,-0.00003628,0.00048162,-0.0004
 3493,0.00007793,0.02845481,0.01511371,0.42793227\\0.00000038,0.0000000
 9,-0.00000015,-0.00000049,-0.00000003,0.,0.00000007,0.00000010,-0.0000
 0002,0.00000025,-0.00000013,0.00000019,-0.00000037,-0.00000032,-0.0000
 0030,-0.00000018,-0.00000029,0.00000068,-0.00000078,-0.00000014,-0.000
 00040,0.00000048,0.00000038,-0.00000006,0.00000010,0.00000029,-0.00000
 019,0.00000050,0.,0.00000032,0.00000073,0.00000014,0.00000025,-0.00000
 040,-0.00000015,0.00000005,0.00000035,0.00000019,-0.00000023,0.0000000
 4,0.00000004,-0.00000011,-0.00000006,-0.00000020,0.00000047,0.00000042
 ,-0.00000003,0.00000042,-0.00000023,0.00000018,-0.00000051,-0.00000050
 ,0.00000001,-0.00000018,-0.00000002,-0.00000019,0.00000047,-0.00000095
 ,-0.00000018,-0.00000033,-0.00000068,0.00000003,-0.00000064,-0.0000009
 1,-0.00000011,-0.00000039,0.00000091,0.00000014,0.00000024,0.00000074,
 -0.00000008,0.00000037,0.00000059,0.00000023,-0.00000011,0.00000001,0.
 00000003,0.00000017\\\@


 ALL MEN WHO EXPLORE
 DEPLORE
 THAT FRUSTRATING HURDLE
 THE GIRDLE.

         -- COLIN FLETCHER
 Job cpu time:  0 days  1 hours  9 minutes 43.9 seconds.
 File lengths (MBytes):  RWF=    148 Int=      0 D2E=      0 Chk=      5 Scr=      1
 Normal termination of Gaussian 09 at Sat Feb 17 22:22:38 2018.
