 Entering Gaussian System, Link 0=g09
 Initial command:
 /home/fb_chem/chemsoft/lx24-amd64/Gaussian_09_C.01_NBO_3.1_64_istanbul-64/g09/l1.exe /local/2400068.1.parallel_long/Gau-30636.inp -scrdir=/local/2400068.1.parallel_long/
 Entering Link 1 = /home/fb_chem/chemsoft/lx24-amd64/Gaussian_09_C.01_NBO_3.1_64_istanbul-64/g09/l1.exe PID=     30637.
  
 Copyright (c) 1988,1990,1992,1993,1995,1998,2003,2009,2011,
            Gaussian, Inc.  All Rights Reserved.
  
 This is part of the Gaussian(R) 09 program.  It is based on
 the Gaussian(R) 03 system (copyright 2003, Gaussian, Inc.),
 the Gaussian(R) 98 system (copyright 1998, Gaussian, Inc.),
 the Gaussian(R) 94 system (copyright 1995, Gaussian, Inc.),
 the Gaussian 92(TM) system (copyright 1992, Gaussian, Inc.),
 the Gaussian 90(TM) system (copyright 1990, Gaussian, Inc.),
 the Gaussian 88(TM) system (copyright 1988, Gaussian, Inc.),
 the Gaussian 86(TM) system (copyright 1986, Carnegie Mellon
 University), and the Gaussian 82(TM) system (copyright 1983,
 Carnegie Mellon University). Gaussian is a federally registered
 trademark of Gaussian, Inc.
  
 This software contains proprietary and confidential information,
 including trade secrets, belonging to Gaussian, Inc.
  
 This software is provided under written license and may be
 used, copied, transmitted, or stored only in accord with that
 written license.
  
 The following legend is applicable only to US Government
 contracts under FAR:
  
                    RESTRICTED RIGHTS LEGEND
  
 Use, reproduction and disclosure by the US Government is
 subject to restrictions as set forth in subparagraphs (a)
 and (c) of the Commercial Computer Software - Restricted
 Rights clause in FAR 52.227-19.
  
 Gaussian, Inc.
 340 Quinnipiac St., Bldg. 40, Wallingford CT 06492
  
  
 ---------------------------------------------------------------
 Warning -- This program may not be used in any manner that
 competes with the business of Gaussian, Inc. or will provide
 assistance to any competitor of Gaussian, Inc.  The licensee
 of this program is prohibited from giving any competitor of
 Gaussian, Inc. access to this program.  By using this program,
 the user acknowledges that Gaussian, Inc. is engaged in the
 business of creating and licensing software in the field of
 computational chemistry and represents and warrants to the
 licensee that it is not a competitor of Gaussian, Inc. and that
 it will not use this program in any manner prohibited above.
 ---------------------------------------------------------------
  

 Cite this work as:
 Gaussian 09, Revision C.01,
 M. J. Frisch, G. W. Trucks, H. B. Schlegel, G. E. Scuseria, 
 M. A. Robb, J. R. Cheeseman, G. Scalmani, V. Barone, B. Mennucci, 
 G. A. Petersson, H. Nakatsuji, M. Caricato, X. Li, H. P. Hratchian, 
 A. F. Izmaylov, J. Bloino, G. Zheng, J. L. Sonnenberg, M. Hada, 
 M. Ehara, K. Toyota, R. Fukuda, J. Hasegawa, M. Ishida, T. Nakajima, 
 Y. Honda, O. Kitao, H. Nakai, T. Vreven, J. A. Montgomery, Jr., 
 J. E. Peralta, F. Ogliaro, M. Bearpark, J. J. Heyd, E. Brothers, 
 K. N. Kudin, V. N. Staroverov, T. Keith, R. Kobayashi, J. Normand, 
 K. Raghavachari, A. Rendell, J. C. Burant, S. S. Iyengar, J. Tomasi, 
 M. Cossi, N. Rega, J. M. Millam, M. Klene, J. E. Knox, J. B. Cross, 
 V. Bakken, C. Adamo, J. Jaramillo, R. Gomperts, R. E. Stratmann, 
 O. Yazyev, A. J. Austin, R. Cammi, C. Pomelli, J. W. Ochterski, 
 R. L. Martin, K. Morokuma, V. G. Zakrzewski, G. A. Voth, 
 P. Salvador, J. J. Dannenberg, S. Dapprich, A. D. Daniels, 
 O. Farkas, J. B. Foresman, J. V. Ortiz, J. Cioslowski, 
 and D. J. Fox, Gaussian, Inc., Wallingford CT, 2010.
 
 ******************************************
 Gaussian 09:  AM64L-G09RevC.01 23-Sep-2011
                17-Feb-2018 
 ******************************************
 %nprocs=2
 Will use up to    2 processors via shared memory.
 %chk=frag39-conf1.chk
 ----------------------------------------------------------------------
 #HF/6-31G* Geom=AllCheck Guess=Read Pop=(MK,ReadRadii) Integral=(Grid=
 UltraFine) iop(6/33=2)
 ----------------------------------------------------------------------
 1/29=7,38=1/1;
 2/12=2,40=1/2;
 3/5=1,6=6,7=1,11=9,14=-4,16=1,25=1,30=1,75=-5,116=-2/1,2,3;
 4/5=1/1;
 5/5=2,38=6/2;
 6/7=2,8=2,9=2,10=2,15=8,20=101,28=1,33=2/1,2;
 99/5=1,9=1/99;
 Structure from the checkpoint file:  frag39-conf1.chk
 -----------------------------
 Optimization for frag39-conf1
 -----------------------------
 Charge =  0 Multiplicity = 1
 Redundant internal coordinates found in file.
 C,0,3.7479428169,0.6105463054,-3.2261796448
 C,0,3.819231991,-0.0277353747,-4.607194094
 C,0,1.1997402046,2.1894071856,0.402860383
 C,0,1.4447404033,1.4830712517,-0.9339488319
 C,0,2.5119591645,2.1920598267,-1.7793763182
 N,0,2.7639287101,1.5480483159,-3.061413378
 O,0,4.5299744697,0.306858547,-2.3333293825
 H,0,3.1069615037,0.3883629812,-5.3271448368
 H,0,4.833284952,0.0963930907,-4.9983881631
 H,0,3.6374889405,-1.102974766,-4.5102035586
 H,0,2.1167491756,2.2290073013,1.002813758
 H,0,0.8556570974,3.2205835932,0.25347628
 H,0,0.4385135225,1.6676938285,0.9928642576
 H,0,0.5063877844,1.4267049807,-1.5037094967
 H,0,1.7720215566,0.4506859541,-0.7613603618
 H,0,2.2200308222,3.2335922646,-1.9657118228
 H,0,3.4652666624,2.2016153163,-1.244222501
 H,0,2.0980531861,1.6879837876,-3.8075752805
 Recover connectivity data from disk.
                          Input orientation:                          
 ---------------------------------------------------------------------
 Center     Atomic      Atomic             Coordinates (Angstroms)
 Number     Number       Type             X           Y           Z
 ---------------------------------------------------------------------
      1          6           0        3.747943    0.610546   -3.226180
      2          6           0        3.819232   -0.027735   -4.607194
      3          6           0        1.199740    2.189407    0.402860
      4          6           0        1.444740    1.483071   -0.933949
      5          6           0        2.511959    2.192060   -1.779376
      6          7           0        2.763929    1.548048   -3.061413
      7          8           0        4.529974    0.306859   -2.333329
      8          1           0        3.106962    0.388363   -5.327145
      9          1           0        4.833285    0.096393   -4.998388
     10          1           0        3.637489   -1.102975   -4.510204
     11          1           0        2.116749    2.229007    1.002814
     12          1           0        0.855657    3.220584    0.253476
     13          1           0        0.438514    1.667694    0.992864
     14          1           0        0.506388    1.426705   -1.503709
     15          1           0        1.772022    0.450686   -0.761360
     16          1           0        2.220031    3.233592   -1.965712
     17          1           0        3.465267    2.201615   -1.244223
     18          1           0        2.098053    1.687984   -3.807575
 ---------------------------------------------------------------------
                    Distance matrix (angstroms):
                    1          2          3          4          5
     1  C    0.000000
     2  C    1.523052   0.000000
     3  C    4.707023   6.072734   0.000000
     4  C    3.364575   4.627470   1.531664   0.000000
     5  C    2.474284   3.825311   2.546386   1.535047   0.000000
     6  N    1.369066   2.446671   3.854766   2.504114   1.456660
     7  O    1.225145   2.405737   4.703316   3.586142   2.816600
     8  H    2.207777   1.094896   6.301921   4.823021   4.024178
     9  H    2.140805   1.093958   6.837897   5.470354   4.488030
    10  H    2.144078   1.094796   6.396921   4.928020   4.425097
    11  H    4.812961   6.282000   1.096548   2.181528   2.810363
    12  H    5.223564   6.554424   1.097285   2.185394   2.816680
    13  H    5.465365   6.757543   1.095333   2.181556   3.501350
    14  H    3.760412   4.766755   2.167363   1.099232   2.164273
    15  H    3.163093   4.382966   2.169347   1.096686   2.148545
    16  H    3.286893   4.491228   2.782346   2.174841   1.097603
    17  H    2.557256   4.050293   2.801007   2.166818   1.093287
    18  H    2.054514   2.558425   4.334300   2.954071   2.130493
                    6          7          8          9         10
     6  N    0.000000
     7  O    2.278064   0.000000
     8  H    2.568284   3.315802   0.000000
     9  H    3.184558   2.690508   1.781438   0.000000
    10  H    3.144841   2.742798   1.781275   1.762593   0.000000
    11  H    4.171389   4.544025   6.666098   6.924019   6.618770
    12  H    4.174610   5.355555   6.650803   7.291376   7.008879
    13  H    4.675365   5.445685   6.978525   7.594610   6.942176
    14  H    2.745479   4.258119   4.739177   5.718789   5.024150
    15  H    2.734653   3.177747   4.757346   5.239204   4.466280
    16  H    2.082653   3.746565   4.492350   5.086083   5.223929
    17  H    2.054558   2.431020   4.481799   4.516325   4.649366
    18  H    1.009817   3.161511   2.239643   3.381226   3.263893
                   11         12         13         14         15
    11  H    0.000000
    12  H    1.770617   0.000000
    13  H    1.769646   1.769794   0.000000
    14  H    3.085387   2.535289   2.509096   0.000000
    15  H    2.528552   3.089005   2.517272   1.762250   0.000000
    16  H    3.135602   2.605087   3.791967   2.532757   3.065248
    17  H    2.620767   3.176706   3.801429   3.069655   2.483141
    18  H    4.840754   4.514925   5.079242   2.812377   3.304032
                   16         17         18
    16  H    0.000000
    17  H    1.770914   0.000000
    18  H    2.407539   2.950232   0.000000
 Stoichiometry    C5H11NO
 Framework group  C1[X(C5H11NO)]
 Deg. of freedom    48
 Full point group                 C1      NOp   1
 Largest Abelian subgroup         C1      NOp   1
 Largest concise Abelian subgroup C1      NOp   1
                         Standard orientation:                         
 ---------------------------------------------------------------------
 Center     Atomic      Atomic             Coordinates (Angstroms)
 Number     Number       Type             X           Y           Z
 ---------------------------------------------------------------------
      1          6           0        1.507669    0.194053   -0.042119
      2          6           0        2.840660   -0.422733    0.360867
      3          6           0       -3.194910    0.217634    0.161024
      4          6           0       -1.779245   -0.227874    0.539720
      5          6           0       -0.839164   -0.271153   -0.673022
      6          7           0        0.514896   -0.697973   -0.347133
      7          8           0        1.348066    1.407501   -0.097368
      8          1           0        2.862412   -1.515627    0.298381
      9          1           0        3.624566   -0.014352   -0.283695
     10          1           0        3.074183   -0.121948    1.387304
     11          1           0       -3.188384    1.220857   -0.281602
     12          1           0       -3.647267   -0.464862   -0.569459
     13          1           0       -3.849491    0.245607    1.038804
     14          1           0       -1.813765   -1.220868    1.009913
     15          1           0       -1.352987    0.458251    1.281512
     16          1           0       -1.239816   -0.944744   -1.441453
     17          1           0       -0.752796    0.725922   -1.113088
     18          1           0        0.684486   -1.681993   -0.196556
 ---------------------------------------------------------------------
 Rotational constants (GHZ):      6.7055298      1.1882373      1.1081287
 Standard basis: 6-31G(d) (6D, 7F)
 There are   127 symmetry adapted basis functions of A   symmetry.
 Integral buffers will be    131072 words long.
 Raffenetti 1 integral format.
 Two-electron integral symmetry is turned on.
   127 basis functions,   240 primitive gaussians,   127 cartesian basis functions
    28 alpha electrons       28 beta electrons
       nuclear repulsion energy       308.0859744610 Hartrees.
 NAtoms=   18 NActive=   18 NUniq=   18 SFac= 1.00D+00 NAtFMM=   60 NAOKFM=F Big=F
 One-electron integrals computed using PRISM.
 NBasis=   127 RedAO= T  NBF=   127
 NBsUse=   127 1.00D-06 NBFU=   127
 Initial guess read from the checkpoint file:  frag39-conf1.chk
 B after Tr=     0.000000    0.000000    0.000000
         Rot=    1.000000    0.000000    0.000000    0.000000 Ang=   0.00 deg.
 Initial guess orbital symmetries:
       Occupied  (A) (A) (A) (A) (A) (A) (A) (A) (A) (A) (A) (A)
                 (A) (A) (A) (A) (A) (A) (A) (A) (A) (A) (A) (A)
                 (A) (A) (A) (A)
       Virtual   (A) (A) (A) (A) (A) (A) (A) (A) (A) (A) (A) (A)
                 (A) (A) (A) (A) (A) (A) (A) (A) (A) (A) (A) (A)
                 (A) (A) (A) (A) (A) (A) (A) (A) (A) (A) (A) (A)
                 (A) (A) (A) (A) (A) (A) (A) (A) (A) (A) (A) (A)
                 (A) (A) (A) (A) (A) (A) (A) (A) (A) (A) (A) (A)
                 (A) (A) (A) (A) (A) (A) (A) (A) (A) (A) (A) (A)
                 (A) (A) (A) (A) (A) (A) (A) (A) (A) (A) (A) (A)
                 (A) (A) (A) (A) (A) (A) (A) (A) (A) (A) (A) (A)
                 (A) (A) (A)
 Requested convergence on RMS density matrix=1.00D-08 within 128 cycles.
 Requested convergence on MAX density matrix=1.00D-06.
 Requested convergence on             energy=1.00D-06.
 No special actions if energy rises.
 SCF Done:  E(RHF) =  -325.076218489     A.U. after   13 cycles
             Convg  =    0.7095D-08             -V/T =  2.0024

 **********************************************************************

            Population analysis using the SCF density.

 **********************************************************************

 Orbital symmetries:
 BldTbl:  Degeneracy threshold= 1.00D-02
       Occupied  (A) (A) (A) (A) (A) (A) (A) (A) (A) (A) (A) (A)
                 (A) (A) (A) (A) (A) (A) (A) (A) (A) (A) (A) (A)
                 (A) (A) (A) (A)
       Virtual   (A) (A) (A) (A) (A) (A) (A) (A) (A) (A) (A) (A)
                 (A) (A) (A) (A) (A) (A) (A) (A) (A) (A) (A) (A)
                 (A) (A) (A) (A) (A) (A) (A) (A) (A) (A) (A) (A)
                 (A) (A) (A) (A) (A) (A) (A) (A) (A) (A) (A) (A)
                 (A) (A) (A) (A) (A) (A) (A) (A) (A) (A) (A) (A)
                 (A) (A) (A) (A) (A) (A) (A) (A) (A) (A) (A) (A)
                 (A) (A) (A) (A) (A) (A) (A) (A) (A) (A) (A) (A)
                 (A) (A) (A) (A) (A) (A) (A) (A) (A) (A) (A) (A)
                 (A) (A) (A)
 The electronic state is 1-A.
 Alpha  occ. eigenvalues --  -20.51544 -15.58575 -11.35012 -11.26005 -11.23729
 Alpha  occ. eigenvalues --  -11.22431 -11.21847  -1.36752  -1.22302  -1.05490
 Alpha  occ. eigenvalues --   -0.99950  -0.91856  -0.81743  -0.78094  -0.68694
 Alpha  occ. eigenvalues --   -0.64968  -0.62332  -0.61203  -0.58031  -0.57191
 Alpha  occ. eigenvalues --   -0.55958  -0.53311  -0.52383  -0.49960  -0.48297
 Alpha  occ. eigenvalues --   -0.47456  -0.41177  -0.37972
 Alpha virt. eigenvalues --    0.20009   0.21371   0.23824   0.26847   0.29235
 Alpha virt. eigenvalues --    0.29513   0.29728   0.32009   0.32820   0.33471
 Alpha virt. eigenvalues --    0.34171   0.34799   0.39895   0.41032   0.42495
 Alpha virt. eigenvalues --    0.44226   0.50405   0.61523   0.70891   0.73692
 Alpha virt. eigenvalues --    0.73954   0.74764   0.75334   0.77266   0.80953
 Alpha virt. eigenvalues --    0.84118   0.86338   0.89944   0.94338   0.95011
 Alpha virt. eigenvalues --    0.96301   0.97986   1.01037   1.08702   1.09700
 Alpha virt. eigenvalues --    1.10456   1.11171   1.14663   1.16220   1.17807
 Alpha virt. eigenvalues --    1.18733   1.19162   1.19675   1.20123   1.21544
 Alpha virt. eigenvalues --    1.21902   1.24436   1.27043   1.36092   1.36985
 Alpha virt. eigenvalues --    1.45551   1.51266   1.53548   1.62034   1.65833
 Alpha virt. eigenvalues --    1.67920   1.69213   1.77307   1.87723   1.94269
 Alpha virt. eigenvalues --    1.96241   2.00857   2.06980   2.12066   2.12320
 Alpha virt. eigenvalues --    2.19404   2.19730   2.22075   2.24301   2.26016
 Alpha virt. eigenvalues --    2.28061   2.32340   2.35906   2.41095   2.52699
 Alpha virt. eigenvalues --    2.54711   2.55920   2.57953   2.63973   2.66706
 Alpha virt. eigenvalues --    2.68482   2.74444   2.76079   2.78051   2.88587
 Alpha virt. eigenvalues --    2.96214   2.99826   3.03309   3.10882   3.26178
 Alpha virt. eigenvalues --    3.36173   3.50709   4.38581   4.48383   4.58377
 Alpha virt. eigenvalues --    4.62387   4.73530   4.90708   4.94237
          Condensed to atoms (all electrons):
              1          2          3          4          5          6
     1  C    4.150529   0.358706  -0.000032  -0.001720  -0.027242   0.280433
     2  C    0.358706   5.254784   0.000002  -0.000282   0.004670  -0.104344
     3  C   -0.000032   0.000002   5.112109   0.328722  -0.055844   0.003742
     4  C   -0.001720  -0.000282   0.328722   5.092263   0.356701  -0.060366
     5  C   -0.027242   0.004670  -0.055844   0.356701   4.932052   0.191481
     6  N    0.280433  -0.104344   0.003742  -0.060366   0.191481   7.344486
     7  O    0.586962  -0.070748  -0.000011  -0.001135   0.002768  -0.096019
     8  H   -0.038010   0.372352   0.000000   0.000009   0.000024   0.005454
     9  H   -0.027415   0.380875   0.000000  -0.000003  -0.000121   0.001782
    10  H   -0.027124   0.379757   0.000000   0.000029  -0.000092   0.001292
    11  H    0.000001   0.000000   0.392120  -0.038016  -0.003135  -0.000026
    12  H   -0.000001   0.000000   0.390049  -0.038742  -0.003552  -0.000041
    13  H    0.000000   0.000000   0.393496  -0.033380   0.004001  -0.000079
    14  H    0.000200  -0.000011  -0.038717   0.394340  -0.043576   0.000315
    15  H    0.002031   0.000052  -0.034781   0.397960  -0.038261  -0.001867
    16  H    0.002905  -0.000042   0.000350  -0.051437   0.405487  -0.042917
    17  H   -0.002112   0.000362  -0.000501  -0.040175   0.403100  -0.037298
    18  H   -0.016882   0.000556  -0.000076   0.000544  -0.023160   0.320465
              7          8          9         10         11         12
     1  C    0.586962  -0.038010  -0.027415  -0.027124   0.000001  -0.000001
     2  C   -0.070748   0.372352   0.380875   0.379757   0.000000   0.000000
     3  C   -0.000011   0.000000   0.000000   0.000000   0.392120   0.390049
     4  C   -0.001135   0.000009  -0.000003   0.000029  -0.038016  -0.038742
     5  C    0.002768   0.000024  -0.000121  -0.000092  -0.003135  -0.003552
     6  N   -0.096019   0.005454   0.001782   0.001292  -0.000026  -0.000041
     7  O    8.188576   0.002578   0.001007   0.000472  -0.000008   0.000000
     8  H    0.002578   0.538827  -0.023036  -0.023484   0.000000   0.000000
     9  H    0.001007  -0.023036   0.477475  -0.019829   0.000000   0.000000
    10  H    0.000472  -0.023484  -0.019829   0.483912   0.000000   0.000000
    11  H   -0.000008   0.000000   0.000000   0.000000   0.534104  -0.029268
    12  H    0.000000   0.000000   0.000000   0.000000  -0.029268   0.551111
    13  H    0.000000   0.000000   0.000000   0.000000  -0.026501  -0.027602
    14  H   -0.000013   0.000000   0.000000  -0.000002   0.004077  -0.002715
    15  H    0.001439  -0.000007   0.000001  -0.000006  -0.002710   0.003790
    16  H    0.000320  -0.000022   0.000006  -0.000001   0.000114   0.002423
    17  H    0.008314  -0.000022   0.000007  -0.000011   0.002226   0.000118
    18  H    0.002307   0.001260   0.000066  -0.000084   0.000002   0.000004
             13         14         15         16         17         18
     1  C    0.000000   0.000200   0.002031   0.002905  -0.002112  -0.016882
     2  C    0.000000  -0.000011   0.000052  -0.000042   0.000362   0.000556
     3  C    0.393496  -0.038717  -0.034781   0.000350  -0.000501  -0.000076
     4  C   -0.033380   0.394340   0.397960  -0.051437  -0.040175   0.000544
     5  C    0.004001  -0.043576  -0.038261   0.405487   0.403100  -0.023160
     6  N   -0.000079   0.000315  -0.001867  -0.042917  -0.037298   0.320465
     7  O    0.000000  -0.000013   0.001439   0.000320   0.008314   0.002307
     8  H    0.000000   0.000000  -0.000007  -0.000022  -0.000022   0.001260
     9  H    0.000000   0.000000   0.000001   0.000006   0.000007   0.000066
    10  H    0.000000  -0.000002  -0.000006  -0.000001  -0.000011  -0.000084
    11  H   -0.026501   0.004077  -0.002710   0.000114   0.002226   0.000002
    12  H   -0.027602  -0.002715   0.003790   0.002423   0.000118   0.000004
    13  H    0.528011  -0.002757  -0.002543  -0.000123  -0.000101   0.000002
    14  H   -0.002757   0.572266  -0.030547  -0.002536   0.003794   0.001286
    15  H   -0.002543  -0.030547   0.523899   0.004035  -0.002935  -0.000029
    16  H   -0.000123  -0.002536   0.004035   0.544439  -0.024218  -0.002546
    17  H   -0.000101   0.003794  -0.002935  -0.024218   0.469379   0.002983
    18  H    0.000002   0.001286  -0.000029  -0.002546   0.002983   0.334224
 Mulliken atomic charges:
              1
     1  C    0.758770
     2  C   -0.576688
     3  C   -0.490628
     4  C   -0.305312
     5  C   -0.105301
     6  N   -0.806492
     7  O   -0.626810
     8  H    0.164079
     9  H    0.209184
    10  H    0.205172
    11  H    0.167021
    12  H    0.154427
    13  H    0.167576
    14  H    0.144594
    15  H    0.180479
    16  H    0.163762
    17  H    0.217090
    18  H    0.379078
 Sum of Mulliken atomic charges =   0.00000
 Mulliken charges with hydrogens summed into heavy atoms:
              1
     1  C    0.758770
     2  C    0.001747
     3  C   -0.001604
     4  C    0.019760
     5  C    0.275550
     6  N   -0.427414
     7  O   -0.626810
 Sum of Mulliken charges with hydrogens summed into heavy atoms =   0.00000
 DipInt: DoE/N= T F RetVal/Mat= T F Init=T NMatP=  1 IDeriv=0 Min/MaxMlt=  0  4
 Entering OneElI...
 OneElI was handed    33510720 working-precision words.
 Multipole integrals L=0 to 4 MinM= 0 MaxM= 0.
 Requested accuracy = 0.1000D-12
 PrsmSu:  NPrtUS=   1 ThrOK=F IAlg=1 NPAlg=1 LenDen=           0.
 Prism:   IPart=     0 DynPar=F LinDyn=F Incr=          11.
 PRISM was handed    33407202 working-precision words and  1197 shell-pairs
 IPart=  0 NShTot=        1197 NBatch=          43 AvBLen=        27.8
 PrSmSu:  NxtVal=             12.
 Electronic moments (au):
        -56.00000000         -0.11650439         -1.52723559          0.10998047
       -886.35635012       -147.81591882        -89.78537852         -3.74253179
          0.92549382          0.20282520        722.61029127        -89.08531736
         -9.01631445       -160.39047838         -9.36276557       -346.38765031
         69.78362656         27.94886147         18.07808386         37.45530991
     -28444.96196778      -1132.26623702       -521.92109325       1595.67832332
        -67.86465416       -199.54547093         39.09095603        -56.87332555
        -21.76547290      -1781.36590862      -1425.62137813       -208.05155997
        145.22521273          1.16277615         -5.01461054
 Electronic spatial extent (au):  <R**2>=           1123.9576
 DipInt: DoE/N= F T RetVal/Mat= T F Init=T NMatP=  1 IDeriv=0 Min/MaxMlt=  0  4
 Nuclear    moments (au):
         56.00000000          0.00000000          0.00000000          0.00000000
        855.89072457        112.92390349         56.87587723          0.00000000
          0.00000000          0.00000000       -692.84295831         72.18200639
          9.86095927        155.00528445          2.04405797        348.35736083
        -66.10613801        -24.91791578        -19.30970570        -37.92377417
      25286.49026513        665.84702809        210.84770008      -1592.17890479
         56.30962434        163.99616930        -37.36020870         64.75081131
         23.94444293       1138.00462009        855.53429000         76.10009944
       -141.46544766          4.22670844         15.12246720
 Total      moments (au):
          0.00000000         -0.11650439         -1.52723559          0.10998047
        -30.46562555        -34.89201533        -32.90950129         -3.74253179
          0.92549382          0.20282520         29.76733296        -16.90331097
          0.84464482         -5.38519393         -7.31870760          1.96971052
          3.67748855          3.03094569         -1.23162184         -0.46846426
      -3158.47170264       -466.41920893       -311.07339317          3.49941853
        -11.55502983        -35.54930163          1.73074734          7.87748576
          2.17897004       -643.36128853       -570.08708812       -131.95146053
          3.75976507          5.38948459         10.10785666
 Traceless Quadrup. (au):
          2.29008851         -2.13630127         -0.15378723         -3.74253179
          0.92549382          0.20282520
 Charge=              0.0000 electrons
 Dipole moment (field-independent basis, Debye):
    X=             -0.2961    Y=             -3.8818    Z=              0.2795  Tot=              3.9031
 Quadrupole moment (field-independent basis, Debye-Ang):
   XX=            -40.9773   YY=            -46.9310   ZZ=            -44.2644
   XY=             -5.0338   XZ=              1.2448   YZ=              0.2728
 Traceless Quadrupole moment (field-independent basis, Debye-Ang):
   XX=              3.0802   YY=             -2.8734   ZZ=             -0.2068
   XY=             -5.0338   XZ=              1.2448   YZ=              0.2728
 Octapole moment (field-independent basis, Debye-Ang**2):
  XXX=             21.1872  YYY=            -12.0311  ZZZ=              0.6012  XYY=             -3.8330
  XXY=             -5.2092  XXZ=              1.4020  XZZ=              2.6175  YZZ=              2.1573
  YYZ=             -0.8766  XYZ=             -0.3334
 Hexadecapole moment (field-independent basis, Debye-Ang**3):
 XXXX=          -1189.6318 YYYY=           -175.6758 ZZZZ=           -117.1651 XXXY=              1.3180
 XXXZ=             -4.3522 YYYX=            -13.3896 YYYZ=              0.6519 ZZZX=              2.9670
 ZZZY=              0.8207 XXYY=           -242.3207 XXZZ=           -214.7221 YYZZ=            -49.6992
 XXYZ=              1.4161 YYXZ=              2.0299 ZZXY=              3.8071
 N-N= 3.080859744610D+02 E-N=-1.376335203617D+03  KE= 3.242960366910D+02
 Entering OneElI...
 OneElI was handed    33477885 working-precision words.
 Calculate electrostatic properties
    NBasis =   127  MinDer = 0  MaxDer = 0
    NGrid  =    18  NMatD  =   1
 Requested accuracy = 0.1000D-12
 PrsmSu:  NPrtUS=   2 ThrOK=T IAlg=1 NPAlg=1 LenDen=           0.
 Prism:   IPart=     0 DynPar=F LinDyn=F Incr=         103.
 PRISM was handed    16671177 working-precision words and  1148 shell-pairs
 PRISM was handed    16671177 working-precision words and  1148 shell-pairs
 IPart=  0 NShTot=       10494 NBatch=         583 AvBLen=        18.0
 IPart=  1 NShTot=       10170 NBatch=         565 AvBLen=        18.0
 PrSmSu:  NxtVal=            207.
 --------------------------------------------------------
       Center         ----      EFG at Nuclei      ----
                      3XX-RR        3YY-RR        3ZZ-RR
 --------------------------------------------------------
     1   Atom        0.181274      0.314669     -0.495944
     2   Atom       -0.027933     -0.004623      0.032556
     3   Atom       -0.016977      0.010656      0.006321
     4   Atom       -0.007431      0.018489     -0.011058
     5   Atom       -0.228663      0.149867      0.078796
     6   Atom       -0.373464     -0.505343      0.878806
     7   Atom        1.438600     -0.933195     -0.505406
     8   Atom        0.139447     -0.294209      0.154763
     9   Atom       -0.084225      0.089683     -0.005458
    10   Atom        0.124624      0.117999     -0.242623
    11   Atom        0.142902     -0.221390      0.078488
    12   Atom        0.069856     -0.024040     -0.045815
    13   Atom       -0.012316      0.151645     -0.139329
    14   Atom        0.141151     -0.209940      0.068789
    15   Atom        0.076599     -0.022194     -0.054405
    16   Atom        0.077132     -0.017026     -0.060106
    17   Atom        0.131126     -0.208107      0.076981
    18   Atom        0.148611     -0.371693      0.223082
 --------------------------------------------------------
                        XY            XZ            YZ
 --------------------------------------------------------
     1   Atom       -0.093619      0.216457     -0.039920
     2   Atom        0.038988     -0.020449      0.006630
     3   Atom        0.008667     -0.012073     -0.001294
     4   Atom        0.017001      0.012426      0.019534
     5   Atom        0.124234     -0.107069      0.007575
     6   Atom       -0.023974     -0.386936      0.083699
     7   Atom        0.319080      0.591366      0.087607
     8   Atom        0.004330     -0.004574     -0.026612
     9   Atom       -0.115239      0.187375      0.100592
    10   Atom       -0.020991     -0.089848     -0.114233
    11   Atom       -0.002516      0.001029      0.164550
    12   Atom       -0.110192     -0.121237     -0.185382
    13   Atom        0.008334      0.212129     -0.007629
    14   Atom       -0.009405      0.009487      0.166989
    15   Atom       -0.103146     -0.112176     -0.185841
    16   Atom       -0.091674     -0.112083     -0.188410
    17   Atom       -0.017464      0.012408      0.163647
    18   Atom        0.090810     -0.036461      0.087569
 --------------------------------------------------------


 ---------------------------------------------------------------------------------
              Nuclear Quadrupole in Principal Axis System
 ---------------------------------------------------------------------------------

       Atom             a.u.   MegaHertz   Gauss  10(-4) cm-1        Axes

              Baa    -0.5594   -75.064   -26.785   -25.039 -0.2789  0.0140  0.9602
     1 C(13)  Bbb     0.1727    23.176     8.270     7.731  0.7849  0.5794  0.2195
              Bcc     0.3867    51.889    18.515    17.308 -0.5533  0.8149 -0.1725
 
              Baa    -0.0614    -8.240    -2.940    -2.749  0.7937 -0.5698  0.2129
     2 C(13)  Bbb     0.0215     2.885     1.030     0.962  0.4670  0.7951  0.3870
              Bcc     0.0399     5.355     1.911     1.786 -0.3898 -0.2077  0.8972
 
              Baa    -0.0238    -3.188    -1.137    -1.063  0.9094 -0.2157  0.3558
     3 C(13)  Bbb     0.0074     0.991     0.354     0.331 -0.1358  0.6545  0.7438
              Bcc     0.0164     2.196     0.784     0.733  0.3932  0.7247 -0.5658
 
              Baa    -0.0226    -3.039    -1.084    -1.014 -0.4579 -0.2198  0.8614
     4 C(13)  Bbb    -0.0151    -2.031    -0.725    -0.677  0.7842 -0.5562  0.2749
              Bcc     0.0378     5.070     1.809     1.691  0.4187  0.8014  0.4271
 
              Baa    -0.2952   -39.616   -14.136   -13.215  0.9261 -0.2631  0.2704
     5 C(13)  Bbb     0.1022    13.709     4.892     4.573 -0.1801  0.3215  0.9296
              Bcc     0.1931    25.907     9.244     8.642  0.3315  0.9096 -0.2503
 
              Baa    -0.5104   -19.685    -7.024    -6.566  0.0226  0.9983 -0.0538
     6 N(14)  Bbb    -0.4834   -18.643    -6.652    -6.219  0.9618 -0.0070  0.2736
              Bcc     0.9938    38.328    13.676    12.785 -0.2728  0.0580  0.9603
 
              Baa    -0.9756    70.597    25.191    23.549 -0.1240  0.9919 -0.0288
     7 O(17)  Bbb    -0.6712    48.564    17.329    16.199 -0.2691 -0.0057  0.9631
              Bcc     1.6468  -119.161   -42.520   -39.748  0.9551  0.1272  0.2676
 
              Baa    -0.2958  -157.835   -56.319   -52.648 -0.0093  0.9982  0.0589
     8 H(1)   Bbb     0.1382    73.738    26.312    24.596  0.9664 -0.0061  0.2571
              Bcc     0.1576    84.097    30.008    28.052 -0.2570 -0.0593  0.9646
 
              Baa    -0.2968  -158.352   -56.504   -52.821  0.7191  0.3679 -0.5895
     9 H(1)   Bbb     0.1430    76.301    27.226    25.451  0.6816 -0.5384  0.4955
              Bcc     0.1538    82.052    29.278    27.369  0.1351  0.7581  0.6379
 
              Baa    -0.2960  -157.905   -56.345   -52.672  0.2140  0.2699  0.9388
    10 H(1)   Bbb     0.1423    75.902    27.084    25.318  0.8607 -0.5065 -0.0506
              Bcc     0.1537    82.003    29.261    27.353  0.4619  0.8189 -0.3407
 
              Baa    -0.2941  -156.910   -55.989   -52.339  0.0062  0.9147 -0.4040
    11 H(1)   Bbb     0.1429    76.254    27.209    25.436  0.9999 -0.0020  0.0109
              Bcc     0.1512    80.656    28.780    26.904 -0.0091  0.4041  0.9147
 
              Baa    -0.2943  -157.031   -56.033   -52.380  0.4102  0.6237  0.6654
    12 H(1)   Bbb     0.1426    76.092    27.151    25.382  0.8641 -0.4991 -0.0650
              Bcc     0.1517    80.939    28.881    26.998 -0.2915 -0.6017  0.7437
 
              Baa    -0.2975  -158.747   -56.645   -52.952 -0.5971  0.0247  0.8018
    13 H(1)   Bbb     0.1450    77.343    27.598    25.799  0.7627 -0.2923  0.5769
              Bcc     0.1526    81.404    29.047    27.153  0.2486  0.9560  0.1557
 
              Baa    -0.2884  -153.901   -54.916   -51.336  0.0292  0.9052 -0.4239
    14 H(1)   Bbb     0.1389    74.101    26.441    24.717  0.8676 -0.2336 -0.4391
              Bcc     0.1496    79.800    28.474    26.618  0.4965  0.3550  0.7922
 
              Baa    -0.2885  -153.904   -54.917   -51.337  0.3852  0.6239  0.6800
    15 H(1)   Bbb     0.1402    74.809    26.694    24.954  0.9226 -0.2434 -0.2994
              Bcc     0.1482    79.095    28.223    26.383 -0.0213  0.7427 -0.6693
 
              Baa    -0.2859  -152.527   -54.425   -50.877  0.3703  0.6145  0.6966
    16 H(1)   Bbb     0.1330    70.936    25.312    23.662  0.8846 -0.4622 -0.0625
              Bcc     0.1529    81.591    29.114    27.216 -0.2836 -0.6394  0.7147
 
              Baa    -0.2837  -151.344   -54.003   -50.483  0.0507  0.9088 -0.4141
    17 H(1)   Bbb     0.1314    70.095    25.012    23.381  0.9790 -0.1272 -0.1595
              Bcc     0.1523    81.249    28.992    27.102  0.1976  0.3973  0.8961
 
              Baa    -0.4008  -213.847   -76.306   -71.332 -0.1708  0.9743 -0.1467
    18 H(1)   Bbb     0.1584    84.490    30.148    28.183  0.9449  0.2042  0.2560
              Bcc     0.2424   129.357    46.158    43.149 -0.2794  0.0949  0.9555
 

 ---------------------------------------------------------------------------------

 No NMR shielding tensors so no spin-rotation constants.
 Leave Link  601 at Sat Feb 17 21:02:30 2018, MaxMem=   33554432 cpu:       0.4
 Merz-Kollman atomic radii used.
 Read replacement radii for each type of atom:
 Atom Element Radius
    1     6    1.50
    2     6    1.50
    3     6    1.50
    4     6    1.50
    5     6    1.50
    6     7    1.50
    7     8    1.40
    8     1    1.20
    9     1    1.20
   10     1    1.20
   11     1    1.20
   12     1    1.20
   13     1    1.20
   14     1    1.20
   15     1    1.20
   16     1    1.20
   17     1    1.20
   18     1    1.20
 Generate VDW surfaces: Layer= 4 Dens= 1 Start= 1.400 Inc= 0.200

 **********************************************************************

            Electrostatic Properties Using The SCF Density

 **********************************************************************

       Atomic Center    1 is at   1.507669  0.194053 -0.042119
       Atomic Center    2 is at   2.840660 -0.422733  0.360867
       Atomic Center    3 is at  -3.194910  0.217634  0.161024
       Atomic Center    4 is at  -1.779245 -0.227874  0.539720
       Atomic Center    5 is at  -0.839164 -0.271153 -0.673022
       Atomic Center    6 is at   0.514896 -0.697973 -0.347133
       Atomic Center    7 is at   1.348066  1.407501 -0.097368
       Atomic Center    8 is at   2.862412 -1.515627  0.298381
       Atomic Center    9 is at   3.624566 -0.014352 -0.283695
       Atomic Center   10 is at   3.074183 -0.121948  1.387304
       Atomic Center   11 is at  -3.188384  1.220857 -0.281602
       Atomic Center   12 is at  -3.647267 -0.464862 -0.569459
       Atomic Center   13 is at  -3.849491  0.245607  1.038804
       Atomic Center   14 is at  -1.813765 -1.220868  1.009913
       Atomic Center   15 is at  -1.352987  0.458251  1.281512
       Atomic Center   16 is at  -1.239816 -0.944744 -1.441453
       Atomic Center   17 is at  -0.752796  0.725922 -1.113088
       Atomic Center   18 is at   0.684486 -1.681993 -0.196556
      ESP Fit Center   19 is at   1.507669  0.194053  2.057881
      ESP Fit Center   20 is at   0.457669  0.194053  1.776534
      ESP Fit Center   21 is at   0.982669 -0.715274  1.776534
      ESP Fit Center   22 is at   2.557669  0.194053 -1.860773
      ESP Fit Center   23 is at   2.032669 -0.715274 -1.860773
      ESP Fit Center   24 is at   1.507669  0.194053 -2.142119
      ESP Fit Center   25 is at   4.370608 -1.405971  1.410867
      ESP Fit Center   26 is at   4.700117 -1.398651  0.360867
      ESP Fit Center   27 is at   2.315660 -1.332059 -1.457787
      ESP Fit Center   28 is at   3.365660 -1.332059 -1.457787
      ESP Fit Center   29 is at   2.840660 -0.422733 -1.739133
      ESP Fit Center   30 is at  -2.439414  1.871939  1.211024
      ESP Fit Center   31 is at  -3.453731  2.017776  1.211024
      ESP Fit Center   32 is at  -3.453731 -1.582508  1.211024
      ESP Fit Center   33 is at  -4.766782  1.610191  0.161024
      ESP Fit Center   34 is at  -5.233888  0.720197  0.161024
      ESP Fit Center   35 is at  -5.233888 -0.284929  0.161024
      ESP Fit Center   36 is at  -4.939895  0.730008 -0.888976
      ESP Fit Center   37 is at  -2.829245 -0.227874  2.358373
      ESP Fit Center   38 is at   0.210836 -0.271153 -2.491675
      ESP Fit Center   39 is at   0.514896 -0.697973  1.752867
      ESP Fit Center   40 is at  -0.010104 -1.607300  1.471520
      ESP Fit Center   41 is at   1.039896 -1.607300  1.471520
      ESP Fit Center   42 is at   2.044845 -1.681211 -1.397133
      ESP Fit Center   43 is at   1.564896 -0.697973 -2.165787
      ESP Fit Center   44 is at   1.039896  0.211354 -2.165787
      ESP Fit Center   45 is at   1.039896 -1.607300 -2.165787
      ESP Fit Center   46 is at   0.514896 -0.697973 -2.447133
      ESP Fit Center   47 is at   1.348066  1.407501  1.862632
      ESP Fit Center   48 is at   2.328066  1.407501  1.600041
      ESP Fit Center   49 is at   1.838066  2.256206  1.600041
      ESP Fit Center   50 is at   0.858066  2.256206  1.600041
      ESP Fit Center   51 is at   0.368066  1.407501  1.600041
      ESP Fit Center   52 is at   2.721300  2.405213  0.882632
      ESP Fit Center   53 is at   1.872595  3.021833  0.882632
      ESP Fit Center   54 is at   0.823538  3.021833  0.882632
      ESP Fit Center   55 is at  -0.025167  2.405213  0.882632
      ESP Fit Center   56 is at   3.045476  2.387501 -0.097368
      ESP Fit Center   57 is at   2.328066  3.104911 -0.097368
      ESP Fit Center   58 is at   1.348066  3.367501 -0.097368
      ESP Fit Center   59 is at   0.368066  3.104911 -0.097368
      ESP Fit Center   60 is at  -0.349343  2.387501 -0.097368
      ESP Fit Center   61 is at   3.045476  1.407501 -1.077368
      ESP Fit Center   62 is at   2.721300  2.405213 -1.077368
      ESP Fit Center   63 is at   1.872595  3.021833 -1.077368
      ESP Fit Center   64 is at   0.823538  3.021833 -1.077368
      ESP Fit Center   65 is at  -0.025167  2.405213 -1.077368
      ESP Fit Center   66 is at   2.328066  1.407501 -1.794778
      ESP Fit Center   67 is at   1.838066  2.256206 -1.794778
      ESP Fit Center   68 is at   0.858066  2.256206 -1.794778
      ESP Fit Center   69 is at   1.348066  1.407501 -2.057368
      ESP Fit Center   70 is at   2.063525 -2.096053  1.657530
      ESP Fit Center   71 is at   3.167560 -2.454776  1.657530
      ESP Fit Center   72 is at   2.063525 -2.899341  0.817530
      ESP Fit Center   73 is at   3.139863 -3.089129  0.817530
      ESP Fit Center   74 is at   4.086379 -2.542657  0.817530
      ESP Fit Center   75 is at   2.063525 -2.899341 -0.220767
      ESP Fit Center   76 is at   3.139863 -3.089129 -0.220767
      ESP Fit Center   77 is at   4.086379 -2.542657 -0.220767
      ESP Fit Center   78 is at   3.167560 -2.454776 -1.060767
      ESP Fit Center   79 is at   5.222341 -0.014352  0.235454
      ESP Fit Center   80 is at   4.848532  1.012678  0.235454
      ESP Fit Center   81 is at   3.902017  1.559150  0.235454
      ESP Fit Center   82 is at   4.848532 -1.041381  0.235454
      ESP Fit Center   83 is at   5.222341 -0.014352 -0.802844
      ESP Fit Center   84 is at   4.848532  1.012678 -0.802844
      ESP Fit Center   85 is at   3.902017  1.559150 -0.802844
      ESP Fit Center   86 is at   4.848532 -1.041381 -0.802844
      ESP Fit Center   87 is at   4.612045 -0.014352 -1.642844
      ESP Fit Center   88 is at   3.929714  0.924797 -1.642844
      ESP Fit Center   89 is at   2.825678  0.566074 -1.642844
      ESP Fit Center   90 is at   3.929714 -0.953500 -1.642844
      ESP Fit Center   91 is at   3.624566 -0.014352 -1.963695
      ESP Fit Center   92 is at   3.074183 -0.121948  3.067304
      ESP Fit Center   93 is at   4.061662 -0.121948  2.746452
      ESP Fit Center   94 is at   3.379330  0.817201  2.746452
      ESP Fit Center   95 is at   2.275295  0.458478  2.746452
      ESP Fit Center   96 is at   2.275295 -0.702374  2.746452
      ESP Fit Center   97 is at   3.379330 -1.061097  2.746452
      ESP Fit Center   98 is at   4.671957 -0.121948  1.906452
      ESP Fit Center   99 is at   4.298149  0.905082  1.906452
      ESP Fit Center  100 is at   3.351633  1.451553  1.906452
      ESP Fit Center  101 is at   2.275295  1.261766  1.906452
      ESP Fit Center  102 is at   4.298149 -1.148978  1.906452
      ESP Fit Center  103 is at  -2.883236  2.160006  1.077547
      ESP Fit Center  104 is at  -1.964418  2.247887  0.237547
      ESP Fit Center  105 is at  -2.910934  2.794358  0.237547
      ESP Fit Center  106 is at  -3.987272  2.604571  0.237547
      ESP Fit Center  107 is at  -4.689802  1.767328  0.237547
      ESP Fit Center  108 is at  -1.964418  2.247887 -0.800750
      ESP Fit Center  109 is at  -2.910934  2.794358 -0.800750
      ESP Fit Center  110 is at  -3.987272  2.604571 -0.800750
      ESP Fit Center  111 is at  -4.689802  1.767328 -0.800750
      ESP Fit Center  112 is at  -2.883236  2.160006 -1.640750
      ESP Fit Center  113 is at  -3.987272  1.801283 -1.640750
      ESP Fit Center  114 is at  -3.188384  1.220857 -1.961602
      ESP Fit Center  115 is at  -5.148684 -1.011333 -0.050311
      ESP Fit Center  116 is at  -4.446154 -1.848575 -0.050311
      ESP Fit Center  117 is at  -3.369816 -2.038363 -0.050311
      ESP Fit Center  118 is at  -5.148684  0.081609 -1.088608
      ESP Fit Center  119 is at  -5.148684 -1.011333 -1.088608
      ESP Fit Center  120 is at  -4.446154 -1.848575 -1.088608
      ESP Fit Center  121 is at  -3.369816 -2.038363 -1.088608
      ESP Fit Center  122 is at  -3.342119  0.474287 -1.928608
      ESP Fit Center  123 is at  -4.446154  0.115564 -1.928608
      ESP Fit Center  124 is at  -4.446154 -1.045288 -1.928608
      ESP Fit Center  125 is at  -3.342119 -1.404010 -1.928608
      ESP Fit Center  126 is at  -3.647267 -0.464862 -2.249459
      ESP Fit Center  127 is at  -3.849491  0.245607  2.718804
      ESP Fit Center  128 is at  -2.862012  0.245607  2.397952
      ESP Fit Center  129 is at  -3.544343  1.184755  2.397952
      ESP Fit Center  130 is at  -4.648378  0.826032  2.397952
      ESP Fit Center  131 is at  -4.648378 -0.334819  2.397952
      ESP Fit Center  132 is at  -3.544343 -0.693542  2.397952
      ESP Fit Center  133 is at  -3.572040  1.819108  1.557952
      ESP Fit Center  134 is at  -4.648378  1.629320  1.557952
      ESP Fit Center  135 is at  -5.350908  0.792078  1.557952
      ESP Fit Center  136 is at  -5.350908 -0.300865  1.557952
      ESP Fit Center  137 is at  -4.648378 -1.138107  1.557952
      ESP Fit Center  138 is at  -3.572040 -1.327895  1.557952
      ESP Fit Center  139 is at  -5.350908  0.792078  0.519655
      ESP Fit Center  140 is at  -5.350908 -0.300865  0.519655
      ESP Fit Center  141 is at  -1.813765 -1.220868  2.689913
      ESP Fit Center  142 is at  -0.826286 -1.220868  2.369062
      ESP Fit Center  143 is at  -2.612653 -1.801294  2.369062
      ESP Fit Center  144 is at  -1.508617 -2.160017  2.369062
      ESP Fit Center  145 is at  -3.315182 -1.767339  1.529062
      ESP Fit Center  146 is at  -2.612653 -2.604582  1.529062
      ESP Fit Center  147 is at  -1.536314 -2.794369  1.529062
      ESP Fit Center  148 is at  -0.589798 -2.247898  1.529062
      ESP Fit Center  149 is at  -2.612653 -2.604582  0.490765
      ESP Fit Center  150 is at  -1.536314 -2.794369  0.490765
      ESP Fit Center  151 is at  -1.352987  0.458251  2.961512
      ESP Fit Center  152 is at  -0.365508  0.458251  2.640660
      ESP Fit Center  153 is at  -1.047839  1.397400  2.640660
      ESP Fit Center  154 is at  -2.151875  1.038677  2.640660
      ESP Fit Center  155 is at  -2.151875 -0.122174  2.640660
      ESP Fit Center  156 is at  -1.047839 -0.480897  2.640660
      ESP Fit Center  157 is at   0.244788  0.458251  1.800660
      ESP Fit Center  158 is at  -0.129021  1.485281  1.800660
      ESP Fit Center  159 is at  -1.075537  2.031752  1.800660
      ESP Fit Center  160 is at  -2.151875  1.841965  1.800660
      ESP Fit Center  161 is at  -0.129021 -0.568779  1.800660
      ESP Fit Center  162 is at  -1.075537  2.031752  0.762363
      ESP Fit Center  163 is at  -2.038703 -2.328457 -0.922305
      ESP Fit Center  164 is at  -0.962365 -2.518245 -0.922305
      ESP Fit Center  165 is at  -2.741233 -1.491215 -1.960602
      ESP Fit Center  166 is at  -2.038703 -2.328457 -1.960602
      ESP Fit Center  167 is at  -0.962365 -2.518245 -1.960602
      ESP Fit Center  168 is at  -0.015849 -1.971774 -1.960602
      ESP Fit Center  169 is at  -0.252336 -0.944744 -2.800602
      ESP Fit Center  170 is at  -0.934668 -0.005595 -2.800602
      ESP Fit Center  171 is at  -2.038703 -0.364318 -2.800602
      ESP Fit Center  172 is at  -2.038703 -1.525169 -2.800602
      ESP Fit Center  173 is at  -0.934668 -1.883892 -2.800602
      ESP Fit Center  174 is at  -1.239816 -0.944744 -3.121453
      ESP Fit Center  175 is at  -0.475345  2.299423 -0.593940
      ESP Fit Center  176 is at  -1.551683  2.109636 -0.593940
      ESP Fit Center  177 is at  -0.475345  2.299423 -1.632237
      ESP Fit Center  178 is at  -1.551683  2.109636 -1.632237
      ESP Fit Center  179 is at   0.234683  0.725922 -2.472237
      ESP Fit Center  180 is at  -0.447648  1.665071 -2.472237
      ESP Fit Center  181 is at  -1.551683  1.306348 -2.472237
      ESP Fit Center  182 is at  -0.752796  0.725922 -2.793088
      ESP Fit Center  183 is at  -0.114401 -2.262419  1.162593
      ESP Fit Center  184 is at   0.989634 -2.621142  1.162593
      ESP Fit Center  185 is at  -0.114401 -3.065707  0.322593
      ESP Fit Center  186 is at   0.961937 -3.255494  0.322593
      ESP Fit Center  187 is at  -0.114401 -3.065707 -0.715704
      ESP Fit Center  188 is at   0.961937 -3.255494 -0.715704
      ESP Fit Center  189 is at   1.908453 -2.709023 -0.715704
      ESP Fit Center  190 is at   0.989634 -2.621142 -1.555704
      ESP Fit Center  191 is at   0.987008  1.095863  2.120206
      ESP Fit Center  192 is at   0.466348  0.194053  2.120206
      ESP Fit Center  193 is at   0.987008 -0.707758  2.120206
      ESP Fit Center  194 is at   2.548990  0.194053 -2.204445
      ESP Fit Center  195 is at   1.507669  0.194053 -2.442119
      ESP Fit Center  196 is at   1.611882 -1.840818  1.857242
      ESP Fit Center  197 is at   4.419184 -1.437189  1.857242
      ESP Fit Center  198 is at   5.180487 -0.422733  0.894917
      ESP Fit Center  199 is at   4.299518  1.406618  0.894917
      ESP Fit Center  200 is at   3.361320  1.858430  0.894917
      ESP Fit Center  201 is at   4.948771 -1.437946  0.894917
      ESP Fit Center  202 is at   4.948771 -1.437946 -0.173184
      ESP Fit Center  203 is at   2.319999 -1.324543 -1.801459
      ESP Fit Center  204 is at   3.361320 -1.324543 -1.801459
      ESP Fit Center  205 is at   2.840660 -0.422733 -2.039133
      ESP Fit Center  206 is at  -3.461949  2.074930  1.657400
      ESP Fit Center  207 is at  -4.653768  2.046984  0.695075
      ESP Fit Center  208 is at  -4.653768 -1.611717  0.695075
      ESP Fit Center  209 is at  -3.715570 -2.063529  0.695075
      ESP Fit Center  210 is at  -5.303021  1.232847 -0.373026
      ESP Fit Center  211 is at  -5.534737  0.217634 -0.373026
      ESP Fit Center  212 is at  -4.995298  0.746276 -1.335351
      ESP Fit Center  213 is at  -2.820566 -0.227874  2.702045
      ESP Fit Center  214 is at   0.202157 -0.271153 -2.835347
      ESP Fit Center  215 is at   0.514896 -0.697973  2.052867
      ESP Fit Center  216 is at  -0.005764 -1.599784  1.815192
      ESP Fit Center  217 is at   1.035556 -1.599784  1.815192
      ESP Fit Center  218 is at   2.093420 -1.712429 -1.843509
      ESP Fit Center  219 is at   1.556217 -0.697973 -2.509459
      ESP Fit Center  220 is at   1.035556  0.203837 -2.509459
      ESP Fit Center  221 is at   1.035556 -1.599784 -2.509459
      ESP Fit Center  222 is at   0.514896 -0.697973 -2.747133
      ESP Fit Center  223 is at   1.348066  1.407501  2.142632
      ESP Fit Center  224 is at   1.834016  2.249191  1.920802
      ESP Fit Center  225 is at   0.862117  2.249191  1.920802
      ESP Fit Center  226 is at   0.376167  1.407501  1.920802
      ESP Fit Center  227 is at   2.764900  2.436891  1.299249
      ESP Fit Center  228 is at   1.889249  3.073089  1.299249
      ESP Fit Center  229 is at   0.806884  3.073089  1.299249
      ESP Fit Center  230 is at  -0.068767  2.436891  1.299249
      ESP Fit Center  231 is at   3.281759  2.422381  0.401078
      ESP Fit Center  232 is at   2.588628  3.204765  0.401078
      ESP Fit Center  233 is at   1.611299  3.575417  0.401078
      ESP Fit Center  234 is at   0.573667  3.449425  0.401078
      ESP Fit Center  235 is at  -0.286560  2.855654  0.401078
      ESP Fit Center  236 is at   3.281759  2.422381 -0.595815
      ESP Fit Center  237 is at   2.588628  3.204765 -0.595815
      ESP Fit Center  238 is at   1.611299  3.575417 -0.595815
      ESP Fit Center  239 is at   0.573667  3.449425 -0.595815
      ESP Fit Center  240 is at  -0.286560  2.855654 -0.595815
      ESP Fit Center  241 is at   3.099369  1.407501 -1.493986
      ESP Fit Center  242 is at   2.764900  2.436891 -1.493986
      ESP Fit Center  243 is at   1.889249  3.073089 -1.493986
      ESP Fit Center  244 is at   0.806884  3.073089 -1.493986
      ESP Fit Center  245 is at   2.319966  1.407501 -2.115539
      ESP Fit Center  246 is at   1.834016  2.249191 -2.115539
      ESP Fit Center  247 is at   0.862117  2.249191 -2.115539
      ESP Fit Center  248 is at   1.348066  1.407501 -2.337368
      ESP Fit Center  249 is at   2.382412 -2.347012  1.961150
      ESP Fit Center  250 is at   3.342412 -2.347012  1.961150
      ESP Fit Center  251 is at   2.348589 -3.097014  1.258381
      ESP Fit Center  252 is at   3.376236 -3.097014  1.258381
      ESP Fit Center  253 is at   4.207621 -2.492978  1.258381
      ESP Fit Center  254 is at   1.902412 -3.178396  0.298381
      ESP Fit Center  255 is at   2.862412 -3.435627  0.298381
      ESP Fit Center  256 is at   3.822412 -3.178396  0.298381
      ESP Fit Center  257 is at   4.525181 -2.475627  0.298381
      ESP Fit Center  258 is at   2.348589 -3.097014 -0.661619
      ESP Fit Center  259 is at   3.376236 -3.097014 -0.661619
      ESP Fit Center  260 is at   4.207621 -2.492978 -0.661619
      ESP Fit Center  261 is at   2.382412 -2.347012 -1.364387
      ESP Fit Center  262 is at   3.342412 -2.347012 -1.364387
      ESP Fit Center  263 is at   5.287335 -0.014352  0.676305
      ESP Fit Center  264 is at   4.969774  0.962999  0.676305
      ESP Fit Center  265 is at   5.544566 -0.014352 -0.283695
      ESP Fit Center  266 is at   5.287335  0.945648 -0.283695
      ESP Fit Center  267 is at   4.584566  1.648417 -0.283695
      ESP Fit Center  268 is at   3.624566  1.905648 -0.283695
      ESP Fit Center  269 is at   5.287335 -0.974352 -0.283695
      ESP Fit Center  270 is at   5.287335 -0.014352 -1.243695
      ESP Fit Center  271 is at   4.969774  0.962999 -1.243695
      ESP Fit Center  272 is at   4.138390  1.567036 -1.243695
      ESP Fit Center  273 is at   4.969774 -0.991703 -1.243695
      ESP Fit Center  274 is at   4.584566 -0.014352 -1.946464
      ESP Fit Center  275 is at   4.104566  0.817033 -1.946464
      ESP Fit Center  276 is at   3.144566  0.817033 -1.946464
      ESP Fit Center  277 is at   4.104566 -0.845736 -1.946464
      ESP Fit Center  278 is at   3.624566 -0.014352 -2.203695
      ESP Fit Center  279 is at   3.074183 -0.121948  3.307304
      ESP Fit Center  280 is at   4.034183 -0.121948  3.050072
      ESP Fit Center  281 is at   3.554183  0.709436  3.050072
      ESP Fit Center  282 is at   2.594183  0.709436  3.050072
      ESP Fit Center  283 is at   2.114183 -0.121948  3.050072
      ESP Fit Center  284 is at   2.594183 -0.953332  3.050072
      ESP Fit Center  285 is at   3.554183 -0.953332  3.050072
      ESP Fit Center  286 is at   4.736951 -0.121948  2.347304
      ESP Fit Center  287 is at   4.419391  0.855403  2.347304
      ESP Fit Center  288 is at   3.588006  1.459439  2.347304
      ESP Fit Center  289 is at   2.560359  1.459439  2.347304
      ESP Fit Center  290 is at   1.728974  0.855403  2.347304
      ESP Fit Center  291 is at   1.411414 -0.121948  2.347304
      ESP Fit Center  292 is at   3.588006 -1.703335  2.347304
      ESP Fit Center  293 is at   4.419391 -1.099299  2.347304
      ESP Fit Center  294 is at   4.994183 -0.121948  1.387304
      ESP Fit Center  295 is at   4.736951  0.838052  1.387304
      ESP Fit Center  296 is at   4.034183  1.540821  1.387304
      ESP Fit Center  297 is at   3.074183  1.798052  1.387304
      ESP Fit Center  298 is at  -2.674560  2.802244  0.678398
      ESP Fit Center  299 is at  -3.702208  2.802244  0.678398
      ESP Fit Center  300 is at  -4.533592  2.198208  0.678398
      ESP Fit Center  301 is at  -2.228384  2.883626 -0.281602
      ESP Fit Center  302 is at  -3.188384  3.140857 -0.281602
      ESP Fit Center  303 is at  -4.148384  2.883626 -0.281602
      ESP Fit Center  304 is at  -4.851153  2.180857 -0.281602
      ESP Fit Center  305 is at  -2.674560  2.802244 -1.241602
      ESP Fit Center  306 is at  -3.702208  2.802244 -1.241602
      ESP Fit Center  307 is at  -4.533592  2.198208 -1.241602
      ESP Fit Center  308 is at  -2.708384  2.052242 -1.944371
      ESP Fit Center  309 is at  -3.668384  2.052242 -1.944371
      ESP Fit Center  310 is at  -4.148384  1.220857 -1.944371
      ESP Fit Center  311 is at  -3.188384  1.220857 -2.201602
      ESP Fit Center  312 is at  -4.992475 -1.442213  0.390541
      ESP Fit Center  313 is at  -4.161091 -2.046249  0.390541
      ESP Fit Center  314 is at  -5.567267 -0.464862 -0.569459
      ESP Fit Center  315 is at  -5.310035 -1.424862 -0.569459
      ESP Fit Center  316 is at  -4.607267 -2.127631 -0.569459
      ESP Fit Center  317 is at  -3.647267 -2.384862 -0.569459
      ESP Fit Center  318 is at  -4.992475  0.512489 -1.529459
      ESP Fit Center  319 is at  -5.310035 -0.464862 -1.529459
      ESP Fit Center  320 is at  -4.992475 -1.442213 -1.529459
      ESP Fit Center  321 is at  -4.161091 -2.046249 -1.529459
      ESP Fit Center  322 is at  -3.133443 -2.046249 -1.529459
      ESP Fit Center  323 is at  -4.127267  0.366523 -2.232228
      ESP Fit Center  324 is at  -4.607267 -0.464862 -2.232228
      ESP Fit Center  325 is at  -4.127267 -1.296246 -2.232228
      ESP Fit Center  326 is at  -3.167267 -1.296246 -2.232228
      ESP Fit Center  327 is at  -3.647267 -0.464862 -2.489459
      ESP Fit Center  328 is at  -3.849491  0.245607  2.958804
      ESP Fit Center  329 is at  -2.889491  0.245607  2.701573
      ESP Fit Center  330 is at  -3.369491  1.076991  2.701573
      ESP Fit Center  331 is at  -4.329491  1.076991  2.701573
      ESP Fit Center  332 is at  -4.809491  0.245607  2.701573
      ESP Fit Center  333 is at  -4.329491 -0.585778  2.701573
      ESP Fit Center  334 is at  -3.369491 -0.585778  2.701573
      ESP Fit Center  335 is at  -3.335667  1.826994  1.998804
      ESP Fit Center  336 is at  -4.363315  1.826994  1.998804
      ESP Fit Center  337 is at  -5.194699  1.222958  1.998804
      ESP Fit Center  338 is at  -5.512260  0.245607  1.998804
      ESP Fit Center  339 is at  -5.194699 -0.731744  1.998804
      ESP Fit Center  340 is at  -4.363315 -1.335780  1.998804
      ESP Fit Center  341 is at  -4.809491  1.908375  1.038804
      ESP Fit Center  342 is at  -5.512260  1.205607  1.038804
      ESP Fit Center  343 is at  -5.769491  0.245607  1.038804
      ESP Fit Center  344 is at  -5.512260 -0.714393  1.038804
      ESP Fit Center  345 is at  -4.809491 -1.417162  1.038804
      ESP Fit Center  346 is at  -1.813765 -1.220868  2.929913
      ESP Fit Center  347 is at  -0.853765 -1.220868  2.672682
      ESP Fit Center  348 is at  -2.773765 -1.220868  2.672682
      ESP Fit Center  349 is at  -2.293765 -2.052253  2.672682
      ESP Fit Center  350 is at  -1.333765 -2.052253  2.672682
      ESP Fit Center  351 is at  -3.158973 -2.198219  1.969913
      ESP Fit Center  352 is at  -2.327589 -2.802255  1.969913
      ESP Fit Center  353 is at  -1.299941 -2.802255  1.969913
      ESP Fit Center  354 is at  -0.468557 -2.198219  1.969913
      ESP Fit Center  355 is at  -3.476534 -2.180868  1.009913
      ESP Fit Center  356 is at  -2.773765 -2.883637  1.009913
      ESP Fit Center  357 is at  -1.813765 -3.140868  1.009913
      ESP Fit Center  358 is at  -0.853765 -2.883637  1.009913
      ESP Fit Center  359 is at  -2.327589 -2.802255  0.049913
      ESP Fit Center  360 is at  -1.299941 -2.802255  0.049913
      ESP Fit Center  361 is at  -1.352987  0.458251  3.201512
      ESP Fit Center  362 is at  -0.392987  0.458251  2.944281
      ESP Fit Center  363 is at  -0.872987  1.289636  2.944281
      ESP Fit Center  364 is at  -1.832987  1.289636  2.944281
      ESP Fit Center  365 is at  -2.312987  0.458251  2.944281
      ESP Fit Center  366 is at  -1.832987 -0.373133  2.944281
      ESP Fit Center  367 is at  -0.872987 -0.373133  2.944281
      ESP Fit Center  368 is at   0.309781  0.458251  2.241512
      ESP Fit Center  369 is at  -0.007779  1.435602  2.241512
      ESP Fit Center  370 is at  -0.839163  2.039638  2.241512
      ESP Fit Center  371 is at  -1.866811  2.039638  2.241512
      ESP Fit Center  372 is at  -2.698195  1.435602  2.241512
      ESP Fit Center  373 is at  -0.007779 -0.519100  2.241512
      ESP Fit Center  374 is at  -0.392987  2.121020  1.281512
      ESP Fit Center  375 is at  -1.352987  2.378251  1.281512
      ESP Fit Center  376 is at  -0.839163  2.039638  0.321512
      ESP Fit Center  377 is at  -1.753639 -2.526131 -0.481453
      ESP Fit Center  378 is at  -2.199816 -2.607512 -1.441453
      ESP Fit Center  379 is at  -1.239816 -2.864744 -1.441453
      ESP Fit Center  380 is at  -2.585024  0.032607 -2.401453
      ESP Fit Center  381 is at  -2.902584 -0.944744 -2.401453
      ESP Fit Center  382 is at  -2.585024 -1.922095 -2.401453
      ESP Fit Center  383 is at  -1.753639 -2.526131 -2.401453
      ESP Fit Center  384 is at  -0.725992 -2.526131 -2.401453
      ESP Fit Center  385 is at   0.105393 -1.922095 -2.401453
      ESP Fit Center  386 is at  -0.279816 -0.944744 -3.104222
      ESP Fit Center  387 is at  -0.759816 -0.113359 -3.104222
      ESP Fit Center  388 is at  -1.719816 -0.113359 -3.104222
      ESP Fit Center  389 is at  -2.199816 -0.944744 -3.104222
      ESP Fit Center  390 is at  -1.719816 -1.776128 -3.104222
      ESP Fit Center  391 is at  -0.759816 -1.776128 -3.104222
      ESP Fit Center  392 is at  -1.239816 -0.944744 -3.361453
      ESP Fit Center  393 is at  -1.266620  2.307309 -0.153088
      ESP Fit Center  394 is at  -0.752796  2.645922 -1.113088
      ESP Fit Center  395 is at  -1.712796  2.388691 -1.113088
      ESP Fit Center  396 is at  -0.238972  2.307309 -2.073088
      ESP Fit Center  397 is at  -1.266620  2.307309 -2.073088
      ESP Fit Center  398 is at  -2.098004  1.703273 -2.073088
      ESP Fit Center  399 is at   0.207204  0.725922 -2.775857
      ESP Fit Center  400 is at  -0.272796  1.557306 -2.775857
      ESP Fit Center  401 is at  -1.232796  1.557306 -2.775857
      ESP Fit Center  402 is at  -1.712796  0.725922 -2.775857
      ESP Fit Center  403 is at  -0.752796  0.725922 -3.033088
      ESP Fit Center  404 is at   0.204486 -2.513377  1.466213
      ESP Fit Center  405 is at   1.164486 -2.513377  1.466213
      ESP Fit Center  406 is at   0.170663 -3.263380  0.763444
      ESP Fit Center  407 is at   1.198310 -3.263380  0.763444
      ESP Fit Center  408 is at  -0.978282 -2.641993 -0.196556
      ESP Fit Center  409 is at  -0.275514 -3.344762 -0.196556
      ESP Fit Center  410 is at   0.684486 -3.601993 -0.196556
      ESP Fit Center  411 is at   1.644486 -3.344762 -0.196556
      ESP Fit Center  412 is at   0.170663 -3.263380 -1.156556
      ESP Fit Center  413 is at   1.198310 -3.263380 -1.156556
      ESP Fit Center  414 is at   2.029695 -2.659344 -1.156556
      ESP Fit Center  415 is at   1.164486 -2.513377 -1.859324
      ESP Fit Center  416 is at   0.991046  1.088870  2.452355
      ESP Fit Center  417 is at   0.474424  0.194053  2.452355
      ESP Fit Center  418 is at   0.991046 -0.700764  2.452355
      ESP Fit Center  419 is at   2.540914  0.194053 -2.536594
      ESP Fit Center  420 is at   2.024291  1.088870 -2.536594
      ESP Fit Center  421 is at   1.507669  0.194053 -2.742119
      ESP Fit Center  422 is at   1.590407 -1.865601  2.270055
      ESP Fit Center  423 is at   3.633765 -2.159392  2.270055
      ESP Fit Center  424 is at   5.335134 -0.422733  1.394112
      ESP Fit Center  425 is at   5.088104  0.659579  1.394112
      ESP Fit Center  426 is at   5.088104 -1.505045  1.394112
      ESP Fit Center  427 is at   3.873905  2.071742  0.360867
      ESP Fit Center  428 is at   5.335134 -1.455978  0.360867
      ESP Fit Center  429 is at   3.357282 -1.317549 -2.133608
      ESP Fit Center  430 is at   2.840660 -0.422733 -2.339133
      ESP Fit Center  431 is at  -3.466616  2.107389  2.070213
      ESP Fit Center  432 is at  -4.750189 -1.732625  1.194270
      ESP Fit Center  433 is at  -3.749983 -2.214299  1.194270
      ESP Fit Center  434 is at  -5.104098  2.126822  0.161024
      ESP Fit Center  435 is at  -5.689385  1.250879  0.161024
      ESP Fit Center  436 is at  -5.894910  0.217634  0.161024
      ESP Fit Center  437 is at  -5.689385 -0.815611  0.161024
      ESP Fit Center  438 is at  -5.442354  1.299946 -0.872221
      ESP Fit Center  439 is at  -5.689385  0.217634 -0.872221
      ESP Fit Center  440 is at  -5.026763  0.755514 -1.748164
      ESP Fit Center  441 is at  -2.812490 -0.227874  3.034195
      ESP Fit Center  442 is at  -0.173134 -1.260059  2.448908
      ESP Fit Center  443 is at  -2.671017  0.266728 -2.582210
      ESP Fit Center  444 is at   0.194081 -0.271153 -3.167497
      ESP Fit Center  445 is at   0.514896 -0.697973  2.352867
      ESP Fit Center  446 is at  -0.001727 -1.592790  2.147342
      ESP Fit Center  447 is at   1.031519 -1.592790  2.147342
      ESP Fit Center  448 is at   0.243190 -2.587729 -2.256322
      ESP Fit Center  449 is at   1.308001 -2.434632 -2.256322
      ESP Fit Center  450 is at   2.121007 -1.730158 -2.256322
      ESP Fit Center  451 is at   1.548141 -0.697973 -2.841608
      ESP Fit Center  452 is at   1.031519  0.196844 -2.841608
      ESP Fit Center  453 is at   1.031519 -1.592790 -2.841608
      ESP Fit Center  454 is at   0.514896 -0.697973 -3.047133
      ESP Fit Center  455 is at   1.348066  1.407501  2.422632
      ESP Fit Center  456 is at   1.894760  2.354402  2.173073
      ESP Fit Center  457 is at   0.801373  2.354402  2.173073
      ESP Fit Center  458 is at   3.005517  2.472680  1.473826
      ESP Fit Center  459 is at   2.166524  3.199672  1.473826
      ESP Fit Center  460 is at   1.067676  3.357662  1.473826
      ESP Fit Center  461 is at   0.057850  2.896490  1.473826
      ESP Fit Center  462 is at   3.561583  2.473474  0.463384
      ESP Fit Center  463 is at   2.879868  3.328319  0.463384
      ESP Fit Center  464 is at   1.894760  3.802722  0.463384
      ESP Fit Center  465 is at   0.801373  3.802722  0.463384
      ESP Fit Center  466 is at  -0.183735  3.328319  0.463384
      ESP Fit Center  467 is at  -0.865450  2.473474  0.463384
      ESP Fit Center  468 is at   3.561583  2.473474 -0.658121
      ESP Fit Center  469 is at   2.879868  3.328319 -0.658121
      ESP Fit Center  470 is at   1.894760  3.802722 -0.658121
      ESP Fit Center  471 is at   0.801373  3.802722 -0.658121
      ESP Fit Center  472 is at  -0.183735  3.328319 -0.658121
      ESP Fit Center  473 is at   3.005517  2.472680 -1.668563
      ESP Fit Center  474 is at   2.166524  3.199672 -1.668563
      ESP Fit Center  475 is at   1.067676  3.357662 -1.668563
      ESP Fit Center  476 is at   0.057850  2.896490 -1.668563
      ESP Fit Center  477 is at   2.441454  1.407501 -2.367810
      ESP Fit Center  478 is at   1.894760  2.354402 -2.367810
      ESP Fit Center  479 is at   0.801373  2.354402 -2.367810
      ESP Fit Center  480 is at   1.348066  1.407501 -2.617368
      ESP Fit Center  481 is at   2.322412 -2.450935  2.168996
      ESP Fit Center  482 is at   3.402412 -2.450935  2.168996
      ESP Fit Center  483 is at   1.637420 -2.929344  1.378381
      ESP Fit Center  484 is at   2.596196 -3.367202  1.378381
      ESP Fit Center  485 is at   3.639494 -3.217199  1.378381
      ESP Fit Center  486 is at   4.436074 -2.526958  1.378381
      ESP Fit Center  487 is at   2.096466 -3.535262  0.298381
      ESP Fit Center  488 is at   3.122772 -3.659879  0.298381
      ESP Fit Center  489 is at   4.089432 -3.293273  0.298381
      ESP Fit Center  490 is at   4.774997 -2.519429  0.298381
      ESP Fit Center  491 is at   2.596196 -3.367202 -0.781619
      ESP Fit Center  492 is at   3.639494 -3.217199 -0.781619
      ESP Fit Center  493 is at   4.436074 -2.526958 -0.781619
      ESP Fit Center  494 is at   2.322412 -2.450935 -1.572233
      ESP Fit Center  495 is at   3.402412 -2.450935 -1.572233
      ESP Fit Center  496 is at   5.495181 -0.014352  0.796305
      ESP Fit Center  497 is at   5.198227  0.996979  0.796305
      ESP Fit Center  498 is at   5.784566 -0.014352 -0.283695
      ESP Fit Center  499 is at   5.537151  0.989451 -0.283695
      ESP Fit Center  500 is at   4.851586  1.763294 -0.283695
      ESP Fit Center  501 is at   3.884925  2.129900 -0.283695
      ESP Fit Center  502 is at   5.537151 -1.018154 -0.283695
      ESP Fit Center  503 is at   5.495181 -0.014352 -1.363695
      ESP Fit Center  504 is at   5.198227  0.996979 -1.363695
      ESP Fit Center  505 is at   4.401647  1.687220 -1.363695
      ESP Fit Center  506 is at   5.198227 -1.025682 -1.363695
      ESP Fit Center  507 is at   4.704566 -0.014352 -2.154310
      ESP Fit Center  508 is at   4.164566  0.920956 -2.154310
      ESP Fit Center  509 is at   3.084566  0.920956 -2.154310
      ESP Fit Center  510 is at   4.164566 -0.949659 -2.154310
      ESP Fit Center  511 is at   3.624566 -0.014352 -2.443695
      ESP Fit Center  512 is at   3.074183 -0.121948  3.547304
      ESP Fit Center  513 is at   4.154183 -0.121948  3.257919
      ESP Fit Center  514 is at   3.614183  0.813359  3.257919
      ESP Fit Center  515 is at   2.534183  0.813359  3.257919
      ESP Fit Center  516 is at   1.994183 -0.121948  3.257919
      ESP Fit Center  517 is at   2.534183 -1.057255  3.257919
      ESP Fit Center  518 is at   3.614183 -1.057255  3.257919
      ESP Fit Center  519 is at   4.944797 -0.121948  2.467304
      ESP Fit Center  520 is at   4.647844  0.889383  2.467304
      ESP Fit Center  521 is at   3.851264  1.579623  2.467304
      ESP Fit Center  522 is at   2.807966  1.729627  2.467304
      ESP Fit Center  523 is at   1.849190  1.291768  2.467304
      ESP Fit Center  524 is at   3.851264 -1.823519  2.467304
      ESP Fit Center  525 is at   4.647844 -1.133279  2.467304
      ESP Fit Center  526 is at   4.986768  0.881854  1.387304
      ESP Fit Center  527 is at   4.301202  1.655697  1.387304
      ESP Fit Center  528 is at  -2.411303  2.922428  0.798398
      ESP Fit Center  529 is at  -3.454601  3.072432  0.798398
      ESP Fit Center  530 is at  -4.413376  2.634574  0.798398
      ESP Fit Center  531 is at  -1.961364  2.998502 -0.281602
      ESP Fit Center  532 is at  -2.928025  3.365108 -0.281602
      ESP Fit Center  533 is at  -3.954331  3.240492 -0.281602
      ESP Fit Center  534 is at  -4.805167  2.653202 -0.281602
      ESP Fit Center  535 is at  -2.411303  2.922428 -1.361602
      ESP Fit Center  536 is at  -3.454601  3.072432 -1.361602
      ESP Fit Center  537 is at  -4.413376  2.634574 -1.361602
      ESP Fit Center  538 is at  -4.983226  1.747870 -1.361602
      ESP Fit Center  539 is at  -2.648384  2.156165 -2.152217
      ESP Fit Center  540 is at  -3.728384  2.156165 -2.152217
      ESP Fit Center  541 is at  -4.268384  1.220857 -2.152217
      ESP Fit Center  542 is at  -3.188384  1.220857 -2.441602
      ESP Fit Center  543 is at  -4.872259 -1.878578  0.510541
      ESP Fit Center  544 is at  -5.744501 -0.981784 -0.569459
      ESP Fit Center  545 is at  -5.264050 -1.897207 -0.569459
      ESP Fit Center  546 is at  -4.413213 -2.484497 -0.569459
      ESP Fit Center  547 is at  -3.386907 -2.609113 -0.569459
      ESP Fit Center  548 is at  -5.442109  0.062151 -1.649459
      ESP Fit Center  549 is at  -5.442109 -0.991875 -1.649459
      ESP Fit Center  550 is at  -4.872259 -1.878578 -1.649459
      ESP Fit Center  551 is at  -3.913483 -2.316436 -1.649459
      ESP Fit Center  552 is at  -4.187267  0.470446 -2.440074
      ESP Fit Center  553 is at  -4.727267 -0.464862 -2.440074
      ESP Fit Center  554 is at  -4.187267 -1.400169 -2.440074
      ESP Fit Center  555 is at  -3.107267 -1.400169 -2.440074
      ESP Fit Center  556 is at  -3.647267 -0.464862 -2.729459
      ESP Fit Center  557 is at  -3.849491  0.245607  3.198804
      ESP Fit Center  558 is at  -3.309491  1.180914  2.909419
      ESP Fit Center  559 is at  -4.389491  1.180914  2.909419
      ESP Fit Center  560 is at  -4.929491  0.245607  2.909419
      ESP Fit Center  561 is at  -4.389491 -0.689701  2.909419
      ESP Fit Center  562 is at  -3.309491 -0.689701  2.909419
      ESP Fit Center  563 is at  -4.115707  2.097181  2.118804
      ESP Fit Center  564 is at  -5.074483  1.659323  2.118804
      ESP Fit Center  565 is at  -5.644333  0.772620  2.118804
      ESP Fit Center  566 is at  -5.644333 -0.281407  2.118804
      ESP Fit Center  567 is at  -5.074483 -1.168110  2.118804
      ESP Fit Center  568 is at  -4.115707 -1.605968  2.118804
      ESP Fit Center  569 is at  -5.466274  1.677952  1.038804
      ESP Fit Center  570 is at  -5.946725  0.762528  1.038804
      ESP Fit Center  571 is at  -5.946725 -0.271315  1.038804
      ESP Fit Center  572 is at  -5.466274 -1.186738  1.038804
      ESP Fit Center  573 is at  -1.813765 -1.220868  3.169913
      ESP Fit Center  574 is at  -0.733765 -1.220868  2.880528
      ESP Fit Center  575 is at  -2.893765 -1.220868  2.880528
      ESP Fit Center  576 is at  -2.353765 -2.156176  2.880528
      ESP Fit Center  577 is at  -1.273765 -2.156176  2.880528
      ESP Fit Center  578 is at  -3.608607 -1.747881  2.089913
      ESP Fit Center  579 is at  -3.038757 -2.634585  2.089913
      ESP Fit Center  580 is at  -2.079981 -3.072443  2.089913
      ESP Fit Center  581 is at  -1.036684 -2.922439  2.089913
      ESP Fit Center  582 is at  -0.240104 -2.232199  2.089913
      ESP Fit Center  583 is at  -3.430548 -2.653213  1.009913
      ESP Fit Center  584 is at  -2.579712 -3.240503  1.009913
      ESP Fit Center  585 is at  -1.553406 -3.365119  1.009913
      ESP Fit Center  586 is at  -0.586745 -2.998513  1.009913
      ESP Fit Center  587 is at  -3.038757 -2.634585 -0.070087
      ESP Fit Center  588 is at  -2.079981 -3.072443 -0.070087
      ESP Fit Center  589 is at  -1.352987  0.458251  3.441512
      ESP Fit Center  590 is at  -0.272987  0.458251  3.152127
      ESP Fit Center  591 is at  -0.812987  1.393559  3.152127
      ESP Fit Center  592 is at  -1.892987  1.393559  3.152127
      ESP Fit Center  593 is at  -2.432987  0.458251  3.152127
      ESP Fit Center  594 is at  -0.812987 -0.477056  3.152127
      ESP Fit Center  595 is at   0.220674  1.469582  2.361512
      ESP Fit Center  596 is at  -0.575906  2.159822  2.361512
      ESP Fit Center  597 is at  -1.619204  2.309826  2.361512
      ESP Fit Center  598 is at  -2.577980  1.871968  2.361512
      ESP Fit Center  599 is at   0.220674 -0.553079  2.361512
      ESP Fit Center  600 is at  -1.092628  2.602502  1.281512
      ESP Fit Center  601 is at  -2.118934  2.477886  1.281512
      ESP Fit Center  602 is at  -2.856599 -2.377089 -1.441453
      ESP Fit Center  603 is at  -2.005762 -2.964379 -1.441453
      ESP Fit Center  604 is at  -0.979456 -3.088995 -1.441453
      ESP Fit Center  605 is at  -3.034658 -1.471757 -2.521453
      ESP Fit Center  606 is at  -2.464808 -2.358460 -2.521453
      ESP Fit Center  607 is at  -1.506032 -2.796318 -2.521453
      ESP Fit Center  608 is at  -0.462734 -2.646315 -2.521453
      ESP Fit Center  609 is at  -0.159816 -0.944744 -3.312068
      ESP Fit Center  610 is at  -1.779816 -0.009436 -3.312068
      ESP Fit Center  611 is at  -2.319816 -0.944744 -3.312068
      ESP Fit Center  612 is at  -1.779816 -1.880051 -3.312068
      ESP Fit Center  613 is at  -0.699816 -1.880051 -3.312068
      ESP Fit Center  614 is at  -1.239816 -0.944744 -3.601453
      ESP Fit Center  615 is at  -1.019012  2.577497 -0.033088
      ESP Fit Center  616 is at  -0.492437  2.870173 -1.113088
      ESP Fit Center  617 is at  -1.518742  2.745557 -1.113088
      ESP Fit Center  618 is at   0.024286  2.427493 -2.193088
      ESP Fit Center  619 is at  -1.019012  2.577497 -2.193088
      ESP Fit Center  620 is at  -1.977788  2.139638 -2.193088
      ESP Fit Center  621 is at   0.327204  0.725922 -2.983703
      ESP Fit Center  622 is at  -0.212796  1.661229 -2.983703
      ESP Fit Center  623 is at  -1.292796  1.661229 -2.983703
      ESP Fit Center  624 is at  -1.832796  0.725922 -2.983703
      ESP Fit Center  625 is at  -0.752796  0.725922 -3.273088
      ESP Fit Center  626 is at   0.144486 -2.617300  1.674059
      ESP Fit Center  627 is at   1.224486 -2.617300  1.674059
      ESP Fit Center  628 is at  -0.540506 -3.095709  0.883444
      ESP Fit Center  629 is at   0.418270 -3.533568  0.883444
      ESP Fit Center  630 is at   1.461568 -3.383564  0.883444
      ESP Fit Center  631 is at  -0.932297 -3.114338 -0.196556
      ESP Fit Center  632 is at  -0.081460 -3.701628 -0.196556
      ESP Fit Center  633 is at   0.944846 -3.826244 -0.196556
      ESP Fit Center  634 is at   1.911506 -3.459638 -0.196556
      ESP Fit Center  635 is at  -0.540506 -3.095709 -1.276556
      ESP Fit Center  636 is at   0.418270 -3.533568 -1.276556
      ESP Fit Center  637 is at   1.461568 -3.383564 -1.276556
      ESP Fit Center  638 is at   0.994639  1.082647  2.776958
      ESP Fit Center  639 is at   0.994639 -0.694542  2.776958
      ESP Fit Center  640 is at   3.129911  1.236605 -2.340253
      ESP Fit Center  641 is at   2.533729  0.194053 -2.861197
      ESP Fit Center  642 is at   2.020699  1.082647 -2.861197
      ESP Fit Center  643 is at   0.994639  1.082647 -2.861197
      ESP Fit Center  644 is at   1.507669  0.194053 -3.042119
      ESP Fit Center  645 is at   1.577850 -1.880092  2.659000
      ESP Fit Center  646 is at   2.566225 -2.331468  2.659000
      ESP Fit Center  647 is at   3.641730 -2.176833  2.659000
      ESP Fit Center  648 is at   5.438736 -0.422733  1.860867
      ESP Fit Center  649 is at   4.579112 -2.353480  1.860867
      ESP Fit Center  650 is at   5.214120 -1.479466  1.860867
      ESP Fit Center  651 is at   5.795083 -0.422733  0.881811
      ESP Fit Center  652 is at   5.024005  1.567649  0.881811
      ESP Fit Center  653 is at   4.157559  2.221958  0.881811
      ESP Fit Center  654 is at   5.024005 -2.413115  0.881811
      ESP Fit Center  655 is at   5.595577 -1.489994  0.881811
      ESP Fit Center  656 is at   5.595577 -1.489994 -0.160078
      ESP Fit Center  657 is at   3.641730 -2.176833 -1.937267
      ESP Fit Center  658 is at   3.353690 -1.311327 -2.458211
      ESP Fit Center  659 is at  -2.392060  2.688551  1.661024
      ESP Fit Center  660 is at  -3.466483  2.801478  1.661024
      ESP Fit Center  661 is at  -4.493948 -2.032366  1.661024
      ESP Fit Center  662 is at  -4.975348  2.575315  0.681969
      ESP Fit Center  663 is at  -5.706811  1.772937  0.681969
      ESP Fit Center  664 is at  -5.706811 -1.337670  0.681969
      ESP Fit Center  665 is at  -4.975348 -2.140047  0.681969
      ESP Fit Center  666 is at  -4.003426 -2.624006  0.681969
      ESP Fit Center  667 is at  -5.706811  1.772937 -0.359920
      ESP Fit Center  668 is at  -6.099028  0.760508 -0.359920
      ESP Fit Center  669 is at  -6.099028 -0.325240 -0.359920
      ESP Fit Center  670 is at  -5.296798  1.744745 -1.338976
      ESP Fit Center  671 is at  -5.736212  0.757804 -1.338976
      ESP Fit Center  672 is at  -5.045160  0.760916 -2.137109
      ESP Fit Center  673 is at  -2.681880  1.106228 -2.658053
      ESP Fit Center  674 is at  -3.707940  1.106228 -2.658053
      ESP Fit Center  675 is at  -3.194910  0.217634 -2.838976
      ESP Fit Center  676 is at  -2.805306 -0.227874  3.358798
      ESP Fit Center  677 is at  -1.266215 -1.116469  3.358798
      ESP Fit Center  678 is at  -0.157003 -1.270426  2.837853
      ESP Fit Center  679 is at   0.783078  0.771399 -2.971155
      ESP Fit Center  680 is at  -2.689415  0.272130 -2.971155
      ESP Fit Center  681 is at   0.186896 -0.271153 -3.492100
      ESP Fit Center  682 is at  -0.326134  0.617442 -3.492100
      ESP Fit Center  683 is at  -1.352195  0.617442 -3.492100
      ESP Fit Center  684 is at   0.514896 -0.697973  2.652867
      ESP Fit Center  685 is at   1.027926 -1.586567  2.471945
      ESP Fit Center  686 is at   2.253348 -2.628720 -1.847133
      ESP Fit Center  687 is at   0.240461 -2.606708 -2.645267
      ESP Fit Center  688 is at   1.315967 -2.452074 -2.645267
      ESP Fit Center  689 is at   2.137138 -1.740525 -2.645267
      ESP Fit Center  690 is at   1.540956 -0.697973 -3.166211
      ESP Fit Center  691 is at   1.027926  0.190621 -3.166211
      ESP Fit Center  692 is at   1.027926 -1.586567 -3.166211
      ESP Fit Center  693 is at   0.514896 -0.697973 -3.347133
      ESP Fit Center  694 is at   1.348066  1.407501  2.702632
      ESP Fit Center  695 is at   1.883823  2.335459  2.489494
      ESP Fit Center  696 is at   0.812310  2.335459  2.489494
      ESP Fit Center  697 is at   3.062709  2.397450  1.882531
      ESP Fit Center  698 is at   2.338016  3.122144  1.882531
      ESP Fit Center  699 is at   1.348066  3.387400  1.882531
      ESP Fit Center  700 is at   0.358117  3.122144  1.882531
      ESP Fit Center  701 is at   3.711283  2.459673  0.974145
      ESP Fit Center  702 is at   3.079015  3.329914  0.974145
      ESP Fit Center  703 is at   2.147451  3.867753  0.974145
      ESP Fit Center  704 is at   1.077666  3.980192  0.974145
      ESP Fit Center  705 is at   0.054635  3.647790  0.974145
      ESP Fit Center  706 is at  -0.744749  2.928021  0.974145
      ESP Fit Center  707 is at   3.958989  2.418978 -0.097368
      ESP Fit Center  708 is at   3.417291  3.293849 -0.097368
[...]
  167 Fit       0.019661
  168 Fit       0.014444
  169 Fit       0.002348
  170 Fit       0.000684
  171 Fit       0.007180
  172 Fit       0.013237
  173 Fit       0.012857
  174 Fit       0.007747
  175 Fit      -0.041092
  176 Fit      -0.005942
  177 Fit      -0.021527
  178 Fit      -0.002195
  179 Fit      -0.011112
  180 Fit      -0.009021
  181 Fit       0.001139
  182 Fit      -0.002261
  183 Fit       0.028347
  184 Fit       0.038286
  185 Fit       0.040600
  186 Fit       0.044637
  187 Fit       0.039430
  188 Fit       0.041565
  189 Fit       0.040435
  190 Fit       0.027411
  191 Fit      -0.017927
  192 Fit      -0.001024
  193 Fit       0.010615
  194 Fit      -0.001728
  195 Fit      -0.011012
  196 Fit       0.021181
  197 Fit       0.011181
  198 Fit       0.007434
  199 Fit      -0.006466
  200 Fit      -0.029016
  201 Fit       0.009844
  202 Fit       0.010552
  203 Fit       0.009086
  204 Fit       0.010073
  205 Fit       0.006341
  206 Fit      -0.003582
  207 Fit      -0.002696
  208 Fit       0.002196
  209 Fit       0.005539
  210 Fit      -0.001984
  211 Fit      -0.000807
  212 Fit      -0.000999
  213 Fit       0.002404
  214 Fit      -0.005803
  215 Fit       0.005425
  216 Fit       0.010656
  217 Fit       0.018598
  218 Fit       0.009987
  219 Fit      -0.006211
  220 Fit      -0.013047
  221 Fit      -0.000222
  222 Fit      -0.006527
  223 Fit      -0.024105
  224 Fit      -0.038730
  225 Fit      -0.039203
  226 Fit      -0.025716
  227 Fit      -0.041794
  228 Fit      -0.049248
  229 Fit      -0.048288
  230 Fit      -0.041033
  231 Fit      -0.042057
  232 Fit      -0.051519
  233 Fit      -0.053117
  234 Fit      -0.051198
  235 Fit      -0.045447
  236 Fit      -0.041943
  237 Fit      -0.051329
  238 Fit      -0.053035
  239 Fit      -0.051197
  240 Fit      -0.044310
  241 Fit      -0.022665
  242 Fit      -0.042971
  243 Fit      -0.049566
  244 Fit      -0.048626
  245 Fit      -0.028728
  246 Fit      -0.041813
  247 Fit      -0.040958
  248 Fit      -0.031310
  249 Fit       0.018891
  250 Fit       0.015227
  251 Fit       0.025172
  252 Fit       0.018902
  253 Fit       0.014251
  254 Fit       0.037222
  255 Fit       0.024536
  256 Fit       0.018350
  257 Fit       0.013808
  258 Fit       0.029459
  259 Fit       0.019934
  260 Fit       0.014312
  261 Fit       0.021665
  262 Fit       0.015624
  263 Fit       0.006455
  264 Fit       0.001076
  265 Fit       0.007878
  266 Fit       0.003631
  267 Fit      -0.005826
  268 Fit      -0.027541
  269 Fit       0.009684
  270 Fit       0.008475
  271 Fit       0.003579
  272 Fit      -0.007778
  273 Fit       0.010038
  274 Fit       0.007224
  275 Fit       0.000726
  276 Fit      -0.006388
  277 Fit       0.008832
  278 Fit       0.004541
  279 Fit       0.009849
  280 Fit       0.009895
  281 Fit       0.005986
  282 Fit       0.003765
  283 Fit       0.008580
  284 Fit       0.012067
  285 Fit       0.011889
  286 Fit       0.008438
  287 Fit       0.004180
  288 Fit      -0.002982
  289 Fit      -0.010400
  290 Fit      -0.005097
  291 Fit       0.009151
  292 Fit       0.012891
  293 Fit       0.010882
  294 Fit       0.006851
  295 Fit       0.001798
  296 Fit      -0.007851
  297 Fit      -0.026247
  298 Fit      -0.005490
  299 Fit      -0.002964
  300 Fit      -0.002738
  301 Fit      -0.006186
  302 Fit      -0.002025
  303 Fit      -0.000654
  304 Fit      -0.001331
  305 Fit      -0.001597
  306 Fit       0.000391
  307 Fit       0.000050
  308 Fit       0.000447
  309 Fit       0.000644
  310 Fit      -0.000363
  311 Fit       0.000770
  312 Fit       0.001921
  313 Fit       0.004724
  314 Fit       0.001245
  315 Fit       0.004101
  316 Fit       0.006690
  317 Fit       0.009406
  318 Fit      -0.000056
  319 Fit       0.003314
  320 Fit       0.006556
  321 Fit       0.009310
  322 Fit       0.012674
  323 Fit       0.001477
  324 Fit       0.004697
  325 Fit       0.008134
  326 Fit       0.010807
  327 Fit       0.005766
  328 Fit       0.004174
  329 Fit       0.002158
  330 Fit       0.001310
  331 Fit       0.003153
  332 Fit       0.005157
  333 Fit       0.005345
  334 Fit       0.004187
  335 Fit      -0.002346
  336 Fit      -0.000084
  337 Fit       0.002723
  338 Fit       0.004374
  339 Fit       0.004685
  340 Fit       0.004528
  341 Fit      -0.001811
  342 Fit       0.000580
  343 Fit       0.001961
  344 Fit       0.002255
  345 Fit       0.002246
  346 Fit       0.003340
  347 Fit       0.003793
  348 Fit       0.004076
  349 Fit       0.007138
  350 Fit       0.008276
  351 Fit       0.007196
  352 Fit       0.010752
  353 Fit       0.013928
  354 Fit       0.014258
  355 Fit       0.006701
  356 Fit       0.010911
  357 Fit       0.015702
  358 Fit       0.023036
  359 Fit       0.014202
  360 Fit       0.023676
  361 Fit      -0.000043
  362 Fit      -0.001361
  363 Fit      -0.003572
  364 Fit      -0.001258
  365 Fit       0.000588
  366 Fit       0.000545
  367 Fit       0.000718
  368 Fit      -0.004287
  369 Fit      -0.015117
  370 Fit      -0.011236
  371 Fit      -0.004907
  372 Fit      -0.001234
  373 Fit       0.001416
  374 Fit      -0.032316
  375 Fit      -0.014140
  376 Fit      -0.029487
  377 Fit       0.019429
  378 Fit       0.015754
  379 Fit       0.020250
  380 Fit       0.005401
  381 Fit       0.010007
  382 Fit       0.012727
  383 Fit       0.014493
  384 Fit       0.015148
  385 Fit       0.008472
  386 Fit       0.001972
  387 Fit      -0.000260
  388 Fit       0.003463
  389 Fit       0.008151
  390 Fit       0.010725
  391 Fit       0.008954
  392 Fit       0.005806
  393 Fit      -0.017277
  394 Fit      -0.024219
  395 Fit      -0.005551
  396 Fit      -0.021888
  397 Fit      -0.007120
  398 Fit       0.000847
  399 Fit      -0.010179
  400 Fit      -0.010458
  401 Fit      -0.003019
  402 Fit       0.001028
  403 Fit      -0.003167
  404 Fit       0.026023
  405 Fit       0.030160
  406 Fit       0.033650
  407 Fit       0.036367
  408 Fit       0.030450
  409 Fit       0.033837
  410 Fit       0.036065
  411 Fit       0.037243
  412 Fit       0.031053
  413 Fit       0.031306
  414 Fit       0.028822
  415 Fit       0.018459
  416 Fit      -0.012820
  417 Fit      -0.000901
  418 Fit       0.008652
  419 Fit      -0.003904
  420 Fit      -0.019401
  421 Fit      -0.009998
  422 Fit       0.016573
  423 Fit       0.012612
  424 Fit       0.006397
  425 Fit       0.002589
  426 Fit       0.008875
  427 Fit      -0.022333
  428 Fit       0.008741
  429 Fit       0.008175
  430 Fit       0.003331
  431 Fit      -0.002723
  432 Fit       0.003049
  433 Fit       0.005664
  434 Fit      -0.001908
  435 Fit      -0.001134
  436 Fit      -0.000047
  437 Fit       0.001120
  438 Fit      -0.001296
  439 Fit       0.000055
  440 Fit      -0.000201
  441 Fit       0.002062
  442 Fit       0.005699
  443 Fit       0.003563
  444 Fit      -0.004291
  445 Fit       0.005516
  446 Fit       0.009562
  447 Fit       0.015220
  448 Fit       0.014817
  449 Fit       0.011990
  450 Fit       0.006996
  451 Fit      -0.004381
  452 Fit      -0.010611
  453 Fit       0.001050
  454 Fit      -0.004094
  455 Fit      -0.017976
  456 Fit      -0.030527
  457 Fit      -0.031100
  458 Fit      -0.031637
  459 Fit      -0.039472
  460 Fit      -0.040169
  461 Fit      -0.035854
  462 Fit      -0.031968
  463 Fit      -0.041131
  464 Fit      -0.043840
  465 Fit      -0.042970
  466 Fit      -0.038977
  467 Fit      -0.029433
  468 Fit      -0.031969
  469 Fit      -0.041174
  470 Fit      -0.043856
  471 Fit      -0.042973
  472 Fit      -0.038409
  473 Fit      -0.033381
  474 Fit      -0.040181
  475 Fit      -0.040579
  476 Fit      -0.034781
  477 Fit      -0.022516
  478 Fit      -0.033735
  479 Fit      -0.032658
  480 Fit      -0.024757
  481 Fit       0.017205
  482 Fit       0.013823
  483 Fit       0.028242
  484 Fit       0.020813
  485 Fit       0.015934
  486 Fit       0.012369
  487 Fit       0.028970
  488 Fit       0.020269
  489 Fit       0.015451
  490 Fit       0.011960
  491 Fit       0.023363
  492 Fit       0.016557
  493 Fit       0.012335
  494 Fit       0.019025
  495 Fit       0.013818
  496 Fit       0.005415
  497 Fit       0.000639
  498 Fit       0.006167
  499 Fit       0.002247
  500 Fit      -0.005663
  501 Fit      -0.022948
  502 Fit       0.008298
  503 Fit       0.006405
  504 Fit       0.002010
  505 Fit      -0.007249
  506 Fit       0.008414
  507 Fit       0.005160
  508 Fit      -0.001521
  509 Fit      -0.009220
  510 Fit       0.007400
  511 Fit       0.002574
  512 Fit       0.007627
  513 Fit       0.007764
  514 Fit       0.003687
  515 Fit       0.001424
  516 Fit       0.006505
  517 Fit       0.010407
  518 Fit       0.010087
  519 Fit       0.006777
  520 Fit       0.002851
  521 Fit      -0.003494
  522 Fit      -0.011393
  523 Fit      -0.012458
  524 Fit       0.011537
  525 Fit       0.009298
  526 Fit       0.001236
  527 Fit      -0.007370
  528 Fit      -0.007561
  529 Fit      -0.003995
  530 Fit      -0.002657
  531 Fit      -0.009666
  532 Fit      -0.004287
  533 Fit      -0.001810
  534 Fit      -0.001331
  535 Fit      -0.004063
  536 Fit      -0.001318
  537 Fit      -0.000418
  538 Fit      -0.000852
  539 Fit      -0.000809
  540 Fit      -0.000163
  541 Fit      -0.000233
  542 Fit       0.000554
  543 Fit       0.003133
  544 Fit       0.002333
  545 Fit       0.004582
  546 Fit       0.006895
  547 Fit       0.009902
  548 Fit       0.001406
  549 Fit       0.004049
  550 Fit       0.006539
  551 Fit       0.009110
  552 Fit       0.001292
  553 Fit       0.003909
  554 Fit       0.007046
  555 Fit       0.010033
  556 Fit       0.005043
  557 Fit       0.003173
  558 Fit       0.000536
  559 Fit       0.002090
  560 Fit       0.003936
  561 Fit       0.004420
  562 Fit       0.003626
  563 Fit      -0.001363
  564 Fit       0.000977
  565 Fit       0.002775
  566 Fit       0.003688
  567 Fit       0.003996
  568 Fit       0.004464
  569 Fit      -0.000507
  570 Fit       0.001030
  571 Fit       0.001867
  572 Fit       0.002268
  573 Fit       0.003247
  574 Fit       0.003997
  575 Fit       0.003850
  576 Fit       0.006459
  577 Fit       0.007753
  578 Fit       0.005103
  579 Fit       0.007631
  580 Fit       0.010655
  581 Fit       0.013641
  582 Fit       0.014142
  583 Fit       0.007657
  584 Fit       0.011319
  585 Fit       0.016226
  586 Fit       0.024917
  587 Fit       0.010425
  588 Fit       0.015466
  589 Fit      -0.000361
  590 Fit      -0.001667
  591 Fit      -0.004492
  592 Fit      -0.001915
  593 Fit       0.000539
  594 Fit       0.001222
  595 Fit      -0.016437
  596 Fit      -0.014016
  597 Fit      -0.007295
  598 Fit      -0.002946
  599 Fit       0.002895
  600 Fit      -0.018870
  601 Fit      -0.008048
  602 Fit       0.012920
  603 Fit       0.015375
  604 Fit       0.020658
  605 Fit       0.009987
  606 Fit       0.011706
  607 Fit       0.013286
  608 Fit       0.013679
  609 Fit       0.001184
  610 Fit       0.002499
  611 Fit       0.006722
  612 Fit       0.009115
  613 Fit       0.007699
  614 Fit       0.004612
  615 Fit      -0.025462
  616 Fit      -0.031050
  617 Fit      -0.011107
  618 Fit      -0.025671
  619 Fit      -0.011494
  620 Fit      -0.002418
  621 Fit      -0.010203
  622 Fit      -0.011086
  623 Fit      -0.003904
  624 Fit       0.000643
  625 Fit      -0.003399
  626 Fit       0.022150
  627 Fit       0.025640
  628 Fit       0.026160
  629 Fit       0.029215
  630 Fit       0.031183
  631 Fit       0.026939
  632 Fit       0.029257
  633 Fit       0.030701
  634 Fit       0.031935
  635 Fit       0.025371
  636 Fit       0.026462
  637 Fit       0.026248
  638 Fit      -0.009431
  639 Fit       0.007196
  640 Fit      -0.012852
  641 Fit      -0.004669
  642 Fit      -0.015803
  643 Fit      -0.017125
  644 Fit      -0.008653
  645 Fit       0.013538
  646 Fit       0.013368
  647 Fit       0.011218
  648 Fit       0.005866
  649 Fit       0.010489
  650 Fit       0.007975
  651 Fit       0.005496
  652 Fit      -0.003914
  653 Fit      -0.016078
  654 Fit       0.010263
  655 Fit       0.007555
  656 Fit       0.007969
  657 Fit       0.010447
  658 Fit       0.006501
  659 Fit      -0.006921
  660 Fit      -0.004162
  661 Fit       0.004083
  662 Fit      -0.002025
  663 Fit      -0.000881
  664 Fit       0.002122
  665 Fit       0.003589
  666 Fit       0.006055
  667 Fit      -0.001222
  668 Fit      -0.000385
  669 Fit       0.000871
  670 Fit      -0.000894
  671 Fit      -0.000174
  672 Fit       0.000334
  673 Fit       0.000846
  674 Fit       0.000388
  675 Fit       0.002856
  676 Fit       0.001884
  677 Fit       0.003040
  678 Fit       0.005569
  679 Fit      -0.012895
  680 Fit       0.002846
  681 Fit      -0.003210
  682 Fit      -0.004768
  683 Fit      -0.001011
  684 Fit       0.005204
  685 Fit       0.012771
  686 Fit       0.016253
  687 Fit       0.011387
  688 Fit       0.009145
  689 Fit       0.005346
  690 Fit      -0.003161
  691 Fit      -0.008556
  692 Fit       0.001650
  693 Fit      -0.002635
  694 Fit      -0.013689
  695 Fit      -0.023376
  696 Fit      -0.024067
  697 Fit      -0.023040
  698 Fit      -0.030448
  699 Fit      -0.032307
  700 Fit      -0.030118
  701 Fit      -0.024053
  702 Fit      -0.032339
  703 Fit      -0.035684
  704 Fit      -0.035775
  705 Fit      -0.033253
  706 Fit      -0.027229
  707 Fit      -0.023404
  708 Fit      -0.032240
  709 Fit      -0.036249
  710 Fit      -0.037228
  711 Fit      -0.036073
  712 Fit      -0.032491
  713 Fit      -0.024571
  714 Fit      -0.032780
  715 Fit      -0.035939
  716 Fit      -0.035898
  717 Fit      -0.032842
  718 Fit      -0.025882
  719 Fit      -0.031860
  720 Fit      -0.033119
  721 Fit      -0.030054
  722 Fit      -0.018511
  723 Fit      -0.026910
  724 Fit      -0.025929
  725 Fit      -0.019994
  726 Fit       0.022284
  727 Fit       0.017671
  728 Fit       0.013938
  729 Fit       0.011186
  730 Fit       0.022109
  731 Fit       0.016699
  732 Fit       0.013182
  733 Fit       0.010573
  734 Fit       0.023689
  735 Fit       0.017164
  736 Fit       0.013293
  737 Fit       0.010573
  738 Fit       0.019939
  739 Fit       0.014426
  740 Fit       0.010990
  741 Fit       0.011967
  742 Fit       0.004782
  743 Fit       0.001164
  744 Fit      -0.005392
  745 Fit       0.005088
  746 Fit       0.001614
  747 Fit      -0.004792
  748 Fit      -0.017428
  749 Fit       0.007181
  750 Fit       0.004758
  751 Fit       0.000621
  752 Fit      -0.007320
  753 Fit       0.006966
  754 Fit       0.003451
  755 Fit      -0.002397
  756 Fit       0.005839
  757 Fit       0.001219
  758 Fit       0.006065
  759 Fit       0.006298
  760 Fit       0.002786
  761 Fit       0.001097
  762 Fit       0.005208
  763 Fit       0.008724
  764 Fit       0.008512
  765 Fit       0.005843
  766 Fit       0.002394
  767 Fit      -0.002667
  768 Fit      -0.008166
  769 Fit      -0.008454
  770 Fit       0.010215
  771 Fit       0.008207
  772 Fit       0.005178
  773 Fit       0.001464
  774 Fit      -0.004601
  775 Fit      -0.014499
  776 Fit      -0.007745
  777 Fit      -0.004441
  778 Fit      -0.013476
  779 Fit      -0.006810
  780 Fit      -0.003479
  781 Fit      -0.002116
  782 Fit      -0.011200
  783 Fit      -0.005586
  784 Fit      -0.002527
  785 Fit      -0.001322
  786 Fit      -0.001147
  787 Fit      -0.004324
  788 Fit      -0.001911
  789 Fit      -0.000785
  790 Fit      -0.000629
  791 Fit      -0.001324
  792 Fit      -0.000586
  793 Fit       0.000421
  794 Fit       0.002541
  795 Fit       0.004376
  796 Fit       0.006651
  797 Fit       0.001708
  798 Fit       0.003618
  799 Fit       0.005546
  800 Fit       0.007771
  801 Fit       0.011063
  802 Fit       0.001631
  803 Fit       0.003775
  804 Fit       0.005930
  805 Fit       0.008321
  806 Fit       0.001562
  807 Fit       0.003519
  808 Fit       0.006117
  809 Fit       0.004499
  810 Fit       0.002525
  811 Fit       0.000426
  812 Fit       0.001590
  813 Fit       0.003114
  814 Fit       0.003730
  815 Fit       0.003203
  816 Fit      -0.000998
  817 Fit       0.000892
  818 Fit       0.002399
  819 Fit       0.003301
  820 Fit       0.003804
  821 Fit       0.004364
  822 Fit      -0.000575
  823 Fit       0.000937
  824 Fit       0.001975
  825 Fit       0.002608
  826 Fit       0.003149
  827 Fit       0.000617
  828 Fit       0.003198
  829 Fit       0.003562
  830 Fit       0.005641
  831 Fit       0.006682
  832 Fit       0.004814
  833 Fit       0.006685
  834 Fit       0.009057
  835 Fit       0.011267
  836 Fit       0.011421
  837 Fit       0.007851
  838 Fit       0.010816
  839 Fit       0.014792
  840 Fit       0.020546
  841 Fit       0.008960
  842 Fit       0.012669
  843 Fit       0.018991
  844 Fit       0.015538
  845 Fit      -0.000454
  846 Fit      -0.001450
  847 Fit      -0.004020
  848 Fit      -0.001975
  849 Fit       0.000394
  850 Fit       0.001349
  851 Fit      -0.011794
  852 Fit      -0.011155
  853 Fit      -0.006425
  854 Fit      -0.002639
  855 Fit       0.003185
  856 Fit      -0.018352
  857 Fit      -0.009248
  858 Fit       0.012766
  859 Fit       0.016876
  860 Fit       0.011672
  861 Fit       0.013856
  862 Fit       0.017119
  863 Fit       0.005228
  864 Fit       0.008106
  865 Fit       0.009761
  866 Fit       0.010935
  867 Fit       0.010748
  868 Fit       0.001301
  869 Fit       0.001996
  870 Fit       0.005457
  871 Fit       0.007431
  872 Fit       0.006298
  873 Fit       0.003779
  874 Fit      -0.018268
  875 Fit      -0.013253
  876 Fit      -0.019974
  877 Fit      -0.010235
  878 Fit      -0.003144
  879 Fit       0.000597
  880 Fit      -0.008633
  881 Fit      -0.009677
  882 Fit      -0.004191
  883 Fit      -0.003369
  884 Fit       0.018373
  885 Fit       0.021173
  886 Fit       0.024284
  887 Fit       0.025972
  888 Fit       0.023889
  889 Fit       0.025684
  890 Fit       0.026982
  891 Fit       0.023592
  892 Fit       0.024797
  893 Fit       0.025463
  894 Fit       0.021151
  895 Fit       0.020598
 -----------------------------------------------------------------
 Leave Link  602 at Sat Feb 17 21:02:30 2018, MaxMem=   33554432 cpu:       0.3

 Test job not archived.
 1\1\GINC-NODE073\SP\RHF\6-31G(d)\C5H11N1O1\WULSDORT\17-Feb-2018\0\\#HF
 /6-31G* Geom=AllCheck Guess=Read Pop=(MK,ReadRadii) Integral=(Grid=Ult
 raFine) iop(6/33=2)\\Optimization for frag39-conf1\\0,1\C,0,3.74794281
 69,0.6105463054,-3.2261796448\C,0,3.819231991,-0.0277353747,-4.6071940
 94\C,0,1.1997402046,2.1894071856,0.402860383\C,0,1.4447404033,1.483071
 2517,-0.9339488319\C,0,2.5119591645,2.1920598267,-1.7793763182\N,0,2.7
 639287101,1.5480483159,-3.061413378\O,0,4.5299744697,0.306858547,-2.33
 33293825\H,0,3.1069615037,0.3883629812,-5.3271448368\H,0,4.833284952,0
 .0963930907,-4.9983881631\H,0,3.6374889405,-1.102974766,-4.5102035586\
 H,0,2.1167491756,2.2290073013,1.002813758\H,0,0.8556570974,3.220583593
 2,0.25347628\H,0,0.4385135225,1.6676938285,0.9928642576\H,0,0.50638778
 44,1.4267049807,-1.5037094967\H,0,1.7720215566,0.4506859541,-0.7613603
 618\H,0,2.2200308222,3.2335922646,-1.9657118228\H,0,3.4652666624,2.201
 6153163,-1.244222501\H,0,2.0980531861,1.6879837876,-3.8075752805\\Vers
 ion=AM64L-G09RevC.01\State=1-A\HF=-325.0762185\RMSD=7.095e-09\Dipole=-
 1.1706671,0.4662444,-0.8776516\Quadrupole=-3.7599433,-0.2714578,4.0314
 012,1.2850754,-0.789862,1.5209736\PG=C01 [X(C5H11N1O1)]\\@


 MORNING PEOPLE ARE USUALLY ADMIRED AS EARLY BIRDS.
 RECALL BEN FRANKLIN'S APHORISM THAT THE EARLY BIRD GETS THE WORM.
 I IDENTIFY WITH THE WORM. --  CRAIG JAGGER, MINNEAPOLIS, KS.
 Job cpu time:  0 days  0 hours  0 minutes 31.3 seconds.
 File lengths (MBytes):  RWF=     14 Int=      0 D2E=      0 Chk=      2 Scr=      1
 Normal termination of Gaussian 09 at Sat Feb 17 21:02:30 2018.
