 Entering Gaussian System, Link 0=g09
 Initial command:
 /home/fb_chem/chemsoft/lx24-amd64/Gaussian_09_C.01_NBO_3.1_64_istanbul-64/g09/l1.exe /local/2397395.1.parallel/Gau-22610.inp -scrdir=/local/2397395.1.parallel/
 Entering Link 1 = /home/fb_chem/chemsoft/lx24-amd64/Gaussian_09_C.01_NBO_3.1_64_istanbul-64/g09/l1.exe PID=     22611.
  
 Copyright (c) 1988,1990,1992,1993,1995,1998,2003,2009,2011,
            Gaussian, Inc.  All Rights Reserved.
  
 This is part of the Gaussian(R) 09 program.  It is based on
 the Gaussian(R) 03 system (copyright 2003, Gaussian, Inc.),
 the Gaussian(R) 98 system (copyright 1998, Gaussian, Inc.),
 the Gaussian(R) 94 system (copyright 1995, Gaussian, Inc.),
 the Gaussian 92(TM) system (copyright 1992, Gaussian, Inc.),
 the Gaussian 90(TM) system (copyright 1990, Gaussian, Inc.),
 the Gaussian 88(TM) system (copyright 1988, Gaussian, Inc.),
 the Gaussian 86(TM) system (copyright 1986, Carnegie Mellon
 University), and the Gaussian 82(TM) system (copyright 1983,
 Carnegie Mellon University). Gaussian is a federally registered
 trademark of Gaussian, Inc.
  
 This software contains proprietary and confidential information,
 including trade secrets, belonging to Gaussian, Inc.
  
 This software is provided under written license and may be
 used, copied, transmitted, or stored only in accord with that
 written license.
  
 The following legend is applicable only to US Government
 contracts under FAR:
  
                    RESTRICTED RIGHTS LEGEND
  
 Use, reproduction and disclosure by the US Government is
 subject to restrictions as set forth in subparagraphs (a)
 and (c) of the Commercial Computer Software - Restricted
 Rights clause in FAR 52.227-19.
  
 Gaussian, Inc.
 340 Quinnipiac St., Bldg. 40, Wallingford CT 06492
  
  
 ---------------------------------------------------------------
 Warning -- This program may not be used in any manner that
 competes with the business of Gaussian, Inc. or will provide
 assistance to any competitor of Gaussian, Inc.  The licensee
 of this program is prohibited from giving any competitor of
 Gaussian, Inc. access to this program.  By using this program,
 the user acknowledges that Gaussian, Inc. is engaged in the
 business of creating and licensing software in the field of
 computational chemistry and represents and warrants to the
 licensee that it is not a competitor of Gaussian, Inc. and that
 it will not use this program in any manner prohibited above.
 ---------------------------------------------------------------
  

 Cite this work as:
 Gaussian 09, Revision C.01,
 M. J. Frisch, G. W. Trucks, H. B. Schlegel, G. E. Scuseria, 
 M. A. Robb, J. R. Cheeseman, G. Scalmani, V. Barone, B. Mennucci, 
 G. A. Petersson, H. Nakatsuji, M. Caricato, X. Li, H. P. Hratchian, 
 A. F. Izmaylov, J. Bloino, G. Zheng, J. L. Sonnenberg, M. Hada, 
 M. Ehara, K. Toyota, R. Fukuda, J. Hasegawa, M. Ishida, T. Nakajima, 
 Y. Honda, O. Kitao, H. Nakai, T. Vreven, J. A. Montgomery, Jr., 
 J. E. Peralta, F. Ogliaro, M. Bearpark, J. J. Heyd, E. Brothers, 
 K. N. Kudin, V. N. Staroverov, T. Keith, R. Kobayashi, J. Normand, 
 K. Raghavachari, A. Rendell, J. C. Burant, S. S. Iyengar, J. Tomasi, 
 M. Cossi, N. Rega, J. M. Millam, M. Klene, J. E. Knox, J. B. Cross, 
 V. Bakken, C. Adamo, J. Jaramillo, R. Gomperts, R. E. Stratmann, 
 O. Yazyev, A. J. Austin, R. Cammi, C. Pomelli, J. W. Ochterski, 
 R. L. Martin, K. Morokuma, V. G. Zakrzewski, G. A. Voth, 
 P. Salvador, J. J. Dannenberg, S. Dapprich, A. D. Daniels, 
 O. Farkas, J. B. Foresman, J. V. Ortiz, J. Cioslowski, 
 and D. J. Fox, Gaussian, Inc., Wallingford CT, 2010.
 
 ******************************************
 Gaussian 09:  AM64L-G09RevC.01 23-Sep-2011
                16-Feb-2018 
 ******************************************
 %nprocs=4
 Will use up to    4 processors via shared memory.
 %chk=frag35-conf2.chk
 ---------------------------------------------------------
 #B3LYP/6-31G* Integral=(Grid=UltraFine) freq Opt pop=none
 ---------------------------------------------------------
 1/14=-1,18=20,19=15,26=3,38=1/1,3;
 2/9=110,12=2,17=6,18=5,40=1/2;
 3/5=1,6=6,7=1,11=2,16=1,25=1,30=1,71=1,74=-5,75=-5/1,2,3;
 4//1;
 5/5=2,38=5/2;
 7//1,2,3,16;
 1/14=-1,18=20,19=15/3(2);
 2/9=110/2;
 99//99;
 2/9=110/2;
 3/5=1,6=6,7=1,11=2,16=1,25=1,30=1,71=1,74=-5,75=-5/1,2,3;
 4/5=5,16=3/1;
 5/5=2,38=5/2;
 7//1,2,3,16;
 1/14=-1,18=20,19=15/3(-5);
 2/9=110/2;
 99/9=1/99;
 -----------------------------
 Optimization for frag35-conf2
 -----------------------------
 Charge =  0 Multiplicity = 1
 Symbolic Z-Matrix:
 C                    -1.35782   2.95779  -0.83608 
 C                    -1.9914    5.64843  -2.11278 
 C                    -1.06683   0.53201  -1.19207 
 C                    -1.00065   6.24757  -4.28519 
 C                     0.3934    6.47191  -2.26379 
 C                    -3.63138   8.74592   1.04319 
 C                    -2.31425   3.98836  -0.27728 
 C                    -1.84832   5.41418  -0.59275 
 N                    -1.82772   1.66828  -0.73435 
 N                    -2.73985   6.36332   0.17873 
 N                    -0.90638   6.13972  -2.8353 
 O                    -0.25814   3.22855  -1.31298 
 O                    -3.0685    5.40377  -2.67691 
 O                    -2.58059   8.40322  -1.34939 
 O                    -1.07365   8.19898   0.66069 
 S                    -2.36687   8.01078   0.03017 
 H                    -0.71169   0.71281  -2.21015 
 H                    -1.70786  -0.35205  -1.16949 
 H                    -0.21046   0.39021  -0.52766 
 H                    -0.81087   7.28583  -4.5732 
 H                    -1.98216   5.95214  -4.66337 
 H                    -0.24171   5.59928  -4.73349 
 H                     1.00805   5.56795  -2.2523 
 H                     0.30168   6.86493  -1.25218 
 H                     0.88092   7.23571  -2.87735 
 H                    -3.48611   9.8282    1.02943 
 H                    -4.60815   8.49612   0.62508 
 H                    -3.53129   8.37043   2.06311 
 H                    -2.36123   3.83713   0.80866 
 H                    -3.31933   3.79792  -0.67342 
 H                    -0.82596   5.52848  -0.2296 
 H                    -2.73342   1.50415  -0.30043 
 H                    -2.7104    6.11898   1.17707 
 

 GradGradGradGradGradGradGradGradGradGradGradGradGradGradGradGradGradGrad
 Berny optimization.
 Initialization pass.
                           ----------------------------
                           !    Initial Parameters    !
                           ! (Angstroms and Degrees)  !
 --------------------------                            --------------------------
 ! Name  Definition              Value          Derivative Info.                !
 --------------------------------------------------------------------------------
 ! R1    R(1,7)                  1.513          estimate D2E/DX2                !
 ! R2    R(1,9)                  1.3762         estimate D2E/DX2                !
 ! R3    R(1,12)                 1.2288         estimate D2E/DX2                !
 ! R4    R(2,8)                  1.5446         estimate D2E/DX2                !
 ! R5    R(2,11)                 1.3931         estimate D2E/DX2                !
 ! R6    R(2,13)                 1.2403         estimate D2E/DX2                !
 ! R7    R(3,9)                  1.4421         estimate D2E/DX2                !
 ! R8    R(3,17)                 1.0933         estimate D2E/DX2                !
 ! R9    R(3,18)                 1.0922         estimate D2E/DX2                !
 ! R10   R(3,19)                 1.0931         estimate D2E/DX2                !
 ! R11   R(4,11)                 1.4569         estimate D2E/DX2                !
 ! R12   R(4,20)                 1.0941         estimate D2E/DX2                !
 ! R13   R(4,21)                 1.0926         estimate D2E/DX2                !
 ! R14   R(4,22)                 1.0942         estimate D2E/DX2                !
 ! R15   R(5,11)                 1.4582         estimate D2E/DX2                !
 ! R16   R(5,23)                 1.0932         estimate D2E/DX2                !
 ! R17   R(5,24)                 1.0891         estimate D2E/DX2                !
 ! R18   R(5,25)                 1.0943         estimate D2E/DX2                !
 ! R19   R(6,16)                 1.7792         estimate D2E/DX2                !
 ! R20   R(6,26)                 1.0921         estimate D2E/DX2                !
 ! R21   R(6,27)                 1.0915         estimate D2E/DX2                !
 ! R22   R(6,28)                 1.0914         estimate D2E/DX2                !
 ! R23   R(7,8)                  1.5328         estimate D2E/DX2                !
 ! R24   R(7,29)                 1.0974         estimate D2E/DX2                !
 ! R25   R(7,30)                 1.097          estimate D2E/DX2                !
 ! R26   R(8,10)                 1.5136         estimate D2E/DX2                !
 ! R27   R(8,31)                 1.0909         estimate D2E/DX2                !
 ! R28   R(9,32)                 1.0176         estimate D2E/DX2                !
 ! R29   R(10,16)                1.6957         estimate D2E/DX2                !
 ! R30   R(10,33)                1.0282         estimate D2E/DX2                !
 ! R31   R(14,16)                1.4501         estimate D2E/DX2                !
 ! R32   R(15,16)                1.451          estimate D2E/DX2                !
 ! A1    A(7,1,9)              113.2714         estimate D2E/DX2                !
 ! A2    A(7,1,12)             123.9843         estimate D2E/DX2                !
 ! A3    A(9,1,12)             122.7311         estimate D2E/DX2                !
 ! A4    A(8,2,11)             119.4545         estimate D2E/DX2                !
 ! A5    A(8,2,13)             119.8768         estimate D2E/DX2                !
 ! A6    A(11,2,13)            120.6681         estimate D2E/DX2                !
 ! A7    A(9,3,17)             109.6734         estimate D2E/DX2                !
 ! A8    A(9,3,18)             108.7558         estimate D2E/DX2                !
 ! A9    A(9,3,19)             108.823          estimate D2E/DX2                !
 ! A10   A(17,3,18)            110.1055         estimate D2E/DX2                !
 ! A11   A(17,3,19)            109.4486         estimate D2E/DX2                !
 ! A12   A(18,3,19)            110.0124         estimate D2E/DX2                !
 ! A13   A(11,4,20)            108.7234         estimate D2E/DX2                !
 ! A14   A(11,4,21)            112.4935         estimate D2E/DX2                !
 ! A15   A(11,4,22)            108.6023         estimate D2E/DX2                !
 ! A16   A(20,4,21)            108.7429         estimate D2E/DX2                !
 ! A17   A(20,4,22)            109.5177         estimate D2E/DX2                !
 ! A18   A(21,4,22)            108.7286         estimate D2E/DX2                !
 ! A19   A(11,5,23)            108.476          estimate D2E/DX2                !
 ! A20   A(11,5,24)            111.7873         estimate D2E/DX2                !
 ! A21   A(11,5,25)            109.6553         estimate D2E/DX2                !
 ! A22   A(23,5,24)            109.6313         estimate D2E/DX2                !
 ! A23   A(23,5,25)            109.4243         estimate D2E/DX2                !
 ! A24   A(24,5,25)            107.8441         estimate D2E/DX2                !
 ! A25   A(16,6,26)            107.9249         estimate D2E/DX2                !
 ! A26   A(16,6,27)            108.8663         estimate D2E/DX2                !
 ! A27   A(16,6,28)            108.9491         estimate D2E/DX2                !
 ! A28   A(26,6,27)            109.9397         estimate D2E/DX2                !
 ! A29   A(26,6,28)            109.9082         estimate D2E/DX2                !
 ! A30   A(27,6,28)            111.1798         estimate D2E/DX2                !
 ! A31   A(1,7,8)              111.4341         estimate D2E/DX2                !
 ! A32   A(1,7,29)             107.3774         estimate D2E/DX2                !
 ! A33   A(1,7,30)             109.1211         estimate D2E/DX2                !
 ! A34   A(8,7,29)             110.1727         estimate D2E/DX2                !
 ! A35   A(8,7,30)             111.4484         estimate D2E/DX2                !
 ! A36   A(29,7,30)            107.1095         estimate D2E/DX2                !
 ! A37   A(2,8,7)              108.3876         estimate D2E/DX2                !
 ! A38   A(2,8,10)             110.6055         estimate D2E/DX2                !
 ! A39   A(2,8,31)             113.4845         estimate D2E/DX2                !
 ! A40   A(7,8,10)             107.419          estimate D2E/DX2                !
 ! A41   A(7,8,31)             108.2885         estimate D2E/DX2                !
 ! A42   A(10,8,31)            108.4592         estimate D2E/DX2                !
 ! A43   A(1,9,3)              122.3217         estimate D2E/DX2                !
 ! A44   A(1,9,32)             119.1137         estimate D2E/DX2                !
 ! A45   A(3,9,32)             118.5466         estimate D2E/DX2                !
 ! A46   A(8,10,16)            115.7877         estimate D2E/DX2                !
 ! A47   A(8,10,33)            109.2085         estimate D2E/DX2                !
 ! A48   A(16,10,33)           108.0373         estimate D2E/DX2                !
 ! A49   A(2,11,4)             119.4624         estimate D2E/DX2                !
 ! A50   A(2,11,5)             124.8415         estimate D2E/DX2                !
 ! A51   A(4,11,5)             115.5202         estimate D2E/DX2                !
 ! A52   A(6,16,10)            101.2579         estimate D2E/DX2                !
 ! A53   A(6,16,14)            108.9711         estimate D2E/DX2                !
 ! A54   A(6,16,15)            109.4164         estimate D2E/DX2                !
 ! A55   A(10,16,14)           108.2917         estimate D2E/DX2                !
 ! A56   A(10,16,15)           106.4986         estimate D2E/DX2                !
 ! A57   A(14,16,15)           120.6403         estimate D2E/DX2                !
 ! D1    D(9,1,7,8)           -171.7221         estimate D2E/DX2                !
 ! D2    D(9,1,7,29)            67.5441         estimate D2E/DX2                !
 ! D3    D(9,1,7,30)           -48.2263         estimate D2E/DX2                !
 ! D4    D(12,1,7,8)             9.5657         estimate D2E/DX2                !
 ! D5    D(12,1,7,29)         -111.168          estimate D2E/DX2                !
 ! D6    D(12,1,7,30)          133.0615         estimate D2E/DX2                !
 ! D7    D(7,1,9,3)           -179.2706         estimate D2E/DX2                !
 ! D8    D(7,1,9,32)            -0.8376         estimate D2E/DX2                !
 ! D9    D(12,1,9,3)            -0.54           estimate D2E/DX2                !
 ! D10   D(12,1,9,32)          177.8929         estimate D2E/DX2                !
 ! D11   D(11,2,8,7)          -128.6814         estimate D2E/DX2                !
 ! D12   D(11,2,8,10)          113.8019         estimate D2E/DX2                !
 ! D13   D(11,2,8,31)           -8.3511         estimate D2E/DX2                !
 ! D14   D(13,2,8,7)            51.6088         estimate D2E/DX2                !
 ! D15   D(13,2,8,10)          -65.908          estimate D2E/DX2                !
 ! D16   D(13,2,8,31)          171.939          estimate D2E/DX2                !
 ! D17   D(8,2,11,4)           174.52           estimate D2E/DX2                !
 ! D18   D(8,2,11,5)            -0.4343         estimate D2E/DX2                !
 ! D19   D(13,2,11,4)           -5.7725         estimate D2E/DX2                !
 ! D20   D(13,2,11,5)          179.2732         estimate D2E/DX2                !
 ! D21   D(17,3,9,1)           -49.6969         estimate D2E/DX2                !
 ! D22   D(17,3,9,32)          131.8617         estimate D2E/DX2                !
 ! D23   D(18,3,9,1)          -170.1569         estimate D2E/DX2                !
 ! D24   D(18,3,9,32)           11.4016         estimate D2E/DX2                !
 ! D25   D(19,3,9,1)            70.0027         estimate D2E/DX2                !
 ! D26   D(19,3,9,32)         -108.4387         estimate D2E/DX2                !
 ! D27   D(20,4,11,2)          122.9439         estimate D2E/DX2                !
 ! D28   D(20,4,11,5)          -61.644          estimate D2E/DX2                !
 ! D29   D(21,4,11,2)            2.4424         estimate D2E/DX2                !
 ! D30   D(21,4,11,5)          177.8545         estimate D2E/DX2                !
 ! D31   D(22,4,11,2)         -117.9589         estimate D2E/DX2                !
 ! D32   D(22,4,11,5)           57.4532         estimate D2E/DX2                !
 ! D33   D(23,5,11,2)           87.0394         estimate D2E/DX2                !
 ! D34   D(23,5,11,4)          -88.0928         estimate D2E/DX2                !
 ! D35   D(24,5,11,2)          -33.9601         estimate D2E/DX2                !
 ! D36   D(24,5,11,4)          150.9076         estimate D2E/DX2                !
 ! D37   D(25,5,11,2)         -153.5102         estimate D2E/DX2                !
 ! D38   D(25,5,11,4)           31.3575         estimate D2E/DX2                !
 ! D39   D(26,6,16,10)         179.6225         estimate D2E/DX2                !
 ! D40   D(26,6,16,14)         -66.3722         estimate D2E/DX2                !
 ! D41   D(26,6,16,15)          67.463          estimate D2E/DX2                !
 ! D42   D(27,6,16,10)         -61.082          estimate D2E/DX2                !
 ! D43   D(27,6,16,14)          52.9233         estimate D2E/DX2                !
 ! D44   D(27,6,16,15)        -173.2415         estimate D2E/DX2                !
 ! D45   D(28,6,16,10)          60.318          estimate D2E/DX2                !
 ! D46   D(28,6,16,14)         174.3233         estimate D2E/DX2                !
 ! D47   D(28,6,16,15)         -51.8415         estimate D2E/DX2                !
 ! D48   D(1,7,8,2)             68.9778         estimate D2E/DX2                !
 ! D49   D(1,7,8,10)          -171.4852         estimate D2E/DX2                !
 ! D50   D(1,7,8,31)           -54.5365         estimate D2E/DX2                !
 ! D51   D(29,7,8,2)          -171.9407         estimate D2E/DX2                !
 ! D52   D(29,7,8,10)          -52.4038         estimate D2E/DX2                !
 ! D53   D(29,7,8,31)           64.545          estimate D2E/DX2                !
 ! D54   D(30,7,8,2)           -53.1846         estimate D2E/DX2                !
 ! D55   D(30,7,8,10)           66.3523         estimate D2E/DX2                !
 ! D56   D(30,7,8,31)         -176.6989         estimate D2E/DX2                !
 ! D57   D(2,8,10,16)          -64.24           estimate D2E/DX2                !
 ! D58   D(2,8,10,33)          173.5863         estimate D2E/DX2                !
 ! D59   D(7,8,10,16)          177.65           estimate D2E/DX2                !
 ! D60   D(7,8,10,33)           55.4763         estimate D2E/DX2                !
 ! D61   D(31,8,10,16)          60.8131         estimate D2E/DX2                !
 ! D62   D(31,8,10,33)         -61.3607         estimate D2E/DX2                !
 ! D63   D(8,10,16,6)          179.2451         estimate D2E/DX2                !
 ! D64   D(8,10,16,14)          64.7316         estimate D2E/DX2                !
 ! D65   D(8,10,16,15)         -66.3951         estimate D2E/DX2                !
 ! D66   D(33,10,16,6)         -57.9612         estimate D2E/DX2                !
 ! D67   D(33,10,16,14)       -172.4748         estimate D2E/DX2                !
 ! D68   D(33,10,16,15)         56.3985         estimate D2E/DX2                !
 --------------------------------------------------------------------------------
 Trust Radius=3.00D-01 FncErr=1.00D-07 GrdErr=1.00D-06
 Number of steps in this run=    167 maximum allowed number of steps=    198.
 GradGradGradGradGradGradGradGradGradGradGradGradGradGradGradGradGradGrad

                          Input orientation:                          
 ---------------------------------------------------------------------
 Center     Atomic      Atomic             Coordinates (Angstroms)
 Number     Number       Type             X           Y           Z
 ---------------------------------------------------------------------
      1          6           0       -1.357817    2.957793   -0.836076
      2          6           0       -1.991399    5.648435   -2.112780
      3          6           0       -1.066833    0.532009   -1.192071
      4          6           0       -1.000647    6.247566   -4.285186
      5          6           0        0.393403    6.471915   -2.263794
      6          6           0       -3.631377    8.745920    1.043188
      7          6           0       -2.314252    3.988360   -0.277279
      8          6           0       -1.848316    5.414183   -0.592750
      9          7           0       -1.827724    1.668277   -0.734350
     10          7           0       -2.739853    6.363321    0.178730
     11          7           0       -0.906384    6.139721   -2.835301
     12          8           0       -0.258137    3.228551   -1.312980
     13          8           0       -3.068499    5.403773   -2.676908
     14          8           0       -2.580592    8.403216   -1.349389
     15          8           0       -1.073654    8.198977    0.660686
     16         16           0       -2.366870    8.010777    0.030174
     17          1           0       -0.711686    0.712815   -2.210154
     18          1           0       -1.707859   -0.352054   -1.169492
     19          1           0       -0.210459    0.390214   -0.527656
     20          1           0       -0.810871    7.285832   -4.573199
     21          1           0       -1.982161    5.952137   -4.663370
     22          1           0       -0.241708    5.599278   -4.733491
     23          1           0        1.008051    5.567954   -2.252301
     24          1           0        0.301684    6.864927   -1.252180
     25          1           0        0.880921    7.235707   -2.877351
     26          1           0       -3.486111    9.828199    1.029435
     27          1           0       -4.608147    8.496122    0.625084
     28          1           0       -3.531289    8.370433    2.063108
     29          1           0       -2.361228    3.837129    0.808656
     30          1           0       -3.319328    3.797921   -0.673424
     31          1           0       -0.825965    5.528477   -0.229600
     32          1           0       -2.733416    1.504149   -0.300431
     33          1           0       -2.710401    6.118981    1.177075
 ---------------------------------------------------------------------
                    Distance matrix (angstroms):
                    1          2          3          4          5
     1  C    0.000000
     2  C    3.044824   0.000000
     3  C    2.468974   5.280184   0.000000
     4  C    4.779805   2.461685   6.499180   0.000000
     5  C    4.177823   2.527490   6.209941   2.465712   0.000000
     6  C    6.496394   4.716363   8.890535   6.446246   5.683844
     7  C    1.512975   2.495825   3.786722   4.784651   4.176802
     8  C    2.516674   1.544616   4.980515   3.879066   2.989396
     9  N    1.376231   4.215271   1.442072   5.853408   5.508860
    10  N    3.812805   2.514411   6.219509   4.792158   3.974294
    11  N    3.784886   1.393075   5.845715   1.456943   1.458224
    12  O    1.228838   3.082161   2.817791   4.301138   3.442087
    13  O    3.506838   1.240260   5.472248   2.752191   3.646416
    14  O    5.604579   2.918687   8.016990   3.970133   3.662063
    15  O    5.458118   3.878096   7.887658   5.317422   3.699673
    16  S    5.225058   3.211526   7.688691   4.857758   3.905060
    17  H    2.710258   5.099754   1.093304   5.918001   5.864412
    18  H    3.344964   6.080794   1.092241   7.332305   7.223528
    19  H    2.829137   5.773496   1.093128   7.003714   6.353417
    20  H    5.744316   3.182511   7.557227   1.094058   2.728752
    21  H    4.899395   2.568624   6.501194   1.092552   3.416348
    22  H    4.838697   3.151501   6.236963   1.094186   2.695230
    23  H    3.796836   3.003771   5.548872   2.937578   1.093192
    24  H    4.265300   2.734724   6.479376   3.358024   1.089144
    25  H    5.242070   3.369602   7.181468   2.549259   1.094305
    26  H    7.430495   5.438576   9.859369   6.873402   6.095952
    27  H    6.585798   4.738417   8.903374   6.494675   6.120338
    28  H    6.513519   5.217143   8.838022   7.156225   6.142447
    29  H    2.117832   3.457223   4.074578   5.797294   4.895920
    30  H    2.140046   2.694354   4.001114   4.941849   4.843954
    31  H    2.694271   2.217880   5.094022   4.122546   2.552426
    32  H    2.071779   4.583700   2.125460   6.432789   6.189547
    33  H    3.984392   3.400224   6.287164   5.725040   4.647336
                    6          7          8          9         10
     6  C    0.000000
     7  C    5.110072   0.000000
     8  C    4.117776   1.532836   0.000000
     9  N    7.517036   2.414210   3.748637   0.000000
    10  N    2.686798   2.455508   1.513566   4.869202   0.000000
    11  N    5.409302   3.626833   2.538243   5.025602   3.534967
    12  O    6.882706   2.424375   2.797211   2.287547   4.267423
    13  O    5.032484   2.886260   2.415091   4.389417   3.030413
    14  O    2.635531   4.550968   3.169078   6.804740   2.553759
    15  O    2.643370   4.488669   3.150600   6.720475   2.525497
    16  S    1.779216   4.034493   2.720154   6.411122   1.695671
    17  H    9.145470   4.127157   5.100077   2.082414   6.461304
    18  H    9.558714   4.472466   5.796710   2.070134   6.926686
    19  H    9.164500   4.175559   5.284608   2.071646   6.524939
    20  H    6.452202   5.620356   4.519218   6.879512   5.210837
    21  H    6.564293   4.817104   4.108193   5.814852   4.918241
    22  H    7.400083   5.171878   4.445356   5.827637   5.563668
    23  H    6.517976   4.175347   3.307052   5.055025   4.537544
    24  H    4.927050   4.008514   2.676193   5.639831   3.398538
    25  H    6.165404   5.245451   3.998260   6.551754   4.817747
    26  H    1.092071   6.097908   4.979699   8.511493   3.644994
    27  H    1.091462   5.137717   4.312556   7.496551   2.870295
    28  H    1.091442   5.114798   4.315715   7.459678   2.864568
    29  H    5.075876   1.097422   2.171202   2.714666   2.630933
    30  H    5.246602   1.096985   2.186936   2.600765   2.764640
    31  H    4.454467   2.142249   1.090937   4.019880   2.127597
    32  H    7.419899   2.519433   4.019604   1.017596   4.882744
    33  H    2.786921   2.609909   2.090983   4.923559   1.028232
                   11         12         13         14         15
    11  N    0.000000
    12  O    3.348522   0.000000
    13  O    2.289421   3.806577   0.000000
    14  O    3.183445   5.672062   3.316175   0.000000
    15  O    4.060842   5.409765   4.788747   2.520511   0.000000
    16  S    3.720863   5.396343   3.823225   1.450131   1.450990
    17  H    5.466263   2.709162   5.270438   7.960905   8.025918
    18  H    6.749847   3.865620   6.103539   8.800500   8.767662
    19  H    6.234290   2.945363   6.158202   8.396487   7.945693
    20  H    2.083982   5.234126   3.497849   3.843619   5.319439
    21  H    2.129394   4.649225   2.329563   4.165138   5.849721
    22  H    2.082546   4.161793   3.501214   4.978413   6.045470
    23  H    2.081314   2.821057   4.101890   4.661794   4.443115
    24  H    2.119345   3.679719   3.939917   3.268531   2.707452
    25  H    2.097000   4.449945   4.358219   3.959774   4.155232
    26  H    5.932626   7.711166   5.786789   2.917078   2.934329
    27  H    5.588376   7.101126   4.778733   2.831635   3.547140
    28  H    5.988374   6.967815   5.610971   3.542604   2.834811
    29  H    4.549388   3.048721   3.886356   5.055140   4.550325
    30  H    3.997504   3.178696   2.579849   4.712898   5.117831
    31  H    2.677642   2.604957   3.321720   3.549193   2.825868
    32  H    5.590362   3.182110   4.578972   6.980029   6.964142
    33  H    4.399326   4.535257   3.936107   3.408460   2.696660
                   16         17         18         19         20
    16  S    0.000000
    17  H    7.811464   0.000000
    18  H    8.474105   1.791448   0.000000
    19  H    7.939413   1.784965   1.790285   0.000000
    20  H    4.913016   6.985584   8.409942   8.017260   0.000000
    21  H    5.139587   5.923079   7.212853   7.153883   1.777300
    22  H    5.746664   5.519569   7.090138   6.695101   1.787206
    23  H    4.750492   5.150888   6.602662   5.591794   3.412646
    24  H    3.174679   6.308179   7.491991   6.535223   3.527620
    25  H    4.427480   6.747568   8.197114   7.319354   2.395949
    26  H    2.356744  10.063926  10.565748  10.110885   6.708952
    27  H    2.369135   9.154281   9.482743   9.293773   6.550286
    28  H    2.370241   9.211409   9.479261   9.023518   7.253799
    29  H    4.245634   4.647101   4.678591   4.277004   6.577349
    30  H    4.376116   4.321946   4.479421   4.615061   5.802252
    31  H    2.933205   5.208287   6.020115   5.183573   4.685656
    32  H    6.525325   2.891478   2.291839   2.767272   7.441813
    33  H    2.238814   6.685418   6.955988   6.478780   6.167285
                   21         22         23         24         25
    21  H    0.000000
    22  H    1.777245   0.000000
    23  H    3.860339   2.778342   0.000000
    24  H    4.205395   3.743884   1.783630   0.000000
    25  H    3.610353   2.717251   1.785567   1.764702   0.000000
    26  H    7.049379   7.849919   7.008350   5.322982   6.407414
    27  H    6.429262   7.494786   6.956666   5.503758   6.632161
    28  H    7.313922   8.043283   6.861651   5.286716   6.720367
    29  H    5.878777   6.189744   4.870037   4.528323   5.970637
    30  H    4.727402   5.403774   4.934783   4.780504   5.858136
    31  H    4.601586   4.542181   2.730658   2.025675   3.583110
    32  H    6.275684   6.529220   5.858574   6.233426   7.249462
    33  H    5.888035   6.426455   5.088333   3.940859   5.530193
                   26         27         28         29         30
    26  H    0.000000
    27  H    1.787986   0.000000
    28  H    1.787626   1.800927   0.000000
    29  H    6.099757   5.175767   4.847013   0.000000
    30  H    6.268318   5.041852   5.333049   1.765236   0.000000
    31  H    5.210486   4.882859   4.544448   2.509117   3.067355
    32  H    8.463150   7.297869   7.305394   2.609865   2.396624
    33  H    3.792337   3.091429   2.554985   2.337628   3.030258
                   31         32         33
    31  H    0.000000
    32  H    4.454055   0.000000
    33  H    2.424568   4.845641   0.000000
 Stoichiometry    C8H17N3O4S
 Framework group  C1[X(C8H17N3O4S)]
 Deg. of freedom    93
 Full point group                 C1      NOp   1
 Largest Abelian subgroup         C1      NOp   1
 Largest concise Abelian subgroup C1      NOp   1
                         Standard orientation:                         
 ---------------------------------------------------------------------
 Center     Atomic      Atomic             Coordinates (Angstroms)
 Number     Number       Type             X           Y           Z
 ---------------------------------------------------------------------
      1          6           0        2.616683   -0.726718    0.218069
      2          6           0        0.148505    0.825729   -0.658834
      3          6           0        5.075902   -0.912728    0.101997
      4          6           0        0.175275    3.287268   -0.661697
      5          6           0       -0.160176    2.125156    1.486955
      6          6           0       -3.749283   -1.823092   -0.471548
      7          6           0        1.335116   -1.340666   -0.301301
      8          6           0        0.111388   -0.513888    0.109207
      9          7           0        3.749184   -1.332386   -0.276522
     10          7           0       -1.119956   -1.309615   -0.266948
     11          7           0        0.020504    2.021881    0.043658
     12          8           0        2.656964    0.203179    1.020386
     13          8           0        0.286020    0.827591   -1.891445
     14          8           0       -2.762172    0.617087   -0.602555
     15          8           0       -2.661227   -0.598597    1.603097
     16         16           0       -2.606685   -0.610743    0.153183
     17          1           0        5.163863    0.171640   -0.006268
     18          1           0        5.800424   -1.414472   -0.543226
     19          1           0        5.249213   -1.189601    1.145182
     20          1           0       -0.733259    3.880588   -0.522055
     21          1           0        0.344452    3.150986   -1.732433
     22          1           0        1.029958    3.821791   -0.236204
     23          1           0        0.825413    2.132215    1.959856
     24          1           0       -0.749113    1.297971    1.880848
     25          1           0       -0.685458    3.054763    1.726567
     26          1           0       -4.761021   -1.477799   -0.248433
     27          1           0       -3.615522   -1.910751   -1.551230
     28          1           0       -3.563205   -2.775763    0.027489
     29          1           0        1.264583   -2.353513    0.115233
     30          1           0        1.402127   -1.443937   -1.391356
     31          1           0        0.127290   -0.393986    1.193418
     32          1           0        3.651477   -2.119498   -0.914024
     33          1           0       -1.069530   -2.238351    0.171424
 ---------------------------------------------------------------------
 Rotational constants (GHZ):      0.7303134      0.2956294      0.2492963
 Standard basis: 6-31G(d) (6D, 7F)
 There are   278 symmetry adapted basis functions of A   symmetry.
 Integral buffers will be    131072 words long.
 Raffenetti 2 integral format.
 Two-electron integral symmetry is turned on.
   278 basis functions,   540 primitive gaussians,   278 cartesian basis functions
    67 alpha electrons       67 beta electrons
       nuclear repulsion energy      1399.7327041674 Hartrees.
 NAtoms=   33 NActive=   33 NUniq=   33 SFac= 1.00D+00 NAtFMM=   60 NAOKFM=F Big=F
 One-electron integrals computed using PRISM.
 NBasis=   278 RedAO= T  NBF=   278
 NBsUse=   278 1.00D-06 NBFU=   278
 Harris functional with IExCor=  402 diagonalized for initial guess.
 ExpMin= 1.17D-01 ExpMax= 2.19D+04 ExpMxC= 3.30D+03 IAcc=3 IRadAn=         5 AccDes= 0.00D+00
 HarFok:  IExCor=  402 AccDes= 0.00D+00 IRadAn=         5 IDoV= 1
 ScaDFX=  1.000000  1.000000  1.000000  1.000000
 FoFCou: FMM=F IPFlag=           0 FMFlag=      100000 FMFlg1=           0
         NFxFlg=           0 DoJE=T BraDBF=F KetDBF=T FulRan=T
         Omega=  0.000000  0.000000  1.000000  0.000000  0.000000 ICntrl=     500 IOpCl=  0
         NMat0=    1 NMatS0=    1 NMatT0=    0 NMatD0=    1 NMtDS0=    0 NMtDT0=    0
         I1Cent=           4 NGrid=           0.
 Petite list used in FoFCou.
 Initial guess orbital symmetries:
       Occupied  (A) (A) (A) (A) (A) (A) (A) (A) (A) (A) (A) (A)
                 (A) (A) (A) (A) (A) (A) (A) (A) (A) (A) (A) (A)
                 (A) (A) (A) (A) (A) (A) (A) (A) (A) (A) (A) (A)
                 (A) (A) (A) (A) (A) (A) (A) (A) (A) (A) (A) (A)
                 (A) (A) (A) (A) (A) (A) (A) (A) (A) (A) (A) (A)
                 (A) (A) (A) (A) (A) (A) (A)
       Virtual   (A) (A) (A) (A) (A) (A) (A) (A) (A) (A) (A) (A)
                 (A) (A) (A) (A) (A) (A) (A) (A) (A) (A) (A) (A)
                 (A) (A) (A) (A) (A) (A) (A) (A) (A) (A) (A) (A)
                 (A) (A) (A) (A) (A) (A) (A) (A) (A) (A) (A) (A)
                 (A) (A) (A) (A) (A) (A) (A) (A) (A) (A) (A) (A)
                 (A) (A) (A) (A) (A) (A) (A) (A) (A) (A) (A) (A)
                 (A) (A) (A) (A) (A) (A) (A) (A) (A) (A) (A) (A)
                 (A) (A) (A) (A) (A) (A) (A) (A) (A) (A) (A) (A)
                 (A) (A) (A) (A) (A) (A) (A) (A) (A) (A) (A) (A)
                 (A) (A) (A) (A) (A) (A) (A) (A) (A) (A) (A) (A)
                 (A) (A) (A) (A) (A) (A) (A) (A) (A) (A) (A) (A)
                 (A) (A) (A) (A) (A) (A) (A) (A) (A) (A) (A) (A)
                 (A) (A) (A) (A) (A) (A) (A) (A) (A) (A) (A) (A)
                 (A) (A) (A) (A) (A) (A) (A) (A) (A) (A) (A) (A)
                 (A) (A) (A) (A) (A) (A) (A) (A) (A) (A) (A) (A)
                 (A) (A) (A) (A) (A) (A) (A) (A) (A) (A) (A) (A)
                 (A) (A) (A) (A) (A) (A) (A) (A) (A) (A) (A) (A)
                 (A) (A) (A) (A) (A) (A) (A)
 The electronic state of the initial guess is 1-A.
 Requested convergence on RMS density matrix=1.00D-08 within 128 cycles.
 Requested convergence on MAX density matrix=1.00D-06.
 Requested convergence on             energy=1.00D-06.
 No special actions if energy rises.
 Integral accuracy reduced to 1.0D-05 until final iterations.
 Initial convergence to 1.0D-05 achieved.  Increase integral accuracy.
 SCF Done:  E(RB3LYP) =  -1178.36688105     A.U. after   15 cycles
             Convg  =    0.6586D-08             -V/T =  2.0074
 Calling FoFJK, ICntrl=      2127 FMM=F ISym2X=0 I1Cent= 0 IOpClX= 0 NMat=1 NMatS=1 NMatT=0.
 ***** Axes restored to original set *****
 -------------------------------------------------------------------
 Center     Atomic                   Forces (Hartrees/Bohr)
 Number     Number              X              Y              Z
 -------------------------------------------------------------------
      1        6           0.001714086   -0.016233614   -0.000270304
      2        6          -0.002188171    0.013689304   -0.033030579
      3        6           0.002957279    0.000634202    0.001622982
      4        6          -0.000104678   -0.000026349    0.001569062
      5        6          -0.001250359   -0.007077484   -0.001118261
      6        6          -0.008144407   -0.000389325    0.005602281
      7        6          -0.003925357    0.003400542    0.002192069
      8        6          -0.006264493    0.007210915    0.008168346
      9        7          -0.008552107    0.014222071    0.001973353
     10        7          -0.010329402   -0.013806565   -0.004639606
     11        7          -0.020754003   -0.006460663    0.017725269
     12        8          -0.004080965   -0.002112378    0.000664455
     13        8           0.014961263   -0.003310779    0.015275056
     14        8          -0.001412799    0.006599541   -0.011419220
     15        8           0.024054556    0.014237185    0.011626208
     16       16          -0.004343406   -0.016175071   -0.003532403
     17        1           0.001497978   -0.002022095    0.000010708
     18        1           0.001461977   -0.000686221   -0.000728185
     19        1           0.004129998   -0.005376945   -0.002414700
     20        1           0.001093256    0.001125184   -0.002836863
     21        1           0.000705565   -0.000261784    0.007348064
     22        1           0.002252448    0.000099593   -0.003728688
     23        1           0.006032880    0.000317520    0.001981884
     24        1           0.000185239    0.001544704    0.000021419
     25        1          -0.001588658    0.000141482   -0.000250811
     26        1           0.002147215   -0.000280536   -0.000753885
     27        1           0.000248096   -0.000272945    0.000240968
     28        1          -0.001083557    0.001031844    0.001321211
     29        1          -0.000183873    0.001489358    0.002162409
     30        1           0.001093383    0.005886859   -0.000697065
     31        1           0.001478249   -0.001691232   -0.004090534
     32        1           0.005860137    0.002805406   -0.003859613
     33        1           0.002332628    0.001748276   -0.006135026
 -------------------------------------------------------------------
 Cartesian Forces:  Max     0.033030579 RMS     0.007475828

 GradGradGradGradGradGradGradGradGradGradGradGradGradGradGradGradGradGrad
 Berny optimization.
 Internal  Forces:  Max     0.028337595 RMS     0.005247543
 Search for a local minimum.
 Step number   1 out of a maximum of  167
 All quantities printed in internal units (Hartrees-Bohrs-Radians)
 Mixed Optimization -- RFO/linear search
 Second derivative matrix not updated -- first step.
 ITU=  0
     Eigenvalues ---    0.00230   0.00230   0.00332   0.00594   0.00645
     Eigenvalues ---    0.00857   0.00922   0.00939   0.01135   0.01151
     Eigenvalues ---    0.01175   0.01353   0.01487   0.01783   0.02006
     Eigenvalues ---    0.02559   0.04174   0.05000   0.05159   0.05315
     Eigenvalues ---    0.05794   0.06065   0.06226   0.07328   0.07377
     Eigenvalues ---    0.07666   0.07740   0.07769   0.07861   0.08465
     Eigenvalues ---    0.09287   0.09341   0.11510   0.12233   0.12716
     Eigenvalues ---    0.15996   0.16000   0.16000   0.16000   0.16000
     Eigenvalues ---    0.16000   0.16000   0.16000   0.16000   0.16000
     Eigenvalues ---    0.16000   0.16000   0.16000   0.16258   0.17660
     Eigenvalues ---    0.17922   0.21926   0.22001   0.23404   0.24901
     Eigenvalues ---    0.24946   0.24994   0.25000   0.25000   0.25000
     Eigenvalues ---    0.25000   0.27825   0.28114   0.29163   0.30995
     Eigenvalues ---    0.31053   0.33969   0.34018   0.34320   0.34333
     Eigenvalues ---    0.34348   0.34434   0.34446   0.34454   0.34519
     Eigenvalues ---    0.34555   0.34574   0.34644   0.34646   0.34705
     Eigenvalues ---    0.34912   0.36416   0.37187   0.37350   0.39303
     Eigenvalues ---    0.43050   0.44724   0.46788   0.49798   0.86942
     Eigenvalues ---    0.91572   0.95499   0.95881
 RFO step:  Lambda=-1.54886506D-02 EMin= 2.30000000D-03
 Linear search not attempted -- first point.
 Iteration  1 RMS(Cart)=  0.09680255 RMS(Int)=  0.00295787
 Iteration  2 RMS(Cart)=  0.00456160 RMS(Int)=  0.00060458
 Iteration  3 RMS(Cart)=  0.00001242 RMS(Int)=  0.00060455
 Iteration  4 RMS(Cart)=  0.00000001 RMS(Int)=  0.00060455
 Variable       Old X    -DE/DX   Delta X   Delta X   Delta X     New X
                                 (Linear)    (Quad)   (Total)
    R1        2.85911   0.01024   0.00000   0.03140   0.03140   2.89050
    R2        2.60070  -0.01174   0.00000  -0.02286  -0.02286   2.57784
    R3        2.32217  -0.00438   0.00000  -0.00470  -0.00470   2.31747
    R4        2.91890  -0.00288   0.00000  -0.00971  -0.00971   2.90919
    R5        2.63253  -0.02494   0.00000  -0.05160  -0.05160   2.58093
    R6        2.34375  -0.01929   0.00000  -0.02180  -0.02180   2.32195
    R7        2.72512   0.01165   0.00000   0.02852   0.02852   2.75364
    R8        2.06604   0.00014   0.00000   0.00040   0.00040   2.06644
    R9        2.06404  -0.00032   0.00000  -0.00088  -0.00088   2.06316
   R10        2.06571   0.00247   0.00000   0.00685   0.00685   2.07256
   R11        2.75322  -0.00253   0.00000  -0.00649  -0.00649   2.74673
   R12        2.06747   0.00200   0.00000   0.00558   0.00558   2.07305
   R13        2.06462  -0.00311   0.00000  -0.00861  -0.00861   2.05601
   R14        2.06771   0.00303   0.00000   0.00845   0.00845   2.07616
   R15        2.75564   0.00210   0.00000   0.00543   0.00543   2.76107
   R16        2.06583   0.00315   0.00000   0.00875   0.00875   2.07459
   R17        2.05818   0.00056   0.00000   0.00154   0.00154   2.05972
   R18        2.06794  -0.00047   0.00000  -0.00131  -0.00131   2.06663
   R19        3.36223   0.00854   0.00000   0.02908   0.02908   3.39131
   R20        2.06372   0.00002   0.00000   0.00005   0.00005   2.06376
   R21        2.06256  -0.00025   0.00000  -0.00070  -0.00070   2.06187
   R22        2.06253   0.00078   0.00000   0.00216   0.00216   2.06468
   R23        2.89664  -0.00233   0.00000  -0.00759  -0.00759   2.88905
   R24        2.07383   0.00194   0.00000   0.00547   0.00547   2.07930
   R25        2.07300  -0.00177   0.00000  -0.00498  -0.00498   2.06802
   R26        2.86023  -0.01055   0.00000  -0.03240  -0.03240   2.82782
   R27        2.06157  -0.00015   0.00000  -0.00042  -0.00042   2.06115
   R28        1.92298  -0.00731   0.00000  -0.01581  -0.01581   1.90717
   R29        3.20435   0.00687   0.00000   0.01809   0.01809   3.22244
   R30        1.94308  -0.00631   0.00000  -0.01414  -0.01414   1.92894
   R31        2.74035   0.01286   0.00000   0.01320   0.01320   2.75355
   R32        2.74197   0.02834   0.00000   0.02920   0.02920   2.77117
    A1        1.97696   0.00791   0.00000   0.02991   0.02985   2.00681
    A2        2.16393  -0.00249   0.00000  -0.00928  -0.00933   2.15460
    A3        2.14206  -0.00541   0.00000  -0.02023  -0.02029   2.12177
    A4        2.08487  -0.00456   0.00000  -0.01699  -0.01941   2.06546
    A5        2.09224  -0.00761   0.00000  -0.02850  -0.03071   2.06154
    A6        2.10606   0.01218   0.00000   0.04606   0.04334   2.14940
    A7        1.91416   0.00155   0.00000   0.00734   0.00710   1.92126
    A8        1.89815   0.00046   0.00000   0.00157   0.00136   1.89951
    A9        1.89932   0.00950   0.00000   0.05667   0.05626   1.95558
   A10        1.92170  -0.00229   0.00000  -0.01818  -0.01819   1.90351
   A11        1.91024  -0.00497   0.00000  -0.02621  -0.02664   1.88359
   A12        1.92008  -0.00406   0.00000  -0.02001  -0.02037   1.89971
   A13        1.89758   0.00453   0.00000   0.02668   0.02641   1.92399
   A14        1.96338  -0.01147   0.00000  -0.06859  -0.06829   1.89509
   A15        1.89547   0.00545   0.00000   0.03329   0.03314   1.92861
   A16        1.89792   0.00230   0.00000   0.00869   0.00887   1.90679
   A17        1.91144  -0.00314   0.00000  -0.01111  -0.01180   1.89965
   A18        1.89767   0.00236   0.00000   0.01150   0.01191   1.90958
   A19        1.89326   0.00915   0.00000   0.05844   0.05831   1.95157
   A20        1.95106  -0.00067   0.00000  -0.00521  -0.00567   1.94539
   A21        1.91385  -0.00401   0.00000  -0.02781  -0.02789   1.88595
   A22        1.91343  -0.00240   0.00000  -0.00443  -0.00489   1.90854
   A23        1.90981  -0.00193   0.00000  -0.00827  -0.00800   1.90181
   A24        1.88223  -0.00032   0.00000  -0.01369  -0.01412   1.86811
   A25        1.88364  -0.00384   0.00000  -0.02410  -0.02406   1.85958
   A26        1.90008   0.00009   0.00000   0.00175   0.00167   1.90174
   A27        1.90152   0.00321   0.00000   0.01926   0.01926   1.92078
   A28        1.91881   0.00147   0.00000   0.00635   0.00630   1.92511
   A29        1.91826  -0.00009   0.00000  -0.00308  -0.00295   1.91531
   A30        1.94045  -0.00090   0.00000  -0.00072  -0.00083   1.93962
   A31        1.94489   0.00080   0.00000   0.00297   0.00303   1.94792
   A32        1.87409   0.00041   0.00000   0.01364   0.01353   1.88762
   A33        1.90452   0.00336   0.00000   0.02504   0.02488   1.92941
   A34        1.92288  -0.00024   0.00000  -0.00274  -0.00287   1.92001
   A35        1.94514  -0.00539   0.00000  -0.04612  -0.04614   1.89900
   A36        1.86941   0.00132   0.00000   0.00986   0.00927   1.87868
   A37        1.89172  -0.00122   0.00000  -0.01819  -0.01833   1.87340
   A38        1.93043   0.00149   0.00000   0.00382   0.00343   1.93386
   A39        1.98068  -0.00101   0.00000  -0.00579  -0.00599   1.97469
   A40        1.87482  -0.00256   0.00000  -0.01841  -0.01845   1.85637
   A41        1.88999   0.00094   0.00000   0.00408   0.00413   1.89412
   A42        1.89297   0.00222   0.00000   0.03334   0.03337   1.92634
   A43        2.13492  -0.00232   0.00000  -0.00980  -0.00981   2.12511
   A44        2.07893  -0.00034   0.00000  -0.00354  -0.00355   2.07538
   A45        2.06903   0.00266   0.00000   0.01350   0.01350   2.08253
   A46        2.02088   0.00409   0.00000   0.00966   0.00953   2.03040
   A47        1.90605  -0.00147   0.00000  -0.01871  -0.01896   1.88709
   A48        1.88561  -0.00297   0.00000  -0.03228  -0.03246   1.85314
   A49        2.08501  -0.00521   0.00000  -0.01984  -0.01984   2.06517
   A50        2.17890   0.00366   0.00000   0.01369   0.01368   2.19258
   A51        2.01621   0.00155   0.00000   0.00571   0.00570   2.02191
   A52        1.76728  -0.01256   0.00000  -0.04434  -0.04380   1.72348
   A53        1.90190   0.00115   0.00000  -0.01638  -0.01649   1.88541
   A54        1.90968  -0.00319   0.00000  -0.02642  -0.02551   1.88416
   A55        1.89005   0.00338   0.00000   0.01631   0.01495   1.90500
   A56        1.85875   0.01282   0.00000   0.08245   0.08156   1.94031
   A57        2.10557  -0.00308   0.00000  -0.01420  -0.01671   2.08886
    D1       -2.99712   0.00199   0.00000   0.03767   0.03777  -2.95935
    D2        1.17887   0.00154   0.00000   0.03049   0.03064   1.20951
    D3       -0.84171  -0.00196   0.00000  -0.00132  -0.00150  -0.84320
    D4        0.16695   0.00148   0.00000   0.01847   0.01852   0.18547
    D5       -1.94025   0.00104   0.00000   0.01130   0.01139  -1.92886
    D6        2.32236  -0.00246   0.00000  -0.02052  -0.02074   2.30162
    D7       -3.12886   0.00029   0.00000   0.00597   0.00603  -3.12283
    D8       -0.01462   0.00053   0.00000   0.01328   0.01330  -0.00132
    D9       -0.00942   0.00083   0.00000   0.02504   0.02502   0.01560
   D10        3.10482   0.00107   0.00000   0.03235   0.03229   3.13711
   D11       -2.24591   0.00020   0.00000   0.03165   0.03035  -2.21556
   D12        1.98622   0.00318   0.00000   0.06263   0.06135   2.04757
   D13       -0.14575  -0.00011   0.00000   0.02040   0.01927  -0.12648
   D14        0.90074  -0.00291   0.00000  -0.09688  -0.09571   0.80503
   D15       -1.15031   0.00007   0.00000  -0.06590  -0.06471  -1.21502
   D16        3.00090  -0.00322   0.00000  -0.10813  -0.10679   2.89411
   D17        3.04595  -0.00112   0.00000  -0.05375  -0.05537   2.99058
   D18       -0.00758  -0.00102   0.00000  -0.04754  -0.04917  -0.05675
   D19       -0.10075   0.00195   0.00000   0.07560   0.07723  -0.02352
   D20        3.12891   0.00206   0.00000   0.08181   0.08343  -3.07084
   D21       -0.86737  -0.00060   0.00000  -0.00293  -0.00308  -0.87046
   D22        2.30142  -0.00079   0.00000  -0.00994  -0.01012   2.29130
   D23       -2.96980   0.00097   0.00000   0.01389   0.01404  -2.95576
   D24        0.19900   0.00078   0.00000   0.00687   0.00700   0.20599
   D25        1.22178   0.00003   0.00000   0.00388   0.00392   1.22570
   D26       -1.89261  -0.00016   0.00000  -0.00314  -0.00312  -1.89574
   D27        2.14578  -0.00121   0.00000  -0.01257  -0.01295   2.13283
   D28       -1.07589  -0.00116   0.00000  -0.01766  -0.01799  -1.09388
   D29        0.04263   0.00014   0.00000   0.00209   0.00197   0.04460
   D30        3.10415   0.00019   0.00000  -0.00300  -0.00307   3.10108
   D31       -2.05877   0.00076   0.00000   0.00854   0.00896  -2.04981
   D32        1.00275   0.00080   0.00000   0.00345   0.00392   1.00666
   D33        1.51912   0.00029   0.00000  -0.00172  -0.00146   1.51766
   D34       -1.53751   0.00071   0.00000   0.00546   0.00577  -1.53174
   D35       -0.59272  -0.00239   0.00000  -0.03189  -0.03192  -0.62464
   D36        2.63383  -0.00198   0.00000  -0.02472  -0.02469   2.60915
   D37       -2.67926   0.00108   0.00000   0.00697   0.00665  -2.67260
   D38        0.54729   0.00150   0.00000   0.01415   0.01389   0.56118
   D39        3.13500   0.00298   0.00000   0.02359   0.02349  -3.12469
   D40       -1.15841   0.00136   0.00000   0.01518   0.01504  -1.14337
   D41        1.17745  -0.00442   0.00000  -0.03875  -0.03866   1.13879
   D42       -1.06608   0.00259   0.00000   0.01836   0.01829  -1.04779
   D43        0.92369   0.00096   0.00000   0.00995   0.00984   0.93353
   D44       -3.02363  -0.00482   0.00000  -0.04398  -0.04386  -3.06750
   D45        1.05275   0.00349   0.00000   0.03028   0.03030   1.08305
   D46        3.04252   0.00187   0.00000   0.02187   0.02185   3.06436
   D47       -0.90480  -0.00391   0.00000  -0.03206  -0.03186  -0.93666
   D48        1.20389  -0.00012   0.00000   0.00382   0.00374   1.20763
   D49       -2.99298  -0.00045   0.00000  -0.01194  -0.01180  -3.00478
   D50       -0.95184   0.00128   0.00000   0.01959   0.01965  -0.93219
   D51       -3.00093   0.00074   0.00000   0.02097   0.02076  -2.98017
   D52       -0.91462   0.00041   0.00000   0.00522   0.00522  -0.90940
   D53        1.12652   0.00215   0.00000   0.03674   0.03667   1.16319
   D54       -0.92825  -0.00119   0.00000   0.00223   0.00216  -0.92609
   D55        1.15807  -0.00152   0.00000  -0.01353  -0.01338   1.14468
   D56       -3.08398   0.00022   0.00000   0.01800   0.01807  -3.06591
   D57       -1.12120  -0.00349   0.00000  -0.11266  -0.11277  -1.23397
   D58        3.02965  -0.00133   0.00000  -0.06213  -0.06227   2.96738
   D59        3.10058  -0.00133   0.00000  -0.08193  -0.08196   3.01861
   D60        0.96824   0.00084   0.00000  -0.03141  -0.03147   0.93677
   D61        1.06139  -0.00222   0.00000  -0.09428  -0.09409   0.96730
   D62       -1.07095  -0.00006   0.00000  -0.04375  -0.04360  -1.11454
   D63        3.12842   0.00055   0.00000  -0.00023   0.00015   3.12857
   D64        1.12978   0.00372   0.00000   0.03216   0.03293   1.16271
   D65       -1.15881  -0.00365   0.00000  -0.01865  -0.01996  -1.17877
   D66       -1.01161  -0.00086   0.00000  -0.04336  -0.04287  -1.05449
   D67       -3.01025   0.00231   0.00000  -0.01098  -0.01010  -3.02035
   D68        0.98434  -0.00506   0.00000  -0.06178  -0.06298   0.92136
         Item               Value     Threshold  Converged?
 Maximum Force            0.028338     0.000450     NO 
 RMS     Force            0.005248     0.000300     NO 
 Maximum Displacement     0.374718     0.001800     NO 
 RMS     Displacement     0.097894     0.001200     NO 
 Predicted change in Energy=-8.973935D-03
 GradGradGradGradGradGradGradGradGradGradGradGradGradGradGradGradGradGrad

                          Input orientation:                          
 ---------------------------------------------------------------------
 Center     Atomic      Atomic             Coordinates (Angstroms)
 Number     Number       Type             X           Y           Z
 ---------------------------------------------------------------------
      1          6           0       -1.371020    2.996488   -0.830345
      2          6           0       -1.998827    5.667611   -2.124553
      3          6           0       -1.042848    0.588008   -1.240574
      4          6           0       -0.998667    6.090705   -4.288466
      5          6           0        0.389938    6.439413   -2.276153
      6          6           0       -3.664699    8.708294    1.094799
      7          6           0       -2.324628    4.057157   -0.277847
      8          6           0       -1.844648    5.471221   -0.605456
      9          7           0       -1.839111    1.716345   -0.775656
     10          7           0       -2.741321    6.405177    0.144860
     11          7           0       -0.912487    6.088181   -2.837518
     12          8           0       -0.263686    3.256134   -1.288967
     13          8           0       -3.051906    5.314694   -2.650138
     14          8           0       -2.465146    8.558668   -1.250598
     15          8           0       -1.065190    8.295977    0.837702
     16         16           0       -2.314715    8.055798    0.108695
     17          1           0       -0.651861    0.791426   -2.241334
     18          1           0       -1.677825   -0.299276   -1.279373
     19          1           0       -0.190979    0.385408   -0.580166
     20          1           0       -0.811243    7.098970   -4.677964
     21          1           0       -1.999094    5.774959   -4.576881
     22          1           0       -0.259771    5.400986   -4.719005
     23          1           0        1.040496    5.561028   -2.174015
     24          1           0        0.287938    6.927933   -1.307157
     25          1           0        0.866281    7.158217   -2.948768
     26          1           0       -3.522205    9.790108    1.140063
     27          1           0       -4.609569    8.471164    0.603397
     28          1           0       -3.628946    8.288886    2.103044
     29          1           0       -2.389868    3.924885    0.812540
     30          1           0       -3.329679    3.921653   -0.689077
     31          1           0       -0.814701    5.575840   -0.262062
     32          1           0       -2.754934    1.547930   -0.386486
     33          1           0       -2.734003    6.131024    1.128079
 ---------------------------------------------------------------------
                    Distance matrix (angstroms):
                    1          2          3          4          5
     1  C    0.000000
     2  C    3.033812   0.000000
     3  C    2.465109   5.243823   0.000000
     4  C    4.655258   2.421125   6.290570   0.000000
     5  C    4.128567   2.514928   6.112629   2.469661   0.000000
     6  C    6.449176   4.731291   8.846871   6.552789   5.740316
     7  C    1.529589   2.471848   3.821623   4.688129   4.127619
     8  C    2.529664   1.539480   4.989191   3.829361   2.953303
     9  N    1.364136   4.178222   1.457165   5.672848   5.433923
    10  N    3.801040   2.499107   6.216405   4.773899   3.958189
    11  N    3.714507   1.365771   5.728798   1.453507   1.461098
    12  O    1.226352   3.086120   2.779988   4.191894   3.396325
    13  O    3.392802   1.228725   5.325857   2.738996   3.640213
    14  O    5.684326   3.056053   8.096570   4.179718   3.700609
    15  O    5.564216   4.068776   7.983265   5.580792   3.906446
    16  S    5.231537   3.284908   7.694548   4.992854   3.951626
    17  H    2.714845   5.060152   1.093513   5.691518   5.743372
    18  H    3.340331   6.034990   1.091776   7.095614   7.118928
    19  H    2.876252   5.792678   1.096752   6.852318   6.313859
    20  H    5.652246   3.158964   7.366269   1.097012   2.765239
    21  H    4.706476   2.454677   6.240979   1.087995   3.382651
    22  H    4.705122   3.134739   5.989779   1.098656   2.732760
    23  H    3.767987   3.041593   5.471980   2.984903   1.097823
    24  H    4.293687   2.736027   6.478431   3.353283   1.089958
    25  H    5.178148   3.333179   7.051974   2.532272   1.093614
    26  H    7.393468   5.474794   9.823100   7.037240   6.180821
    27  H    6.520421   4.702934   8.846800   6.529588   6.116771
    28  H    6.458520   5.234591   8.784715   7.252707   6.224897
    29  H    2.144538   3.437516   4.143005   5.713709   4.856974
    30  H    2.170767   2.623000   4.080065   4.805622   4.763768
    31  H    2.699165   2.208948   5.088026   4.063355   2.500695
    32  H    2.051962   4.534793   2.140597   6.240730   6.114545
    33  H    3.939348   3.366727   6.260635   5.687879   4.630649
                    6          7          8          9         10
     6  C    0.000000
     7  C    5.031205   0.000000
     8  C    4.084372   1.528818   0.000000
     9  N    7.464498   2.441914   3.758735   0.000000
    10  N    2.656946   2.421881   1.496419   4.862764   0.000000
    11  N    5.468343   3.559650   2.496330   4.921672   3.512790
    12  O    6.853851   2.431354   2.805929   2.261947   4.255702
    13  O    5.090834   2.781744   2.379643   4.234699   3.016228
    14  O    2.638599   4.607557   3.214585   6.887298   2.580911
    15  O    2.644533   4.560507   3.266421   6.818609   2.620033
    16  S    1.794606   4.017293   2.722318   6.418484   1.705243
    17  H    9.104053   4.161543   5.098953   2.100775   6.447788
    18  H    9.524740   4.516627   5.812110   2.083860   6.936075
    19  H    9.172932   4.257417   5.347967   2.127428   6.577805
    20  H    6.637539   5.559136   4.505865   6.727345   5.240818
    21  H    6.598989   4.640960   3.986017   5.563026   4.821091
    22  H    7.505475   5.078721   4.408862   5.623247   5.551907
    23  H    6.536764   4.145014   3.285194   5.002912   4.515740
    24  H    4.956049   4.015761   2.676251   5.653979   3.399711
    25  H    6.267612   5.189633   3.960581   6.454110   4.811694
    26  H    1.092096   6.025892   4.951143   8.466902   3.613581
    27  H    1.091094   5.047870   4.255088   7.429993   2.822926
    28  H    1.092583   5.027665   4.296385   7.395182   2.858448
    29  H    4.958414   1.100316   2.167747   2.775491   2.592520
    30  H    5.119218   1.094348   2.147899   2.663207   2.685052
    31  H    4.447003   2.141618   1.090713   4.026027   2.136645
    32  H    7.368357   2.548173   4.033457   1.009231   4.886242
    33  H    2.740370   2.538727   2.057045   4.890238   1.020751
                   11         12         13         14         15
    11  N    0.000000
    12  O    3.292330   0.000000
    13  O    2.282653   3.723524   0.000000
    14  O    3.321501   5.741494   3.581392   0.000000
    15  O    4.290096   5.528575   5.000012   2.527821   0.000000
    16  S    3.810240   5.403420   3.958316   1.457115   1.466441
    17  H    5.336570   2.670669   5.136857   8.037388   8.122167
    18  H    6.619151   3.826333   5.940013   8.892911   8.873314
    19  H    6.175583   2.957829   6.063625   8.510199   8.084040
    20  H    2.102186   5.152912   3.509457   4.075898   5.649768
    21  H    2.074659   4.490713   2.243345   4.362385   6.045281
    22  H    2.106721   4.045438   3.476159   5.183096   6.317172
    23  H    2.128912   2.792264   4.127363   4.704047   4.580862
    24  H    2.118539   3.713048   3.944705   3.200307   2.881478
    25  H    2.078791   4.388395   4.340501   3.992925   4.400276
    26  H    6.027938   7.694865   5.883548   2.889477   2.891500
    27  H    5.584524   7.047288   4.793235   2.836107   3.556433
    28  H    6.052388   6.939690   5.636624   3.560074   2.859019
    29  H    4.492818   3.063365   3.789459   5.072883   4.567477
    30  H    3.892616   3.194228   2.421463   4.750225   5.156906
    31  H    2.627742   2.595994   3.282711   3.549427   2.944719
    32  H    5.478689   3.152578   4.404636   7.069732   7.063286
    33  H    4.364139   4.495505   3.878451   3.409376   2.748869
                   16         17         18         19         20
    16  S    0.000000
    17  H    7.814015   0.000000
    18  H    8.493505   1.779776   0.000000
    19  H    7.988721   1.771085   1.779998   0.000000
    20  H    5.107646   6.763703   8.187516   7.889778   0.000000
    21  H    5.220773   5.666165   6.919039   6.949120   1.781632
    22  H    5.880264   5.247918   6.806977   6.503134   1.785765
    23  H    4.763620   5.061394   6.521719   5.553731   3.473321
    24  H    3.170255   6.277948   7.489829   6.600190   3.549618
    25  H    4.502495   6.583407   8.054412   7.252518   2.409920
    26  H    2.351506  10.032398  10.538077  10.124457   6.959954
    27  H    2.384033   9.095841   9.437190   9.290005   6.648531
    28  H    2.399784   9.162346   9.434201   9.026860   7.438912
    29  H    4.191120   4.708013   4.767247   4.393477   6.535480
    30  H    4.331022   4.402106   4.570920   4.729516   5.687626
    31  H    2.921934   5.180218   6.024690   5.237442   4.671201
    32  H    6.541509   2.904424   2.317235   2.821849   7.280711
    33  H    2.218040   6.648276   6.946948   6.511311   6.192258
                   21         22         23         24         25
    21  H    0.000000
    22  H    1.784741   0.000000
    23  H    3.880546   2.862391   0.000000
    24  H    4.153428   3.777865   1.784997   0.000000
    25  H    3.574147   2.736712   1.783705   1.755676   0.000000
    26  H    7.150156   8.014770   7.048862   5.357062   6.550129
    27  H    6.396826   7.528260   6.935859   5.478809   6.657825
    28  H    7.321041   8.138284   6.894790   5.368765   6.856113
    29  H    5.711509   6.108533   4.833618   4.547752   5.933327
    30  H    4.507796   5.277603   4.898063   4.744143   5.760871
    31  H    4.478851   4.494760   2.664120   2.033762   3.542316
    32  H    5.999873   6.312100   5.805644   6.249091   7.152189
    33  H    5.763111   6.390866   5.047332   3.962015   5.535147
                   26         27         28         29         30
    26  H    0.000000
    27  H    1.791643   0.000000
    28  H    1.786727   1.801051   0.000000
    29  H    5.982499   5.063542   4.716484   0.000000
    30  H    6.149926   4.899659   5.192131   1.771470   0.000000
    31  H    5.201595   4.851077   4.568843   2.522216   3.040361
    32  H    8.417396   7.235379   7.238933   2.687164   2.460986
    33  H    3.743034   3.044551   2.531373   2.255003   2.922021
                   31         32         33
    31  H    0.000000
    32  H    4.472588   0.000000
    33  H    2.434018   4.826913   0.000000
 Stoichiometry    C8H17N3O4S
 Framework group  C1[X(C8H17N3O4S)]
 Deg. of freedom    93
 Full point group                 C1      NOp   1
 Largest Abelian subgroup         C1      NOp   1
 Largest concise Abelian subgroup C1      NOp   1
                         Standard orientation:                         
 ---------------------------------------------------------------------
 Center     Atomic      Atomic             Coordinates (Angstroms)
 Number     Number       Type             X           Y           Z
 ---------------------------------------------------------------------
      1          6           0        2.564073   -0.809328    0.229461
      2          6           0        0.190408    0.845822   -0.681694
      3          6           0        5.019747   -1.014476    0.163562
      4          6           0        0.471763    3.250521   -0.671254
      5          6           0       -0.056998    2.131193    1.465740
      6          6           0       -3.765932   -1.746616   -0.573286
      7          6           0        1.243552   -1.359654   -0.311841
      8          6           0        0.059843   -0.479669    0.090331
      9          7           0        3.684607   -1.407409   -0.268104
     10          7           0       -1.174105   -1.217294   -0.325059
     11          7           0        0.158755    2.013856    0.025431
     12          8           0        2.631884    0.098112    1.051587
     13          8           0        0.447056    0.793874   -1.882194
     14          8           0       -2.858334    0.730036   -0.504991
     15          8           0       -2.818610   -0.627015    1.627311
     16         16           0       -2.660470   -0.545147    0.171722
     17          1           0        5.128848    0.071977    0.104508
     18          1           0        5.754826   -1.482925   -0.493848
     19          1           0        5.224313   -1.318517    1.197282
     20          1           0       -0.366072    3.954049   -0.590523
     21          1           0        0.648708    3.022259   -1.720215
     22          1           0        1.369370    3.717036   -0.242638
     23          1           0        0.882090    2.043000    2.027481
     24          1           0       -0.764412    1.383961    1.825210
     25          1           0       -0.498732    3.111873    1.663552
     26          1           0       -4.781965   -1.419869   -0.341798
     27          1           0       -3.607042   -1.753034   -1.652730
     28          1           0       -3.589297   -2.735360   -0.143257
     29          1           0        1.108046   -2.377132    0.084482
     30          1           0        1.275627   -1.430476   -1.403424
     31          1           0        0.077508   -0.348663    1.173005
     32          1           0        3.582041   -2.153231   -0.940247
     33          1           0       -1.135836   -2.153490    0.079917
 ---------------------------------------------------------------------
 Rotational constants (GHZ):      0.7326508      0.2925077      0.2478853
 Standard basis: 6-31G(d) (6D, 7F)
 There are   278 symmetry adapted basis functions of A   symmetry.
 Integral buffers will be    131072 words long.
 Raffenetti 2 integral format.
 Two-electron integral symmetry is turned on.
   278 basis functions,   540 primitive gaussians,   278 cartesian basis functions
    67 alpha electrons       67 beta electrons
       nuclear repulsion energy      1396.5930818400 Hartrees.
 NAtoms=   33 NActive=   33 NUniq=   33 SFac= 1.00D+00 NAtFMM=   60 NAOKFM=F Big=F
 One-electron integrals computed using PRISM.
 NBasis=   278 RedAO= T  NBF=   278
 NBsUse=   278 1.00D-06 NBFU=   278
 Initial guess read from the read-write file.
 B after Tr=     0.000000    0.000000    0.000000
         Rot=    1.000000    0.000000    0.000000    0.000000 Ang=   0.00 deg.
 Initial guess orbital symmetries:
       Occupied  (A) (A) (A) (A) (A) (A) (A) (A) (A) (A) (A) (A)
                 (A) (A) (A) (A) (A) (A) (A) (A) (A) (A) (A) (A)
                 (A) (A) (A) (A) (A) (A) (A) (A) (A) (A) (A) (A)
                 (A) (A) (A) (A) (A) (A) (A) (A) (A) (A) (A) (A)
                 (A) (A) (A) (A) (A) (A) (A) (A) (A) (A) (A) (A)
                 (A) (A) (A) (A) (A) (A) (A)
       Virtual   (A) (A) (A) (A) (A) (A) (A) (A) (A) (A) (A) (A)
                 (A) (A) (A) (A) (A) (A) (A) (A) (A) (A) (A) (A)
                 (A) (A) (A) (A) (A) (A) (A) (A) (A) (A) (A) (A)
                 (A) (A) (A) (A) (A) (A) (A) (A) (A) (A) (A) (A)
                 (A) (A) (A) (A) (A) (A) (A) (A) (A) (A) (A) (A)
                 (A) (A) (A) (A) (A) (A) (A) (A) (A) (A) (A) (A)
                 (A) (A) (A) (A) (A) (A) (A) (A) (A) (A) (A) (A)
                 (A) (A) (A) (A) (A) (A) (A) (A) (A) (A) (A) (A)
                 (A) (A) (A) (A) (A) (A) (A) (A) (A) (A) (A) (A)
                 (A) (A) (A) (A) (A) (A) (A) (A) (A) (A) (A) (A)
                 (A) (A) (A) (A) (A) (A) (A) (A) (A) (A) (A) (A)
                 (A) (A) (A) (A) (A) (A) (A) (A) (A) (A) (A) (A)
                 (A) (A) (A) (A) (A) (A) (A) (A) (A) (A) (A) (A)
                 (A) (A) (A) (A) (A) (A) (A) (A) (A) (A) (A) (A)
                 (A) (A) (A) (A) (A) (A) (A) (A) (A) (A) (A) (A)
                 (A) (A) (A) (A) (A) (A) (A) (A) (A) (A) (A) (A)
                 (A) (A) (A) (A) (A) (A) (A) (A) (A) (A) (A) (A)
                 (A) (A) (A) (A) (A) (A) (A)
 Harris functional with IExCor=  402 diagonalized for initial guess.
 ExpMin= 1.17D-01 ExpMax= 2.19D+04 ExpMxC= 3.30D+03 IAcc=3 IRadAn=         5 AccDes= 0.00D+00
 HarFok:  IExCor=  402 AccDes= 0.00D+00 IRadAn=         5 IDoV= 1
 ScaDFX=  1.000000  1.000000  1.000000  1.000000
 FoFCou: FMM=F IPFlag=           0 FMFlag=      100000 FMFlg1=           0
         NFxFlg=           0 DoJE=T BraDBF=F KetDBF=T FulRan=T
         Omega=  0.000000  0.000000  1.000000  0.000000  0.000000 ICntrl=     500 IOpCl=  0
         NMat0=    1 NMatS0=    1 NMatT0=    0 NMatD0=    1 NMtDS0=    0 NMtDT0=    0
         I1Cent=           4 NGrid=           0.
 Petite list used in FoFCou.
 Requested convergence on RMS density matrix=1.00D-08 within 128 cycles.
 Requested convergence on MAX density matrix=1.00D-06.
 Requested convergence on             energy=1.00D-06.
 No special actions if energy rises.
 Integral accuracy reduced to 1.0D-05 until final iterations.
 Initial convergence to 1.0D-05 achieved.  Increase integral accuracy.
 SCF Done:  E(RB3LYP) =  -1178.37393419     A.U. after   13 cycles
             Convg  =    0.7003D-08             -V/T =  2.0074
 Calling FoFJK, ICntrl=      2127 FMM=F ISym2X=0 I1Cent= 0 IOpClX= 0 NMat=1 NMatS=1 NMatT=0.
 ***** Axes restored to original set *****
 -------------------------------------------------------------------
 Center     Atomic                   Forces (Hartrees/Bohr)
 Number     Number              X              Y              Z
 -------------------------------------------------------------------
      1        6          -0.000833930   -0.005657867   -0.001774257
      2        6           0.005787450   -0.005668688   -0.007491368
      3        6          -0.000702678    0.000953258   -0.000179292
      4        6          -0.000324845    0.000403484   -0.001929731
      5        6          -0.000990518    0.000687030   -0.000204025
      6        6          -0.003648668    0.000008083    0.002346206
      7        6          -0.000273036   -0.003286778    0.002726855
      8        6          -0.001694659    0.004271419    0.006587748
      9        7           0.000649156    0.001583646    0.001201088
     10        7           0.000833152   -0.003261799   -0.004958548
     11        7          -0.001885639    0.000856827    0.004066767
     12        8           0.001682334    0.002800343    0.000457987
     13        8          -0.002378904    0.003137119   -0.000267536
     14        8           0.001697207   -0.001448926   -0.007967817
     15        8           0.007163703   -0.000747359    0.002401108
     16       16          -0.006074654    0.003271893    0.005124848
     17        1          -0.000093287    0.000468158    0.000074192
     18        1          -0.000493804   -0.000155746    0.000068325
     19        1          -0.000434574    0.000875638    0.000461207
     20        1           0.000479168   -0.000127841   -0.000167591
     21        1          -0.000460619   -0.000347611   -0.000005265
     22        1           0.000014793    0.000430286    0.000365989
     23        1          -0.001459901   -0.000200217   -0.000220389
     24        1           0.000477008    0.000744304    0.000310418
     25        1           0.000295727    0.000309480    0.000014057
     26        1           0.000773232    0.000025404   -0.000063429
     27        1           0.000338716   -0.000136812    0.000004466
     28        1          -0.000062566    0.000400162    0.000098140
     29        1           0.000597646    0.000114351    0.000154153
     30        1           0.000361227    0.000772790   -0.000552269
     31        1           0.000868496   -0.000392621   -0.001446488
     32        1          -0.000250233   -0.000838658   -0.000510796
     33        1           0.000043499    0.000157249    0.001275247
 -------------------------------------------------------------------
 Cartesian Forces:  Max     0.007967817 RMS     0.002394491

 GradGradGradGradGradGradGradGradGradGradGradGradGradGradGradGradGradGrad
 Berny optimization.
 Using GEDIIS/GDIIS optimizer.
 Internal  Forces:  Max     0.007175237 RMS     0.001544988
 Search for a local minimum.
 Step number   2 out of a maximum of  167
 All quantities printed in internal units (Hartrees-Bohrs-Radians)
 Mixed Optimization -- RFO/linear search
 Update second derivatives using D2CorX and points    1    2
 DE= -7.05D-03 DEPred=-8.97D-03 R= 7.86D-01
 SS=  1.41D+00  RLast= 3.97D-01 DXNew= 5.0454D-01 1.1896D+00
 Trust test= 7.86D-01 RLast= 3.97D-01 DXMaxT set to 5.05D-01
 ITU=  1  0
 Use linear search instead of GDIIS.
     Eigenvalues ---    0.00229   0.00237   0.00332   0.00593   0.00645
     Eigenvalues ---    0.00921   0.00938   0.01084   0.01135   0.01158
     Eigenvalues ---    0.01179   0.01349   0.01482   0.01794   0.02009
     Eigenvalues ---    0.02715   0.04201   0.05228   0.05267   0.05437
     Eigenvalues ---    0.05614   0.05957   0.06338   0.07169   0.07434
     Eigenvalues ---    0.07494   0.07666   0.07689   0.07730   0.09075
     Eigenvalues ---    0.09118   0.09664   0.11369   0.12180   0.12675
     Eigenvalues ---    0.15391   0.15954   0.15998   0.16000   0.16000
     Eigenvalues ---    0.16000   0.16000   0.16000   0.16000   0.16000
     Eigenvalues ---    0.16000   0.16000   0.16000   0.16963   0.17203
     Eigenvalues ---    0.17797   0.21919   0.21964   0.23582   0.24322
     Eigenvalues ---    0.24879   0.24924   0.24948   0.25000   0.25000
     Eigenvalues ---    0.25838   0.27538   0.28647   0.29446   0.30596
     Eigenvalues ---    0.31196   0.33963   0.34012   0.34319   0.34343
     Eigenvalues ---    0.34345   0.34434   0.34451   0.34474   0.34537
     Eigenvalues ---    0.34570   0.34578   0.34644   0.34649   0.34708
     Eigenvalues ---    0.34912   0.36266   0.37212   0.37434   0.39731
     Eigenvalues ---    0.43126   0.44486   0.45262   0.49529   0.86248
     Eigenvalues ---    0.91571   0.92247   0.95920
 RFO step:  Lambda=-3.34615163D-03 EMin= 2.29465166D-03
 Quartic linear search produced a step of -0.07901.
 Iteration  1 RMS(Cart)=  0.14918626 RMS(Int)=  0.00510000
 Iteration  2 RMS(Cart)=  0.00951594 RMS(Int)=  0.00074501
 Iteration  3 RMS(Cart)=  0.00003650 RMS(Int)=  0.00074486
 Iteration  4 RMS(Cart)=  0.00000003 RMS(Int)=  0.00074486
 Variable       Old X    -DE/DX   Delta X   Delta X   Delta X     New X
                                 (Linear)    (Quad)   (Total)
    R1        2.89050  -0.00024  -0.00248   0.00910   0.00662   2.89712
    R2        2.57784  -0.00221   0.00181  -0.01118  -0.00937   2.56847
    R3        2.31747   0.00194   0.00037   0.00047   0.00084   2.31831
    R4        2.90919   0.00553   0.00077   0.01480   0.01557   2.92476
    R5        2.58093  -0.00338   0.00408  -0.02269  -0.01861   2.56232
    R6        2.32195   0.00125   0.00172  -0.00548  -0.00376   2.31819
    R7        2.75364  -0.00273  -0.00225   0.00258   0.00032   2.75397
    R8        2.06644  -0.00001  -0.00003   0.00009   0.00006   2.06650
    R9        2.06316   0.00041   0.00007   0.00081   0.00088   2.06403
   R10        2.07256  -0.00022  -0.00054   0.00155   0.00101   2.07357
   R11        2.74673   0.00175   0.00051   0.00224   0.00275   2.74948
   R12        2.07305   0.00002  -0.00044   0.00181   0.00137   2.07442
   R13        2.05601   0.00053   0.00068  -0.00130  -0.00062   2.05539
   R14        2.07616  -0.00040  -0.00067   0.00157   0.00090   2.07706
   R15        2.76107  -0.00116  -0.00043  -0.00115  -0.00158   2.75950
   R16        2.07459  -0.00073  -0.00069   0.00082   0.00013   2.07471
   R17        2.05972   0.00057  -0.00012   0.00195   0.00183   2.06155
   R18        2.06663   0.00032   0.00010   0.00045   0.00055   2.06718
   R19        3.39131   0.00337  -0.00230   0.02008   0.01778   3.40910
   R20        2.06376   0.00012   0.00000   0.00034   0.00033   2.06410
   R21        2.06187  -0.00027   0.00005  -0.00091  -0.00086   2.06101
   R22        2.06468  -0.00006  -0.00017   0.00050   0.00033   2.06502
   R23        2.88905   0.00258   0.00060   0.00566   0.00626   2.89530
   R24        2.07930   0.00010  -0.00043   0.00198   0.00155   2.08085
   R25        2.06802  -0.00022   0.00039  -0.00214  -0.00175   2.06627
   R26        2.82782  -0.00259   0.00256  -0.01771  -0.01514   2.81268
   R27        2.06115   0.00033   0.00003   0.00072   0.00076   2.06191
   R28        1.90717   0.00017   0.00125  -0.00459  -0.00334   1.90383
   R29        3.22244   0.00133  -0.00143   0.00897   0.00754   3.22999
   R30        1.92894   0.00119   0.00112  -0.00190  -0.00079   1.92815
   R31        2.75355   0.00676  -0.00104   0.01056   0.00952   2.76307
   R32        2.77117   0.00718  -0.00231   0.01598   0.01367   2.78484
    A1        2.00681  -0.00079  -0.00236   0.00642   0.00402   2.01083
    A2        2.15460  -0.00256   0.00074  -0.01222  -0.01152   2.14308
    A3        2.12177   0.00335   0.00160   0.00576   0.00732   2.12909
    A4        2.06546  -0.00011   0.00153   0.00042  -0.00329   2.06217
    A5        2.06154   0.00030   0.00243  -0.00212  -0.00489   2.05665
    A6        2.14940   0.00015  -0.00342   0.02166   0.01291   2.16231
    A7        1.92126  -0.00034  -0.00056   0.00025  -0.00030   1.92096
    A8        1.89951  -0.00004  -0.00011   0.00064   0.00055   1.90006
    A9        1.95558  -0.00145  -0.00444   0.00878   0.00436   1.95994
   A10        1.90351   0.00045   0.00144  -0.00202  -0.00058   1.90293
   A11        1.88359   0.00072   0.00211  -0.00544  -0.00330   1.88029
   A12        1.89971   0.00073   0.00161  -0.00250  -0.00087   1.89884
   A13        1.92399   0.00030  -0.00209   0.01002   0.00796   1.93194
   A14        1.89509  -0.00005   0.00540  -0.02084  -0.01545   1.87964
[...]
 00006869,-0.00052456,-0.00832602,0.00261530,-0.00216106,0.00237978,-0.
 00244689,0.02442093,-0.01292673,0.01582728,0.00000128,0.00000063,0.000
 00280,-0.00000319,-0.00000206,-0.00000281,0.00000314,0.00000068,-0.000
 00170,0.00000759,0.00000182,-0.00000697,0.00000130,-0.00000896,-0.0000
 0351,-0.00000769,0.00000730,0.00000265,0.00000016,-0.00001250,0.000009
 68,0.00001554,0.00001553,-0.00001231,-0.00000170,0.00001246,0.00000686
 ,-0.01153281,0.00905146,-0.00717246,-0.00127616,0.00088500,-0.00154159
 ,-0.10109102,0.11390147,0.00000900,-0.00004175,0.00002827,0.00003217,-
 0.00007216,0.00008972,0.00000612,-0.00000542,-0.00000523,-0.00000096,-
 0.00001918,-0.00000383,0.00001656,-0.00002964,-0.00000380,-0.10607316,
 0.06958152,-0.12796911,-0.00000717,0.00002112,-0.00007013,-0.00000152,
 -0.00011371,0.00012535,-0.00000263,0.00002012,-0.00000180,0.00056474,-
 0.00007441,-0.00025472,-0.00001351,0.00004237,-0.00002155,-0.00000633,
 0.00001426,-0.00001011,-0.00003034,0.00004151,-0.00003502,0.00025656,0
 .00083967,0.00151635,0.00113926,-0.00089674,0.00025796,-0.00372211,0.0
 0086214,-0.00351601,0.00000041,-0.00000196,0.00000034,-0.00000037,0.00
 000109,0.00000173,-0.00000220,0.00000278,-0.00000094,0.00000758,0.0000
 0299,-0.00001389,-0.00000164,-0.00000784,-0.00000350,-0.00000623,0.000
 00941,0.00000006,-0.00000070,0.00001000,0.00000574,0.00001871,0.000001
 03,0.00000555,-0.00000230,0.00000613,0.00000157,-0.01882510,0.01493407
 ,-0.01199184,0.01140788,-0.00957905,0.01009188,0.11526839,-0.07548495,
 0.13163943,0.00414656,0.00211817,0.02776718,-0.00110402,-0.00058514,-0
 .00086547,-0.00015715,0.00025795,-0.00100502,0.00000712,0.00006108,0.0
 0000343,-0.00005218,-0.00005491,-0.00004290,-0.00012227,-0.00001628,-0
 .00001335,-0.05356876,-0.00333162,-0.03126863,0.00013716,-0.00063035,0
 .00285584,-0.00037015,0.00053937,-0.00072547,-0.00035773,-0.00027006,-
 0.00042032,0.00013931,0.00008401,-0.00014503,-0.00319000,0.00077536,-0
 .00315931,0.00103869,0.00098367,-0.00034785,-0.00118575,-0.00021469,-0
 .00019196,-0.00057521,-0.00015224,0.00005730,0.00140076,0.00122498,0.0
 0009219,0.00001533,-0.00014339,-0.00000479,0.00013470,-0.00007989,-0.0
 0002285,-0.00022360,0.00021847,0.00012344,-0.00000550,0.00000288,-0.00
 002486,0.00001486,0.00000542,0.00003306,0.00002395,0.00000436,-0.00000
 505,0.00004233,0.00017151,-0.00000753,0.00004140,-0.00003494,0.0000468
 0,0.00000509,0.00001274,-0.00002593,0.00000095,-0.00000322,-0.00000009
 ,-0.00000633,-0.00004429,0.00001121,0.00001826,0.00003223,-0.00000624,
 0.05591198,-0.00300574,-0.00315947,-0.02217879,-0.00204070,-0.00643615
 ,-0.00039311,0.00025299,-0.00040037,0.00135618,-0.00049470,0.00037776,
 0.00000941,0.00047347,0.00005733,0.00004473,-0.00056112,0.00020169,-0.
 00046722,-0.00480568,-0.04726837,-0.03731135,0.00515217,-0.00063128,0.
 03428523,0.00161071,-0.00118868,0.00116799,-0.00124082,0.00289899,-0.0
 0209561,0.00038885,0.00038724,0.00168307,0.00042467,-0.00020402,0.0018
 5905,0.00084756,0.00082368,0.00026653,-0.00224450,0.00112616,-0.001473
 07,-0.00069421,0.00007080,-0.00061658,0.00486469,-0.00363272,0.0030894
 1,-0.00000675,0.00005396,0.00000450,-0.00013266,0.00012024,0.00002095,
 0.00035924,-0.00031497,-0.00015841,-0.00000991,-0.00004565,0.00004641,
 0.00002184,0.00001754,-0.00005861,0.00005570,-0.00000943,0.00025609,-0
 .00002138,-0.00009458,0.00002375,-0.00009749,-0.00008772,-0.00003311,-
 0.00007852,-0.00001782,0.00001318,-0.00000640,-0.00007498,-0.00001940,
 0.00000144,0.00003272,0.00002480,0.00008968,0.00024599,-0.00003291,0.0
 0178446,0.05801070,0.00146561,-0.00350765,-0.01057348,0.00061823,0.002
 47482,0.00086491,0.00031853,-0.00042334,0.00012572,0.00019955,-0.00010
 402,0.00000747,-0.00022134,-0.00000505,-0.00003718,-0.00020316,0.00003
 856,-0.00012300,-0.03685259,-0.03030307,-0.30562870,-0.00264955,0.0007
 7938,-0.01564840,0.00047616,0.00077769,0.00075305,0.00063621,-0.001511
 24,0.00110711,-0.00021250,-0.00003378,-0.00063393,-0.00008566,-0.00053
 930,0.00170257,0.00012173,-0.00023908,-0.00012691,-0.00021652,-0.00208
 503,-0.00205651,-0.00009966,-0.00001805,-0.00002284,0.00028947,0.00002
 466,0.00095083,-0.00000875,0.00001085,0.00000672,-0.00008472,0.0001023
 1,0.00004853,0.00000110,0.00004983,-0.00007111,-0.00000017,0.00001782,
 -0.00003010,-0.00000602,-0.00000644,0.00003456,-0.00002176,0.00000587,
 -0.00009238,0.00000988,0.00007567,-0.00004043,0.00005156,0.00002745,0.
 00001333,0.00004147,0.00000339,-0.00000084,-0.00000285,-0.00001743,0.0
 0000140,-0.00000387,-0.00000345,-0.00000058,0.00003915,0.00007820,0.00
 002279,0.03717478,0.03449375,0.33158659,-0.01906651,-0.01550288,-0.004
 52033,-0.00165803,-0.00061033,-0.00098021,0.00033790,0.00059515,0.0004
 1420,0.00000544,0.00004413,-0.00002054,-0.00018036,0.00000988,0.000041
 87,0.00002235,-0.00000931,0.00000216,-0.26370871,-0.09210251,-0.037938
 16,-0.00154601,-0.00064900,0.00089051,0.00205537,-0.00008104,0.0003695
 7,0.00158234,-0.00016242,-0.00005987,0.00021493,-0.00003630,-0.0000225
 5,-0.00314060,0.00439952,0.00259154,0.00101368,0.00147594,-0.00068056,
 0.00013546,-0.00012500,-0.00006711,0.00010959,0.00005170,-0.00006589,-
 0.00024941,-0.00004471,0.00017708,0.00019785,-0.00034608,-0.00005323,-
 0.00010202,0.00004585,0.00001375,0.00010577,-0.00009979,-0.00003117,-0
 .00000040,0.00001234,-0.00001303,0.00001845,-0.00000359,0.00001401,-0.
 00000702,-0.00000648,0.00001035,0.00007242,0.00010614,-0.00007486,0.00
 004818,0.00000357,0.00001363,0.00000356,-0.00001624,0.00002702,-0.0000
 1060,-0.00000011,-0.00000593,-0.00000184,0.00000702,-0.00000284,0.0000
 0161,-0.00000128,-0.00000029,-0.00237134,-0.00071535,-0.00058078,0.285
 49806,0.01678786,0.01126072,0.00628651,-0.00364141,-0.00046332,-0.0020
 2961,-0.00036388,0.00043570,0.00025532,-0.00001337,-0.00000267,-0.0000
 2156,-0.00022282,0.00011142,-0.00009202,0.00001775,-0.00000445,0.00013
 005,-0.09198969,-0.09176732,-0.01703933,-0.02936289,-0.01471178,-0.003
 07828,-0.00020658,-0.00137190,-0.00054990,0.00039409,0.00293902,-0.000
 06933,0.00066942,0.00026039,-0.00002999,0.00407618,-0.00189959,-0.0035
 9436,0.00226994,0.00140037,-0.00062642,0.00050522,-0.00034542,-0.00016
 282,0.00035234,0.00003093,-0.00007688,-0.00105378,0.00012706,-0.000383
 94,0.00006875,0.00029575,-0.00002979,0.00001881,0.00000650,-0.00002863
 ,0.00000405,0.00002393,0.00002191,0.00001275,0.00001511,0.00000129,0.0
 0002163,0.00000101,0.00008914,0.00002634,-0.00000247,0.00001529,0.0001
 1979,-0.00020524,0.00005751,0.00006656,0.00010981,-0.00008237,0.000101
 82,0.00000668,0.00011653,0.00002739,0.00004505,-0.00000822,0.00002707,
 0.00007353,0.00001126,0.00000422,-0.00002347,-0.00000242,-0.00317967,-
 0.00171642,-0.00013284,0.10192674,0.10282182,0.01202413,0.00638711,0.0
 0058815,0.00367948,0.00121074,0.00039963,-0.00000805,0.00011918,-0.000
 15954,-0.00008505,0.00003652,-0.00008220,0.00027229,-0.00005091,0.0001
 3686,0.00011261,-0.00003255,0.00002024,-0.04116718,-0.01825767,-0.0542
 6557,0.01414217,0.00643955,0.00156539,-0.00078559,0.00044388,-0.000310
 11,-0.00035515,-0.00085441,-0.00031571,-0.00082541,-0.00011277,0.00036
 009,0.00347549,-0.00211451,-0.00098193,-0.00134702,-0.00106318,-0.0004
 5392,0.00060361,-0.00077701,-0.00020581,0.00035078,0.00021671,0.000050
 33,-0.00118564,-0.00019859,-0.00028720,0.00001927,0.00010280,-0.000005
 82,0.00003144,-0.00003261,-0.00000939,-0.00008564,0.00004276,0.0000136
 3,-0.00001087,-0.00003240,0.00003067,-0.00000516,0.00002019,-0.0001073
 4,-0.00001294,0.00001435,0.00004044,-0.00008946,0.00000034,0.00000121,
 -0.00010348,-0.00007481,0.00003665,-0.00011364,-0.00000633,-0.00005529
 ,-0.00000113,0.00000600,0.00000854,0.00000666,-0.00000818,-0.00001094,
 -0.00002189,-0.00002956,0.00001745,-0.02994328,-0.01235724,-0.00214861
 ,0.04138123,0.01824376,0.05576828,-0.00062040,0.00004933,0.00053139,-0
 .00502564,-0.00219319,-0.00042421,-0.00011493,0.00004142,0.00002144,-0
 .00001398,0.00016393,-0.00003191,-0.00145579,0.00033958,0.00224794,-0.
 00007536,-0.00003735,0.00030170,0.00041397,-0.00299177,-0.00005929,-0.
 27802854,-0.10137359,-0.03206922,-0.00013037,-0.00036229,0.00005743,-0
 .02295114,-0.00132832,-0.00078010,-0.00006282,0.00017251,-0.00075217,-
 0.00055076,0.00155657,-0.00018146,0.00075440,0.00001149,-0.00111363,0.
 00155585,-0.00047480,-0.00055363,0.00061489,0.00045820,0.00076230,-0.0
 0339470,-0.00076891,-0.00196921,0.00001403,0.00004353,-0.00000464,0.00
 001186,-0.00001330,-0.00000995,0.00001031,-0.00000940,0.00000218,-0.00
 000759,0.00001507,-0.00002230,-0.00005503,-0.00002417,0.00008210,0.000
 04706,-0.00002821,0.00004466,-0.00096814,0.00001537,0.00322905,0.00003
 648,0.00021372,-0.00020719,0.00017369,-0.00006710,0.00056457,0.0000453
 5,0.00011328,-0.00002560,0.00012947,0.00025195,0.00006032,0.00003072,-
 0.00003635,-0.00004082,0.00036819,-0.00015154,0.00005956,0.00056585,0.
 00082002,0.00017535,0.30963248,-0.00456034,-0.00129113,0.00098651,-0.0
 0124031,-0.00180831,0.00209068,0.00015961,0.00003293,-0.00007255,0.000
 14702,0.00004171,-0.00005731,-0.00085717,0.00097014,0.00027060,0.00019
 586,0.00011193,0.00019353,-0.02655817,-0.01389848,-0.00304753,-0.10620
 473,-0.09442669,-0.01527808,0.00088434,0.00076290,-0.00027174,0.026726
 55,0.00697101,0.00364503,0.00025703,-0.00012431,-0.00071906,0.00232621
 ,0.00205260,-0.00018230,-0.00028786,0.00126362,-0.00099489,0.00009106,
 -0.00046144,-0.00051063,-0.00017144,-0.00042691,-0.00028019,0.00110142
 ,0.00176081,0.00002878,0.00007020,-0.00014168,-0.00003785,0.00001140,0
 .00001949,0.00000762,-0.00000997,0.00001008,-0.00000612,-0.00000607,0.
 00000921,-0.00003048,0.00000129,-0.00001310,0.00009217,0.00001745,-0.0
 0002063,-0.00004641,0.00067098,0.00025567,-0.00050625,0.00001002,-0.00
 017804,0.00020750,0.00011257,-0.00018001,0.00029422,-0.00010624,0.0000
 3770,0.00004441,-0.00013837,-0.00023353,-0.00000317,-0.00002384,-0.000
 00579,0.00001025,0.00018216,0.00113671,-0.00017161,0.00031399,-0.00528
 463,0.00261984,0.10379401,0.10463594,0.00016850,-0.00049127,0.00044850
 ,-0.02947226,-0.01223469,0.00705373,-0.00000330,-0.00007337,-0.0000188
 9,-0.00001210,0.00024721,-0.00006659,0.00009463,0.00024275,-0.00221765
 ,-0.00010084,0.00009810,-0.00007537,0.01397268,0.00869776,0.00219373,-
 0.03362263,-0.01361985,-0.05590397,0.00001682,0.00028921,0.00004153,0.
 01784682,0.00228680,0.00112118,0.00181689,0.00061585,0.00002395,-0.000
 33899,0.00002912,-0.00057323,-0.00429400,-0.00066668,-0.00900961,-0.00
 134050,0.00012223,-0.00027639,-0.00059095,-0.00017040,-0.00033291,0.00
 332856,0.00007789,0.00125072,-0.00001715,0.00000467,0.00001187,-0.0000
 1358,0.00001431,0.00001082,-0.00000683,0.00002861,-0.00000667,-0.00003
 070,0.00003383,-0.00003306,-0.00000038,-0.00004675,0.00037582,0.000068
 64,-0.00002958,0.00006659,0.00241512,-0.00077620,-0.00177799,0.0003319
 3,0.00025259,-0.00008631,0.00036433,0.00000183,0.00027541,-0.00002120,
 -0.00002108,0.00000012,-0.00000989,-0.00010101,0.00009840,-0.00002459,
 0.00008325,0.00000916,0.00046988,-0.00069156,0.00053902,-0.00016471,0.
 00304937,-0.00104802,0.02781430,0.01474088,0.06017237,-0.00685291,-0.0
 0092954,-0.00092837,0.00039487,0.00015245,0.00021935,-0.01236485,-0.00
 752151,0.00327054,0.00003457,-0.00000390,0.00003426,0.00002300,-0.0000
 4292,0.00000656,-0.00002094,0.00001733,0.00001197,0.00067393,0.0018855
 4,-0.00071964,-0.00032489,-0.00044550,0.00013195,-0.37905877,-0.097634
 73,0.12772761,-0.00015051,0.00034548,0.00007383,-0.00012845,-0.0000063
 7,-0.00005231,0.00426667,0.00007250,0.00148890,-0.00026848,-0.00017323
 ,-0.00011058,-0.00009071,0.00013170,0.00001522,-0.00011908,0.00002102,
 0.00003727,0.00021424,-0.00020112,-0.00013450,-0.00104842,0.00293628,0
 .00050262,0.00055128,-0.00005632,0.00008207,0.00000562,-0.00021605,-0.
 00031142,-0.00000226,-0.00000021,-0.00001069,-0.00000545,0.00000771,0.
 00000170,0.00000558,0.00000045,-0.00001330,-0.00000632,-0.00001548,0.0
 0001018,-0.00000763,0.00000071,0.00000527,-0.00000348,-0.00000322,-0.0
 0000579,0.00000581,0.00000653,-0.00000106,-0.00000241,-0.00000695,0.00
 000215,0.00000299,0.00000693,-0.00000148,-0.00004676,-0.00025327,-0.00
 012722,-0.00001661,0.00107650,-0.00002706,0.00014431,-0.00008136,0.000
 03040,0.39414612,-0.03491228,0.00125020,0.01341740,-0.00052120,-0.0000
 6297,0.00064204,0.02418942,0.01157963,-0.00800803,0.00009663,0.0000030
 9,0.00003452,-0.00020458,-0.00007998,-0.00005757,-0.00000548,0.0000356
 9,0.00003385,-0.00103757,-0.00037709,-0.00094026,0.00076013,-0.0000460
 9,0.00018196,-0.09293236,-0.10051015,0.02809640,-0.00010487,0.00041629
 ,0.00018385,0.00020605,-0.00003518,-0.00035719,-0.00160454,-0.00890996
 ,-0.00031064,0.00022400,0.00024498,-0.00026854,0.00002946,0.00020629,0
 .00012369,-0.00006904,0.00011611,0.00010687,0.00001236,-0.00047967,-0.
 00039985,0.00347861,-0.00452203,-0.00139670,-0.00055692,0.00022088,-0.
 00053366,-0.00002912,0.00017540,0.00075024,-0.00000672,0.00001486,-0.0
 0002883,0.00000034,-0.00000349,0.00004369,-0.00000137,-0.00000836,-0.0
 0004163,0.00003068,0.00023633,-0.00011159,0.00005528,-0.00002127,0.000
 06368,0.00002971,-0.00000793,-0.00000183,0.00000742,0.00002105,-0.0000
 0201,-0.00000560,-0.00000377,-0.00000503,0.00000552,0.00000338,-0.0000
 0254,0.00019256,-0.00024621,-0.00005274,0.00182998,-0.00115372,0.00017
 240,-0.00009892,0.00053740,-0.00016102,0.10090300,0.10151468,-0.002882
 71,0.00108680,-0.00779778,0.00056690,0.00047581,0.00031832,0.00427700,
 0.00334190,-0.00420870,0.00001399,0.00002601,-0.00003421,0.00003605,-0
 .00004291,-0.00000121,-0.00001120,0.00001367,-0.00004066,0.00029362,-0
 .00004316,-0.00193570,-0.00022254,0.00001187,-0.00025734,0.12853082,0.
 02996415,-0.04782412,-0.00008873,0.00002293,-0.00017636,-0.00015499,-0
 .00011240,-0.00004984,0.00152835,-0.00084623,0.00769611,-0.00029200,-0
 .00046822,-0.00020898,-0.00006992,0.00006997,-0.00017963,0.00003917,0.
 00003745,-0.00011888,0.00004829,-0.00006580,0.00038005,0.00057738,-0.0
 0126290,-0.00021715,0.00037026,0.00029766,-0.00031122,-0.00065939,-0.0
 0017018,0.00029447,-0.00001094,-0.00003490,-0.00000017,-0.00001664,0.0
 0003729,-0.00000855,0.00002274,0.00001378,-0.00003136,0.00005440,0.000
 12320,0.00007395,-0.00000482,-0.00006033,0.00003555,-0.00000308,0.0000
 0287,0.00000246,0.00000009,-0.00001131,-0.00000161,0.00000744,0.000006
 74,0.00000695,-0.00000047,0.00001293,0.00000314,-0.00008598,-0.0010057
 4,-0.00032421,-0.00060943,-0.00019999,0.00080426,-0.00002814,-0.000009
 34,0.00001633,-0.13124038,-0.03124183,0.05400238,-0.00075493,0.0000048
 3,0.00051377,-0.00168281,-0.00007052,0.00006174,-0.00008400,0.00000507
 ,0.00002830,0.00008141,0.00003575,-0.00000564,-0.00021368,0.00011956,0
 .00004146,-0.00021649,0.00083545,0.00105951,0.00153183,-0.00115750,-0.
 00048843,-0.02078382,-0.00678181,-0.00048269,0.00021857,-0.00028776,-0
 .00013879,-0.38839459,-0.08473135,-0.06890749,-0.00030127,-0.00013454,
 -0.00011854,0.00042048,0.00018396,-0.00021692,0.00037935,-0.00054257,-
 0.00185948,0.00200355,-0.00076000,0.00286205,-0.00108677,0.00172096,0.
 00195596,0.00179365,-0.00260977,-0.00349800,0.00000424,0.00001836,0.00
 000127,0.00001989,-0.00003363,-0.00001973,0.00002083,-0.00002308,-0.00
 000167,0.00001358,0.00000627,-0.00001368,0.00001871,-0.00001864,0.0000
 3720,-0.00000205,-0.00000443,-0.00002399,0.00005850,-0.00007850,0.0000
 9041,-0.00000276,-0.00001533,0.00001167,0.00001136,-0.00005513,0.00004
 242,0.00007655,0.00053596,-0.00008675,-0.00010884,-0.00008883,0.000074
 17,0.00009475,0.00008689,0.00001772,-0.00010989,0.00023327,-0.00012589
 ,0.00007063,0.00063886,-0.00010086,-0.00109370,0.00317268,0.00132508,0
 .00004994,0.00003943,0.00001487,0.40796777,0.00080027,-0.00049728,-0.0
 0059196,0.00390402,0.00196935,0.00042825,0.00005734,-0.00007769,-0.000
 03845,-0.00005427,0.00006567,-0.00010548,0.00011272,-0.00000551,0.0001
 4337,-0.00014981,-0.00116935,-0.00475897,0.00144162,0.00220629,0.00034
 143,0.02414314,0.00505590,0.00508809,-0.00015225,0.00009522,0.00003476
 ,-0.11078300,-0.05461331,-0.05276193,-0.00123351,-0.00043613,0.0004602
 1,-0.00072707,-0.00038510,0.00038546,-0.00246594,-0.00169005,0.0016536
 4,0.00179398,0.00086496,0.00331433,0.00149062,-0.00079846,0.00121131,-
 0.00945262,-0.00492130,0.00518467,-0.00001623,-0.00000852,0.00000585,-
 0.00000637,0.00001728,0.00001023,-0.00001437,0.00002543,-0.00000124,-0
 .00006365,-0.00004882,0.00006054,-0.00002414,0.00008089,-0.00013064,0.
 00000345,-0.00001905,0.00002518,-0.00006653,0.00007175,-0.00000381,-0.
 00007816,-0.00008347,0.00001016,-0.00009803,-0.00001228,-0.00006037,-0
 .00014342,-0.00165760,0.00032295,0.00024402,0.00051964,-0.00001345,0.0
 0007556,-0.00044651,-0.00003580,0.00008929,-0.00003267,0.00019387,-0.0
 0030953,-0.00101241,-0.00007339,0.00189924,-0.00211519,-0.00183280,0.0
 0002755,-0.00010835,0.00003020,0.08975608,0.05916666,-0.00050882,0.000
 54764,0.00052951,0.01052817,0.00195933,0.00079151,-0.00011781,0.000050
 14,0.00004912,-0.00009022,-0.00020641,-0.00034512,0.00084063,-0.000102
 39,0.00018825,0.00149520,-0.00048054,-0.00126531,-0.00018199,-0.000690
 75,-0.00082615,0.01287281,0.00713829,0.00437143,0.00018154,-0.00049558
 ,-0.00025769,-0.05314065,-0.03797829,-0.04522002,-0.00262433,-0.000911
 99,0.00129929,0.00055790,-0.00037122,-0.00038059,-0.00609457,0.0013872
 6,-0.00015107,-0.00135885,0.00057652,-0.00708893,0.00351361,0.00330085
 ,0.00417621,-0.03472055,-0.01213250,-0.01157710,0.00000656,0.00003450,
 0.00001112,0.00002369,-0.00007120,-0.00002546,0.00002235,-0.00003953,-
 0.00000904,0.00005025,-0.00005715,0.00011490,-0.00000978,-0.00000729,-
 0.00026981,-0.00009583,0.00004881,0.00008145,-0.00026650,0.00001262,0.
 00009141,-0.00027793,-0.00021663,0.00003541,-0.00020498,-0.00000095,-0
 .00013072,-0.00020041,-0.00012040,0.00018252,0.00003092,0.00032744,0.0
 0004855,-0.00015383,-0.00027715,0.00008503,-0.00032319,0.00024766,-0.0
 0020538,-0.00005543,-0.00003924,0.00060560,0.00231916,-0.00300653,-0.0
 0228258,0.00003192,0.00007091,0.00009372,0.06795095,0.04150376,0.05727
 994\\-0.00001506,-0.00000945,0.00000465,0.00000292,0.00000369,-0.00000
 338,-0.00000358,-0.00000282,-0.00000240,-0.00000340,-0.00000076,-0.000
 00539,-0.00001041,0.00000021,-0.00000569,0.00000170,0.00000273,-0.0000
 0028,0.00000411,-0.00000615,0.00000083,-0.00000616,0.00002111,-0.00000
 622,0.00001179,0.00001221,0.00000395,0.00001016,-0.00001487,0.00004516
 ,0.00000954,-0.00000292,0.00001337,0.00000759,0.00000277,-0.00000503,-
 0.00000074,0.00000141,-0.00000583,-0.00000005,0.00000340,-0.00000288,-
 0.00000757,0.00000215,0.00000154,-0.00000048,-0.00000742,-0.00002889,-
 0.00000630,0.00000186,0.00000384,-0.00000144,-0.00000112,0.00000122,0.
 00000261,-0.00000488,-0.00000020,0.00000044,-0.00000024,0.00000047,-0.
 00000015,0.00000064,0.00000013,0.00000114,0.00000047,0.00000140,0.0000
 0061,-0.00000158,-0.00000143,0.00000023,-0.00000259,-0.00000140,0.0000
 0220,0.00000005,-0.00000013,0.00000096,-0.00000068,0.00000075,0.000001
 14,0.00000058,0.00000032,-0.00000010,-0.00000041,0.00000177,-0.0000031
 2,-0.00000015,0.00000065,-0.00000076,0.00000108,-0.00000166,0.00000108
 ,-0.00000135,-0.00000164,-0.00000080,-0.00000075,-0.00000381,0.0000018
 9,0.00000378,-0.00000381\\\@


 10 WHATSOEVER THY HAND FINDETH TO DO, DO IT WITH THY  
 MIGHT. FOR THERE IS NO WORK, NOR DEVICE, NOR KNOWLEDGE, NOR  
 WISDOM, IN THE GRAVE, WHITHER THOU GOEST.                    
 11 I RETURNED AND SAW UNDER THE SUN, THAT THE RACE IS NOT TO 
 THE SWIFT, NOR THE BATTLE TO THE STRONG, NEITHER YET BREAD TO
 THE WISE, NOR YET RICHES TO MEN OF UNDERSTANDING, NOR YET    
 FAVOR TO MEN OF SKILL. BUT TIME AND CHANCE HAPPEN TO THEM ALL.
 12 FOR MAN ALSO KNOWETH NOT HIS TIME. AS THE FISHES   
 THAT ARE TAKEN IN AN EVIL NET, AND AS THE BIRDS THAT ARE     
 CAUGHT IN THE SNARE. SO ARE THE SONS OF MEN SNARED IN AN EVIL
 TIME, WHEN IT FALLETH SUDDENLY UPON THEM.
                                         ECCLESIASTES 9
 Job cpu time:  0 days  3 hours 23 minutes 21.5 seconds.
 File lengths (MBytes):  RWF=    338 Int=      0 D2E=      0 Chk=      6 Scr=      1
 Normal termination of Gaussian 09 at Sat Feb 17 00:07:38 2018.
