 Entering Gaussian System, Link 0=g09
 Initial command:
 /home/fb_chem/chemsoft/lx24-amd64/Gaussian_09_C.01_NBO_3.1_64_istanbul-64/g09/l1.exe /local/2401510.1.parallel_long/Gau-27595.inp -scrdir=/local/2401510.1.parallel_long/
 Entering Link 1 = /home/fb_chem/chemsoft/lx24-amd64/Gaussian_09_C.01_NBO_3.1_64_istanbul-64/g09/l1.exe PID=     27598.
  
 Copyright (c) 1988,1990,1992,1993,1995,1998,2003,2009,2011,
            Gaussian, Inc.  All Rights Reserved.
  
 This is part of the Gaussian(R) 09 program.  It is based on
 the Gaussian(R) 03 system (copyright 2003, Gaussian, Inc.),
 the Gaussian(R) 98 system (copyright 1998, Gaussian, Inc.),
 the Gaussian(R) 94 system (copyright 1995, Gaussian, Inc.),
 the Gaussian 92(TM) system (copyright 1992, Gaussian, Inc.),
 the Gaussian 90(TM) system (copyright 1990, Gaussian, Inc.),
 the Gaussian 88(TM) system (copyright 1988, Gaussian, Inc.),
 the Gaussian 86(TM) system (copyright 1986, Carnegie Mellon
 University), and the Gaussian 82(TM) system (copyright 1983,
 Carnegie Mellon University). Gaussian is a federally registered
 trademark of Gaussian, Inc.
  
 This software contains proprietary and confidential information,
 including trade secrets, belonging to Gaussian, Inc.
  
 This software is provided under written license and may be
 used, copied, transmitted, or stored only in accord with that
 written license.
  
 The following legend is applicable only to US Government
 contracts under FAR:
  
                    RESTRICTED RIGHTS LEGEND
  
 Use, reproduction and disclosure by the US Government is
 subject to restrictions as set forth in subparagraphs (a)
 and (c) of the Commercial Computer Software - Restricted
 Rights clause in FAR 52.227-19.
  
 Gaussian, Inc.
 340 Quinnipiac St., Bldg. 40, Wallingford CT 06492
  
  
 ---------------------------------------------------------------
 Warning -- This program may not be used in any manner that
 competes with the business of Gaussian, Inc. or will provide
 assistance to any competitor of Gaussian, Inc.  The licensee
 of this program is prohibited from giving any competitor of
 Gaussian, Inc. access to this program.  By using this program,
 the user acknowledges that Gaussian, Inc. is engaged in the
 business of creating and licensing software in the field of
 computational chemistry and represents and warrants to the
 licensee that it is not a competitor of Gaussian, Inc. and that
 it will not use this program in any manner prohibited above.
 ---------------------------------------------------------------
  

 Cite this work as:
 Gaussian 09, Revision C.01,
 M. J. Frisch, G. W. Trucks, H. B. Schlegel, G. E. Scuseria, 
 M. A. Robb, J. R. Cheeseman, G. Scalmani, V. Barone, B. Mennucci, 
 G. A. Petersson, H. Nakatsuji, M. Caricato, X. Li, H. P. Hratchian, 
 A. F. Izmaylov, J. Bloino, G. Zheng, J. L. Sonnenberg, M. Hada, 
 M. Ehara, K. Toyota, R. Fukuda, J. Hasegawa, M. Ishida, T. Nakajima, 
 Y. Honda, O. Kitao, H. Nakai, T. Vreven, J. A. Montgomery, Jr., 
 J. E. Peralta, F. Ogliaro, M. Bearpark, J. J. Heyd, E. Brothers, 
 K. N. Kudin, V. N. Staroverov, T. Keith, R. Kobayashi, J. Normand, 
 K. Raghavachari, A. Rendell, J. C. Burant, S. S. Iyengar, J. Tomasi, 
 M. Cossi, N. Rega, J. M. Millam, M. Klene, J. E. Knox, J. B. Cross, 
 V. Bakken, C. Adamo, J. Jaramillo, R. Gomperts, R. E. Stratmann, 
 O. Yazyev, A. J. Austin, R. Cammi, C. Pomelli, J. W. Ochterski, 
 R. L. Martin, K. Morokuma, V. G. Zakrzewski, G. A. Voth, 
 P. Salvador, J. J. Dannenberg, S. Dapprich, A. D. Daniels, 
 O. Farkas, J. B. Foresman, J. V. Ortiz, J. Cioslowski, 
 and D. J. Fox, Gaussian, Inc., Wallingford CT, 2010.
 
 ******************************************
 Gaussian 09:  AM64L-G09RevC.01 23-Sep-2011
                18-Feb-2018 
 ******************************************
 %nprocs=2
 Will use up to    2 processors via shared memory.
 %chk=frag0-conf2.chk
 ----------------------------------------------------------------------
 #HF/6-31G* Geom=AllCheck Guess=Read Pop=(MK,ReadRadii) Integral=(Grid=
 UltraFine) iop(6/33=2)
 ----------------------------------------------------------------------
 1/29=7,38=1/1;
 2/12=2,40=1/2;
 3/5=1,6=6,7=1,11=9,14=-4,16=1,25=1,30=1,75=-5,116=-2/1,2,3;
 4/5=1/1;
 5/5=2,38=6/2;
 6/7=2,8=2,9=2,10=2,15=8,20=101,28=1,33=2/1,2;
 99/5=1,9=1/99;
 Structure from the checkpoint file:  frag0-conf2.chk
 ----------------------------
 Optimization for frag0-conf2
 ----------------------------
 Charge =  0 Multiplicity = 1
 Redundant internal coordinates found in file.
 C,0,0.4205331332,0.6096798037,-0.6584983595
 C,0,1.7676450763,-1.7535447169,-2.4782087274
 C,0,-2.2134712262,-0.0171895087,-2.3684904696
 C,0,-1.8992938808,-1.4191619102,-1.8154359901
 C,0,-0.9303218504,0.710552878,-2.8339343358
 C,0,-0.7102821234,-2.0605170878,-2.5338366239
 C,0,0.3528939799,0.2145726915,-2.1569534349
 C,0,1.9123449853,-3.2183454619,-2.8590614455
 C,0,1.943746348,0.761513354,1.271999146
 N,0,0.5054733305,-1.2480394564,-2.351704748
 N,0,1.6635063834,0.4926475597,-0.1256150207
 O,0,-0.5641752312,1.0083885927,-0.038744404
 O,0,2.7725083477,-1.0560361141,-2.2876149205
 H,0,-2.9040524924,-0.0963454637,-3.2174826954
 H,0,-2.7123835705,0.5665390741,-1.5924922337
 H,0,-1.6657336852,-1.3465861425,-0.7481288784
 H,0,-2.7669992855,-2.0820072549,-1.9121419129
 H,0,-0.7951680489,0.5731362757,-3.9140301723
 H,0,-1.0165846473,1.787085746,-2.660475036
 H,0,-0.5292653357,-3.060123148,-2.1304995096
 H,0,-0.9356788175,-2.1769356947,-3.6058372746
 H,0,1.2191813173,0.6677309034,-2.6490326237
 H,0,1.3114096224,-3.4853739011,-3.7346121985
 H,0,1.6054583557,-3.871934766,-2.0334986677
 H,0,2.9665590969,-3.3999063945,-3.0711091252
 H,0,2.7770996185,1.4663023743,1.371626133
 H,0,2.1983722932,-0.1576913408,1.8153239354
 H,0,1.0479212873,1.1987325252,1.7154753008
 H,0,2.3828274679,0.093028342,-0.7257028685
 Recover connectivity data from disk.
                          Input orientation:                          
 ---------------------------------------------------------------------
 Center     Atomic      Atomic             Coordinates (Angstroms)
 Number     Number       Type             X           Y           Z
 ---------------------------------------------------------------------
      1          6           0        0.420533    0.609680   -0.658498
      2          6           0        1.767645   -1.753545   -2.478209
      3          6           0       -2.213471   -0.017190   -2.368490
      4          6           0       -1.899294   -1.419162   -1.815436
      5          6           0       -0.930322    0.710553   -2.833934
      6          6           0       -0.710282   -2.060517   -2.533837
      7          6           0        0.352894    0.214573   -2.156953
      8          6           0        1.912345   -3.218345   -2.859061
      9          6           0        1.943746    0.761513    1.271999
     10          7           0        0.505473   -1.248039   -2.351705
     11          7           0        1.663506    0.492648   -0.125615
     12          8           0       -0.564175    1.008389   -0.038744
     13          8           0        2.772508   -1.056036   -2.287615
     14          1           0       -2.904052   -0.096345   -3.217483
     15          1           0       -2.712384    0.566539   -1.592492
     16          1           0       -1.665734   -1.346586   -0.748129
     17          1           0       -2.766999   -2.082007   -1.912142
     18          1           0       -0.795168    0.573136   -3.914030
     19          1           0       -1.016585    1.787086   -2.660475
     20          1           0       -0.529265   -3.060123   -2.130500
     21          1           0       -0.935679   -2.176936   -3.605837
     22          1           0        1.219181    0.667731   -2.649033
     23          1           0        1.311410   -3.485374   -3.734612
     24          1           0        1.605458   -3.871935   -2.033499
     25          1           0        2.966559   -3.399906   -3.071109
     26          1           0        2.777100    1.466302    1.371626
     27          1           0        2.198372   -0.157691    1.815324
     28          1           0        1.047921    1.198733    1.715475
     29          1           0        2.382827    0.093028   -0.725703
 ---------------------------------------------------------------------
                    Distance matrix (angstroms):
                    1          2          3          4          5
     1  C    0.000000
     2  C    3.272749   0.000000
     3  C    3.202346   4.344681   0.000000
     4  C    3.291854   3.741326   1.539514   0.000000
     5  C    2.562715   3.671150   1.546842   2.551848   0.000000
     6  C    3.453344   2.497489   2.542067   1.530093   2.795944
     7  C    1.551145   2.445038   2.585477   2.803225   1.533278
     8  C    4.660661   1.520404   5.245038   4.342212   4.849498
     9  C    2.463748   4.518914   5.580502   5.390414   5.012141
    10  N    2.515012   1.365510   2.984616   2.469772   2.475911
    11  N    1.357440   3.254370   4.507924   4.382243   3.756384
    12  O    1.229924   4.360808   3.033101   3.291227   2.834759
    13  O    3.310652   1.237980   5.093696   4.709623   4.138871
    14  H    4.254379   5.011746   1.097249   2.173734   2.166520
    15  H    3.269461   5.122298   1.091708   2.157273   2.176617
    16  H    2.861384   3.866120   2.166306   1.094971   3.020469
    17  H    4.356279   4.581628   2.185891   1.096188   3.467200
    18  H    3.475306   3.747404   2.179165   3.097167   1.097159
    19  H    2.731209   4.507906   2.184766   3.431223   1.093825
    20  H    4.066492   2.665304   3.486063   2.160786   3.856639
    21  H    4.276838   2.959521   2.797907   2.169864   2.988888
    22  H    2.145562   2.488487   3.511541   3.843812   2.157866
    23  H    5.198615   2.187677   5.130241   4.273299   4.841733
    24  H    4.835240   2.170633   5.436497   4.283332   5.298120
    25  H    5.327262   2.121187   6.226489   5.401536   5.669022
    26  H    3.226238   5.119340   6.410540   6.352317   5.657108
    27  H    3.141555   4.600728   6.081810   5.618238   5.670818
    28  H    2.525144   5.178893   5.365997   5.292144   4.984866
    29  H    2.030282   2.619076   4.882301   4.670204   3.975291
                    6          7          8          9         10
     6  C    0.000000
     7  C    2.539374   0.000000
     8  C    2.885223   3.835332   0.000000
     9  C    5.430664   3.819381   5.736369   0.000000
    10  N    1.473551   1.483389   2.473622   4.386133   0.000000
    11  N    4.237104   2.433386   4.615747   1.450568   3.053933
    12  O    3.957905   2.440895   5.652665   2.840540   3.403733
    13  O    3.633103   2.736065   2.396250   4.081811   2.276054
    14  H    3.022908   3.439345   5.750916   6.662771   3.701464
    15  H    3.434525   3.136626   6.108818   5.470180   3.771432
    16  H    2.147402   2.914938   4.556552   4.642558   2.700983
    17  H    2.148733   3.881745   4.907564   6.357318   3.405554
    18  H    2.974604   2.129303   4.776915   5.867882   2.729324
    19  H    3.861853   2.145181   5.802793   5.027893   3.409397
    20  H    1.093005   3.391539   2.552900   5.683106   2.098395
    21  H    1.101609   3.078798   3.123051   6.381133   2.124292
    22  H    3.343566   1.094508   3.952996   3.988518   2.065904
    23  H    2.749421   4.134896   1.094996   6.595609   2.750933
    24  H    2.982319   4.275945   1.096774   5.701719   2.862874
    25  H    3.949910   4.553173   1.090548   6.101324   3.347390
    26  H    6.312917   4.460322   6.371220   1.095961   5.137230
    27  H    5.567424   4.395834   5.594577   1.097713   4.628055
    28  H    5.636545   4.055532   6.417491   1.091024   4.777332
    29  H    4.180243   2.486741   3.967086   2.151854   2.822553
                   11         12         13         14         15
    11  N    0.000000
    12  O    2.288253   0.000000
    13  O    2.881415   4.522469   0.000000
    14  H    5.546995   4.098761   5.831724   0.000000
    15  H    4.615799   2.687780   5.761943   1.765431   0.000000
    16  H    3.854107   2.694914   4.706637   3.032201   2.338477
    17  H    5.426777   4.232328   5.646215   2.380242   2.668325
    18  H    4.517040   3.906487   4.245909   2.319650   3.010863
    19  H    3.909472   2.772096   4.751799   2.723987   2.346499
    20  H    4.631413   4.574871   3.865587   3.950332   4.267099
    21  H    5.098469   4.796713   4.092038   2.890358   3.838866
    22  H    2.568212   3.179625   2.348365   4.231785   4.072311
    23  H    5.382703   6.113195   3.182812   5.433512   6.098983
    24  H    4.763714   5.701220   3.058736   5.999382   6.207922
    25  H    5.052312   6.410490   2.478961   6.737880   7.083035
    26  H    2.104715   3.655537   4.444351   7.468419   6.303174
    27  H    2.115719   3.525476   4.239194   7.167122   6.021067
    28  H    2.065700   2.390057   4.907435   6.452085   5.047991
    29  H    1.018442   3.161427   1.977819   5.847729   5.190059
                   16         17         18         19         20
    16  H    0.000000
    17  H    1.763110   0.000000
    18  H    3.803439   3.865936   0.000000
    19  H    3.728051   4.312057   1.759005   0.000000
    20  H    2.477644   2.451906   4.056139   4.900387   0.000000
    21  H    3.064141   2.496267   2.770852   4.075993   1.766865
    22  H    3.999205   4.898337   2.380498   2.500347   4.150041
    23  H    4.728306   4.682334   4.576174   5.862777   2.478326
    24  H    4.327847   4.726199   5.390553   6.268391   2.285934
    25  H    5.574092   5.996145   5.535899   6.552781   3.636068
    26  H    5.669609   7.355995   6.441817   5.545519   6.609498
    27  H    4.787074   6.500147   6.505451   5.843876   5.606571
    28  H    4.462277   6.202941   5.956482   4.874145   5.951209
    29  H    4.296957   5.714817   4.527206   4.262532   4.516204
                   21         22         23         24         25
    21  H    0.000000
    22  H    3.694729   0.000000
    23  H    2.603459   4.293631   0.000000
    24  H    3.435498   4.597462   1.769091   0.000000
    25  H    4.124203   4.447151   1.785234   1.775399   0.000000
    26  H    7.199517   4.385262   7.262301   6.439285   6.591948
    27  H    6.579408   4.644418   6.531613   5.381504   5.914330
    28  H    6.606525   4.400025   7.191226   6.330665   6.909417
    29  H    4.945745   2.320248   4.796502   4.246830   4.247619
                   26         27         28         29
    26  H    0.000000
    27  H    1.780210   0.000000
    28  H    1.783223   1.781402   0.000000
    29  H    2.537739   2.560020   2.993978   0.000000
 Stoichiometry    C9H16N2O2
 Framework group  C1[X(C9H16N2O2)]
 Deg. of freedom    81
 Full point group                 C1      NOp   1
 Largest Abelian subgroup         C1      NOp   1
 Largest concise Abelian subgroup C1      NOp   1
                         Standard orientation:                         
 ---------------------------------------------------------------------
 Center     Atomic      Atomic             Coordinates (Angstroms)
 Number     Number       Type             X           Y           Z
 ---------------------------------------------------------------------
      1          6           0        1.437162    0.456649   -0.115762
      2          6           0       -0.975553   -1.752613   -0.209874
      3          6           0       -0.949990    2.591217   -0.127754
      4          6           0       -1.346023    1.736149    1.089670
      5          6           0       -0.455287    1.713635   -1.301567
      6          6           0       -1.924740    0.383241    0.670250
      7          6           0        0.089500    0.345152   -0.875649
      8          6           0       -2.132500   -2.486037    0.449817
      9          6           0        3.362538   -0.856364    0.683598
     10          7           0       -0.929814   -0.393099   -0.090520
     11          7           0        2.105774   -0.721449   -0.028084
     12          8           0        1.850694    1.523186    0.336127
     13          8           0       -0.107986   -2.383360   -0.828000
     14          1           0       -1.810523    3.182491   -0.465146
     15          1           0       -0.166945    3.291164    0.170141
     16          1           0       -0.464420    1.561050    1.715032
     17          1           0       -2.084522    2.256609    1.710450
     18          1           0       -1.280573    1.525609   -1.999640
     19          1           0        0.324162    2.233482   -1.866076
     20          1           0       -2.213037   -0.187111    1.556954
     21          1           0       -2.835038    0.532943    0.068179
     22          1           0        0.271368   -0.264319   -1.766389
     23          1           0       -3.104851   -2.053537    0.191955
     24          1           0       -2.039295   -2.466386    1.542446
     25          1           0       -2.095395   -3.524092    0.117612
     26          1           0        4.119696   -1.328313    0.047119
     27          1           0        3.247018   -1.459953    1.593163
     28          1           0        3.699133    0.143385    0.962059
     29          1           0        1.629206   -1.545975   -0.389005
 ---------------------------------------------------------------------
 Rotational constants (GHZ):      0.8780637      0.8177664      0.5047619
 Standard basis: 6-31G(d) (6D, 7F)
 There are   227 symmetry adapted basis functions of A   symmetry.
 Integral buffers will be    131072 words long.
 Raffenetti 1 integral format.
 Two-electron integral symmetry is turned on.
   227 basis functions,   428 primitive gaussians,   227 cartesian basis functions
    50 alpha electrons       50 beta electrons
       nuclear repulsion energy       879.0762119132 Hartrees.
 NAtoms=   29 NActive=   29 NUniq=   29 SFac= 1.00D+00 NAtFMM=   60 NAOKFM=F Big=F
 One-electron integrals computed using PRISM.
 NBasis=   227 RedAO= T  NBF=   227
 NBsUse=   227 1.00D-06 NBFU=   227
 Initial guess read from the checkpoint file:  frag0-conf2.chk
 B after Tr=     0.000000    0.000000    0.000000
         Rot=    1.000000    0.000000    0.000000    0.000000 Ang=   0.00 deg.
 Initial guess orbital symmetries:
       Occupied  (A) (A) (A) (A) (A) (A) (A) (A) (A) (A) (A) (A)
                 (A) (A) (A) (A) (A) (A) (A) (A) (A) (A) (A) (A)
                 (A) (A) (A) (A) (A) (A) (A) (A) (A) (A) (A) (A)
                 (A) (A) (A) (A) (A) (A) (A) (A) (A) (A) (A) (A)
                 (A) (A)
       Virtual   (A) (A) (A) (A) (A) (A) (A) (A) (A) (A) (A) (A)
                 (A) (A) (A) (A) (A) (A) (A) (A) (A) (A) (A) (A)
                 (A) (A) (A) (A) (A) (A) (A) (A) (A) (A) (A) (A)
                 (A) (A) (A) (A) (A) (A) (A) (A) (A) (A) (A) (A)
                 (A) (A) (A) (A) (A) (A) (A) (A) (A) (A) (A) (A)
                 (A) (A) (A) (A) (A) (A) (A) (A) (A) (A) (A) (A)
                 (A) (A) (A) (A) (A) (A) (A) (A) (A) (A) (A) (A)
                 (A) (A) (A) (A) (A) (A) (A) (A) (A) (A) (A) (A)
                 (A) (A) (A) (A) (A) (A) (A) (A) (A) (A) (A) (A)
                 (A) (A) (A) (A) (A) (A) (A) (A) (A) (A) (A) (A)
                 (A) (A) (A) (A) (A) (A) (A) (A) (A) (A) (A) (A)
                 (A) (A) (A) (A) (A) (A) (A) (A) (A) (A) (A) (A)
                 (A) (A) (A) (A) (A) (A) (A) (A) (A) (A) (A) (A)
                 (A) (A) (A) (A) (A) (A) (A) (A) (A) (A) (A) (A)
                 (A) (A) (A) (A) (A) (A) (A) (A) (A)
 Requested convergence on RMS density matrix=1.00D-08 within 128 cycles.
 Requested convergence on MAX density matrix=1.00D-06.
 Requested convergence on             energy=1.00D-06.
 No special actions if energy rises.
 SCF Done:  E(RHF) =  -608.785106522     A.U. after   14 cycles
             Convg  =    0.3384D-08             -V/T =  2.0025

 **********************************************************************

            Population analysis using the SCF density.

 **********************************************************************

 Orbital symmetries:
 BldTbl:  Degeneracy threshold= 1.00D-02
       Occupied  (A) (A) (A) (A) (A) (A) (A) (A) (A) (A) (A) (A)
                 (A) (A) (A) (A) (A) (A) (A) (A) (A) (A) (A) (A)
                 (A) (A) (A) (A) (A) (A) (A) (A) (A) (A) (A) (A)
                 (A) (A) (A) (A) (A) (A) (A) (A) (A) (A) (A) (A)
                 (A) (A)
       Virtual   (A) (A) (A) (A) (A) (A) (A) (A) (A) (A) (A) (A)
                 (A) (A) (A) (A) (A) (A) (A) (A) (A) (A) (A) (A)
                 (A) (A) (A) (A) (A) (A) (A) (A) (A) (A) (A) (A)
                 (A) (A) (A) (A) (A) (A) (A) (A) (A) (A) (A) (A)
                 (A) (A) (A) (A) (A) (A) (A) (A) (A) (A) (A) (A)
                 (A) (A) (A) (A) (A) (A) (A) (A) (A) (A) (A) (A)
                 (A) (A) (A) (A) (A) (A) (A) (A) (A) (A) (A) (A)
                 (A) (A) (A) (A) (A) (A) (A) (A) (A) (A) (A) (A)
                 (A) (A) (A) (A) (A) (A) (A) (A) (A) (A) (A) (A)
                 (A) (A) (A) (A) (A) (A) (A) (A) (A) (A) (A) (A)
                 (A) (A) (A) (A) (A) (A) (A) (A) (A) (A) (A) (A)
                 (A) (A) (A) (A) (A) (A) (A) (A) (A) (A) (A) (A)
                 (A) (A) (A) (A) (A) (A) (A) (A) (A) (A) (A) (A)
                 (A) (A) (A) (A) (A) (A) (A) (A) (A) (A) (A) (A)
                 (A) (A) (A) (A) (A) (A) (A) (A) (A)
 The electronic state is 1-A.
 Alpha  occ. eigenvalues --  -20.53446 -20.51527 -15.60333 -15.57018 -11.36576
 Alpha  occ. eigenvalues --  -11.34115 -11.27991 -11.27965 -11.24884 -11.24646
 Alpha  occ. eigenvalues --  -11.23046 -11.23035 -11.22186  -1.38541  -1.36303
 Alpha  occ. eigenvalues --   -1.25504  -1.21117  -1.08227  -1.04770  -1.00625
 Alpha  occ. eigenvalues --   -0.95357  -0.91307  -0.87383  -0.78845  -0.77869
 Alpha  occ. eigenvalues --   -0.74153  -0.71170  -0.68859  -0.65010  -0.64192
 Alpha  occ. eigenvalues --   -0.63065  -0.61516  -0.60454  -0.59989  -0.58431
 Alpha  occ. eigenvalues --   -0.57700  -0.56525  -0.56015  -0.53874  -0.53543
 Alpha  occ. eigenvalues --   -0.52995  -0.51943  -0.50369  -0.47210  -0.46765
 Alpha  occ. eigenvalues --   -0.46162  -0.42955  -0.41870  -0.37168  -0.36819
 Alpha virt. eigenvalues --    0.17474   0.20230   0.20871   0.24412   0.25396
 Alpha virt. eigenvalues --    0.26755   0.28338   0.28672   0.29098   0.30176
 Alpha virt. eigenvalues --    0.30683   0.31966   0.32765   0.33199   0.33506
 Alpha virt. eigenvalues --    0.34927   0.35549   0.36044   0.37579   0.38225
 Alpha virt. eigenvalues --    0.39391   0.40616   0.40876   0.42747   0.47212
 Alpha virt. eigenvalues --    0.48763   0.49685   0.52344   0.55109   0.57020
 Alpha virt. eigenvalues --    0.62080   0.70444   0.70569   0.72916   0.73426
 Alpha virt. eigenvalues --    0.74238   0.74874   0.76293   0.78488   0.79714
 Alpha virt. eigenvalues --    0.80429   0.81996   0.86168   0.87207   0.87598
 Alpha virt. eigenvalues --    0.89643   0.89911   0.92018   0.92854   0.95856
 Alpha virt. eigenvalues --    0.96966   0.98202   0.99403   1.00495   1.01106
 Alpha virt. eigenvalues --    1.02691   1.04215   1.07979   1.08524   1.09513
 Alpha virt. eigenvalues --    1.10233   1.11811   1.12484   1.12673   1.14873
 Alpha virt. eigenvalues --    1.15140   1.15715   1.16935   1.17424   1.17735
 Alpha virt. eigenvalues --    1.18794   1.19973   1.21504   1.22024   1.22470
 Alpha virt. eigenvalues --    1.24452   1.24796   1.26528   1.29546   1.30996
 Alpha virt. eigenvalues --    1.34721   1.35043   1.39388   1.42579   1.47915
 Alpha virt. eigenvalues --    1.51057   1.51331   1.52575   1.54553   1.59762
 Alpha virt. eigenvalues --    1.62888   1.63480   1.66094   1.68172   1.69580
 Alpha virt. eigenvalues --    1.73076   1.74897   1.76920   1.81347   1.83047
 Alpha virt. eigenvalues --    1.86348   1.88040   1.93538   1.97895   2.00035
 Alpha virt. eigenvalues --    2.00926   2.03691   2.06882   2.08607   2.08854
 Alpha virt. eigenvalues --    2.13384   2.15389   2.16760   2.16992   2.19263
 Alpha virt. eigenvalues --    2.19774   2.20666   2.24313   2.26209   2.26825
 Alpha virt. eigenvalues --    2.28185   2.29159   2.30968   2.34453   2.37281
 Alpha virt. eigenvalues --    2.38876   2.39637   2.42945   2.44206   2.48473
 Alpha virt. eigenvalues --    2.48821   2.50599   2.54899   2.56197   2.57114
 Alpha virt. eigenvalues --    2.61104   2.62463   2.64839   2.65842   2.65940
 Alpha virt. eigenvalues --    2.71009   2.71688   2.73238   2.77282   2.79246
 Alpha virt. eigenvalues --    2.82779   2.85012   2.86958   2.90294   2.91813
 Alpha virt. eigenvalues --    2.95700   2.98544   3.00145   3.00324   3.04376
 Alpha virt. eigenvalues --    3.10974   3.12828   3.18929   3.27847   3.33599
 Alpha virt. eigenvalues --    3.38861   3.40087   3.52004   3.55922   4.40759
 Alpha virt. eigenvalues --    4.42593   4.47540   4.60767   4.62617   4.63216
 Alpha virt. eigenvalues --    4.68777   4.75222   4.87155   4.88147   4.98915
 Alpha virt. eigenvalues --    5.04967   5.15643
          Condensed to atoms (all electrons):
              1          2          3          4          5          6
     1  C    4.164924  -0.002162  -0.004619  -0.001827  -0.054078   0.001059
     2  C   -0.002162   4.158144  -0.000387   0.001469   0.003355  -0.025863
     3  C   -0.004619  -0.000387   5.089280   0.333795   0.319422  -0.053001
     4  C   -0.001827   0.001469   0.333795   5.142071  -0.050774   0.347136
     5  C   -0.054078   0.003355   0.319422  -0.050774   5.116108  -0.014640
     6  C    0.001059  -0.025863  -0.053001   0.347136  -0.014640   4.943894
     7  C    0.346256  -0.028463  -0.037940  -0.012489   0.342681  -0.025482
     8  C   -0.000236   0.370419  -0.000003  -0.000075  -0.000039  -0.006632
     9  C   -0.029401  -0.000069   0.000000  -0.000003  -0.000078   0.000003
    10  N   -0.055850   0.301441  -0.003374  -0.050370  -0.049828   0.198844
    11  N    0.324896   0.004522  -0.000067  -0.000133   0.003212  -0.000006
    12  O    0.571896  -0.000042  -0.001330  -0.002662   0.006630  -0.000117
    13  O   -0.003148   0.544464  -0.000012  -0.000045   0.000613   0.001504
    14  H    0.000042   0.000006   0.396492  -0.040844  -0.043260  -0.000749
    15  H    0.001414   0.000006   0.403253  -0.034806  -0.031839   0.004019
    16  H    0.001151  -0.000026  -0.038373   0.396858   0.000269  -0.043082
    17  H    0.000033  -0.000018  -0.034884   0.398150   0.004021  -0.038799
    18  H    0.005188   0.000021  -0.040098   0.000765   0.403157   0.001146
    19  H   -0.001505  -0.000051  -0.030039   0.003351   0.400630  -0.000003
    20  H    0.000019  -0.004524   0.003867  -0.031624   0.000005   0.413867
    21  H   -0.000146  -0.001246  -0.002980  -0.045045  -0.000231   0.403990
    22  H   -0.040588  -0.003189   0.003152   0.000075  -0.029951   0.001637
    23  H    0.000002  -0.030998  -0.000002   0.000125  -0.000006  -0.001528
    24  H    0.000019  -0.029276  -0.000001   0.000000  -0.000003  -0.002744
    25  H    0.000002  -0.032816   0.000000   0.000000   0.000001   0.000357
    26  H    0.001350   0.000010   0.000000   0.000000   0.000002   0.000000
    27  H    0.000182  -0.000014   0.000000   0.000000   0.000000  -0.000001
    28  H   -0.001251  -0.000005  -0.000001   0.000000  -0.000009   0.000000
    29  H   -0.014532  -0.002307  -0.000014   0.000011   0.000083  -0.000022
              7          8          9         10         11         12
     1  C    0.346256  -0.000236  -0.029401  -0.055850   0.324896   0.571896
     2  C   -0.028463   0.370419  -0.000069   0.301441   0.004522  -0.000042
     3  C   -0.037940  -0.000003   0.000000  -0.003374  -0.000067  -0.001330
     4  C   -0.012489  -0.000075  -0.000003  -0.050370  -0.000133  -0.002662
     5  C    0.342681  -0.000039  -0.000078  -0.049828   0.003212   0.006630
     6  C   -0.025482  -0.006632   0.000003   0.198844  -0.000006  -0.000117
     7  C    5.162506   0.003784   0.004517   0.187164  -0.113612  -0.078936
     8  C    0.003784   5.257468   0.000001  -0.104519  -0.000071   0.000000
     9  C    0.004517   0.000001   4.931677  -0.000285   0.197677  -0.003460
    10  N    0.187164  -0.104519  -0.000285   7.482155   0.004631   0.001033
    11  N   -0.113612  -0.000071   0.197677   0.004631   7.351666  -0.092318
    12  O   -0.078936   0.000000  -0.003460   0.001033  -0.092318   8.226117
    13  O    0.004045  -0.064911   0.000358  -0.099457  -0.018020  -0.000004
    14  H    0.003400   0.000000   0.000000   0.000079   0.000003   0.000211
    15  H   -0.000819   0.000000   0.000000  -0.000020   0.000039   0.002811
    16  H   -0.000173  -0.000023   0.000011   0.000447  -0.000124   0.005370
    17  H   -0.000098   0.000007   0.000000   0.003703   0.000000   0.000084
    18  H   -0.049171  -0.000015   0.000002  -0.000369  -0.000057   0.000114
    19  H   -0.035593   0.000002  -0.000003   0.003522   0.000048   0.001332
    20  H    0.002455  -0.001839   0.000000  -0.043287  -0.000006  -0.000006
    21  H    0.001792  -0.000336   0.000000  -0.055217   0.000003   0.000001
    22  H    0.407118   0.000413  -0.000161  -0.042396   0.002848   0.001831
    23  H   -0.000156   0.377004   0.000000   0.002181   0.000000   0.000000
    24  H   -0.000096   0.376674   0.000000   0.001912   0.000022   0.000000
    25  H   -0.000086   0.383979   0.000000   0.003681   0.000001   0.000000
    26  H   -0.000092   0.000000   0.400951  -0.000004  -0.044144   0.000248
    27  H   -0.000079   0.000000   0.400269   0.000038  -0.046661   0.000370
    28  H    0.000574   0.000000   0.398059  -0.000022  -0.036648   0.010082
    29  H    0.000851   0.000562  -0.015868  -0.002476   0.286846   0.001664
             13         14         15         16         17         18
     1  C   -0.003148   0.000042   0.001414   0.001151   0.000033   0.005188
     2  C    0.544464   0.000006   0.000006  -0.000026  -0.000018   0.000021
     3  C   -0.000012   0.396492   0.403253  -0.038373  -0.034884  -0.040098
     4  C   -0.000045  -0.040844  -0.034806   0.396858   0.398150   0.000765
     5  C    0.000613  -0.043260  -0.031839   0.000269   0.004021   0.403157
     6  C    0.001504  -0.000749   0.004019  -0.043082  -0.038799   0.001146
     7  C    0.004045   0.003400  -0.000819  -0.000173  -0.000098  -0.049171
     8  C   -0.064911   0.000000   0.000000  -0.000023   0.000007  -0.000015
     9  C    0.000358   0.000000   0.000000   0.000011   0.000000   0.000002
    10  N   -0.099457   0.000079  -0.000020   0.000447   0.003703  -0.000369
    11  N   -0.018020   0.000003   0.000039  -0.000124   0.000000  -0.000057
    12  O   -0.000004   0.000211   0.002811   0.005370   0.000084   0.000114
    13  O    8.257049   0.000000   0.000000  -0.000006   0.000000  -0.000004
    14  H    0.000000   0.561408  -0.026189   0.003897  -0.004912  -0.006215
    15  H    0.000000  -0.026189   0.483887  -0.005351   0.000079   0.003227
    16  H   -0.000006   0.003897  -0.005351   0.498388  -0.022081  -0.000096
    17  H    0.000000  -0.004912   0.000079  -0.022081   0.525753  -0.000175
    18  H   -0.000004  -0.006215   0.003227  -0.000096  -0.000175   0.544726
    19  H   -0.000001   0.000898  -0.005380  -0.000106  -0.000071  -0.025010
    20  H    0.000064  -0.000122  -0.000080  -0.003526  -0.002876   0.000004
    21  H   -0.000006   0.001817  -0.000026   0.004317  -0.000554  -0.000320
    22  H    0.007000  -0.000059  -0.000084   0.000045   0.000012  -0.004837
    23  H    0.001584   0.000000   0.000000   0.000001   0.000001  -0.000001
    24  H    0.000646   0.000000   0.000000   0.000003  -0.000003   0.000000
    25  H    0.003877   0.000000   0.000000   0.000000   0.000000   0.000000
    26  H   -0.000008   0.000000   0.000000   0.000000   0.000000   0.000000
    27  H    0.000016   0.000000   0.000000   0.000007   0.000000   0.000000
    28  H   -0.000006   0.000000   0.000000  -0.000004   0.000000   0.000000
    29  H    0.032542   0.000000   0.000000  -0.000007   0.000000  -0.000001
             19         20         21         22         23         24
     1  C   -0.001505   0.000019  -0.000146  -0.040588   0.000002   0.000019
     2  C   -0.000051  -0.004524  -0.001246  -0.003189  -0.030998  -0.029276
     3  C   -0.030039   0.003867  -0.002980   0.003152  -0.000002  -0.000001
     4  C    0.003351  -0.031624  -0.045045   0.000075   0.000125   0.000000
     5  C    0.400630   0.000005  -0.000231  -0.029951  -0.000006  -0.000003
     6  C   -0.000003   0.413867   0.403990   0.001637  -0.001528  -0.002744
     7  C   -0.035593   0.002455   0.001792   0.407118  -0.000156  -0.000096
     8  C    0.000002  -0.001839  -0.000336   0.000413   0.377004   0.376674
     9  C   -0.000003   0.000000   0.000000  -0.000161   0.000000   0.000000
    10  N    0.003522  -0.043287  -0.055217  -0.042396   0.002181   0.001912
    11  N    0.000048  -0.000006   0.000003   0.002848   0.000000   0.000022
    12  O    0.001332  -0.000006   0.000001   0.001831   0.000000   0.000000
    13  O   -0.000001   0.000064  -0.000006   0.007000   0.001584   0.000646
    14  H    0.000898  -0.000122   0.001817  -0.000059   0.000000   0.000000
    15  H   -0.005380  -0.000080  -0.000026  -0.000084   0.000000   0.000000
    16  H   -0.000106  -0.003526   0.004317   0.000045   0.000001   0.000003
    17  H   -0.000071  -0.002876  -0.000554   0.000012   0.000001  -0.000003
    18  H   -0.025010   0.000004  -0.000320  -0.004837  -0.000001   0.000000
    19  H    0.493252   0.000009  -0.000065  -0.001499   0.000000   0.000000
    20  H    0.000009   0.524472  -0.037453  -0.000112  -0.002767   0.000680
    21  H   -0.000065  -0.037453   0.562726   0.000183   0.000932  -0.000003
    22  H   -0.001499  -0.000112   0.000183   0.464785  -0.000016  -0.000008
    23  H    0.000000  -0.002767   0.000932  -0.000016   0.506358  -0.025085
    24  H    0.000000   0.000680  -0.000003  -0.000008  -0.025085   0.498083
    25  H    0.000000   0.000197  -0.000009  -0.000004  -0.019259  -0.017952
    26  H    0.000000   0.000000   0.000000  -0.000008   0.000000   0.000000
    27  H    0.000000   0.000000   0.000000   0.000003   0.000000   0.000000
    28  H   -0.000002   0.000000   0.000000  -0.000029   0.000000   0.000000
    29  H    0.000005   0.000007  -0.000003  -0.000579  -0.000007  -0.000050
             25         26         27         28         29
     1  C    0.000002   0.001350   0.000182  -0.001251  -0.014532
     2  C   -0.032816   0.000010  -0.000014  -0.000005  -0.002307
     3  C    0.000000   0.000000   0.000000  -0.000001  -0.000014
     4  C    0.000000   0.000000   0.000000   0.000000   0.000011
     5  C    0.000001   0.000002   0.000000  -0.000009   0.000083
     6  C    0.000357   0.000000  -0.000001   0.000000  -0.000022
     7  C   -0.000086  -0.000092  -0.000079   0.000574   0.000851
     8  C    0.383979   0.000000   0.000000   0.000000   0.000562
     9  C    0.000000   0.400951   0.400269   0.398059  -0.015868
    10  N    0.003681  -0.000004   0.000038  -0.000022  -0.002476
    11  N    0.000001  -0.044144  -0.046661  -0.036648   0.286846
    12  O    0.000000   0.000248   0.000370   0.010082   0.001664
    13  O    0.003877  -0.000008   0.000016  -0.000006   0.032542
    14  H    0.000000   0.000000   0.000000   0.000000   0.000000
    15  H    0.000000   0.000000   0.000000   0.000000   0.000000
    16  H    0.000000   0.000000   0.000007  -0.000004  -0.000007
    17  H    0.000000   0.000000   0.000000   0.000000   0.000000
    18  H    0.000000   0.000000   0.000000   0.000000  -0.000001
    19  H    0.000000   0.000000   0.000000  -0.000002   0.000005
    20  H    0.000197   0.000000   0.000000   0.000000   0.000007
    21  H   -0.000009   0.000000   0.000000   0.000000  -0.000003
    22  H   -0.000004  -0.000008   0.000003  -0.000029  -0.000579
    23  H   -0.019259   0.000000   0.000000   0.000000  -0.000007
    24  H   -0.017952   0.000000   0.000000   0.000000  -0.000050
    25  H    0.455251   0.000000   0.000000   0.000000   0.000002
    26  H    0.000000   0.536219  -0.038383  -0.023141  -0.001478
    27  H    0.000000  -0.038383   0.547280  -0.025245  -0.000201
    28  H    0.000000  -0.023141  -0.025245   0.455945   0.001860
    29  H    0.000002  -0.001478  -0.000201   0.001860   0.255818
 Mulliken atomic charges:
              1
     1  C    0.790912
     2  C    0.777601
     3  C   -0.302134
     4  C   -0.353108
     5  C   -0.325456
     6  C   -0.104788
     7  C   -0.083860
     8  C   -0.591613
     9  C   -0.284197
    10  N   -0.683359
    11  N   -0.824547
    12  O   -0.650921
    13  O   -0.668134
    14  H    0.154097
    15  H    0.205860
    16  H    0.202211
    17  H    0.172626
    18  H    0.168021
    19  H    0.196279
    20  H    0.182576
    21  H    0.167879
    22  H    0.234420
    23  H    0.191639
    24  H    0.197183
    25  H    0.222776
    26  H    0.168478
    27  H    0.162420
    28  H    0.219843
    29  H    0.457296
 Sum of Mulliken atomic charges =   0.00000
 Mulliken charges with hydrogens summed into heavy atoms:
              1
     1  C    0.790912
     2  C    0.777601
     3  C    0.057823
     4  C    0.021729
     5  C    0.038844
     6  C    0.245666
     7  C    0.150560
     8  C    0.019985
     9  C    0.266544
    10  N   -0.683359
    11  N   -0.367251
    12  O   -0.650921
    13  O   -0.668134
 Sum of Mulliken charges with hydrogens summed into heavy atoms =   0.00000
 DipInt: DoE/N= T F RetVal/Mat= T F Init=T NMatP=  1 IDeriv=0 Min/MaxMlt=  0  4
 Entering OneElI...
 OneElI was handed    33419678 working-precision words.
 Multipole integrals L=0 to 4 MinM= 0 MaxM= 0.
 Requested accuracy = 0.1000D-12
 PrsmSu:  NPrtUS=   1 ThrOK=F IAlg=1 NPAlg=1 LenDen=           0.
 Prism:   IPart=     0 DynPar=F LinDyn=F Incr=          32.
 PRISM was handed    33149504 working-precision words and  3250 shell-pairs
 IPart=  0 NShTot=        3250 NBatch=          64 AvBLen=        50.8
 PrSmSu:  NxtVal=             33.
 Electronic moments (au):
       -100.00000000         -1.36481779         -0.30765786          0.36344618
      -1133.77133581      -1037.87082373       -274.78946637         -2.99068664
         -1.48429846         -4.66800016      -1948.55157031        154.29856608
         49.47254962       1222.17402927        833.82795400       -922.40355799
        142.84387109       -199.56392344        108.32644772         26.85314873
     -30701.81816951     -22494.17932080      -2345.27169910       1684.34336835
      -1995.83004275      -1890.86033729        -55.75437822         87.95383711
        297.53097384      -9376.29325784      -2712.93196791      -2927.55568283
        881.59798355        521.59819190        582.29705042
 Electronic spatial extent (au):  <R**2>=           2446.4316
 DipInt: DoE/N= F T RetVal/Mat= T F Init=T NMatP=  1 IDeriv=0 Min/MaxMlt=  0  4
 Nuclear    moments (au):
        100.00000000          0.00000000          0.00000000          0.00000000
       1079.46741600        973.82724607        216.71235880          0.00000000
          0.00000000          0.00000000       1958.34916331       -153.78581329
        -49.05887616      -1242.39804684       -869.31504742        927.76049621
       -140.42553906        201.58297801        -95.08545304        -30.67139044
      26908.06666049      18798.07420073       1400.45686646      -1744.58600700
       2028.64874416       1930.20650034         -8.07193560        -93.89905103
       -298.34751418       8138.97938940       1903.86452828       2151.63379545
       -887.57988173       -544.76230287       -575.55924936
 Total      moments (au):
          0.00000000         -1.36481779         -0.30765786          0.36344618
        -54.30391981        -64.04357766        -58.07710756         -2.99068664
         -1.48429846         -4.66800016          9.79759300          0.51275279
          0.41367345        -20.22401756        -35.48709341          5.35693822
          2.41833202          2.01905457         13.24099468         -3.81824170
      -3793.75150902      -3696.10512007       -944.81483263        -60.24263864
         32.81870141         39.34616305        -63.82631383         -5.94521393
         -0.81654034      -1237.31386844       -809.06743963       -775.92188738
         -5.98189817        -23.16411096          6.73780106
 Traceless Quadrup. (au):
          4.50428187         -5.23537598          0.73109411         -2.99068664
         -1.48429846         -4.66800016
 Charge=              0.0000 electrons
 Dipole moment (field-independent basis, Debye):
    X=             -3.4690    Y=             -0.7820    Z=              0.9238  Tot=              3.6741
 Quadrupole moment (field-independent basis, Debye-Ang):
   XX=            -73.0406   YY=            -86.1408   ZZ=            -78.1157
   XY=             -4.0226   XZ=             -1.9964   YZ=             -6.2786
 Traceless Quadrupole moment (field-independent basis, Debye-Ang):
   XX=              6.0584   YY=             -7.0418   ZZ=              0.9833
   XY=             -4.0226   XZ=             -1.9964   YZ=             -6.2786
 Octapole moment (field-independent basis, Debye-Ang**2):
  XXX=              6.9735  YYY=              0.3650  ZZZ=              0.2944  XYY=            -14.3947
  XXY=            -25.2583  XXZ=              3.8129  XZZ=              1.7213  YZZ=              1.4371
  YYZ=              9.4244  XYZ=             -2.7177
 Hexadecapole moment (field-independent basis, Debye-Ang**3):
 XXXX=          -1428.9086 YYYY=          -1392.1303 ZZZZ=           -355.8625 XXXY=            -22.6903
 XXXZ=             12.3611 YYYX=             14.8197 YYYZ=            -24.0400 ZZZX=             -2.2393
 ZZZY=             -0.3075 XXYY=           -466.0317 XXZZ=           -304.7336 YYZZ=           -292.2494
 XXYZ=             -2.2531 YYXZ=             -8.7247 ZZXY=              2.5378
 N-N= 8.790762119132D+02 E-N=-3.182789596881D+03  KE= 6.072943060163D+02
 Entering OneElI...
 OneElI was handed    33315668 working-precision words.
 Calculate electrostatic properties
    NBasis =   227  MinDer = 0  MaxDer = 0
    NGrid  =    29  NMatD  =   1
 Requested accuracy = 0.1000D-12
 PrsmSu:  NPrtUS=   2 ThrOK=T IAlg=1 NPAlg=1 LenDen=           0.
 Prism:   IPart=     0 DynPar=F LinDyn=F Incr=         443.
 PRISM was handed    16486877 working-precision words and  3056 shell-pairs
 PRISM was handed    16486877 working-precision words and  3056 shell-pairs
 IPart=  1 NShTot=       44051 NBatch=        1519 AvBLen=        29.0
 IPart=  0 NShTot=       44573 NBatch=        1537 AvBLen=        29.0
 PrSmSu:  NxtVal=            887.
 --------------------------------------------------------
       Center         ----      EFG at Nuclei      ----
                      3XX-RR        3YY-RR        3ZZ-RR
 --------------------------------------------------------
     1   Atom        0.117337      0.220985     -0.338322
     2   Atom        0.105979      0.189579     -0.295558
     3   Atom        0.053056     -0.008333     -0.044723
     4   Atom        0.039301     -0.052606      0.013306
     5   Atom        0.029566     -0.037479      0.007913
     6   Atom       -0.066219      0.052111      0.014108
     7   Atom       -0.105733      0.093678      0.012055
     8   Atom       -0.030994      0.024155      0.006839
     9   Atom       -0.186522      0.172897      0.013625
    10   Atom        0.010408     -0.497760      0.487352
    11   Atom       -0.204920     -0.367717      0.572637
    12   Atom        0.854556     -0.443982     -0.410573
    13   Atom       -0.298940      0.903625     -0.604685
    14   Atom       -0.123538      0.023630      0.099908
    15   Atom       -0.071736     -0.035659      0.107396
    16   Atom       -0.128999      0.126912      0.002087
    17   Atom       -0.053089      0.043141      0.009948
    18   Atom       -0.101784      0.128771     -0.026987
    19   Atom       -0.073585      0.040641      0.032944
    20   Atom        0.120020      0.019136     -0.139156
    21   Atom       -0.145842      0.132591      0.013252
    22   Atom        0.122190      0.021392     -0.143583
    23   Atom       -0.201562      0.074847      0.126715
    24   Atom        0.142660      0.146917     -0.289577
    25   Atom        0.148203     -0.258140      0.109937
    26   Atom       -0.067910      0.071799     -0.003889
    27   Atom        0.131239      0.019392     -0.150631
    28   Atom        0.092759     -0.210512      0.117753
    29   Atom        0.056439     -0.189554      0.133115
 --------------------------------------------------------
                        XY            XZ            YZ
 --------------------------------------------------------
     1   Atom       -0.001051      0.365914      0.162067
     2   Atom        0.033590     -0.429995      0.041399
     3   Atom        0.036604      0.040092      0.007279
     4   Atom       -0.038557      0.011002     -0.031076
     5   Atom        0.046489     -0.018828      0.017828
     6   Atom        0.164482      0.156773     -0.114318
     7   Atom       -0.152650      0.127925      0.150605
     8   Atom       -0.057128      0.012276      0.042274
     9   Atom        0.043023     -0.160752      0.034428
    10   Atom       -0.073202      0.738900     -0.064053
    11   Atom        0.192704     -0.561050     -0.147382
    12   Atom       -0.934378      0.610894     -0.469122
    13   Atom        1.109219     -0.058330     -0.475401
    14   Atom        0.186156     -0.103584      0.071943
    15   Atom       -0.208015     -0.082298     -0.078037
    16   Atom        0.056514     -0.200918      0.040165
    17   Atom        0.138008      0.170034     -0.117657
    18   Atom       -0.053015     -0.209232     -0.049057
    19   Atom       -0.144263      0.166391      0.109445
    20   Atom       -0.053175      0.099697      0.181555
    21   Atom        0.050029     -0.187805      0.025765
    22   Atom        0.034469      0.060439     -0.185331
    23   Atom        0.153409     -0.090679      0.046098
    24   Atom       -0.006679     -0.036488     -0.009228
    25   Atom        0.009368      0.006918     -0.128332
    26   Atom        0.132691      0.168883     -0.112191
    27   Atom       -0.026950      0.033934      0.201586
    28   Atom       -0.129239     -0.045825     -0.103313
    29   Atom       -0.164972     -0.104059     -0.145737
 --------------------------------------------------------


 ---------------------------------------------------------------------------------
              Nuclear Quadrupole in Principal Axis System
 ---------------------------------------------------------------------------------

       Atom             a.u.   MegaHertz   Gauss  10(-4) cm-1        Axes

              Baa    -0.5674   -76.140   -27.169   -25.398 -0.4639 -0.1790  0.8676
     1 C(13)  Bbb     0.1987    26.661     9.513     8.893 -0.5418  0.8322 -0.1181
              Bcc     0.3687    49.480    17.656    16.505  0.7009  0.5249  0.4830
 
              Baa    -0.5730   -76.894   -27.438   -25.649  0.5362 -0.0693  0.8413
     2 C(13)  Bbb     0.1931    25.907     9.244     8.642  0.0097  0.9971  0.0759
              Bcc     0.3800    50.988    18.194    17.008  0.8441  0.0325 -0.5353
 
              Baa    -0.0598    -8.024    -2.863    -2.676 -0.3698  0.1330  0.9195
     3 C(13)  Bbb    -0.0226    -3.039    -1.084    -1.014 -0.3074  0.9164 -0.2562
              Bcc     0.0824    11.063     3.948     3.690  0.8768  0.3774  0.2980
 
              Baa    -0.0743    -9.974    -3.559    -3.327  0.2824  0.9147  0.2889
     4 C(13)  Bbb     0.0112     1.502     0.536     0.501 -0.4978 -0.1177  0.8593
              Bcc     0.0631     8.472     3.023     2.826  0.8200 -0.3865  0.4221
 
              Baa    -0.0691    -9.272    -3.308    -3.093 -0.4529  0.8378 -0.3047
     5 C(13)  Bbb     0.0140     1.874     0.669     0.625  0.0439  0.3623  0.9310
              Bcc     0.0551     7.398     2.640     2.468  0.8905  0.4083 -0.2009
 
              Baa    -0.3012   -40.420   -14.423   -13.483  0.6946 -0.4929 -0.5240
     6 C(13)  Bbb     0.1332    17.878     6.379     5.963  0.4749 -0.2330  0.8486
              Bcc     0.1680    22.542     8.044     7.519  0.5404  0.8383 -0.0722
 
              Baa    -0.3007   -40.350   -14.398   -13.459  0.7115  0.4736 -0.5191
     7 C(13)  Bbb     0.0826    11.085     3.956     3.698  0.6722 -0.2434  0.6992
              Bcc     0.2181    29.264    10.442     9.762 -0.2048  0.8464  0.4916
 
              Baa    -0.0802   -10.763    -3.841    -3.590  0.7406  0.5574 -0.3752
     8 C(13)  Bbb     0.0059     0.787     0.281     0.263  0.5479 -0.1779  0.8174
              Bcc     0.0743     9.976     3.560     3.328 -0.3889  0.8110  0.4372
 
              Baa    -0.2823   -37.881   -13.517   -12.636  0.8667 -0.1186  0.4846
     9 C(13)  Bbb     0.1018    13.665     4.876     4.558 -0.4968 -0.1159  0.8601
              Bcc     0.1805    24.216     8.641     8.078  0.0458  0.9862  0.1594
 
              Baa    -0.5401   -20.832    -7.433    -6.949  0.7151  0.5056 -0.4827
    10 N(14)  Bbb    -0.4911   -18.939    -6.758    -6.317 -0.3778  0.8606  0.3416
              Bcc     1.0312    39.771    14.191    13.266  0.5881 -0.0619  0.8064
 
              Baa    -0.5634   -21.730    -7.754    -7.248  0.7843 -0.5326  0.3182
    11 N(14)  Bbb    -0.3413   -13.162    -4.696    -4.390  0.4072  0.8289  0.3836
              Bcc     0.9047    34.892    12.450    11.639 -0.4681 -0.1713  0.8669
 
              Baa    -0.9861    71.355    25.461    23.802  0.3191  0.8717  0.3718
    12 O(17)  Bbb    -0.6405    46.347    16.538    15.460 -0.4724 -0.1938  0.8598
              Bcc     1.6266  -117.702   -41.999   -39.261  0.8216 -0.4500  0.3500
 
              Baa    -1.0576    76.526    27.306    25.526  0.7250 -0.5196 -0.4521
    13 O(17)  Bbb    -0.5922    42.854    15.291    14.294  0.4842 -0.0822  0.8711
              Bcc     1.6498  -119.379   -42.597   -39.821  0.4898  0.8504 -0.1920
 
              Baa    -0.2908  -155.172   -55.369   -51.760  0.7865 -0.5358  0.3072
    14 H(1)   Bbb     0.1405    74.946    26.743    24.999 -0.3200  0.0718  0.9447
              Bcc     0.1504    80.226    28.627    26.761  0.5283  0.8413  0.1150
 
              Baa    -0.2945  -157.126   -56.067   -52.412  0.7085  0.6513  0.2716
    15 H(1)   Bbb     0.1392    74.262    26.499    24.771 -0.2758 -0.0987  0.9561
              Bcc     0.1553    82.864    29.568    27.641 -0.6495  0.7524 -0.1097
 
              Baa    -0.2864  -152.822   -54.531   -50.976  0.7984 -0.1654  0.5790
    16 H(1)   Bbb     0.1385    73.893    26.367    24.648  0.0915  0.9837  0.1549
              Bcc     0.1479    78.929    28.164    26.328 -0.5952 -0.0707  0.8005
 
              Baa    -0.2925  -156.055   -55.684   -52.054  0.6749 -0.4754 -0.5644
    17 H(1)   Bbb     0.1408    75.105    26.799    25.052  0.4754  0.8651 -0.1602
              Bcc     0.1517    80.951    28.885    27.002  0.5644 -0.1602  0.8098
 
              Baa    -0.2894  -154.400   -55.094   -51.502  0.7547  0.1700  0.6336
    18 H(1)   Bbb     0.1397    74.556    26.603    24.869 -0.3688  0.9087  0.1955
              Bcc     0.1496    79.844    28.490    26.633 -0.5425 -0.3813  0.7485
 
              Baa    -0.2932  -156.447   -55.824   -52.185  0.7079  0.4767 -0.5211
    19 H(1)   Bbb     0.1383    73.782    26.327    24.611 -0.4854  0.8644  0.1314
              Bcc     0.1549    82.665    29.497    27.574  0.5131  0.1599  0.8433
 
              Baa    -0.2890  -154.220   -55.030   -51.442 -0.2654 -0.5230  0.8100
    20 H(1)   Bbb     0.1328    70.858    25.284    23.636 -0.4553  0.8085  0.3729
              Bcc     0.1562    83.362    29.746    27.807  0.8499  0.2698  0.4527
 
              Baa    -0.2779  -148.262   -52.904   -49.455  0.8271 -0.1351  0.5455
    21 H(1)   Bbb     0.1327    70.810    25.267    23.620 -0.3564  0.6246  0.6949
              Bcc     0.1452    77.452    27.637    25.835  0.4346  0.7692 -0.4685
 
              Baa    -0.2761  -147.298   -52.560   -49.133 -0.1718  0.5352  0.8271
    22 H(1)   Bbb     0.1326    70.749    25.245    23.599  0.9044  0.4185 -0.0829
              Bcc     0.1435    76.549    27.315    25.534 -0.3905  0.7338 -0.5560
 
              Baa    -0.2944  -157.053   -56.040   -52.387  0.8870 -0.3978  0.2346
    23 H(1)   Bbb     0.1407    75.053    26.781    25.035  0.4616  0.7802 -0.4221
              Bcc     0.1537    82.000    29.260    27.352 -0.0151  0.4826  0.8757
 
              Baa    -0.2929  -156.252   -55.755   -52.120  0.0838  0.0222  0.9962
    24 H(1)   Bbb     0.1405    74.964    26.749    25.005  0.7443  0.6634 -0.0774
              Bcc     0.1524    81.288    29.005    27.115 -0.6626  0.7480  0.0391
 
              Baa    -0.2987  -159.392   -56.875   -53.167 -0.0246  0.9537  0.2999
    25 H(1)   Bbb     0.1455    77.618    27.696    25.891  0.7838  0.2046 -0.5863
              Bcc     0.1533    81.774    29.179    27.277  0.6205 -0.2206  0.7525
 
              Baa    -0.2910  -155.267   -55.403   -51.791  0.6934 -0.4319 -0.5767
    26 H(1)   Bbb     0.1359    72.489    25.866    24.180  0.6644  0.0738  0.7437
              Bcc     0.1551    82.778    29.537    27.612  0.2787  0.8989 -0.3382
 
              Baa    -0.2888  -154.109   -54.990   -51.405 -0.1023 -0.5507  0.8284
    27 H(1)   Bbb     0.1349    71.995    25.690    24.015  0.9751  0.1092  0.1929
              Bcc     0.1539    82.114    29.300    27.390 -0.1967  0.8275  0.5259
 
              Baa    -0.2894  -154.394   -55.091   -51.500  0.3373  0.9027  0.2670
    28 H(1)   Bbb     0.1364    72.797    25.976    24.282  0.7725 -0.4276  0.4695
              Bcc     0.1529    81.597    29.116    27.218 -0.5380 -0.0479  0.8416
 
              Baa    -0.3389  -180.811   -64.518   -60.312  0.4379  0.8273  0.3520
    29 H(1)   Bbb     0.1298    69.256    24.712    23.101  0.7747 -0.5459  0.3193
              Bcc     0.2091   111.554    39.805    37.211 -0.4562 -0.1329  0.8799
 

 ---------------------------------------------------------------------------------

 No NMR shielding tensors so no spin-rotation constants.
 Leave Link  601 at Sun Feb 18 17:07:45 2018, MaxMem=   33554432 cpu:       0.7
 Merz-Kollman atomic radii used.
 Read replacement radii for each type of atom:
 Atom Element Radius
    1     6    1.50
    2     6    1.50
    3     6    1.50
    4     6    1.50
    5     6    1.50
    6     6    1.50
    7     6    1.50
    8     6    1.50
    9     6    1.50
   10     7    1.50
   11     7    1.50
   12     8    1.40
   13     8    1.40
   14     1    1.20
   15     1    1.20
   16     1    1.20
   17     1    1.20
   18     1    1.20
   19     1    1.20
   20     1    1.20
   21     1    1.20
   22     1    1.20
   23     1    1.20
   24     1    1.20
   25     1    1.20
   26     1    1.20
   27     1    1.20
   28     1    1.20
   29     1    1.20
 Generate VDW surfaces: Layer= 4 Dens= 1 Start= 1.400 Inc= 0.200

 **********************************************************************

            Electrostatic Properties Using The SCF Density

 **********************************************************************

       Atomic Center    1 is at   1.437162  0.456649 -0.115762
       Atomic Center    2 is at  -0.975553 -1.752613 -0.209874
       Atomic Center    3 is at  -0.949990  2.591217 -0.127754
       Atomic Center    4 is at  -1.346023  1.736149  1.089670
       Atomic Center    5 is at  -0.455287  1.713635 -1.301567
       Atomic Center    6 is at  -1.924740  0.383241  0.670250
       Atomic Center    7 is at   0.089500  0.345152 -0.875649
       Atomic Center    8 is at  -2.132500 -2.486037  0.449817
       Atomic Center    9 is at   3.362538 -0.856364  0.683598
       Atomic Center   10 is at  -0.929814 -0.393099 -0.090520
       Atomic Center   11 is at   2.105774 -0.721449 -0.028084
       Atomic Center   12 is at   1.850694  1.523186  0.336127
       Atomic Center   13 is at  -0.107986 -2.383360 -0.828000
       Atomic Center   14 is at  -1.810523  3.182491 -0.465146
       Atomic Center   15 is at  -0.166945  3.291164  0.170141
       Atomic Center   16 is at  -0.464420  1.561050  1.715032
       Atomic Center   17 is at  -2.084522  2.256609  1.710450
       Atomic Center   18 is at  -1.280573  1.525609 -1.999640
       Atomic Center   19 is at   0.324162  2.233482 -1.866076
       Atomic Center   20 is at  -2.213037 -0.187111  1.556954
       Atomic Center   21 is at  -2.835038  0.532943  0.068179
       Atomic Center   22 is at   0.271368 -0.264319 -1.766389
       Atomic Center   23 is at  -3.104851 -2.053537  0.191955
       Atomic Center   24 is at  -2.039295 -2.466386  1.542446
       Atomic Center   25 is at  -2.095395 -3.524092  0.117612
       Atomic Center   26 is at   4.119696 -1.328313  0.047119
       Atomic Center   27 is at   3.247018 -1.459953  1.593163
       Atomic Center   28 is at   3.699133  0.143385  0.962059
       Atomic Center   29 is at   1.629206 -1.545975 -0.389005
      ESP Fit Center   30 is at   1.437162  0.456649  1.984238
      ESP Fit Center   31 is at   0.912162 -0.452678  1.702891
      ESP Fit Center   32 is at   2.487162  0.456649 -1.934416
      ESP Fit Center   33 is at   1.962162  1.365976 -1.934416
      ESP Fit Center   34 is at   0.074447 -1.752613  1.608779
      ESP Fit Center   35 is at  -0.220057 -3.406918  0.840126
      ESP Fit Center   36 is at  -2.720538 -1.240239 -1.259874
      ESP Fit Center   37 is at  -2.025553 -1.752613 -2.028528
      ESP Fit Center   38 is at  -1.208811  4.391359  0.922246
      ESP Fit Center   39 is at  -1.346023  1.736149  3.189670
      ESP Fit Center   40 is at  -1.871023  0.826822  2.908323
      ESP Fit Center   41 is at  -0.590527  3.390454  2.139670
      ESP Fit Center   42 is at  -0.714108  3.513777 -2.351567
      ESP Fit Center   43 is at   0.069713  0.804308 -3.120220
      ESP Fit Center   44 is at  -3.669725  0.895615  1.720250
      ESP Fit Center   45 is at  -3.877485 -2.998410  1.499817
      ESP Fit Center   46 is at  -3.323464 -3.860483  1.499817
      ESP Fit Center   47 is at  -0.602551 -3.469275  1.499817
      ESP Fit Center   48 is at  -3.704372 -3.878594  0.449817
      ESP Fit Center   49 is at   2.837538  0.052963  2.502251
      ESP Fit Center   50 is at   5.181191 -0.856364  1.733598
      ESP Fit Center   51 is at   4.892486 -1.839602  1.733598
      ESP Fit Center   52 is at   2.617868 -2.819898  0.683598
      ESP Fit Center   53 is at   3.615665 -2.941052  0.683598
      ESP Fit Center   54 is at   4.892486  0.126875 -0.366402
      ESP Fit Center   55 is at   3.103717 -2.656506 -0.366402
      ESP Fit Center   56 is at   3.887538  0.052963 -1.135056
      ESP Fit Center   57 is at   0.120186 -0.393099  1.728133
      ESP Fit Center   58 is at  -2.674800 -0.905473 -1.140520
      ESP Fit Center   59 is at  -1.979814 -0.393099 -1.909174
      ESP Fit Center   60 is at   1.055774 -0.721449  1.790570
      ESP Fit Center   61 is at   1.580774 -1.630775  1.790570
      ESP Fit Center   62 is at   1.846952 -2.521591  1.021916
      ESP Fit Center   63 is at   3.635722  0.261790 -1.078084
      ESP Fit Center   64 is at   3.155774 -0.721449 -1.846737
      ESP Fit Center   65 is at   2.630774  0.187878 -1.846737
      ESP Fit Center   66 is at   2.630774 -1.630775 -1.846737
      ESP Fit Center   67 is at   2.105774 -0.721449 -2.128084
      ESP Fit Center   68 is at   1.850694  1.523186  2.296127
      ESP Fit Center   69 is at   2.830694  1.523186  2.033536
      ESP Fit Center   70 is at   2.340694  2.371891  2.033536
      ESP Fit Center   71 is at   1.360694  2.371891  2.033536
      ESP Fit Center   72 is at   1.360694  0.674481  2.033536
      ESP Fit Center   73 is at   2.340694  0.674481  2.033536
      ESP Fit Center   74 is at   3.223927  2.520899  1.316127
      ESP Fit Center   75 is at   2.375222  3.137519  1.316127
      ESP Fit Center   76 is at   1.326165  3.137519  1.316127
      ESP Fit Center   77 is at   3.548103  2.503186  0.336127
      ESP Fit Center   78 is at   2.830694  3.220596  0.336127
      ESP Fit Center   79 is at   1.850694  3.483186  0.336127
      ESP Fit Center   80 is at   3.548103  1.523186 -0.643873
      ESP Fit Center   81 is at   3.223927  2.520899 -0.643873
      ESP Fit Center   82 is at   2.375222  3.137519 -0.643873
      ESP Fit Center   83 is at   1.326165  3.137519 -0.643873
      ESP Fit Center   84 is at   2.830694  1.523186 -1.361283
      ESP Fit Center   85 is at   2.340694  2.371891 -1.361283
      ESP Fit Center   86 is at   0.872014 -2.383360  0.869409
      ESP Fit Center   87 is at   0.382014 -3.232065  0.869409
      ESP Fit Center   88 is at   0.416542 -3.997693  0.152000
      ESP Fit Center   89 is at   1.265247 -3.381073  0.152000
      ESP Fit Center   90 is at  -0.107986 -4.343360 -0.828000
      ESP Fit Center   91 is at   0.872014 -4.080770 -0.828000
      ESP Fit Center   92 is at   1.589424 -3.363360 -0.828000
      ESP Fit Center   93 is at  -1.481219 -3.381073 -1.808000
      ESP Fit Center   94 is at  -0.632515 -3.997693 -1.808000
      ESP Fit Center   95 is at   0.416542 -3.997693 -1.808000
      ESP Fit Center   96 is at   1.265247 -3.381073 -1.808000
      ESP Fit Center   97 is at   0.872014 -2.383360 -2.525410
      ESP Fit Center   98 is at  -0.597986 -1.534656 -2.525410
      ESP Fit Center   99 is at  -1.087986 -2.383360 -2.525410
      ESP Fit Center  100 is at  -0.597986 -3.232065 -2.525410
      ESP Fit Center  101 is at   0.382014 -3.232065 -2.525410
      ESP Fit Center  102 is at  -0.107986 -2.383360 -2.788000
      ESP Fit Center  103 is at  -2.609411  3.762917  0.894003
      ESP Fit Center  104 is at  -1.533072  4.755993  0.054003
      ESP Fit Center  105 is at  -2.609411  4.566205  0.054003
      ESP Fit Center  106 is at  -3.311940  3.728963  0.054003
      ESP Fit Center  107 is at  -3.311940  2.636020  0.054003
      ESP Fit Center  108 is at  -1.533072  4.755993 -0.984294
      ESP Fit Center  109 is at  -2.609411  4.566205 -0.984294
      ESP Fit Center  110 is at  -3.311940  3.728963 -0.984294
      ESP Fit Center  111 is at  -3.311940  2.636020 -0.984294
      ESP Fit Center  112 is at  -1.505375  4.121640 -1.824294
      ESP Fit Center  113 is at  -2.609411  3.762917 -1.824294
      ESP Fit Center  114 is at  -2.609411  2.602066 -1.824294
      ESP Fit Center  115 is at  -1.810523  3.182491 -2.145146
      ESP Fit Center  116 is at   0.820534  3.291164  1.529290
      ESP Fit Center  117 is at   0.138202  4.230312  1.529290
      ESP Fit Center  118 is at   1.057021  4.318193  0.689290
      ESP Fit Center  119 is at   0.110505  4.864665  0.689290
      ESP Fit Center  120 is at  -0.965833  4.674877  0.689290
      ESP Fit Center  121 is at   1.057021  4.318193 -0.349008
      ESP Fit Center  122 is at   0.110505  4.864665 -0.349008
      ESP Fit Center  123 is at   0.138202  4.230312 -1.189008
      ESP Fit Center  124 is at  -0.464420  1.561050  3.395032
      ESP Fit Center  125 is at   0.523060  1.561050  3.074181
      ESP Fit Center  126 is at  -0.159272  2.500198  3.074181
      ESP Fit Center  127 is at  -1.263307  0.980624  3.074181
      ESP Fit Center  128 is at  -0.159272  0.621901  3.074181
      ESP Fit Center  129 is at   1.133355  1.561050  2.234181
      ESP Fit Center  130 is at   0.759547  2.588079  2.234181
      ESP Fit Center  131 is at  -0.186969  3.134551  2.234181
      ESP Fit Center  132 is at  -0.186969 -0.012452  2.234181
      ESP Fit Center  133 is at   0.759547  0.534020  2.234181
      ESP Fit Center  134 is at  -2.084522  2.256609  3.390450
      ESP Fit Center  135 is at  -1.779374  3.195757  3.069599
      ESP Fit Center  136 is at  -2.883410  2.837035  3.069599
      ESP Fit Center  137 is at  -2.883410  1.676183  3.069599
      ESP Fit Center  138 is at  -1.807072  3.830110  2.229599
      ESP Fit Center  139 is at  -2.883410  3.640323  2.229599
      ESP Fit Center  140 is at  -3.585940  2.803080  2.229599
      ESP Fit Center  141 is at  -3.585940  1.710138  2.229599
      ESP Fit Center  142 is at  -2.883410  3.640323  1.191301
      ESP Fit Center  143 is at  -3.585940  2.803080  1.191301
      ESP Fit Center  144 is at  -3.585940  1.710138  1.191301
      ESP Fit Center  145 is at  -2.781990  2.072081 -1.480491
      ESP Fit Center  146 is at  -2.079460  2.909323 -2.518788
      ESP Fit Center  147 is at  -2.781990  2.072081 -2.518788
      ESP Fit Center  148 is at  -2.781990  0.979138 -2.518788
      ESP Fit Center  149 is at  -2.079460  0.141896 -2.518788
      ESP Fit Center  150 is at  -0.975425  2.464758 -3.358788
      ESP Fit Center  151 is at  -2.079460  2.106035 -3.358788
      ESP Fit Center  152 is at  -2.079460  0.945184 -3.358788
      ESP Fit Center  153 is at  -0.975425  0.586461 -3.358788
      ESP Fit Center  154 is at  -1.280573  1.525609 -3.679640
      ESP Fit Center  155 is at   1.548129  3.260512 -1.346927
      ESP Fit Center  156 is at   0.601613  3.806984 -1.346927
      ESP Fit Center  157 is at   1.921937  2.233482 -2.385225
      ESP Fit Center  158 is at   1.548129  3.260512 -2.385225
      ESP Fit Center  159 is at   0.601613  3.806984 -2.385225
      ESP Fit Center  160 is at  -0.474725  3.617196 -2.385225
      ESP Fit Center  161 is at   1.548129  1.206453 -2.385225
      ESP Fit Center  162 is at   1.311642  2.233482 -3.225225
      ESP Fit Center  163 is at   0.629310  3.172631 -3.225225
      ESP Fit Center  164 is at  -0.474725  2.813908 -3.225225
      ESP Fit Center  165 is at   0.629310  1.294334 -3.225225
      ESP Fit Center  166 is at   0.324162  2.233482 -3.546076
      ESP Fit Center  167 is at  -2.213037 -0.187111  3.236954
      ESP Fit Center  168 is at  -1.225558 -0.187111  2.916102
      ESP Fit Center  169 is at  -1.907890  0.752038  2.916102
      ESP Fit Center  170 is at  -3.011925  0.393315  2.916102
      ESP Fit Center  171 is at  -3.011925 -0.767537  2.916102
      ESP Fit Center  172 is at  -1.907890 -1.126260  2.916102
      ESP Fit Center  173 is at  -3.714455  0.359360  2.076102
      ESP Fit Center  174 is at  -3.714455 -0.733582  2.076102
      ESP Fit Center  175 is at  -0.989071 -1.214141  2.076102
      ESP Fit Center  176 is at  -3.714455 -0.733582  1.037805
      ESP Fit Center  177 is at  -3.633925  1.916657  0.587328
      ESP Fit Center  178 is at  -4.336455  1.079415  0.587328
      ESP Fit Center  179 is at  -4.336455 -0.013528  0.587328
      ESP Fit Center  180 is at  -3.633925  1.916657 -0.450970
      ESP Fit Center  181 is at  -4.336455  1.079415 -0.450970
      ESP Fit Center  182 is at  -4.336455 -0.013528 -0.450970
      ESP Fit Center  183 is at  -3.633925  1.113369 -1.290970
      ESP Fit Center  184 is at  -3.633925 -0.047482 -1.290970
      ESP Fit Center  185 is at  -2.835038  0.532943 -1.611821
      ESP Fit Center  186 is at   1.869143 -0.264319 -2.285537
      ESP Fit Center  187 is at  -1.230049 -0.810790 -2.285537
      ESP Fit Center  188 is at   1.495335 -1.291349 -2.285537
      ESP Fit Center  189 is at   1.258848 -0.264319 -3.125537
      ESP Fit Center  190 is at   0.576516  0.674830 -3.125537
      ESP Fit Center  191 is at  -0.527519  0.316107 -3.125537
      ESP Fit Center  192 is at  -0.527519 -0.844744 -3.125537
      ESP Fit Center  193 is at   0.576516 -1.203467 -3.125537
      ESP Fit Center  194 is at   0.271368 -0.264319 -3.446389
      ESP Fit Center  195 is at  -3.903739 -1.473111  1.551103
      ESP Fit Center  196 is at  -3.903739 -0.669823  0.711103
      ESP Fit Center  197 is at  -4.606269 -1.507066  0.711103
      ESP Fit Center  198 is at  -4.606269 -2.600008  0.711103
      ESP Fit Center  199 is at  -4.606269 -1.507066 -0.327194
      ESP Fit Center  200 is at  -4.606269 -2.600008 -0.327194
      ESP Fit Center  201 is at  -3.903739 -3.437251 -0.327194
      ESP Fit Center  202 is at  -2.799703 -1.114388 -1.167194
      ESP Fit Center  203 is at  -3.903739 -1.473111 -1.167194
      ESP Fit Center  204 is at  -3.903739 -2.633963 -1.167194
      ESP Fit Center  205 is at  -3.104851 -2.053537 -1.488045
      ESP Fit Center  206 is at  -2.039295 -2.466386  3.222446
      ESP Fit Center  207 is at  -1.051816 -2.466386  2.901595
      ESP Fit Center  208 is at  -1.734148 -1.527238  2.901595
      ESP Fit Center  209 is at  -2.838183 -1.885961  2.901595
      ESP Fit Center  210 is at  -2.838183 -3.046812  2.901595
      ESP Fit Center  211 is at  -1.734148 -3.405535  2.901595
      ESP Fit Center  212 is at  -0.441520 -2.466386  2.061595
      ESP Fit Center  213 is at  -0.815329 -1.439356  2.061595
      ESP Fit Center  214 is at  -3.540713 -1.919915  2.061595
      ESP Fit Center  215 is at  -3.540713 -3.012857  2.061595
      ESP Fit Center  216 is at  -2.838183 -3.850100  2.061595
      ESP Fit Center  217 is at  -1.761845 -4.039887  2.061595
      ESP Fit Center  218 is at  -0.815329 -3.493416  2.061595
      ESP Fit Center  219 is at  -1.790247 -4.463241  1.476760
      ESP Fit Center  220 is at  -3.596813 -4.070563  0.636760
      ESP Fit Center  221 is at  -2.894283 -4.907806  0.636760
      ESP Fit Center  222 is at  -1.817945 -5.097593  0.636760
      ESP Fit Center  223 is at  -0.871429 -4.551122  0.636760
      ESP Fit Center  224 is at  -3.596813 -4.070563 -0.401537
      ESP Fit Center  225 is at  -2.894283 -4.907806 -0.401537
      ESP Fit Center  226 is at  -1.817945 -5.097593 -0.401537
      ESP Fit Center  227 is at  -0.871429 -4.551122 -0.401537
      ESP Fit Center  228 is at  -2.894283 -4.104518 -1.241537
      ESP Fit Center  229 is at  -1.790247 -4.463241 -1.241537
      ESP Fit Center  230 is at  -2.095395 -3.524092 -1.562388
      ESP Fit Center  231 is at   5.717471 -1.328313  0.566267
      ESP Fit Center  232 is at   4.397147 -2.901814  0.566267
      ESP Fit Center  233 is at   5.343663 -2.355343  0.566267
      ESP Fit Center  234 is at   5.717471 -1.328313 -0.472030
      ESP Fit Center  235 is at   5.343663 -0.301283 -0.472030
      ESP Fit Center  236 is at   3.320809 -2.712027 -0.472030
      ESP Fit Center  237 is at   4.397147 -2.901814 -0.472030
      ESP Fit Center  238 is at   5.343663 -2.355343 -0.472030
      ESP Fit Center  239 is at   5.107176 -1.328313 -1.312030
      ESP Fit Center  240 is at   4.424844 -0.389165 -1.312030
      ESP Fit Center  241 is at   3.320809 -1.908739 -1.312030
      ESP Fit Center  242 is at   4.424844 -2.267462 -1.312030
      ESP Fit Center  243 is at   4.119696 -1.328313 -1.632881
      ESP Fit Center  244 is at   3.247018 -1.459953  3.273163
      ESP Fit Center  245 is at   4.234497 -1.459953  2.952311
      ESP Fit Center  246 is at   3.552166 -0.520805  2.952311
      ESP Fit Center  247 is at   2.448130 -0.879527  2.952311
      ESP Fit Center  248 is at   2.448130 -2.040379  2.952311
      ESP Fit Center  249 is at   3.552166 -2.399102  2.952311
      ESP Fit Center  250 is at   4.844793 -1.459953  2.112311
      ESP Fit Center  251 is at   1.745600 -0.913482  2.112311
      ESP Fit Center  252 is at   1.745600 -2.006424  2.112311
      ESP Fit Center  253 is at   2.448130 -2.843667  2.112311
      ESP Fit Center  254 is at   3.524468 -3.033454  2.112311
      ESP Fit Center  255 is at   4.470984 -2.486983  2.112311
      ESP Fit Center  256 is at   2.448130 -2.843667  1.074014
      ESP Fit Center  257 is at   3.524468 -3.033454  1.074014
      ESP Fit Center  258 is at   3.699133  0.143385  2.642059
      ESP Fit Center  259 is at   4.686613  0.143385  2.321207
      ESP Fit Center  260 is at   4.004281  1.082533  2.321207
      ESP Fit Center  261 is at   2.900246  0.723811  2.321207
      ESP Fit Center  262 is at   5.296908  0.143385  1.481207
      ESP Fit Center  263 is at   4.923100  1.170415  1.481207
      ESP Fit Center  264 is at   3.976584  1.716886  1.481207
      ESP Fit Center  265 is at   5.296908  0.143385  0.442910
      ESP Fit Center  266 is at   4.923100  1.170415  0.442910
      ESP Fit Center  267 is at   3.976584  1.716886  0.442910
      ESP Fit Center  268 is at   4.004281  1.082533 -0.397090
      ESP Fit Center  269 is at   0.830319 -2.126400  0.970144
      ESP Fit Center  270 is at   1.906657 -3.119476  0.130144
      ESP Fit Center  271 is at   1.906657 -3.119476 -0.908153
      ESP Fit Center  272 is at   2.853173 -2.573005 -0.908153
      ESP Fit Center  273 is at   1.934354 -2.485123 -1.748153
      ESP Fit Center  274 is at   1.629206 -1.545975 -2.069005
      ESP Fit Center  275 is at   1.437162  0.456649  2.284238
      ESP Fit Center  276 is at   0.916501 -0.445162  2.046563
      ESP Fit Center  277 is at   3.015686  1.471105 -1.612138
      ESP Fit Center  278 is at   2.478483  0.456649 -2.278088
      ESP Fit Center  279 is at   0.065768 -1.752613  1.952451
      ESP Fit Center  280 is at   0.602971 -2.767069  1.286501
      ESP Fit Center  281 is at  -2.775941 -1.223971 -1.706250
      ESP Fit Center  282 is at  -2.016874 -1.752613 -2.372200
      ESP Fit Center  283 is at  -1.217029  4.448513  1.368622
      ESP Fit Center  284 is at  -1.470651  4.872379  0.406296
      ESP Fit Center  285 is at  -0.170507  4.298046 -1.624130
      ESP Fit Center  286 is at  -1.346023  1.736149  3.489670
      ESP Fit Center  287 is at  -1.866683  0.834338  3.251995
      ESP Fit Center  288 is at  -0.566540  3.442978  2.586045
      ESP Fit Center  289 is at  -0.722325  3.570931 -2.797943
      ESP Fit Center  290 is at   0.065374  0.811824 -3.463892
      ESP Fit Center  291 is at  -3.725129  0.911883  2.166626
      ESP Fit Center  292 is at  -3.932888 -1.957395  1.946192
      ESP Fit Center  293 is at  -3.932888 -3.014678  1.946192
      ESP Fit Center  294 is at  -3.361277 -3.904122  1.946192
      ESP Fit Center  295 is at  -2.399539 -4.343333  1.946192
      ESP Fit Center  296 is at  -4.240611 -3.501249  0.983867
      ESP Fit Center  297 is at  -3.173821 -2.486037 -1.712509
      ESP Fit Center  298 is at   2.841877  0.045447  2.845923
      ESP Fit Center  299 is at   5.238933 -0.856364  2.179973
      ESP Fit Center  300 is at   5.702365 -0.856364  1.217648
      ESP Fit Center  301 is at   4.821396 -2.685714  1.217648
      ESP Fit Center  302 is at   5.470649  0.158849  0.149548
      ESP Fit Center  303 is at   2.841877 -3.137526  0.149548
      ESP Fit Center  304 is at   4.142021  0.850466 -0.812778
      ESP Fit Center  305 is at   3.883198  0.045447 -1.478728
      ESP Fit Center  306 is at   0.111507 -0.393099  2.071805
      ESP Fit Center  307 is at  -1.971135 -0.393099 -2.252846
      ESP Fit Center  308 is at   1.064453 -0.721449  2.134242
      ESP Fit Center  309 is at   0.876996 -2.139534  1.468292
      ESP Fit Center  310 is at   3.684298  0.293007 -1.524459
      ESP Fit Center  311 is at   3.147095 -0.721449 -2.190409
      ESP Fit Center  312 is at   2.626434  0.180362 -2.190409
      ESP Fit Center  313 is at   2.626434 -1.623259 -2.190409
      ESP Fit Center  314 is at   2.105774 -0.721449 -2.428084
      ESP Fit Center  315 is at   1.850694  1.523186  2.576127
      ESP Fit Center  316 is at   2.822593  1.523186  2.354297
      ESP Fit Center  317 is at   2.336643  2.364876  2.354297
      ESP Fit Center  318 is at   1.364744  2.364876  2.354297
      ESP Fit Center  319 is at   1.364744  0.681496  2.354297
      ESP Fit Center  320 is at   2.336643  0.681496  2.354297
      ESP Fit Center  321 is at   3.267527  2.552576  1.732744
      ESP Fit Center  322 is at   2.391876  3.188774  1.732744
      ESP Fit Center  323 is at   1.309511  3.188774  1.732744
      ESP Fit Center  324 is at   3.784387  2.538067  0.834573
      ESP Fit Center  325 is at   3.091255  3.320450  0.834573
      ESP Fit Center  326 is at   2.113926  3.691102  0.834573
      ESP Fit Center  327 is at   3.784387  2.538067 -0.162320
      ESP Fit Center  328 is at   3.091255  3.320450 -0.162320
      ESP Fit Center  329 is at   2.113926  3.691102 -0.162320
      ESP Fit Center  330 is at   3.601996  1.523186 -1.060491
      ESP Fit Center  331 is at   3.267527  2.552576 -1.060491
      ESP Fit Center  332 is at   2.391876  3.188774 -1.060491
      ESP Fit Center  333 is at   2.336643  2.364876 -1.682044
      ESP Fit Center  334 is at   0.377964 -3.225050  1.190170
      ESP Fit Center  335 is at   0.433196 -4.048948  0.568617
      ESP Fit Center  336 is at   1.308847 -3.412750  0.568617
      ESP Fit Center  337 is at   0.155247 -4.551276 -0.329554
      ESP Fit Center  338 is at   1.132576 -4.180624 -0.329554
      ESP Fit Center  339 is at  -0.882386 -4.425285 -1.326447
      ESP Fit Center  340 is at   0.155247 -4.551276 -1.326447
      ESP Fit Center  341 is at   1.132576 -4.180624 -1.326447
      ESP Fit Center  342 is at   1.825707 -3.398241 -1.326447
      ESP Fit Center  343 is at   1.643316 -2.383360 -2.224618
      ESP Fit Center  344 is at  -1.524820 -3.412750 -2.224618
      ESP Fit Center  345 is at  -0.649168 -4.048948 -2.224618
      ESP Fit Center  346 is at   0.433196 -4.048948 -2.224618
      ESP Fit Center  347 is at   1.308847 -3.412750 -2.224618
      ESP Fit Center  348 is at   0.863913 -2.383360 -2.846171
      ESP Fit Center  349 is at  -1.079886 -2.383360 -2.846171
      ESP Fit Center  350 is at  -0.593936 -3.225050 -2.846171
      ESP Fit Center  351 is at   0.377964 -3.225050 -2.846171
      ESP Fit Center  352 is at  -0.107986 -2.383360 -3.068000
      ESP Fit Center  353 is at  -2.324347  4.763878  0.494854
      ESP Fit Center  354 is at  -3.155731  4.159842  0.494854
      ESP Fit Center  355 is at  -3.473292  3.182491  0.494854
      ESP Fit Center  356 is at  -1.810523  5.102491 -0.465146
      ESP Fit Center  357 is at  -2.770523  4.845260 -0.465146
      ESP Fit Center  358 is at  -3.473292  4.142491 -0.465146
      ESP Fit Center  359 is at  -3.730523  3.182491 -0.465146
      ESP Fit Center  360 is at  -1.296699  4.763878 -1.425146
      ESP Fit Center  361 is at  -2.324347  4.763878 -1.425146
      ESP Fit Center  362 is at  -3.155731  4.159842 -1.425146
      ESP Fit Center  363 is at  -3.473292  3.182491 -1.425146
      ESP Fit Center  364 is at  -3.155731  2.205140 -1.425146
      ESP Fit Center  365 is at  -1.330523  4.013876 -2.127915
      ESP Fit Center  366 is at  -2.290523  4.013876 -2.127915
      ESP Fit Center  367 is at  -2.770523  3.182491 -2.127915
      ESP Fit Center  368 is at   0.793055  3.291164  1.832910
      ESP Fit Center  369 is at   0.313055  4.122548  1.832910
      ESP Fit Center  370 is at  -0.646945  4.122548  1.832910
      ESP Fit Center  371 is at   1.178263  4.268514  1.130141
      ESP Fit Center  372 is at   0.346878  4.872551  1.130141
      ESP Fit Center  373 is at  -0.680769  4.872551  1.130141
      ESP Fit Center  374 is at   1.495823  4.251164  0.170141
      ESP Fit Center  375 is at   0.793055  4.953932  0.170141
      ESP Fit Center  376 is at  -0.166945  5.211164  0.170141
      ESP Fit Center  377 is at   1.178263  4.268514 -0.789859
      ESP Fit Center  378 is at   0.346878  4.872551 -0.789859
      ESP Fit Center  379 is at   0.313055  4.122548 -1.492628
      ESP Fit Center  380 is at  -0.464420  1.561050  3.635032
      ESP Fit Center  381 is at   0.495580  1.561050  3.377801
      ESP Fit Center  382 is at   0.015580  2.392434  3.377801
      ESP Fit Center  383 is at  -0.944420  2.392434  3.377801
      ESP Fit Center  384 is at  -0.944420  0.729665  3.377801
      ESP Fit Center  385 is at   0.015580  0.729665  3.377801
      ESP Fit Center  386 is at   1.198349  1.561050  2.675032
      ESP Fit Center  387 is at   0.880789  2.538401  2.675032
      ESP Fit Center  388 is at   0.049404  3.142437  2.675032
      ESP Fit Center  389 is at   0.049404 -0.020338  2.675032
      ESP Fit Center  390 is at   0.880789  0.583699  2.675032
      ESP Fit Center  391 is at  -2.084522  2.256609  3.630450
      ESP Fit Center  392 is at  -1.604522  3.087993  3.373219
      ESP Fit Center  393 is at  -2.564522  3.087993  3.373219
[...]
  462 Fit       0.007379
  463 Fit       0.009920
  464 Fit      -0.002654
  465 Fit      -0.006428
  466 Fit       0.003633
  467 Fit       0.007448
  468 Fit       0.008500
  469 Fit       0.006621
  470 Fit      -0.001920
  471 Fit      -0.002504
  472 Fit       0.005077
  473 Fit       0.021648
  474 Fit       0.023904
  475 Fit       0.020578
  476 Fit       0.017591
  477 Fit       0.023552
  478 Fit       0.020437
  479 Fit       0.017078
  480 Fit       0.022926
  481 Fit       0.019387
  482 Fit       0.015310
  483 Fit       0.020609
  484 Fit       0.017188
  485 Fit       0.012291
  486 Fit       0.015614
  487 Fit       0.021235
  488 Fit       0.019077
  489 Fit       0.023548
  490 Fit       0.025379
  491 Fit       0.021543
  492 Fit       0.018694
  493 Fit       0.017451
  494 Fit       0.015858
  495 Fit       0.020741
  496 Fit       0.026321
  497 Fit       0.020627
  498 Fit       0.017533
  499 Fit       0.015085
  500 Fit       0.012955
  501 Fit       0.012653
  502 Fit       0.013311
  503 Fit       0.011143
  504 Fit       0.006932
  505 Fit       0.000051
  506 Fit       0.012570
  507 Fit       0.011127
  508 Fit       0.007577
  509 Fit      -0.000679
  510 Fit      -0.018465
  511 Fit       0.010038
  512 Fit       0.007046
  513 Fit      -0.001799
  514 Fit       0.007084
  515 Fit       0.002844
  516 Fit      -0.011520
  517 Fit      -0.005938
  518 Fit       0.002363
  519 Fit       0.002269
  520 Fit       0.003192
  521 Fit       0.001953
  522 Fit      -0.001764
  523 Fit       0.001339
  524 Fit       0.002941
  525 Fit       0.003493
  526 Fit       0.001344
  527 Fit      -0.003417
  528 Fit       0.000629
  529 Fit       0.001985
  530 Fit       0.003008
  531 Fit      -0.000687
  532 Fit      -0.006317
  533 Fit      -0.002801
  534 Fit       0.000257
  535 Fit      -0.004978
  536 Fit       0.002298
  537 Fit       0.002329
  538 Fit      -0.001760
  539 Fit      -0.003061
  540 Fit       0.001778
  541 Fit       0.004554
  542 Fit       0.004469
  543 Fit       0.002566
  544 Fit      -0.007040
  545 Fit      -0.000202
  546 Fit       0.003309
  547 Fit       0.004202
  548 Fit       0.004290
  549 Fit       0.003762
  550 Fit      -0.000528
  551 Fit       0.001367
  552 Fit       0.002072
  553 Fit       0.002441
  554 Fit      -0.007082
  555 Fit      -0.002936
  556 Fit      -0.009917
  557 Fit      -0.019735
  558 Fit      -0.001249
  559 Fit      -0.006572
  560 Fit      -0.019406
  561 Fit      -0.002158
  562 Fit      -0.007072
  563 Fit      -0.018795
  564 Fit      -0.012083
  565 Fit      -0.031266
  566 Fit      -0.020623
  567 Fit       0.000120
  568 Fit       0.000103
  569 Fit      -0.012982
  570 Fit      -0.013151
  571 Fit      -0.011534
  572 Fit      -0.014831
  573 Fit      -0.016227
  574 Fit      -0.003424
  575 Fit       0.011076
  576 Fit       0.000926
  577 Fit       0.013388
  578 Fit       0.000839
  579 Fit      -0.000217
  580 Fit      -0.000660
  581 Fit      -0.002829
  582 Fit      -0.003432
  583 Fit       0.005240
  584 Fit       0.000307
  585 Fit       0.012156
  586 Fit      -0.002958
  587 Fit      -0.001968
  588 Fit       0.001652
  589 Fit       0.002162
  590 Fit       0.005349
  591 Fit       0.003624
  592 Fit       0.011286
  593 Fit       0.018246
  594 Fit       0.019631
  595 Fit       0.017008
  596 Fit       0.014438
  597 Fit       0.012337
  598 Fit       0.001212
  599 Fit      -0.001963
  600 Fit       0.009334
  601 Fit       0.000994
  602 Fit      -0.005564
  603 Fit      -0.008696
  604 Fit       0.000201
  605 Fit      -0.007198
  606 Fit       0.000335
  607 Fit       0.002001
  608 Fit      -0.003337
  609 Fit      -0.001276
  610 Fit      -0.000129
  611 Fit      -0.005868
  612 Fit      -0.017750
  613 Fit       0.015883
  614 Fit      -0.002719
  615 Fit       0.001482
  616 Fit      -0.013460
  617 Fit      -0.006857
  618 Fit      -0.010243
  619 Fit      -0.009816
  620 Fit      -0.026451
  621 Fit      -0.029562
  622 Fit      -0.034285
  623 Fit      -0.027582
  624 Fit      -0.014480
  625 Fit      -0.036531
  626 Fit      -0.037960
  627 Fit      -0.033056
  628 Fit      -0.035989
  629 Fit      -0.039431
  630 Fit      -0.037390
  631 Fit      -0.035497
  632 Fit      -0.037971
  633 Fit      -0.035579
  634 Fit      -0.026051
  635 Fit      -0.031960
  636 Fit      -0.031616
  637 Fit      -0.016471
  638 Fit      -0.009838
  639 Fit      -0.024546
  640 Fit      -0.022278
  641 Fit      -0.024177
  642 Fit      -0.029471
  643 Fit      -0.026910
  644 Fit      -0.016813
  645 Fit      -0.017878
  646 Fit      -0.020584
  647 Fit      -0.028875
  648 Fit      -0.030400
  649 Fit      -0.025820
  650 Fit      -0.022580
  651 Fit      -0.015822
  652 Fit      -0.025362
  653 Fit      -0.028237
  654 Fit      -0.021741
  655 Fit       0.001504
  656 Fit       0.005937
  657 Fit       0.010003
  658 Fit      -0.000528
  659 Fit       0.003482
  660 Fit       0.006850
  661 Fit       0.009783
  662 Fit       0.013450
  663 Fit       0.002674
  664 Fit       0.006049
  665 Fit       0.008864
  666 Fit       0.011894
  667 Fit       0.002384
  668 Fit       0.005255
  669 Fit       0.008734
  670 Fit      -0.024604
  671 Fit      -0.010141
  672 Fit      -0.002483
  673 Fit      -0.021721
  674 Fit      -0.009019
  675 Fit      -0.003773
  676 Fit      -0.025849
  677 Fit      -0.011128
  678 Fit      -0.005238
  679 Fit      -0.002809
  680 Fit      -0.016335
  681 Fit      -0.007183
  682 Fit      -0.003646
  683 Fit       0.001980
  684 Fit      -0.005334
  685 Fit      -0.004250
  686 Fit       0.008910
  687 Fit       0.002406
  688 Fit      -0.020855
  689 Fit      -0.010232
  690 Fit       0.003125
  691 Fit      -0.009769
  692 Fit       0.007276
  693 Fit       0.003348
  694 Fit       0.007916
  695 Fit       0.011295
  696 Fit       0.012846
  697 Fit       0.001275
  698 Fit       0.005803
  699 Fit       0.009441
  700 Fit       0.012311
  701 Fit       0.015319
  702 Fit       0.002826
  703 Fit       0.007041
  704 Fit       0.010374
  705 Fit       0.013323
  706 Fit       0.017211
  707 Fit       0.013739
  708 Fit       0.013076
  709 Fit       0.015684
  710 Fit       0.007358
  711 Fit       0.009963
  712 Fit       0.011208
  713 Fit       0.010127
  714 Fit       0.007553
  715 Fit       0.005572
  716 Fit       0.007902
  717 Fit       0.007248
  718 Fit       0.005853
  719 Fit       0.005225
  720 Fit      -0.018255
  721 Fit      -0.010408
  722 Fit      -0.004365
  723 Fit      -0.004313
  724 Fit      -0.004305
  725 Fit      -0.001785
  726 Fit       0.000466
  727 Fit       0.001413
  728 Fit       0.001121
  729 Fit       0.001137
  730 Fit       0.002121
  731 Fit       0.003855
  732 Fit       0.002556
  733 Fit       0.017022
  734 Fit       0.013969
  735 Fit       0.016307
  736 Fit       0.018910
  737 Fit       0.021790
  738 Fit       0.020392
  739 Fit       0.019215
  740 Fit       0.020922
  741 Fit       0.017646
  742 Fit       0.022602
  743 Fit       0.017996
  744 Fit       0.020195
  745 Fit       0.015897
  746 Fit       0.017033
  747 Fit       0.019268
  748 Fit       0.015275
  749 Fit       0.016379
  750 Fit       0.018319
  751 Fit       0.016069
  752 Fit       0.016873
  753 Fit      -0.002145
  754 Fit       0.005120
  755 Fit      -0.007304
  756 Fit       0.001480
  757 Fit       0.005337
  758 Fit       0.005105
  759 Fit      -0.003450
  760 Fit      -0.004291
  761 Fit       0.003141
  762 Fit       0.019829
  763 Fit       0.017134
  764 Fit       0.022369
  765 Fit       0.019252
  766 Fit       0.016569
  767 Fit       0.014102
  768 Fit       0.018344
  769 Fit       0.015248
  770 Fit       0.012170
  771 Fit       0.017977
  772 Fit       0.014768
  773 Fit       0.018190
  774 Fit       0.015969
  775 Fit       0.020231
  776 Fit       0.022393
  777 Fit       0.018887
  778 Fit       0.016093
  779 Fit       0.014704
  780 Fit       0.012618
  781 Fit       0.016306
  782 Fit       0.020651
  783 Fit       0.017129
  784 Fit       0.014669
  785 Fit       0.012518
  786 Fit       0.010550
  787 Fit       0.010217
  788 Fit       0.011127
  789 Fit       0.008592
  790 Fit       0.004358
  791 Fit      -0.001563
  792 Fit       0.010416
  793 Fit       0.008291
  794 Fit       0.004124
  795 Fit      -0.004233
  796 Fit       0.009900
  797 Fit       0.007472
  798 Fit       0.003345
  799 Fit      -0.006416
  800 Fit       0.001212
  801 Fit      -0.013119
  802 Fit      -0.007515
  803 Fit       0.001323
  804 Fit       0.002236
  805 Fit       0.000764
  806 Fit      -0.002262
  807 Fit       0.000669
  808 Fit       0.001924
  809 Fit       0.002122
  810 Fit       0.000027
  811 Fit      -0.003758
  812 Fit      -0.000875
  813 Fit       0.000858
  814 Fit       0.001472
  815 Fit      -0.001866
  816 Fit      -0.006948
  817 Fit      -0.004136
  818 Fit      -0.001109
  819 Fit      -0.005714
  820 Fit       0.001299
  821 Fit       0.001293
  822 Fit      -0.002505
  823 Fit      -0.003663
  824 Fit       0.001213
  825 Fit       0.003461
  826 Fit       0.003212
  827 Fit       0.001570
  828 Fit      -0.002517
  829 Fit       0.002075
  830 Fit       0.002957
  831 Fit       0.003110
  832 Fit       0.003075
  833 Fit       0.002642
  834 Fit      -0.000789
  835 Fit       0.000353
  836 Fit       0.001246
  837 Fit       0.001845
  838 Fit      -0.003449
  839 Fit      -0.010380
  840 Fit      -0.019267
  841 Fit      -0.002067
  842 Fit      -0.006844
  843 Fit      -0.016787
  844 Fit      -0.002745
  845 Fit      -0.007362
  846 Fit      -0.016795
  847 Fit      -0.011447
  848 Fit      -0.025853
  849 Fit      -0.000839
  850 Fit      -0.010910
  851 Fit      -0.013994
  852 Fit      -0.011766
  853 Fit      -0.003005
  854 Fit       0.010478
  855 Fit       0.003239
  856 Fit       0.009905
  857 Fit       0.005241
  858 Fit      -0.005579
  859 Fit      -0.000461
  860 Fit      -0.001216
  861 Fit       0.002904
  862 Fit      -0.000027
  863 Fit      -0.002906
  864 Fit      -0.003106
  865 Fit       0.001486
  866 Fit       0.004962
  867 Fit       0.000629
  868 Fit       0.010561
  869 Fit      -0.002462
  870 Fit      -0.011090
  871 Fit      -0.003354
  872 Fit       0.001017
  873 Fit       0.003701
  874 Fit       0.001990
  875 Fit       0.003895
  876 Fit       0.003199
  877 Fit       0.010381
  878 Fit       0.016970
  879 Fit       0.015831
  880 Fit       0.014890
  881 Fit       0.012520
  882 Fit       0.010881
  883 Fit       0.009098
  884 Fit       0.006121
  885 Fit       0.002808
  886 Fit       0.002045
  887 Fit       0.012046
  888 Fit       0.010605
  889 Fit       0.011296
  890 Fit       0.009395
  891 Fit       0.009465
  892 Fit       0.006819
  893 Fit      -0.000702
  894 Fit      -0.005194
  895 Fit      -0.007159
  896 Fit      -0.000518
  897 Fit      -0.016068
  898 Fit      -0.005240
  899 Fit      -0.000368
  900 Fit       0.001171
  901 Fit      -0.000482
  902 Fit      -0.003077
  903 Fit       0.000152
  904 Fit       0.001010
  905 Fit      -0.004303
  906 Fit      -0.004065
  907 Fit      -0.001163
  908 Fit      -0.012695
  909 Fit      -0.008387
  910 Fit      -0.015490
  911 Fit      -0.001359
  912 Fit       0.003209
  913 Fit      -0.008160
  914 Fit      -0.010959
  915 Fit      -0.008441
  916 Fit      -0.006297
  917 Fit      -0.008184
  918 Fit      -0.008932
  919 Fit      -0.020594
  920 Fit      -0.023510
  921 Fit      -0.027050
  922 Fit      -0.028905
  923 Fit      -0.030789
  924 Fit      -0.027999
  925 Fit      -0.028604
  926 Fit      -0.032362
  927 Fit      -0.031476
  928 Fit      -0.028361
  929 Fit      -0.032014
  930 Fit      -0.031928
  931 Fit      -0.028313
  932 Fit      -0.028016
  933 Fit      -0.030073
  934 Fit      -0.028428
  935 Fit      -0.020372
  936 Fit      -0.024211
  937 Fit      -0.023952
  938 Fit      -0.009592
  939 Fit      -0.016739
  940 Fit      -0.014395
  941 Fit      -0.020526
  942 Fit      -0.021468
  943 Fit      -0.017123
  944 Fit      -0.021926
  945 Fit      -0.024295
  946 Fit      -0.022002
  947 Fit      -0.015608
  948 Fit      -0.015939
  949 Fit      -0.011806
  950 Fit      -0.019264
  951 Fit      -0.023795
  952 Fit      -0.024194
  953 Fit      -0.021008
  954 Fit      -0.017841
  955 Fit      -0.012507
  956 Fit      -0.019777
  957 Fit      -0.022207
  958 Fit      -0.016764
  959 Fit       0.005788
  960 Fit       0.001896
  961 Fit       0.005095
  962 Fit       0.008020
  963 Fit       0.011302
  964 Fit      -0.000891
  965 Fit       0.002287
  966 Fit       0.005134
  967 Fit       0.007665
  968 Fit       0.010387
  969 Fit       0.002563
  970 Fit       0.005329
  971 Fit       0.007882
  972 Fit       0.010789
  973 Fit       0.004784
  974 Fit      -0.009693
  975 Fit      -0.020237
  976 Fit      -0.009180
  977 Fit      -0.003822
  978 Fit      -0.027591
  979 Fit      -0.012951
  980 Fit      -0.006344
  981 Fit      -0.003035
  982 Fit      -0.024622
  983 Fit      -0.011692
  984 Fit      -0.005870
  985 Fit      -0.003019
  986 Fit      -0.013156
  987 Fit      -0.006333
  988 Fit       0.001811
  989 Fit      -0.004232
  990 Fit      -0.003427
  991 Fit       0.007647
  992 Fit       0.002067
  993 Fit      -0.016237
  994 Fit      -0.015396
  995 Fit      -0.008289
  996 Fit       0.003083
  997 Fit      -0.007075
  998 Fit       0.006569
  999 Fit       0.003127
 1000 Fit       0.006796
 1001 Fit       0.009803
 1002 Fit       0.011196
 1003 Fit       0.001050
 1004 Fit       0.004924
 1005 Fit       0.008093
 1006 Fit       0.010710
 1007 Fit       0.013418
 1008 Fit       0.001433
 1009 Fit       0.005120
 1010 Fit       0.008142
 1011 Fit       0.010700
 1012 Fit       0.013419
 1013 Fit       0.008418
 1014 Fit       0.011212
 1015 Fit       0.014616
 1016 Fit       0.009864
 1017 Fit       0.011873
 1018 Fit       0.012843
 1019 Fit       0.011500
 1020 Fit       0.006222
 1021 Fit       0.008285
 1022 Fit       0.009176
 1023 Fit       0.008147
 1024 Fit       0.005679
 1025 Fit       0.004821
 1026 Fit       0.006526
 1027 Fit       0.005908
 1028 Fit       0.004637
 1029 Fit       0.004480
 1030 Fit      -0.017608
 1031 Fit      -0.012634
 1032 Fit      -0.011909
 1033 Fit      -0.007792
 1034 Fit      -0.003782
 1035 Fit      -0.000799
 1036 Fit      -0.003154
 1037 Fit      -0.003258
 1038 Fit      -0.001467
 1039 Fit       0.000440
 1040 Fit       0.000457
 1041 Fit       0.000571
 1042 Fit       0.000646
 1043 Fit       0.001835
 1044 Fit       0.002706
 1045 Fit       0.002044
 1046 Fit       0.014945
 1047 Fit       0.012382
 1048 Fit       0.014360
 1049 Fit       0.016661
 1050 Fit       0.018757
 1051 Fit       0.017359
 1052 Fit       0.017082
 1053 Fit       0.018609
 1054 Fit       0.015107
 1055 Fit       0.018819
 1056 Fit       0.020783
 1057 Fit       0.014672
 1058 Fit       0.015313
 1059 Fit       0.016675
 1060 Fit       0.019945
 1061 Fit       0.013833
 1062 Fit       0.014635
 1063 Fit       0.015994
 1064 Fit       0.019002
 1065 Fit       0.013772
 1066 Fit       0.014558
 1067 Fit       0.016072
 1068 Fit       0.014351
 1069 Fit       0.014661
 1070 Fit      -0.002235
 1071 Fit       0.003633
 1072 Fit      -0.006589
 1073 Fit       0.000346
 1074 Fit       0.003642
 1075 Fit       0.003682
 1076 Fit      -0.002932
 1077 Fit      -0.003951
 1078 Fit       0.001856
 1079 Fit       0.018309
 1080 Fit       0.015992
 1081 Fit       0.018625
 1082 Fit       0.016271
 1083 Fit       0.014264
 1084 Fit       0.018035
 1085 Fit       0.015583
 1086 Fit       0.013355
 1087 Fit       0.015725
 1088 Fit       0.013041
 1089 Fit       0.015160
 1090 Fit       0.012532
 1091 Fit       0.015845
 1092 Fit       0.013978
 1093 Fit       0.017285
 1094 Fit       0.019183
 1095 Fit       0.016743
 1096 Fit       0.014371
 1097 Fit       0.013113
 1098 Fit       0.011214
 1099 Fit       0.013993
 1100 Fit       0.018623
 1101 Fit       0.015658
 1102 Fit       0.013497
 1103 Fit       0.011647
 1104 Fit       0.010096
 1105 Fit       0.009770
 1106 Fit       0.007988
 1107 Fit       0.004778
 1108 Fit       0.009097
 1109 Fit       0.006810
 1110 Fit       0.003091
 1111 Fit      -0.003159
 1112 Fit       0.009678
 1113 Fit       0.007588
 1114 Fit       0.004798
 1115 Fit      -0.000301
 1116 Fit      -0.010298
 1117 Fit       0.005145
 1118 Fit       0.000700
 1119 Fit      -0.008884
 1120 Fit      -0.000735
 1121 Fit       0.000204
 1122 Fit       0.000595
 1123 Fit       0.001350
 1124 Fit       0.001306
 1125 Fit      -0.000293
 1126 Fit      -0.002974
 1127 Fit      -0.001607
 1128 Fit      -0.000119
 1129 Fit       0.000945
 1130 Fit       0.000958
 1131 Fit      -0.001200
 1132 Fit      -0.004384
 1133 Fit      -0.002529
 1134 Fit      -0.000573
 1135 Fit       0.000007
 1136 Fit      -0.002944
 1137 Fit      -0.006930
 1138 Fit      -0.002430
 1139 Fit      -0.005999
 1140 Fit       0.000700
 1141 Fit       0.000614
 1142 Fit      -0.002401
 1143 Fit      -0.003007
 1144 Fit       0.000961
 1145 Fit       0.002642
 1146 Fit       0.002281
 1147 Fit       0.000739
 1148 Fit      -0.001051
 1149 Fit       0.002637
 1150 Fit       0.002935
 1151 Fit       0.002716
 1152 Fit       0.002503
 1153 Fit       0.001956
 1154 Fit       0.000673
 1155 Fit       0.001020
 1156 Fit       0.001506
 1157 Fit       0.001777
 1158 Fit      -0.009770
 1159 Fit      -0.015813
 1160 Fit      -0.002670
 1161 Fit      -0.007009
 1162 Fit      -0.014987
 1163 Fit      -0.006552
 1164 Fit      -0.013543
 1165 Fit      -0.008174
 1166 Fit      -0.016205
 1167 Fit      -0.012003
 1168 Fit      -0.008605
 1169 Fit      -0.013006
 1170 Fit      -0.014164
 -----------------------------------------------------------------
 Leave Link  602 at Sun Feb 18 17:07:45 2018, MaxMem=   33554432 cpu:       0.8

 Test job not archived.
 1\1\GINC-NODE029\SP\RHF\6-31G(d)\C9H16N2O2\WULSDORT\18-Feb-2018\0\\#HF
 /6-31G* Geom=AllCheck Guess=Read Pop=(MK,ReadRadii) Integral=(Grid=Ult
 raFine) iop(6/33=2)\\Optimization for frag0-conf2\\0,1\C,0,0.420533133
 2,0.6096798037,-0.6584983595\C,0,1.7676450763,-1.7535447169,-2.4782087
 274\C,0,-2.2134712262,-0.0171895087,-2.3684904696\C,0,-1.8992938808,-1
 .4191619102,-1.8154359901\C,0,-0.9303218504,0.710552878,-2.8339343358\
 C,0,-0.7102821234,-2.0605170878,-2.5338366239\C,0,0.3528939799,0.21457
 26915,-2.1569534349\C,0,1.9123449853,-3.2183454619,-2.8590614455\C,0,1
 .943746348,0.761513354,1.271999146\N,0,0.5054733305,-1.2480394564,-2.3
 51704748\N,0,1.6635063834,0.4926475597,-0.1256150207\O,0,-0.5641752312
 ,1.0083885927,-0.038744404\O,0,2.7725083477,-1.0560361141,-2.287614920
 5\H,0,-2.9040524924,-0.0963454637,-3.2174826954\H,0,-2.7123835705,0.56
 65390741,-1.5924922337\H,0,-1.6657336852,-1.3465861425,-0.7481288784\H
 ,0,-2.7669992855,-2.0820072549,-1.9121419129\H,0,-0.7951680489,0.57313
 62757,-3.9140301723\H,0,-1.0165846473,1.787085746,-2.660475036\H,0,-0.
 5292653357,-3.060123148,-2.1304995096\H,0,-0.9356788175,-2.1769356947,
 -3.6058372746\H,0,1.2191813173,0.6677309034,-2.6490326237\H,0,1.311409
 6224,-3.4853739011,-3.7346121985\H,0,1.6054583557,-3.871934766,-2.0334
 986677\H,0,2.9665590969,-3.3999063945,-3.0711091252\H,0,2.7770996185,1
 .4663023743,1.371626133\H,0,2.1983722932,-0.1576913408,1.8153239354\H,
 0,1.0479212873,1.1987325252,1.7154753008\H,0,2.3828274679,0.093028342,
 -0.7257028685\\Version=AM64L-G09RevC.01\State=1-A\HF=-608.7851065\RMSD
 =3.384e-09\Dipole=-0.2182847,-1.2267523,-0.7327379\Quadrupole=-4.56440
 8,3.4465823,1.1178258,2.5775494,5.7647047,-0.4438\PG=C01 [X(C9H16N2O2)
 ]\\@


 We're simply so accustomed to the marvels of everyday thought
 that we never wonder about it.
 -- Marvin Minsky in "Why people think computers are smart"
 Job cpu time:  0 days  0 hours  4 minutes  0.1 seconds.
 File lengths (MBytes):  RWF=     32 Int=      0 D2E=      0 Chk=      5 Scr=      1
 Normal termination of Gaussian 09 at Sun Feb 18 17:07:45 2018.
