 Entering Gaussian System, Link 0=g09
 Initial command:
 /home/fb_chem/chemsoft/lx24-amd64/Gaussian_09_C.01_NBO_3.1_64_istanbul-64/g09/l1.exe /local/2400013.1.parallel_long/Gau-6883.inp -scrdir=/local/2400013.1.parallel_long/
 Entering Link 1 = /home/fb_chem/chemsoft/lx24-amd64/Gaussian_09_C.01_NBO_3.1_64_istanbul-64/g09/l1.exe PID=      6884.
  
 Copyright (c) 1988,1990,1992,1993,1995,1998,2003,2009,2011,
            Gaussian, Inc.  All Rights Reserved.
  
 This is part of the Gaussian(R) 09 program.  It is based on
 the Gaussian(R) 03 system (copyright 2003, Gaussian, Inc.),
 the Gaussian(R) 98 system (copyright 1998, Gaussian, Inc.),
 the Gaussian(R) 94 system (copyright 1995, Gaussian, Inc.),
 the Gaussian 92(TM) system (copyright 1992, Gaussian, Inc.),
 the Gaussian 90(TM) system (copyright 1990, Gaussian, Inc.),
 the Gaussian 88(TM) system (copyright 1988, Gaussian, Inc.),
 the Gaussian 86(TM) system (copyright 1986, Carnegie Mellon
 University), and the Gaussian 82(TM) system (copyright 1983,
 Carnegie Mellon University). Gaussian is a federally registered
 trademark of Gaussian, Inc.
  
 This software contains proprietary and confidential information,
 including trade secrets, belonging to Gaussian, Inc.
  
 This software is provided under written license and may be
 used, copied, transmitted, or stored only in accord with that
 written license.
  
 The following legend is applicable only to US Government
 contracts under FAR:
  
                    RESTRICTED RIGHTS LEGEND
  
 Use, reproduction and disclosure by the US Government is
 subject to restrictions as set forth in subparagraphs (a)
 and (c) of the Commercial Computer Software - Restricted
 Rights clause in FAR 52.227-19.
  
 Gaussian, Inc.
 340 Quinnipiac St., Bldg. 40, Wallingford CT 06492
  
  
 ---------------------------------------------------------------
 Warning -- This program may not be used in any manner that
 competes with the business of Gaussian, Inc. or will provide
 assistance to any competitor of Gaussian, Inc.  The licensee
 of this program is prohibited from giving any competitor of
 Gaussian, Inc. access to this program.  By using this program,
 the user acknowledges that Gaussian, Inc. is engaged in the
 business of creating and licensing software in the field of
 computational chemistry and represents and warrants to the
 licensee that it is not a competitor of Gaussian, Inc. and that
 it will not use this program in any manner prohibited above.
 ---------------------------------------------------------------
  

 Cite this work as:
 Gaussian 09, Revision C.01,
 M. J. Frisch, G. W. Trucks, H. B. Schlegel, G. E. Scuseria, 
 M. A. Robb, J. R. Cheeseman, G. Scalmani, V. Barone, B. Mennucci, 
 G. A. Petersson, H. Nakatsuji, M. Caricato, X. Li, H. P. Hratchian, 
 A. F. Izmaylov, J. Bloino, G. Zheng, J. L. Sonnenberg, M. Hada, 
 M. Ehara, K. Toyota, R. Fukuda, J. Hasegawa, M. Ishida, T. Nakajima, 
 Y. Honda, O. Kitao, H. Nakai, T. Vreven, J. A. Montgomery, Jr., 
 J. E. Peralta, F. Ogliaro, M. Bearpark, J. J. Heyd, E. Brothers, 
 K. N. Kudin, V. N. Staroverov, T. Keith, R. Kobayashi, J. Normand, 
 K. Raghavachari, A. Rendell, J. C. Burant, S. S. Iyengar, J. Tomasi, 
 M. Cossi, N. Rega, J. M. Millam, M. Klene, J. E. Knox, J. B. Cross, 
 V. Bakken, C. Adamo, J. Jaramillo, R. Gomperts, R. E. Stratmann, 
 O. Yazyev, A. J. Austin, R. Cammi, C. Pomelli, J. W. Ochterski, 
 R. L. Martin, K. Morokuma, V. G. Zakrzewski, G. A. Voth, 
 P. Salvador, J. J. Dannenberg, S. Dapprich, A. D. Daniels, 
 O. Farkas, J. B. Foresman, J. V. Ortiz, J. Cioslowski, 
 and D. J. Fox, Gaussian, Inc., Wallingford CT, 2010.
 
 ******************************************
 Gaussian 09:  AM64L-G09RevC.01 23-Sep-2011
                17-Feb-2018 
 ******************************************
 %nprocs=2
 Will use up to    2 processors via shared memory.
 %chk=frag19-conf2.chk
 ----------------------------------------------------------------------
 #HF/6-31G* Geom=AllCheck Guess=Read Pop=(MK,ReadRadii) Integral=(Grid=
 UltraFine) iop(6/33=2)
 ----------------------------------------------------------------------
 1/29=7,38=1/1;
 2/12=2,40=1/2;
 3/5=1,6=6,7=1,11=9,14=-4,16=1,25=1,30=1,75=-5,116=-2/1,2,3;
 4/5=1/1;
 5/5=2,38=6/2;
 6/7=2,8=2,9=2,10=2,15=8,20=101,28=1,33=2/1,2;
 99/5=1,9=1/99;
 Structure from the checkpoint file:  frag19-conf2.chk
 -----------------------------
 Optimization for frag19-conf2
 -----------------------------
 Charge =  1 Multiplicity = 1
 Redundant internal coordinates found in file.
 C,0,1.4638872726,-1.5095063372,0.2164809331
 C,0,3.5085752601,-0.5218583823,1.0006387491
 C,0,1.1047247779,-1.7388904482,1.5280253887
 C,0,3.1052635152,-0.7752261322,2.3005354003
 C,0,2.6918497728,-0.8875819505,-0.0762215649
 C,0,2.1104235937,-2.2981649398,-3.0115155523
 C,0,2.3940490632,-3.3718350001,-4.0395270625
 C,0,1.5023215394,-1.6643240949,3.9457098894
 C,0,3.0881498244,-0.6050000488,-1.5160806482
 N,0,1.9196794806,-1.3749932966,2.5527780613
 N,0,3.2019179277,-1.8056870734,-2.3307545956
 O,0,0.9847050899,-1.866935617,-2.7844999217
 H,0,0.7990730684,-1.7932284721,-0.5941564232
 H,0,4.4638518122,-0.0325073213,0.841098489
 H,0,0.1673146975,-2.2066387147,1.8063234256
 H,0,3.706727372,-0.5099616403,3.1616732938
 H,0,1.6234166502,-4.1428630244,-3.9694178002
 H,0,2.3247766125,-2.928252321,-5.0391559738
 H,0,3.3808967973,-3.8306781115,-3.9296343788
 H,0,1.5745971019,-2.7388793687,4.1291311821
 H,0,2.1555988054,-1.1286555851,4.6335058202
 H,0,0.4736247764,-1.3290439289,4.0873820632
 H,0,2.3183483787,0.0376262752,-1.9603392823
 H,0,4.0397810397,-0.0680491472,-1.541346355
 H,0,4.1268868936,-2.13685807,-2.5673981659
 Recover connectivity data from disk.
                          Input orientation:                          
 ---------------------------------------------------------------------
 Center     Atomic      Atomic             Coordinates (Angstroms)
 Number     Number       Type             X           Y           Z
 ---------------------------------------------------------------------
      1          6           0        1.463887   -1.509506    0.216481
      2          6           0        3.508575   -0.521858    1.000639
      3          6           0        1.104725   -1.738890    1.528025
      4          6           0        3.105264   -0.775226    2.300535
      5          6           0        2.691850   -0.887582   -0.076222
      6          6           0        2.110424   -2.298165   -3.011516
      7          6           0        2.394049   -3.371835   -4.039527
      8          6           0        1.502322   -1.664324    3.945710
      9          6           0        3.088150   -0.605000   -1.516081
     10          7           0        1.919679   -1.374993    2.552778
     11          7           0        3.201918   -1.805687   -2.330755
     12          8           0        0.984705   -1.866936   -2.784500
     13          1           0        0.799073   -1.793228   -0.594156
     14          1           0        4.463852   -0.032507    0.841098
     15          1           0        0.167315   -2.206639    1.806323
     16          1           0        3.706727   -0.509962    3.161673
     17          1           0        1.623417   -4.142863   -3.969418
     18          1           0        2.324777   -2.928252   -5.039156
     19          1           0        3.380897   -3.830678   -3.929634
     20          1           0        1.574597   -2.738879    4.129131
     21          1           0        2.155599   -1.128656    4.633506
     22          1           0        0.473625   -1.329044    4.087382
     23          1           0        2.318348    0.037626   -1.960339
     24          1           0        4.039781   -0.068049   -1.541346
     25          1           0        4.126887   -2.136858   -2.567398
 ---------------------------------------------------------------------
                    Distance matrix (angstroms):
                    1          2          3          4          5
     1  C    0.000000
     2  C    2.402312   0.000000
     3  C    1.379044   2.745506   0.000000
     4  C    2.752556   1.384408   2.351080   0.000000
     5  C    1.407251   1.400151   2.411908   2.415059   0.000000
     6  C    3.385255   4.605157   4.683124   5.614885   3.308134
     7  C    4.737834   5.896423   5.943610   6.888004   4.687002
     8  C    3.732639   3.742155   2.451294   2.463030   4.265470
     9  C    2.541285   2.552949   3.806082   3.820449   1.519901
    10  N    2.384140   2.379404   1.358930   1.352389   2.783066
    11  N    3.097884   3.583355   4.392364   4.745528   2.487168
    12  O    3.059944   4.744094   4.316095   5.616599   3.347872
    13  H    1.086098   3.391335   2.144768   3.838500   2.161263
    14  H    3.401685   1.085113   3.829797   2.127757   2.170857
    15  H    2.166724   3.827745   1.083963   3.305258   3.414259
    16  H    3.834525   2.170133   3.309001   1.083366   3.414167
    17  H    4.947905   6.431715   6.022459   7.269743   5.186076
    18  H    5.511415   6.608421   6.784613   7.688677   5.378643
    19  H    5.123772   5.939039   6.272367   6.944550   4.897488
    20  H    4.102736   4.294522   2.826041   3.089116   4.728694
    21  H    4.487050   3.923834   3.334776   2.543526   4.746284
    22  H    3.999633   4.403460   2.667690   3.228786   4.738249
    23  H    2.803974   3.239916   4.098485   4.408516   2.131997
    24  H    3.435547   2.636249   4.563695   4.016650   2.152938
    25  H    3.903219   3.965025   5.105324   5.156989   3.134642
                    6          7          8          9         10
     6  C    0.000000
     7  C    1.513281   0.000000
     8  C    7.012455   8.214303   0.000000
     9  C    2.461520   3.808534   5.785169   0.000000
    10  N    5.643580   6.904411   1.482619   4.302769   0.000000
    11  N    1.377436   2.454664   6.504046   1.455433   5.067398
    12  O    1.226677   2.413724   6.753125   2.761494   5.440838
    13  H    2.796109   4.111755   4.595820   2.738924   3.366582
    14  H    5.051184   6.265437   4.590436   2.788655   3.347376
    15  H    5.195731   6.363175   2.579404   4.704773   2.078367
    16  H    6.622244   7.859436   2.608960   4.719433   2.076674
    17  H    2.134868   1.092371   8.295002   4.547613   7.091397
    18  H    2.134077   1.095820   9.110530   4.288624   7.759780
    19  H    2.192177   1.093838   8.381121   4.039300   7.084294
    20  H    7.174272   8.234022   1.092491   6.221953   2.112855
    21  H    7.734090   8.961596   1.089392   6.241897   2.108499
    22  H    7.349330   8.596957   1.091192   6.225655   2.109074
    23  H    2.569849   3.994143   6.200319   1.096781   4.745804
    24  H    3.295032   4.456943   6.252566   1.092958   4.792159
    25  H    2.071083   2.587481   7.037912   2.128575   5.627469
                   11         12         13         14         15
    11  N    0.000000
    12  O    2.263994   0.000000
    13  H    2.964725   2.199431   0.000000
    14  H    3.846725   5.349257   4.311693   0.000000
    15  H    5.146357   4.675381   2.516412   4.911083   0.000000
    16  H    5.665730   6.678904   4.920110   2.487221   4.152485
    17  H    3.261790   2.644207   4.194367   6.935716   6.263257
    18  H    3.060223   2.829427   4.834674   6.894808   7.213595
    19  H    2.586318   3.302931   4.684275   6.193447   6.772431
    20  H    6.726748   6.993322   4.879051   5.146203   2.767519
    21  H    7.074891   7.546049   5.441532   4.572956   3.620536
    22  H    6.990225   6.911823   4.715738   5.304835   2.463174
    23  H    2.077428   2.466820   2.743480   3.529328   4.883791
    24  H    2.084362   3.756982   3.791517   2.420153   5.547653
    25  H    1.010565   3.161218   3.884084   4.019911   5.900214
                   16         17         18         19         20
    16  H    0.000000
    17  H    8.269862   0.000000
    18  H    8.660919   1.763951   0.000000
    19  H    7.837089   1.785435   1.777864   0.000000
    20  H    3.232650   8.219492   9.200876   8.330573   0.000000
    21  H    2.225999   9.131208   9.840099   9.062541   1.784594
    22  H    3.461327   8.611134   9.448700   8.887236   1.789279
    23  H    5.335022   4.689970   4.274996   4.468883   6.733781
    24  H    4.735463   5.323388   4.832874   4.505044   6.735338
    25  H    5.970392   3.501011   3.159667   2.298089   7.191670
                   21         22         23         24         25
    21  H    0.000000
    22  H    1.779731   0.000000
    23  H    6.698171   6.468827   0.000000
    24  H    6.542463   6.781605   1.774839   0.000000
    25  H    7.533622   7.634461   2.892700   2.310918   0.000000
 Stoichiometry    C9H13N2O(1+)
 Framework group  C1[X(C9H13N2O)]
 Deg. of freedom    69
 Full point group                 C1      NOp   1
 Largest Abelian subgroup         C1      NOp   1
 Largest concise Abelian subgroup C1      NOp   1
                         Standard orientation:                         
 ---------------------------------------------------------------------
 Center     Atomic      Atomic             Coordinates (Angstroms)
 Number     Number       Type             X           Y           Z
 ---------------------------------------------------------------------
      1          6           0       -0.475721   -0.655099   -0.406611
      2          6           0       -1.331082    1.549115    0.018710
      3          6           0       -1.740669   -1.157960   -0.185700
      4          6           0       -2.582287    0.996917    0.233538
      5          6           0       -0.243624    0.729257   -0.306390
      6          6           0        2.866135   -0.345754    0.036393
      7          6           0        4.079109   -0.624836    0.897107
      8          6           0       -4.113598   -0.926362    0.383870
      9          6           0        1.139736    1.299558   -0.573175
     10          7           0       -2.776646   -0.337498    0.130976
     11          7           0        2.157883    0.796706    0.337211
     12          8           0        2.517122   -1.073157   -0.887626
     13          1           0        0.342176   -1.318829   -0.671405
     14          1           0       -1.218527    2.625011    0.103854
     15          1           0       -1.973025   -2.214218   -0.258545
     16          1           0       -3.449373    1.594477    0.488030
     17          1           0        4.112381   -1.691935    1.128333
     18          1           0        4.980633   -0.385164    0.322099
     19          1           0        4.095599   -0.048924    1.826911
     20          1           0       -4.100976   -1.455100    1.339806
     21          1           0       -4.855715   -0.129400    0.413704
     22          1           0       -4.357470   -1.618844   -0.423406
     23          1           0        1.429132    1.024796   -1.594784
     24          1           0        1.111692    2.390095   -0.506094
     25          1           0        2.489841    1.409821    1.068742
 ---------------------------------------------------------------------
 Rotational constants (GHZ):      2.3806932      0.4496438      0.4058631
 Standard basis: 6-31G(d) (6D, 7F)
 There are   206 symmetry adapted basis functions of A   symmetry.
 Integral buffers will be    131072 words long.
 Raffenetti 1 integral format.
 Two-electron integral symmetry is turned on.
   206 basis functions,   388 primitive gaussians,   206 cartesian basis functions
    44 alpha electrons       44 beta electrons
       nuclear repulsion energy       681.3758540950 Hartrees.
 NAtoms=   25 NActive=   25 NUniq=   25 SFac= 1.00D+00 NAtFMM=   60 NAOKFM=F Big=F
 One-electron integrals computed using PRISM.
 NBasis=   206 RedAO= T  NBF=   206
 NBsUse=   206 1.00D-06 NBFU=   206
 Initial guess read from the checkpoint file:  frag19-conf2.chk
 B after Tr=     0.000000    0.000000    0.000000
         Rot=    1.000000    0.000000    0.000000    0.000000 Ang=   0.00 deg.
 Initial guess orbital symmetries:
       Occupied  (A) (A) (A) (A) (A) (A) (A) (A) (A) (A) (A) (A)
                 (A) (A) (A) (A) (A) (A) (A) (A) (A) (A) (A) (A)
                 (A) (A) (A) (A) (A) (A) (A) (A) (A) (A) (A) (A)
                 (A) (A) (A) (A) (A) (A) (A) (A)
       Virtual   (A) (A) (A) (A) (A) (A) (A) (A) (A) (A) (A) (A)
                 (A) (A) (A) (A) (A) (A) (A) (A) (A) (A) (A) (A)
                 (A) (A) (A) (A) (A) (A) (A) (A) (A) (A) (A) (A)
                 (A) (A) (A) (A) (A) (A) (A) (A) (A) (A) (A) (A)
                 (A) (A) (A) (A) (A) (A) (A) (A) (A) (A) (A) (A)
                 (A) (A) (A) (A) (A) (A) (A) (A) (A) (A) (A) (A)
                 (A) (A) (A) (A) (A) (A) (A) (A) (A) (A) (A) (A)
                 (A) (A) (A) (A) (A) (A) (A) (A) (A) (A) (A) (A)
                 (A) (A) (A) (A) (A) (A) (A) (A) (A) (A) (A) (A)
                 (A) (A) (A) (A) (A) (A) (A) (A) (A) (A) (A) (A)
                 (A) (A) (A) (A) (A) (A) (A) (A) (A) (A) (A) (A)
                 (A) (A) (A) (A) (A) (A) (A) (A) (A) (A) (A) (A)
                 (A) (A) (A) (A) (A) (A) (A) (A) (A) (A) (A) (A)
                 (A) (A) (A) (A) (A) (A)
 Requested convergence on RMS density matrix=1.00D-08 within 128 cycles.
 Requested convergence on MAX density matrix=1.00D-06.
 Requested convergence on             energy=1.00D-06.
 No special actions if energy rises.
 SCF Done:  E(RHF) =  -531.962417073     A.U. after   14 cycles
             Convg  =    0.4501D-08             -V/T =  2.0026

 **********************************************************************

            Population analysis using the SCF density.

 **********************************************************************

 Orbital symmetries:
 BldTbl:  Degeneracy threshold= 1.00D-02
       Occupied  (A) (A) (A) (A) (A) (A) (A) (A) (A) (A) (A) (A)
                 (A) (A) (A) (A) (A) (A) (A) (A) (A) (A) (A) (A)
                 (A) (A) (A) (A) (A) (A) (A) (A) (A) (A) (A) (A)
                 (A) (A) (A) (A) (A) (A) (A) (A)
       Virtual   (A) (A) (A) (A) (A) (A) (A) (A) (A) (A) (A) (A)
                 (A) (A) (A) (A) (A) (A) (A) (A) (A) (A) (A) (A)
                 (A) (A) (A) (A) (A) (A) (A) (A) (A) (A) (A) (A)
                 (A) (A) (A) (A) (A) (A) (A) (A) (A) (A) (A) (A)
                 (A) (A) (A) (A) (A) (A) (A) (A) (A) (A) (A) (A)
                 (A) (A) (A) (A) (A) (A) (A) (A) (A) (A) (A) (A)
                 (A) (A) (A) (A) (A) (A) (A) (A) (A) (A) (A) (A)
                 (A) (A) (A) (A) (A) (A) (A) (A) (A) (A) (A) (A)
                 (A) (A) (A) (A) (A) (A) (A) (A) (A) (A) (A) (A)
                 (A) (A) (A) (A) (A) (A) (A) (A) (A) (A) (A) (A)
                 (A) (A) (A) (A) (A) (A) (A) (A) (A) (A) (A) (A)
                 (A) (A) (A) (A) (A) (A) (A) (A) (A) (A) (A) (A)
                 (A) (A) (A) (A) (A) (A) (A) (A) (A) (A) (A) (A)
                 (A) (A) (A) (A) (A) (A)
 The electronic state is 1-A.
 Alpha  occ. eigenvalues --  -20.64350 -15.84568 -15.71815 -11.48512 -11.47705
 Alpha  occ. eigenvalues --  -11.47383 -11.44697 -11.44195 -11.42000 -11.41958
 Alpha  occ. eigenvalues --  -11.40881 -11.33923  -1.50851  -1.49649  -1.35797
 Alpha  occ. eigenvalues --   -1.29109  -1.23161  -1.16865  -1.12219  -1.07489
 Alpha  occ. eigenvalues --   -1.06037  -1.00076  -0.91448  -0.88952  -0.87204
 Alpha  occ. eigenvalues --   -0.83467  -0.81505  -0.80761  -0.79183  -0.78571
 Alpha  occ. eigenvalues --   -0.77594  -0.73876  -0.72387  -0.70925  -0.70437
 Alpha  occ. eigenvalues --   -0.69361  -0.68927  -0.67789  -0.65537  -0.61770
 Alpha  occ. eigenvalues --   -0.55846  -0.53701  -0.53019  -0.51918
 Alpha virt. eigenvalues --   -0.08860  -0.04098   0.06370   0.07846   0.09430
 Alpha virt. eigenvalues --    0.10978   0.12362   0.13645   0.14010   0.15613
 Alpha virt. eigenvalues --    0.16470   0.17007   0.17498   0.19096   0.20172
 Alpha virt. eigenvalues --    0.21320   0.22581   0.24221   0.25853   0.27217
 Alpha virt. eigenvalues --    0.29106   0.31510   0.33010   0.33615   0.36248
 Alpha virt. eigenvalues --    0.40277   0.46793   0.47529   0.48294   0.52713
 Alpha virt. eigenvalues --    0.55184   0.55538   0.58728   0.59985   0.61691
 Alpha virt. eigenvalues --    0.62646   0.63371   0.64063   0.64656   0.65068
 Alpha virt. eigenvalues --    0.67809   0.69899   0.70139   0.73021   0.73293
 Alpha virt. eigenvalues --    0.76492   0.77673   0.79622   0.80185   0.82373
 Alpha virt. eigenvalues --    0.83707   0.84499   0.88887   0.90306   0.91829
 Alpha virt. eigenvalues --    0.92797   0.93732   0.95269   0.96612   0.97619
 Alpha virt. eigenvalues --    0.98643   0.99926   1.01691   1.03090   1.03836
 Alpha virt. eigenvalues --    1.05288   1.05759   1.06104   1.08393   1.09282
 Alpha virt. eigenvalues --    1.09489   1.11892   1.13707   1.17684   1.20026
 Alpha virt. eigenvalues --    1.21793   1.23356   1.27194   1.29578   1.29740
 Alpha virt. eigenvalues --    1.32113   1.34153   1.38611   1.43122   1.44368
 Alpha virt. eigenvalues --    1.47557   1.49727   1.52422   1.54291   1.56173
 Alpha virt. eigenvalues --    1.56960   1.59358   1.59777   1.62373   1.70690
 Alpha virt. eigenvalues --    1.72094   1.80296   1.83600   1.87785   1.91451
 Alpha virt. eigenvalues --    1.94937   1.97908   1.99952   2.01597   2.02757
 Alpha virt. eigenvalues --    2.03671   2.04575   2.05455   2.07717   2.11641
 Alpha virt. eigenvalues --    2.14777   2.16466   2.16928   2.17466   2.22533
 Alpha virt. eigenvalues --    2.24632   2.26469   2.27731   2.30433   2.33443
 Alpha virt. eigenvalues --    2.36431   2.41498   2.41883   2.42945   2.44130
 Alpha virt. eigenvalues --    2.45670   2.47163   2.48885   2.50745   2.53786
 Alpha virt. eigenvalues --    2.55681   2.60487   2.65751   2.67309   2.75426
 Alpha virt. eigenvalues --    2.76449   2.78495   2.83050   2.87955   2.89469
 Alpha virt. eigenvalues --    2.90524   2.97773   2.99071   3.01319   3.02884
 Alpha virt. eigenvalues --    3.11782   3.25275   3.27717   3.37847   3.61174
 Alpha virt. eigenvalues --    4.23623   4.26626   4.34203   4.35412   4.40604
 Alpha virt. eigenvalues --    4.48100   4.50945   4.55650   4.59986   4.67880
 Alpha virt. eigenvalues --    4.80033   4.91944
          Condensed to atoms (all electrons):
              1          2          3          4          5          6
     1  C    5.009435  -0.037463   0.556543  -0.025143   0.518399   0.002353
     2  C   -0.037463   4.974299  -0.025417   0.555706   0.532159   0.000031
     3  C    0.556543  -0.025417   4.750307  -0.059335  -0.047378   0.000045
     4  C   -0.025143   0.555706  -0.059335   4.706672  -0.043076   0.000000
     5  C    0.518399   0.532159  -0.047378  -0.043076   4.865704  -0.003668
     6  C    0.002353   0.000031   0.000045   0.000000  -0.003668   4.204410
     7  C    0.000090  -0.000002   0.000004   0.000000  -0.000408   0.358030
     8  C    0.001389   0.002876  -0.035670  -0.031423  -0.000047   0.000000
     9  C   -0.035041  -0.033100   0.002548   0.003168   0.289381  -0.026236
    10  N   -0.026115  -0.030197   0.340245   0.365738  -0.033079  -0.000001
    11  N   -0.001837   0.000083  -0.000225  -0.000089  -0.061623   0.257092
    12  O   -0.006792  -0.000042   0.000559   0.000000  -0.007312   0.554755
    13  H    0.346450   0.002472  -0.019424  -0.000065  -0.014056  -0.000911
    14  H    0.002649   0.374658   0.000010  -0.024016  -0.020422   0.000000
    15  H   -0.017489  -0.000179   0.382488   0.001984   0.001873   0.000003
    16  H   -0.000266  -0.019185   0.002060   0.382068   0.001875   0.000000
    17  H   -0.000005   0.000000   0.000000   0.000000   0.000019  -0.029987
    18  H   -0.000001   0.000000   0.000000   0.000000  -0.000001  -0.026501
    19  H   -0.000003   0.000000   0.000000   0.000000   0.000010  -0.039364
    20  H   -0.000077  -0.000137  -0.002384  -0.000245   0.000038   0.000000
    21  H   -0.000027   0.000505   0.002664  -0.001398  -0.000023   0.000000
    22  H    0.000137  -0.000097  -0.002835   0.001428   0.000015   0.000000
    23  H   -0.002447   0.000989  -0.000027  -0.000113  -0.048102   0.000910
    24  H    0.003058   0.000247  -0.000036   0.000293  -0.059084   0.002741
    25  H    0.000066   0.000084   0.000009   0.000003   0.001608  -0.012398
              7          8          9         10         11         12
     1  C    0.000090   0.001389  -0.035041  -0.026115  -0.001837  -0.006792
     2  C   -0.000002   0.002876  -0.033100  -0.030197   0.000083  -0.000042
     3  C    0.000004  -0.035670   0.002548   0.340245  -0.000225   0.000559
     4  C    0.000000  -0.031423   0.003168   0.365738  -0.000089   0.000000
     5  C   -0.000408  -0.000047   0.289381  -0.033079  -0.061623  -0.007312
     6  C    0.358030   0.000000  -0.026236  -0.000001   0.257092   0.554755
     7  C    5.234809   0.000000   0.004789   0.000000  -0.095436  -0.060858
     8  C    0.000000   5.049716   0.000003   0.162059   0.000000   0.000000
     9  C    0.004789   0.000003   4.946140  -0.000103   0.209876   0.011509
    10  N    0.000000   0.162059  -0.000103   6.994677   0.000005  -0.000001
    11  N   -0.095436   0.000000   0.209876   0.000005   7.344002  -0.103128
    12  O   -0.060858   0.000000   0.011509  -0.000001  -0.103128   8.206376
    13  H    0.000204  -0.000045  -0.000494   0.001776  -0.001330   0.019468
    14  H    0.000000  -0.000056  -0.001803   0.002204   0.000063   0.000000
    15  H    0.000000  -0.001114  -0.000056  -0.037502   0.000001  -0.000003
    16  H    0.000000  -0.002412  -0.000053  -0.036074   0.000001   0.000000
    17  H    0.382892   0.000000  -0.000104   0.000000   0.002895   0.000842
    18  H    0.379069   0.000000  -0.000186   0.000000   0.000526  -0.000159
    19  H    0.378399   0.000000   0.000067   0.000000   0.003781   0.002251
    20  H    0.000000   0.392888   0.000000  -0.036792   0.000000   0.000000
    21  H    0.000000   0.396843   0.000000  -0.032931   0.000000   0.000000
    22  H    0.000000   0.395033   0.000000  -0.034974   0.000000   0.000000
    23  H    0.000239   0.000000   0.407742   0.000004  -0.041108   0.006374
    24  H   -0.000010   0.000000   0.417835  -0.000002  -0.036724   0.000491
    25  H    0.001268   0.000000  -0.022767   0.000000   0.320745   0.002164
             13         14         15         16         17         18
     1  C    0.346450   0.002649  -0.017489  -0.000266  -0.000005  -0.000001
     2  C    0.002472   0.374658  -0.000179  -0.019185   0.000000   0.000000
     3  C   -0.019424   0.000010   0.382488   0.002060   0.000000   0.000000
     4  C   -0.000065  -0.024016   0.001984   0.382068   0.000000   0.000000
     5  C   -0.014056  -0.020422   0.001873   0.001875   0.000019  -0.000001
     6  C   -0.000911   0.000000   0.000003   0.000000  -0.029987  -0.026501
     7  C    0.000204   0.000000   0.000000   0.000000   0.382892   0.379069
     8  C   -0.000045  -0.000056  -0.001114  -0.002412   0.000000   0.000000
     9  C   -0.000494  -0.001803  -0.000056  -0.000053  -0.000104  -0.000186
    10  N    0.001776   0.002204  -0.037502  -0.036074   0.000000   0.000000
    11  N   -0.001330   0.000063   0.000001   0.000001   0.002895   0.000526
    12  O    0.019468   0.000000  -0.000003   0.000000   0.000842  -0.000159
    13  H    0.318635  -0.000056  -0.000172   0.000004  -0.000002   0.000000
    14  H   -0.000056   0.388632   0.000006  -0.000376   0.000000   0.000000
    15  H   -0.000172   0.000006   0.373619  -0.000052   0.000000   0.000000
    16  H    0.000004  -0.000376  -0.000052   0.376681   0.000000   0.000000
    17  H   -0.000002   0.000000   0.000000   0.000000   0.449904  -0.016329
    18  H    0.000000   0.000000   0.000000   0.000000  -0.016329   0.451070
    19  H   -0.000016   0.000000   0.000000   0.000000  -0.021215  -0.020907
    20  H    0.000000   0.000001   0.000137   0.000077   0.000000   0.000000
    21  H    0.000001   0.000000   0.000037   0.001013   0.000000   0.000000
    22  H   -0.000001   0.000001   0.000319   0.000033   0.000000   0.000000
    23  H   -0.000139   0.000030   0.000000   0.000002  -0.000013   0.000008
    24  H   -0.000056   0.002000   0.000001  -0.000003   0.000000   0.000006
    25  H   -0.000053  -0.000010   0.000000   0.000000  -0.000022  -0.000037
             19         20         21         22         23         24
     1  C   -0.000003  -0.000077  -0.000027   0.000137  -0.002447   0.003058
     2  C    0.000000  -0.000137   0.000505  -0.000097   0.000989   0.000247
     3  C    0.000000  -0.002384   0.002664  -0.002835  -0.000027  -0.000036
     4  C    0.000000  -0.000245  -0.001398   0.001428  -0.000113   0.000293
     5  C    0.000010   0.000038  -0.000023   0.000015  -0.048102  -0.059084
     6  C   -0.039364   0.000000   0.000000   0.000000   0.000910   0.002741
     7  C    0.378399   0.000000   0.000000   0.000000   0.000239  -0.000010
     8  C    0.000000   0.392888   0.396843   0.395033   0.000000   0.000000
     9  C    0.000067   0.000000   0.000000   0.000000   0.407742   0.417835
    10  N    0.000000  -0.036792  -0.032931  -0.034974   0.000004  -0.000002
    11  N    0.003781   0.000000   0.000000   0.000000  -0.041108  -0.036724
    12  O    0.002251   0.000000   0.000000   0.000000   0.006374   0.000491
    13  H   -0.000016   0.000000   0.000001  -0.000001  -0.000139  -0.000056
    14  H    0.000000   0.000001   0.000000   0.000001   0.000030   0.002000
    15  H    0.000000   0.000137   0.000037   0.000319   0.000000   0.000001
    16  H    0.000000   0.000077   0.001013   0.000033   0.000002  -0.000003
    17  H   -0.021215   0.000000   0.000000   0.000000  -0.000013   0.000000
    18  H   -0.020907   0.000000   0.000000   0.000000   0.000008   0.000006
    19  H    0.509308   0.000000   0.000000   0.000000  -0.000003  -0.000021
    20  H    0.000000   0.443241  -0.020112  -0.023794   0.000000   0.000000
    21  H    0.000000  -0.020112   0.437710  -0.019246   0.000000   0.000000
    22  H    0.000000  -0.023794  -0.019246   0.440490   0.000000   0.000000
    23  H   -0.000003   0.000000   0.000000   0.000000   0.425668  -0.014817
    24  H   -0.000021   0.000000   0.000000   0.000000  -0.014817   0.464294
    25  H    0.001212   0.000000   0.000000   0.000000   0.001767  -0.002918
             25
     1  C    0.000066
     2  C    0.000084
     3  C    0.000009
     4  C    0.000003
     5  C    0.001608
     6  C   -0.012398
     7  C    0.001268
     8  C    0.000000
     9  C   -0.022767
    10  N    0.000000
    11  N    0.320745
    12  O    0.002164
    13  H   -0.000053
    14  H   -0.000010
    15  H    0.000000
    16  H    0.000000
    17  H   -0.000022
    18  H   -0.000037
    19  H    0.001212
    20  H    0.000000
    21  H    0.000000
    22  H    0.000000
    23  H    0.001767
    24  H   -0.002918
    25  H    0.300294
 Mulliken atomic charges:
              1
     1  C   -0.287864
     2  C   -0.298293
     3  C    0.155246
     4  C    0.167843
     5  C    0.127198
     6  C    0.758697
     7  C   -0.583080
     8  C   -0.330038
     9  C   -0.173116
    10  N   -0.598935
    11  N   -0.797570
    12  O   -0.626493
    13  H    0.347808
    14  H    0.276484
    15  H    0.296099
    16  H    0.294607
    17  H    0.231124
    18  H    0.233442
    19  H    0.186501
    20  H    0.247159
    21  H    0.234964
    22  H    0.243490
    23  H    0.263037
    24  H    0.222705
    25  H    0.408986
 Sum of Mulliken atomic charges =   1.00000
 Mulliken charges with hydrogens summed into heavy atoms:
              1
     1  C    0.059944
     2  C   -0.021809
     3  C    0.451345
     4  C    0.462450
     5  C    0.127198
     6  C    0.758697
     7  C    0.067987
     8  C    0.395574
     9  C    0.312626
    10  N   -0.598935
    11  N   -0.388584
    12  O   -0.626493
 Sum of Mulliken charges with hydrogens summed into heavy atoms =   1.00000
 DipInt: DoE/N= T F RetVal/Mat= T F Init=T NMatP=  1 IDeriv=0 Min/MaxMlt=  0  4
 Entering OneElI...
 OneElI was handed    33442981 working-precision words.
 Multipole integrals L=0 to 4 MinM= 0 MaxM= 0.
 Requested accuracy = 0.1000D-12
 PrsmSu:  NPrtUS=   1 ThrOK=F IAlg=1 NPAlg=1 LenDen=           0.
 Prism:   IPart=     0 DynPar=F LinDyn=F Incr=          23.
 PRISM was handed    33234366 working-precision words and  2398 shell-pairs
 IPart=  0 NShTot=        2398 NBatch=          55 AvBLen=        43.6
 PrSmSu:  NxtVal=             24.
 Electronic moments (au):
        -88.00000000         -2.85216504          0.91863002          1.06324965
      -2195.13676099       -396.85923894       -154.19403018          6.95519483
          3.30263023         -0.94350471       -129.45935279       -219.35862653
        -26.37568070        233.91796542       1642.81621382      -1251.45074250
       -333.90650324         59.26379508         62.02614572        -10.34375770
    -102313.02656485      -4078.30730014       -939.97219411       -248.98247791
      -2642.77308270         32.25792567         52.21348031       -250.42230028
         81.57436955      -8167.02954754      -4881.49718201       -705.60278639
        881.33874651        295.74916645        210.44616473
 Electronic spatial extent (au):  <R**2>=           2746.1900
 DipInt: DoE/N= F T RetVal/Mat= T F Init=T NMatP=  1 IDeriv=0 Min/MaxMlt=  0  4
 Nuclear    moments (au):
         89.00000000          0.00000000          0.00000000          0.00000000
       2181.84145314        355.54186819        102.02858220          0.00000000
          0.00000000          0.00000000         18.91225760        229.05436540
         30.32132787       -264.07691502      -1651.19893709       1309.31473731
        338.50540110        -56.58009902        -54.25859767         -0.06628304
      97038.80322166       2912.47868347        435.15200521        410.83740236
       2672.92578986         26.64700886        -31.90207336        246.65135481
        -79.89658206       6886.18663798       3558.52816091        398.16187290
       -910.75421523       -268.12262524       -156.54420924
 Total      moments (au):
          1.00000000         -2.85216504          0.91863002          1.06324965
        -13.29530786        -41.31737075        -52.16544798          6.95519483
          3.30263023         -0.94350471       -110.54709519          9.69573887
          3.94564717        -30.15894960         -8.38272327         57.86399481
          4.59889787          2.68369606          7.76754805        -10.41004074
      -5274.22334320      -1165.82861667       -504.82018890        161.85492445
         30.15270715         58.90493452         20.31140695         -3.77094547
          1.67778749      -1280.84290956      -1322.96902110       -307.44091349
        -29.41546872         27.62654121         53.90195549
 Traceless Quadrup. (au):
         22.29740101         -5.72466189        -16.57273912          6.95519483
          3.30263023         -0.94350471
 Charge=              1.0000 electrons
 Dipole moment (field-independent basis, Debye):
    X=             -7.2495    Y=              2.3349    Z=              2.7025  Tot=              8.0815
 Quadrupole moment (field-independent basis, Debye-Ang):
   XX=            -17.8826   YY=            -55.5733   ZZ=            -70.1643
   XY=              9.3550   XZ=              4.4422   YZ=             -1.2690
 Traceless Quadrupole moment (field-independent basis, Debye-Ang):
   XX=             29.9908   YY=             -7.6999   ZZ=            -22.2909
   XY=              9.3550   XZ=              4.4422   YZ=             -1.2690
 Octapole moment (field-independent basis, Debye-Ang**2):
  XXX=            -78.6832  YYY=              6.9011  ZZZ=              2.8084  XYY=            -21.4660
  XXY=             -5.9665  XXZ=             41.1854  XZZ=              3.2733  YZZ=              1.9102
  YYZ=              5.5286  XYZ=             -7.4095
 Hexadecapole moment (field-independent basis, Debye-Ang**3):
 XXXX=          -1986.5253 YYYY=           -439.1069 ZZZZ=           -190.1395 XXXY=             60.9623
 XXXZ=             11.3570 YYYX=             22.1864 YYYZ=              7.6502 ZZZX=             -1.4203
 ZZZY=              0.6319 XXYY=           -482.4268 XXZZ=           -498.2935 YYZZ=           -115.7970
 XXYZ=            -11.0793 YYXZ=             10.4055 ZZXY=             20.3021
 N-N= 6.813758540950D+02 E-N=-2.590733898245D+03  KE= 5.306057310591D+02
 Entering OneElI...
 OneElI was handed    33357278 working-precision words.
 Calculate electrostatic properties
    NBasis =   206  MinDer = 0  MaxDer = 0
    NGrid  =    25  NMatD  =   1
 Requested accuracy = 0.1000D-12
 PrsmSu:  NPrtUS=   2 ThrOK=T IAlg=1 NPAlg=1 LenDen=           0.
 Prism:   IPart=     0 DynPar=F LinDyn=F Incr=         274.
 PRISM was handed    16548390 working-precision words and  2197 shell-pairs
 PRISM was handed    16548390 working-precision words and  2197 shell-pairs
 IPart=  0 NShTot=       27675 NBatch=        1107 AvBLen=        25.0
 IPart=  1 NShTot=       27250 NBatch=        1090 AvBLen=        25.0
 PrSmSu:  NxtVal=            549.
 --------------------------------------------------------
       Center         ----      EFG at Nuclei      ----
                      3XX-RR        3YY-RR        3ZZ-RR
 --------------------------------------------------------
     1   Atom        0.152096      0.161496     -0.313593
     2   Atom        0.095512      0.157817     -0.253330
     3   Atom        0.149655      0.195284     -0.344939
     4   Atom        0.353941     -0.005929     -0.348012
     5   Atom        0.265633      0.285506     -0.551139
     6   Atom        0.011799     -0.021851      0.010051
     7   Atom       -0.045211      0.061872     -0.016662
     8   Atom       -0.333811      0.121619      0.212193
     9   Atom       -0.150295      0.090956      0.059339
    10   Atom       -0.086348     -0.154103      0.240451
    11   Atom        0.083938     -0.122909      0.038971
    12   Atom        0.661059      0.087791     -0.748850
    13   Atom       -0.088239     -0.037135      0.125374
    14   Atom        0.130958     -0.292937      0.161979
    15   Atom        0.112933     -0.271348      0.158415
    16   Atom       -0.141026      0.003667      0.137359
    17   Atom        0.144059     -0.273991      0.129932
    18   Atom       -0.152154      0.129838      0.022316
    19   Atom        0.143904      0.023670     -0.167574
    20   Atom        0.130316      0.051064     -0.181380
    21   Atom       -0.062879     -0.099754      0.162633
    22   Atom        0.110720     -0.022117     -0.088604
    23   Atom        0.100889      0.124468     -0.225357
    24   Atom        0.132951     -0.283056      0.150105
    25   Atom        0.129535     -0.032338     -0.097197
 --------------------------------------------------------
                        XY            XZ            YZ
 --------------------------------------------------------
     1   Atom       -0.065030     -0.120356      0.068466
     2   Atom       -0.008859     -0.079039      0.045824
     3   Atom        0.216931     -0.087243      0.019536
     4   Atom       -0.007952     -0.164031      0.040937
     5   Atom        0.026588     -0.181948      0.086368
     6   Atom       -0.189209      0.416182      0.266128
     7   Atom        0.026199     -0.072417      0.010100
     8   Atom       -0.231341      0.100386      0.041048
     9   Atom        0.007202     -0.144929      0.136346
    10   Atom        0.003302      0.084087     -0.041882
    11   Atom        0.505762     -0.651971     -0.394282
    12   Atom       -1.163719      0.276148     -0.391075
    13   Atom        0.190249      0.075421     -0.065708
    14   Atom       -0.046802      0.002962     -0.037175
    15   Atom       -0.090605     -0.000300     -0.030901
    16   Atom        0.186965      0.086267     -0.058284
    17   Atom        0.011712     -0.008651      0.094348
    18   Atom       -0.078656      0.184600      0.055186
    19   Atom        0.007738     -0.007880     -0.200769
    20   Atom       -0.001916     -0.007564      0.186229
    21   Atom        0.206831      0.011904     -0.006322
    22   Atom       -0.065087     -0.061680     -0.207888
    23   Atom        0.023947      0.094313     -0.092533
    24   Atom        0.015009     -0.006442     -0.028231
    25   Atom       -0.084309     -0.164412     -0.264576
 --------------------------------------------------------


 ---------------------------------------------------------------------------------
              Nuclear Quadrupole in Principal Axis System
 ---------------------------------------------------------------------------------

       Atom             a.u.   MegaHertz   Gauss  10(-4) cm-1        Axes

              Baa    -0.3481   -46.714   -16.669   -15.582  0.2201 -0.1022  0.9701
     1 C(13)  Bbb     0.0948    12.715     4.537     4.241  0.6743  0.7345 -0.0756
              Bcc     0.2534    33.999    12.132    11.341  0.7049 -0.6708 -0.2306
 
              Baa    -0.2747   -36.858   -13.152   -12.295  0.2055 -0.0990  0.9736
     2 C(13)  Bbb     0.1066    14.304     5.104     4.771  0.9360  0.3104 -0.1660
              Bcc     0.1681    22.554     8.048     7.523 -0.2858  0.9454  0.1564
 
              Baa    -0.3664   -49.168   -17.544   -16.401  0.2127 -0.1159  0.9702
     3 C(13)  Bbb    -0.0268    -3.603    -1.286    -1.202  0.7057 -0.6685 -0.2346
              Bcc     0.3933    52.771    18.830    17.602  0.6758  0.7346 -0.0604
 
              Baa    -0.3883   -52.103   -18.592   -17.380  0.2137 -0.0996  0.9718
     4 C(13)  Bbb    -0.0028    -0.376    -0.134    -0.125  0.0627  0.9941  0.0881
              Bcc     0.3911    52.479    18.726    17.505  0.9749 -0.0421 -0.2187
 
              Baa    -0.5990   -80.380   -28.681   -26.812  0.2078 -0.1012  0.9729
     5 C(13)  Bbb     0.2902    38.936    13.893    12.988 -0.4621  0.8665  0.1889
              Bcc     0.3088    41.444    14.788    13.824  0.8621  0.4889 -0.1333
 
              Baa    -0.5890   -79.042   -28.204   -26.366 -0.5946 -0.4955  0.6332
     6 C(13)  Bbb     0.1532    20.556     7.335     6.857 -0.4671  0.8539  0.2295
              Bcc     0.4358    58.486    20.869    19.509  0.6544  0.1593  0.7392
 
              Baa    -0.1089   -14.616    -5.215    -4.875  0.7689 -0.1546  0.6204
     7 C(13)  Bbb     0.0400     5.363     1.914     1.789 -0.5577  0.3124  0.7690
              Bcc     0.0690     9.253     3.302     3.087  0.3127  0.9373 -0.1540
 
              Baa    -0.4485   -60.186   -21.476   -20.076  0.9103  0.3810 -0.1620
     8 C(13)  Bbb     0.2184    29.313    10.460     9.778 -0.3732  0.9245  0.0774
              Bcc     0.2301    30.873    11.016    10.298  0.1792 -0.0100  0.9838
 
              Baa    -0.2403   -32.243   -11.505   -10.755  0.8325 -0.2262  0.5057
     9 C(13)  Bbb     0.0038     0.509     0.181     0.170  0.4920  0.7215 -0.4872
              Bcc     0.2365    31.735    11.324    10.586 -0.2546  0.6544  0.7120
 
              Baa    -0.1610    -6.210    -2.216    -2.072 -0.2048  0.9682  0.1439
    10 N(14)  Bbb    -0.1036    -3.996    -1.426    -1.333  0.9511  0.2316 -0.2043
              Bcc     0.2646    10.206     3.642     3.404  0.2311 -0.0950  0.9683
 
              Baa    -0.6156   -23.741    -8.471    -7.919  0.7607 -0.3370  0.5548
    11 N(14)  Bbb    -0.4432   -17.093    -6.099    -5.702 -0.0627  0.8125  0.5796
              Bcc     1.0588    40.834    14.571    13.621  0.6460  0.4757 -0.5969
 
              Baa    -0.9654    69.859    24.927    23.302  0.3254  0.6235  0.7109
    12 O(17)  Bbb    -0.6950    50.293    17.946    16.776 -0.5534 -0.4840  0.6778
              Bcc     1.6605  -120.151   -42.873   -40.078  0.7667 -0.6140  0.1875
 
              Baa    -0.2794  -149.056   -53.187   -49.720  0.7308 -0.6390 -0.2399
    13 H(1)   Bbb     0.1293    68.971    24.611    23.006  0.6566  0.7542 -0.0088
              Bcc     0.1501    80.085    28.576    26.713  0.1866 -0.1511  0.9708
 
              Baa    -0.3009  -160.569   -57.295   -53.560  0.1069  0.9911  0.0789
    14 H(1)   Bbb     0.1345    71.749    25.602    23.933  0.9711 -0.0870 -0.2222
              Bcc     0.1665    88.820    31.693    29.627  0.2134 -0.1004  0.9718
 
              Baa    -0.2937  -156.683   -55.908   -52.264  0.2171  0.9739  0.0667
    15 H(1)   Bbb     0.1318    70.309    25.088    23.452  0.9555 -0.1980 -0.2189
              Bcc     0.1619    86.374    30.820    28.811  0.2000 -0.1113  0.9735
 
              Baa    -0.2943  -157.006   -56.024   -52.372  0.8021 -0.5492 -0.2345
    16 H(1)   Bbb     0.1318    70.312    25.089    23.453  0.5606  0.8278 -0.0211
              Bcc     0.1625    86.694    30.935    28.918  0.2057 -0.1145  0.9719
 
              Baa    -0.2953  -157.582   -56.229   -52.564 -0.0303  0.9757 -0.2171
    17 H(1)   Bbb     0.1410    75.205    26.835    25.086  0.8592  0.1364  0.4932
              Bcc     0.1544    82.377    29.394    27.478 -0.5108  0.1716  0.8424
 
              Baa    -0.2910  -155.256   -55.399   -51.788  0.8224  0.2224 -0.5237
    18 H(1)   Bbb     0.1379    73.552    26.245    24.534  0.5687 -0.2951  0.7678
              Bcc     0.1531    81.704    29.154    27.254 -0.0162  0.9292  0.3691
 
              Baa    -0.2943  -157.048   -56.039   -52.386  0.0058  0.5337  0.8456
    19 H(1)   Bbb     0.1359    72.531    25.881    24.194  0.8030 -0.5064  0.3142
              Bcc     0.1584    84.517    30.158    28.192  0.5959  0.6772 -0.4315
 
              Baa    -0.2848  -151.932   -54.213   -50.679  0.0137 -0.4849  0.8745
    20 H(1)   Bbb     0.1293    68.965    24.608    23.004  0.9780  0.1886  0.0892
              Bcc     0.1555    82.967    29.605    27.675 -0.2082  0.8540  0.4768
 
              Baa    -0.2893  -154.370   -55.083   -51.492 -0.6749  0.7373  0.0281
    21 H(1)   Bbb     0.1258    67.114    23.948    22.387  0.7300  0.6728 -0.1204
              Bcc     0.1635    87.256    31.135    29.105  0.1077  0.0608  0.9923
 
              Baa    -0.2859  -152.566   -54.439   -50.890  0.2194  0.6367  0.7393
    22 H(1)   Bbb     0.1276    68.105    24.301    22.717  0.9243  0.1069 -0.3664
              Bcc     0.1583    84.461    30.138    28.173 -0.3123  0.7637 -0.5650
 
              Baa    -0.2736  -145.984   -52.091   -48.695 -0.2515  0.2335  0.9393
    23 H(1)   Bbb     0.1262    67.313    24.019    22.453  0.9676  0.0376  0.2497
              Bcc     0.1474    78.671    28.072    26.242  0.0230  0.9716 -0.2353
 
              Baa    -0.2854  -152.273   -54.335   -50.793 -0.0348  0.9973  0.0641
    24 H(1)   Bbb     0.1309    69.822    24.914    23.290  0.9430  0.0115  0.3326
              Bcc     0.1545    82.451    29.421    27.503 -0.3309 -0.0721  0.9409
 
              Baa    -0.3931  -209.713   -74.831   -69.953  0.3259  0.6075  0.7244
    25 H(1)   Bbb     0.1528    81.544    29.097    27.200  0.7049 -0.6667  0.2420
              Bcc     0.2402   128.170    45.734    42.753 -0.6300 -0.4317  0.6455
 

 ---------------------------------------------------------------------------------

 No NMR shielding tensors so no spin-rotation constants.
 Leave Link  601 at Sat Feb 17 20:58:32 2018, MaxMem=   33554432 cpu:       0.5
 Merz-Kollman atomic radii used.
 Read replacement radii for each type of atom:
 Atom Element Radius
    1     6    1.50
    2     6    1.50
    3     6    1.50
    4     6    1.50
    5     6    1.50
    6     6    1.50
    7     6    1.50
    8     6    1.50
    9     6    1.50
   10     7    1.50
   11     7    1.50
   12     8    1.40
   13     1    1.20
   14     1    1.20
   15     1    1.20
   16     1    1.20
   17     1    1.20
   18     1    1.20
   19     1    1.20
   20     1    1.20
   21     1    1.20
   22     1    1.20
   23     1    1.20
   24     1    1.20
   25     1    1.20
 Generate VDW surfaces: Layer= 4 Dens= 1 Start= 1.400 Inc= 0.200

 **********************************************************************

            Electrostatic Properties Using The SCF Density

 **********************************************************************

       Atomic Center    1 is at  -0.475721 -0.655099 -0.406611
       Atomic Center    2 is at  -1.331082  1.549115  0.018710
       Atomic Center    3 is at  -1.740669 -1.157960 -0.185700
       Atomic Center    4 is at  -2.582287  0.996917  0.233538
       Atomic Center    5 is at  -0.243624  0.729257 -0.306390
       Atomic Center    6 is at   2.866135 -0.345754  0.036393
       Atomic Center    7 is at   4.079109 -0.624836  0.897107
       Atomic Center    8 is at  -4.113598 -0.926362  0.383870
       Atomic Center    9 is at   1.139736  1.299558 -0.573175
       Atomic Center   10 is at  -2.776646 -0.337498  0.130976
       Atomic Center   11 is at   2.157883  0.796706  0.337211
       Atomic Center   12 is at   2.517122 -1.073157 -0.887626
       Atomic Center   13 is at   0.342176 -1.318829 -0.671405
       Atomic Center   14 is at  -1.218527  2.625011  0.103854
       Atomic Center   15 is at  -1.973025 -2.214218 -0.258545
       Atomic Center   16 is at  -3.449373  1.594477  0.488030
       Atomic Center   17 is at   4.112381 -1.691935  1.128333
       Atomic Center   18 is at   4.980633 -0.385164  0.322099
       Atomic Center   19 is at   4.095599 -0.048924  1.826911
       Atomic Center   20 is at  -4.100976 -1.455100  1.339806
       Atomic Center   21 is at  -4.855715 -0.129400  0.413704
       Atomic Center   22 is at  -4.357470 -1.618844 -0.423406
       Atomic Center   23 is at   1.429132  1.024796 -1.594784
       Atomic Center   24 is at   1.111692  2.390095 -0.506094
       Atomic Center   25 is at   2.489841  1.409821  1.068742
      ESP Fit Center   26 is at  -0.475721 -0.655099  1.693389
      ESP Fit Center   27 is at   0.574279 -0.655099  1.412042
      ESP Fit Center   28 is at   0.049279 -1.564426  1.412042
      ESP Fit Center   29 is at   0.574279 -0.655099 -2.225264
      ESP Fit Center   30 is at  -1.000721  0.254227 -2.225264
      ESP Fit Center   31 is at  -1.525721 -0.655099 -2.225264
      ESP Fit Center   32 is at  -1.000721 -1.564426 -2.225264
      ESP Fit Center   33 is at  -0.475721 -0.655099 -2.506611
      ESP Fit Center   34 is at  -1.331082  1.549115  2.118710
      ESP Fit Center   35 is at  -0.281082  1.549115  1.837363
      ESP Fit Center   36 is at  -0.806082  2.458442  1.837363
      ESP Fit Center   37 is at  -1.856082  2.458442  1.837363
      ESP Fit Center   38 is at  -0.806082  0.639788  1.837363
      ESP Fit Center   39 is at   0.198867  2.532353  1.068710
      ESP Fit Center   40 is at  -2.522046  2.923561 -1.031290
      ESP Fit Center   41 is at  -0.806082  2.458442 -1.799943
      ESP Fit Center   42 is at  -1.856082  2.458442 -1.799943
      ESP Fit Center   43 is at  -2.381082  1.549115 -1.799943
      ESP Fit Center   44 is at  -1.856082  0.639788 -1.799943
      ESP Fit Center   45 is at  -1.331082  1.549115 -2.081290
      ESP Fit Center   46 is at  -1.740669 -1.157960  1.914300
      ESP Fit Center   47 is at  -0.690669 -1.157960  1.632954
      ESP Fit Center   48 is at  -1.215669 -0.248633  1.632954
      ESP Fit Center   49 is at  -2.265669 -2.067287  1.632954
      ESP Fit Center   50 is at  -1.215669 -2.067287  1.632954
      ESP Fit Center   51 is at  -2.265669 -0.248633 -2.004353
      ESP Fit Center   52 is at  -2.790669 -1.157960 -2.004353
      ESP Fit Center   53 is at  -2.265669 -2.067287 -2.004353
      ESP Fit Center   54 is at  -1.215669 -2.067287 -2.004353
      ESP Fit Center   55 is at  -1.740669 -1.157960 -2.285700
      ESP Fit Center   56 is at  -2.582287  0.996917  2.333538
      ESP Fit Center   57 is at  -1.532287  0.996917  2.052191
      ESP Fit Center   58 is at  -2.057287  1.906244  2.052191
      ESP Fit Center   59 is at  -3.632287  0.996917  2.052191
      ESP Fit Center   60 is at  -2.841108  2.797059 -0.816462
      ESP Fit Center   61 is at  -3.107287  1.906244 -1.585116
      ESP Fit Center   62 is at  -3.632287  0.996917 -1.585116
      ESP Fit Center   63 is at  -2.582287  0.996917 -1.866462
      ESP Fit Center   64 is at  -0.243624  0.729257  1.793610
      ESP Fit Center   65 is at   0.281376  1.638584  1.512263
      ESP Fit Center   66 is at   0.281376 -0.180070  1.512263
      ESP Fit Center   67 is at  -0.768624  1.638584 -2.125044
      ESP Fit Center   68 is at  -1.293624  0.729257 -2.125044
      ESP Fit Center   69 is at  -0.243624  0.729257 -2.406390
      ESP Fit Center   70 is at   1.675171 -1.720201  1.086393
      ESP Fit Center   71 is at   4.396084  0.637484 -1.013607
      ESP Fit Center   72 is at   3.391135  0.563572 -1.782260
      ESP Fit Center   73 is at   3.554109 -1.534163  2.715760
      ESP Fit Center   74 is at   5.897762 -0.624836  1.947107
      ESP Fit Center   75 is at   2.334124 -1.137210  1.947107
      ESP Fit Center   76 is at   5.609057 -1.608074  1.947107
      ESP Fit Center   77 is at   4.332236  1.459853  0.897107
      ESP Fit Center   78 is at   4.604109 -1.534163 -0.921547
      ESP Fit Center   79 is at  -3.588598 -0.017035  2.202524
      ESP Fit Center   80 is at  -4.638598 -0.017035  2.202524
      ESP Fit Center   81 is at  -5.858583 -1.438736  1.433870
      ESP Fit Center   82 is at  -6.152576 -1.428925  0.383870
      ESP Fit Center   83 is at  -5.685471 -2.318919  0.383870
      ESP Fit Center   84 is at  -3.860471 -3.011050  0.383870
      ESP Fit Center   85 is at  -4.638598 -0.017035 -1.434783
      ESP Fit Center   86 is at   0.614736  2.208885  1.245478
      ESP Fit Center   87 is at   2.669684  2.282796 -1.623175
      ESP Fit Center   88 is at  -2.776646 -0.337498  2.230976
      ESP Fit Center   89 is at  -1.726646 -0.337498  1.949630
      ESP Fit Center   90 is at  -2.251646 -1.246824  1.949630
      ESP Fit Center   91 is at  -3.826646 -0.337498 -1.687677
      ESP Fit Center   92 is at  -3.301646 -1.246824 -1.687677
      ESP Fit Center   93 is at  -2.776646 -0.337498 -1.969024
      ESP Fit Center   94 is at   1.107883  0.796706  2.155865
      ESP Fit Center   95 is at   1.632883 -0.112620  2.155865
      ESP Fit Center   96 is at   0.966918  2.171153  1.387211
      ESP Fit Center   97 is at   0.966918 -0.577740  1.387211
      ESP Fit Center   98 is at   4.017341  1.772625  0.337211
      ESP Fit Center   99 is at   3.687831  1.779945 -0.712789
      ESP Fit Center  100 is at   2.913379  2.451012 -0.712789
      ESP Fit Center  101 is at   1.992593 -2.687490  0.092374
      ESP Fit Center  102 is at   3.041650 -2.687490  0.092374
      ESP Fit Center  103 is at   1.537122 -2.770567 -0.887626
      ESP Fit Center  104 is at   2.517122 -3.033157 -0.887626
      ESP Fit Center  105 is at   3.497122 -2.770567 -0.887626
      ESP Fit Center  106 is at   4.214532 -2.053157 -0.887626
      ESP Fit Center  107 is at   4.214532 -1.073157 -1.867626
      ESP Fit Center  108 is at   3.890355 -0.075445 -1.867626
      ESP Fit Center  109 is at   3.041650  0.541175 -1.867626
      ESP Fit Center  110 is at   1.992593 -2.687490 -1.867626
      ESP Fit Center  111 is at   3.041650 -2.687490 -1.867626
      ESP Fit Center  112 is at   3.890355 -2.070870 -1.867626
      ESP Fit Center  113 is at   3.497122 -1.073157 -2.585036
      ESP Fit Center  114 is at   3.007122 -0.224452 -2.585036
      ESP Fit Center  115 is at   2.027122 -0.224452 -2.585036
      ESP Fit Center  116 is at   1.537122 -1.073157 -2.585036
      ESP Fit Center  117 is at   2.027122 -1.921862 -2.585036
      ESP Fit Center  118 is at   3.007122 -1.921862 -2.585036
      ESP Fit Center  119 is at   2.517122 -1.073157 -2.847626
      ESP Fit Center  120 is at   0.647324 -2.257978  0.687743
      ESP Fit Center  121 is at   0.619626 -2.892331 -0.152257
      ESP Fit Center  122 is at  -0.456712 -2.702543 -1.190554
      ESP Fit Center  123 is at   0.619626 -2.892331 -1.190554
      ESP Fit Center  124 is at   0.647324 -2.257978 -2.030554
      ESP Fit Center  125 is at   0.342176 -1.318829 -2.351405
      ESP Fit Center  126 is at  -0.231047  2.625011  1.463003
      ESP Fit Center  127 is at  -0.913379  3.564160  1.463003
      ESP Fit Center  128 is at  -2.017414  3.205437  1.463003
      ESP Fit Center  129 is at   0.005440  3.652041  0.623003
      ESP Fit Center  130 is at  -0.941076  4.198512  0.623003
      ESP Fit Center  131 is at  -2.017414  4.008725  0.623003
      ESP Fit Center  132 is at  -2.719944  3.171482  0.623003
      ESP Fit Center  133 is at   0.005440  3.652041 -0.415294
      ESP Fit Center  134 is at  -0.941076  4.198512 -0.415294
      ESP Fit Center  135 is at  -2.017414  4.008725 -0.415294
      ESP Fit Center  136 is at  -2.719944  3.171482 -0.415294
      ESP Fit Center  137 is at  -0.913379  3.564160 -1.255294
      ESP Fit Center  138 is at  -2.017414  3.205437 -1.255294
      ESP Fit Center  139 is at  -2.771913 -2.794643  1.100603
      ESP Fit Center  140 is at  -1.667878 -3.153366  1.100603
      ESP Fit Center  141 is at  -2.771913 -3.597931  0.260603
      ESP Fit Center  142 is at  -1.695575 -3.787719  0.260603
      ESP Fit Center  143 is at  -0.749059 -3.241248  0.260603
      ESP Fit Center  144 is at  -2.771913 -3.597931 -0.777694
      ESP Fit Center  145 is at  -1.695575 -3.787719 -0.777694
      ESP Fit Center  146 is at  -0.749059 -3.241248 -0.777694
      ESP Fit Center  147 is at  -2.771913 -2.794643 -1.617694
      ESP Fit Center  148 is at  -1.667878 -3.153366 -1.617694
      ESP Fit Center  149 is at  -3.449373  1.594477  2.168030
      ESP Fit Center  150 is at  -3.144225  2.533625  1.847178
      ESP Fit Center  151 is at  -4.248260  2.174902  1.847178
      ESP Fit Center  152 is at  -4.248260  1.014051  1.847178
      ESP Fit Center  153 is at  -3.171922  3.167978  1.007178
      ESP Fit Center  154 is at  -4.248260  2.978190  1.007178
      ESP Fit Center  155 is at  -4.950790  2.140948  1.007178
      ESP Fit Center  156 is at  -3.171922  3.167978 -0.031119
      ESP Fit Center  157 is at  -4.248260  2.978190 -0.031119
      ESP Fit Center  158 is at  -4.950790  2.140948 -0.031119
      ESP Fit Center  159 is at  -4.248260  2.174902 -0.871119
      ESP Fit Center  160 is at   4.112381 -1.691935  2.808333
      ESP Fit Center  161 is at   5.099860 -1.691935  2.487481
      ESP Fit Center  162 is at   3.313494 -2.272361  2.487481
      ESP Fit Center  163 is at   4.417529 -2.631084  2.487481
      ESP Fit Center  164 is at   2.610964 -2.238407  1.647481
      ESP Fit Center  165 is at   3.313494 -3.075649  1.647481
      ESP Fit Center  166 is at   4.389832 -3.265437  1.647481
      ESP Fit Center  167 is at   5.336348 -2.718965  1.647481
      ESP Fit Center  168 is at   3.313494 -3.075649  0.609184
      ESP Fit Center  169 is at   4.389832 -3.265437  0.609184
      ESP Fit Center  170 is at   5.336348 -2.718965  0.609184
      ESP Fit Center  171 is at   4.417529 -2.631084 -0.230816
      ESP Fit Center  172 is at   6.578408 -0.385164  0.841248
      ESP Fit Center  173 is at   6.204600  0.641866  0.841248
      ESP Fit Center  174 is at   5.258084  1.188337  0.841248
      ESP Fit Center  175 is at   6.204600 -1.412194  0.841248
      ESP Fit Center  176 is at   6.578408 -0.385164 -0.197049
      ESP Fit Center  177 is at   6.204600  0.641866 -0.197049
      ESP Fit Center  178 is at   5.258084  1.188337 -0.197049
      ESP Fit Center  179 is at   6.204600 -1.412194 -0.197049
      ESP Fit Center  180 is at   5.968113 -0.385164 -1.037049
      ESP Fit Center  181 is at   5.285781  0.553984 -1.037049
      ESP Fit Center  182 is at   5.285781 -1.324313 -1.037049
      ESP Fit Center  183 is at   4.980633 -0.385164 -1.357901
      ESP Fit Center  184 is at   4.095599 -0.048924  3.506911
      ESP Fit Center  185 is at   5.083078 -0.048924  3.186059
      ESP Fit Center  186 is at   4.400747  0.890224  3.186059
      ESP Fit Center  187 is at   3.296711  0.531502  3.186059
      ESP Fit Center  188 is at   3.296711 -0.629350  3.186059
      ESP Fit Center  189 is at   4.400747 -0.988073  3.186059
      ESP Fit Center  190 is at   5.693374 -0.048924  2.346059
      ESP Fit Center  191 is at   5.319566  0.978106  2.346059
      ESP Fit Center  192 is at   4.373050  1.524577  2.346059
      ESP Fit Center  193 is at   4.373050  1.524577  1.307762
      ESP Fit Center  194 is at  -4.100976 -1.455100  3.019806
      ESP Fit Center  195 is at  -3.113497 -1.455100  2.698954
      ESP Fit Center  196 is at  -3.795828 -0.515952  2.698954
      ESP Fit Center  197 is at  -4.899864 -0.874675  2.698954
      ESP Fit Center  198 is at  -4.899864 -2.035526  2.698954
      ESP Fit Center  199 is at  -3.795828 -2.394249  2.698954
      ESP Fit Center  200 is at  -5.602393 -2.001572  1.858954
      ESP Fit Center  201 is at  -4.899864 -2.838814  1.858954
      ESP Fit Center  202 is at  -3.823525 -3.028601  1.858954
      ESP Fit Center  203 is at  -2.877009 -2.482130  1.858954
      ESP Fit Center  204 is at  -4.899864 -2.838814  0.820657
      ESP Fit Center  205 is at  -3.823525 -3.028601  0.820657
      ESP Fit Center  206 is at  -4.550567  0.809749  1.772852
      ESP Fit Center  207 is at  -5.654602  0.451026  1.772852
      ESP Fit Center  208 is at  -5.654602  1.254314  0.932852
      ESP Fit Center  209 is at  -6.357132  0.417071  0.932852
      ESP Fit Center  210 is at  -6.357132 -0.675871  0.932852
      ESP Fit Center  211 is at  -5.654602  1.254314 -0.105445
      ESP Fit Center  212 is at  -6.357132  0.417071 -0.105445
      ESP Fit Center  213 is at  -6.357132 -0.675871 -0.105445
      ESP Fit Center  214 is at  -4.550567  0.809749 -0.945445
      ESP Fit Center  215 is at  -5.654602  0.451026 -0.945445
      ESP Fit Center  216 is at  -5.858888 -2.165315  0.095742
      ESP Fit Center  217 is at  -5.156358 -3.002557  0.095742
      ESP Fit Center  218 is at  -4.080020 -3.192345  0.095742
      ESP Fit Center  219 is at  -5.858888 -1.072372 -0.942555
      ESP Fit Center  220 is at  -5.858888 -2.165315 -0.942555
      ESP Fit Center  221 is at  -5.156358 -3.002557 -0.942555
      ESP Fit Center  222 is at  -4.080020 -3.192345 -0.942555
      ESP Fit Center  223 is at  -3.369991 -1.618844 -1.782555
      ESP Fit Center  224 is at  -4.052323 -0.679695 -1.782555
      ESP Fit Center  225 is at  -5.156358 -1.038418 -1.782555
      ESP Fit Center  226 is at  -5.156358 -2.199269 -1.782555
      ESP Fit Center  227 is at  -4.052323 -2.557992 -1.782555
      ESP Fit Center  228 is at  -4.357470 -1.618844 -2.103406
      ESP Fit Center  229 is at   3.026907  1.024796 -2.113932
      ESP Fit Center  230 is at   2.653099  2.051826 -2.113932
      ESP Fit Center  231 is at   2.416612  1.024796 -2.953932
      ESP Fit Center  232 is at   1.734280  1.963944 -2.953932
      ESP Fit Center  233 is at   0.630245  1.605222 -2.953932
      ESP Fit Center  234 is at   0.630245  0.444370 -2.953932
      ESP Fit Center  235 is at   1.734280  0.085647 -2.953932
      ESP Fit Center  236 is at   1.429132  1.024796 -3.274784
      ESP Fit Center  237 is at   1.416840  3.329243  0.853054
      ESP Fit Center  238 is at   0.312805  2.970520  0.853054
      ESP Fit Center  239 is at   2.335659  3.417125  0.013054
      ESP Fit Center  240 is at   1.389143  3.963596  0.013054
      ESP Fit Center  241 is at   0.312805  3.773808  0.013054
      ESP Fit Center  242 is at   2.335659  3.417125 -1.025243
      ESP Fit Center  243 is at   1.389143  3.963596 -1.025243
      ESP Fit Center  244 is at   0.312805  3.773808 -1.025243
      ESP Fit Center  245 is at   1.416840  3.329243 -1.865243
      ESP Fit Center  246 is at   0.312805  2.970520 -1.865243
      ESP Fit Center  247 is at   2.489841  1.409821  2.748742
      ESP Fit Center  248 is at   3.477320  1.409821  2.427890
      ESP Fit Center  249 is at   2.794989  2.348969  2.427890
      ESP Fit Center  250 is at   1.690954  1.990246  2.427890
      ESP Fit Center  251 is at   1.690954  0.829395  2.427890
      ESP Fit Center  252 is at   3.713808  2.436851  1.587890
      ESP Fit Center  253 is at   2.767292  2.983322  1.587890
      ESP Fit Center  254 is at   1.690954  2.793534  1.587890
      ESP Fit Center  255 is at   3.713808  2.436851  0.549593
      ESP Fit Center  256 is at   2.767292  2.983322  0.549593
      ESP Fit Center  257 is at  -0.475721 -0.655099  1.993389
      ESP Fit Center  258 is at   0.565600 -0.655099  1.755714
      ESP Fit Center  259 is at   0.044939 -1.556910  1.755714
      ESP Fit Center  260 is at   0.303762 -2.361929  1.089764
      ESP Fit Center  261 is at   1.102803 -1.669555  1.089764
      ESP Fit Center  262 is at  -0.742760 -2.512396 -1.902987
      ESP Fit Center  263 is at   0.565600 -0.655099 -2.568936
      ESP Fit Center  264 is at  -0.996382  0.246711 -2.568936
      ESP Fit Center  265 is at  -1.517042 -0.655099 -2.568936
      ESP Fit Center  266 is at  -0.996382 -1.556910 -2.568936
      ESP Fit Center  267 is at   0.044939 -1.556910 -2.568936
      ESP Fit Center  268 is at  -0.475721 -0.655099 -2.806611
      ESP Fit Center  269 is at  -1.331082  1.549115  2.418710
      ESP Fit Center  270 is at  -0.289761  1.549115  2.181035
      ESP Fit Center  271 is at  -0.810421  2.450925  2.181035
      ESP Fit Center  272 is at  -1.851742  2.450925  2.181035
      ESP Fit Center  273 is at  -0.810421  0.647305  2.181035
      ESP Fit Center  274 is at   0.247443  2.563571  1.515085
      ESP Fit Center  275 is at  -2.559860  2.967200 -1.477666
      ESP Fit Center  276 is at  -0.810421  2.450925 -2.143615
      ESP Fit Center  277 is at  -1.851742  2.450925 -2.143615
      ESP Fit Center  278 is at  -2.372403  1.549115 -2.143615
      ESP Fit Center  279 is at  -1.851742  0.647305 -2.143615
      ESP Fit Center  280 is at  -1.331082  1.549115 -2.381290
      ESP Fit Center  281 is at  -1.740669 -1.157960  2.214300
      ESP Fit Center  282 is at  -0.699348 -1.157960  1.976626
      ESP Fit Center  283 is at  -1.220009 -0.256150  1.976626
      ESP Fit Center  284 is at  -2.261329 -2.059771  1.976626
      ESP Fit Center  285 is at  -1.220009 -2.059771  1.976626
      ESP Fit Center  286 is at  -0.961186 -2.864790  1.310676
      ESP Fit Center  287 is at  -0.281811 -2.987311  0.348351
      ESP Fit Center  288 is at  -2.261329 -0.256150 -2.348025
      ESP Fit Center  289 is at  -2.781990 -1.157960 -2.348025
      ESP Fit Center  290 is at  -2.261329 -2.059771 -2.348025
      ESP Fit Center  291 is at  -1.220009 -2.059771 -2.348025
      ESP Fit Center  292 is at  -1.740669 -1.157960 -2.585700
      ESP Fit Center  293 is at  -2.582287  0.996917  2.633538
      ESP Fit Center  294 is at  -1.540966  0.996917  2.395863
      ESP Fit Center  295 is at  -2.061626  1.898727  2.395863
      ESP Fit Center  296 is at  -3.102947  1.898727  2.395863
      ESP Fit Center  297 is at  -3.623608  0.996917  2.395863
      ESP Fit Center  298 is at  -2.061626  0.095107  2.395863
      ESP Fit Center  299 is at  -3.811064  2.415002 -1.262838
      ESP Fit Center  300 is at  -4.382675  1.525559 -1.262838
      ESP Fit Center  301 is at  -3.102947  1.898727 -1.928788
      ESP Fit Center  302 is at  -3.623608  0.996917 -1.928788
      ESP Fit Center  303 is at  -2.582287  0.996917 -2.166462
      ESP Fit Center  304 is at  -0.243624  0.729257  2.093610
      ESP Fit Center  305 is at   0.277037  1.631068  1.855935
      ESP Fit Center  306 is at   0.277037 -0.172553  1.855935
      ESP Fit Center  307 is at  -0.764284  1.631068 -2.468716
      ESP Fit Center  308 is at  -1.284945  0.729257 -2.468716
      ESP Fit Center  309 is at  -0.243624  0.729257 -2.706390
      ESP Fit Center  310 is at   1.637358 -1.763840  1.532769
      ESP Fit Center  311 is at   4.324994  1.483596 -0.497657
      ESP Fit Center  312 is at   4.444660  0.668702 -1.459982
      ESP Fit Center  313 is at   3.645618  1.361075 -1.459982
      ESP Fit Center  314 is at   3.558448 -1.526646  3.059432
      ESP Fit Center  315 is at   4.599769 -1.526646  3.059432
      ESP Fit Center  316 is at   5.955504 -0.624836  2.393482
      ESP Fit Center  317 is at   2.278721 -1.153478  2.393482
      ESP Fit Center  318 is at   5.657633 -1.639292  2.393482
      ESP Fit Center  319 is at   5.537967  1.204514  1.431157
      ESP Fit Center  320 is at   6.187220 -1.640049  1.431157
      ESP Fit Center  321 is at   4.599769  1.656327  0.363056
      ESP Fit Center  322 is at   4.858592 -2.331665 -0.599269
      ESP Fit Center  323 is at  -3.592938 -0.024551  2.546196
      ESP Fit Center  324 is at  -4.634259 -0.024551  2.546196
      ESP Fit Center  325 is at  -6.221710 -1.941575  0.917921
      ESP Fit Center  326 is at  -5.572457 -2.755712  0.917921
      ESP Fit Center  327 is at  -4.634259 -0.024551 -1.778455
      ESP Fit Center  328 is at   0.619075  2.201368  1.589150
      ESP Fit Center  329 is at  -0.089042  2.717643 -2.069551
      ESP Fit Center  330 is at  -2.776646 -0.337498  2.530976
      ESP Fit Center  331 is at  -1.735325 -0.337498  2.293301
      ESP Fit Center  332 is at  -2.255985 -1.239308  2.293301
      ESP Fit Center  333 is at  -3.297306  0.564313 -2.031349
      ESP Fit Center  334 is at  -3.817967 -0.337498 -2.031349
      ESP Fit Center  335 is at  -3.297306 -1.239308 -2.031349
      ESP Fit Center  336 is at  -2.776646 -0.337498 -2.269024
      ESP Fit Center  337 is at   1.116562  0.796706  2.499537
      ESP Fit Center  338 is at   1.637222 -0.105104  2.499537
      ESP Fit Center  339 is at   0.929105 -0.621379  1.833587
      ESP Fit Center  340 is at   4.265994  1.811919 -0.196839
      ESP Fit Center  341 is at   3.616741  2.626057 -0.196839
      ESP Fit Center  342 is at   3.736407  1.811162 -1.159164
      ESP Fit Center  343 is at   1.975940 -2.738745  0.508991
      ESP Fit Center  344 is at   1.742722 -3.115082 -0.389179
      ESP Fit Center  345 is at   2.780355 -3.241073 -0.389179
      ESP Fit Center  346 is at   3.757684 -2.870421 -0.389179
      ESP Fit Center  347 is at   1.742722 -3.115082 -1.386073
      ESP Fit Center  348 is at   2.780355 -3.241073 -1.386073
      ESP Fit Center  349 is at   3.757684 -2.870421 -1.386073
      ESP Fit Center  350 is at   4.450815 -2.088038 -1.386073
      ESP Fit Center  351 is at   4.268424 -1.073157 -2.284243
      ESP Fit Center  352 is at   3.933955 -0.043767 -2.284243
      ESP Fit Center  353 is at   1.100288 -2.102547 -2.284243
      ESP Fit Center  354 is at   1.975940 -2.738745 -2.284243
      ESP Fit Center  355 is at   3.058304 -2.738745 -2.284243
      ESP Fit Center  356 is at   3.933955 -2.102547 -2.284243
      ESP Fit Center  357 is at   3.489021 -1.073157 -2.905796
      ESP Fit Center  358 is at   3.003072 -0.231468 -2.905796
      ESP Fit Center  359 is at   1.545222 -1.073157 -2.905796
      ESP Fit Center  360 is at   2.031172 -1.914847 -2.905796
      ESP Fit Center  361 is at   3.003072 -1.914847 -2.905796
      ESP Fit Center  362 is at   2.517122 -1.073157 -3.127626
      ESP Fit Center  363 is at   0.822176 -2.150214  0.991363
      ESP Fit Center  364 is at   0.856000 -2.900217  0.288595
      ESP Fit Center  365 is at   0.342176 -3.238829 -0.671405
      ESP Fit Center  366 is at   1.302176 -2.981598 -0.671405
      ESP Fit Center  367 is at  -0.171648 -2.900217 -1.631405
      ESP Fit Center  368 is at   0.856000 -2.900217 -1.631405
      ESP Fit Center  369 is at  -0.137824 -2.150214 -2.334174
      ESP Fit Center  370 is at   0.822176 -2.150214 -2.334174
      ESP Fit Center  371 is at   0.342176 -1.318829 -2.591405
      ESP Fit Center  372 is at  -0.738527  3.456396  1.766623
      ESP Fit Center  373 is at  -1.698527  3.456396  1.766623
      ESP Fit Center  374 is at   0.126681  3.602362  1.063854
      ESP Fit Center  375 is at  -0.704703  4.206398  1.063854
      ESP Fit Center  376 is at  -1.732351  4.206398  1.063854
      ESP Fit Center  377 is at  -2.563735  3.602362  1.063854
      ESP Fit Center  378 is at  -0.258527  4.287780  0.103854
      ESP Fit Center  379 is at  -1.218527  4.545011  0.103854
      ESP Fit Center  380 is at  -2.178527  4.287780  0.103854
      ESP Fit Center  381 is at  -2.881295  3.585011  0.103854
      ESP Fit Center  382 is at  -0.704703  4.206398 -0.856146
      ESP Fit Center  383 is at  -1.732351  4.206398 -0.856146
      ESP Fit Center  384 is at  -2.563735  3.602362 -0.856146
      ESP Fit Center  385 is at  -0.738527  3.456396 -1.558915
      ESP Fit Center  386 is at  -1.698527  3.456396 -1.558915
      ESP Fit Center  387 is at  -2.453025 -3.045602  1.404223
      ESP Fit Center  388 is at  -1.493025 -3.045602  1.404223
      ESP Fit Center  389 is at  -3.318234 -3.191569  0.701455
      ESP Fit Center  390 is at  -2.486849 -3.795605  0.701455
      ESP Fit Center  391 is at  -1.459202 -3.795605  0.701455
      ESP Fit Center  392 is at  -0.627817 -3.191569  0.701455
      ESP Fit Center  393 is at  -2.933025 -3.876986 -0.258545
      ESP Fit Center  394 is at  -1.973025 -4.134218 -0.258545
      ESP Fit Center  395 is at  -1.013025 -3.876986 -0.258545
      ESP Fit Center  396 is at  -0.310257 -3.174218 -0.258545
      ESP Fit Center  397 is at  -3.318234 -3.191569 -1.218545
      ESP Fit Center  398 is at  -2.486849 -3.795605 -1.218545
      ESP Fit Center  399 is at  -1.459202 -3.795605 -1.218545
      ESP Fit Center  400 is at  -0.627817 -3.191569 -1.218545
      ESP Fit Center  401 is at  -2.453025 -3.045602 -1.921314
      ESP Fit Center  402 is at  -1.493025 -3.045602 -1.921314
      ESP Fit Center  403 is at  -3.449373  1.594477  2.408030
      ESP Fit Center  404 is at  -2.969373  2.425861  2.150799
      ESP Fit Center  405 is at  -3.929373  2.425861  2.150799
      ESP Fit Center  406 is at  -4.409373  1.594477  2.150799
      ESP Fit Center  407 is at  -2.935549  3.175864  1.448030
      ESP Fit Center  408 is at  -3.963197  3.175864  1.448030
      ESP Fit Center  409 is at  -4.794581  2.571828  1.448030
      ESP Fit Center  410 is at  -5.112142  1.594477  1.448030
      ESP Fit Center  411 is at  -3.449373  3.514477  0.488030
      ESP Fit Center  412 is at  -4.409373  3.257245  0.488030
      ESP Fit Center  413 is at  -5.112142  2.554477  0.488030
      ESP Fit Center  414 is at  -3.963197  3.175864 -0.471970
      ESP Fit Center  415 is at  -4.794581  2.571828 -0.471970
      ESP Fit Center  416 is at  -5.112142  1.594477 -0.471970
      ESP Fit Center  417 is at  -3.929373  2.425861 -1.174739
      ESP Fit Center  418 is at   4.112381 -1.691935  3.048333
      ESP Fit Center  419 is at   3.632381 -2.523320  2.791102
      ESP Fit Center  420 is at   4.592381 -2.523320  2.791102
      ESP Fit Center  421 is at   2.767173 -2.669286  2.088333
      ESP Fit Center  422 is at   3.598557 -3.273322  2.088333
      ESP Fit Center  423 is at   4.626205 -3.273322  2.088333
      ESP Fit Center  424 is at   5.457589 -2.669286  2.088333
      ESP Fit Center  425 is at   2.449612 -2.651935  1.128333
      ESP Fit Center  426 is at   3.152381 -3.354704  1.128333
      ESP Fit Center  427 is at   4.112381 -3.611935  1.128333
      ESP Fit Center  428 is at   5.072381 -3.354704  1.128333
      ESP Fit Center  429 is at   5.775150 -2.651935  1.128333
      ESP Fit Center  430 is at   3.598557 -3.273322  0.168333
      ESP Fit Center  431 is at   4.626205 -3.273322  0.168333
      ESP Fit Center  432 is at   5.457589 -2.669286  0.168333
      ESP Fit Center  433 is at   4.592381 -2.523320 -0.534436
      ESP Fit Center  434 is at   6.643402 -0.385164  1.282099
      ESP Fit Center  435 is at   6.325842  0.592187  1.282099
      ESP Fit Center  436 is at   6.900633 -0.385164  0.322099
      ESP Fit Center  437 is at   6.643402  0.574836  0.322099
      ESP Fit Center  438 is at   5.940633  1.277604  0.322099
      ESP Fit Center  439 is at   4.980633  1.534836  0.322099
      ESP Fit Center  440 is at   5.940633 -2.047933  0.322099
      ESP Fit Center  441 is at   6.643402 -1.345164  0.322099
      ESP Fit Center  442 is at   6.643402 -0.385164 -0.637901
      ESP Fit Center  443 is at   6.325842  0.592187 -0.637901
      ESP Fit Center  444 is at   5.494457  1.196223 -0.637901
      ESP Fit Center  445 is at   5.494457 -1.966551 -0.637901
      ESP Fit Center  446 is at   6.325842 -1.362515 -0.637901
      ESP Fit Center  447 is at   5.940633 -0.385164 -1.340669
      ESP Fit Center  448 is at   5.460633  0.446220 -1.340669
      ESP Fit Center  449 is at   5.460633 -1.216549 -1.340669
      ESP Fit Center  450 is at   4.980633 -0.385164 -1.597901
      ESP Fit Center  451 is at   4.095599 -0.048924  3.746911
      ESP Fit Center  452 is at   5.055599 -0.048924  3.489679
      ESP Fit Center  453 is at   4.575599  0.782460  3.489679
      ESP Fit Center  454 is at   3.615599  0.782460  3.489679
      ESP Fit Center  455 is at   3.135599 -0.048924  3.489679
      ESP Fit Center  456 is at   3.615599 -0.880308  3.489679
      ESP Fit Center  457 is at   4.575599 -0.880308  3.489679
      ESP Fit Center  458 is at   5.758368 -0.048924  2.786911
      ESP Fit Center  459 is at   5.440807  0.928427  2.786911
      ESP Fit Center  460 is at   4.609423  1.532463  2.786911
      ESP Fit Center  461 is at   3.581775  1.532463  2.786911
      ESP Fit Center  462 is at   2.432830 -0.048924  2.786911
      ESP Fit Center  463 is at   5.758368  0.911076  1.826911
      ESP Fit Center  464 is at   5.055599  1.613845  1.826911
      ESP Fit Center  465 is at  -4.100976 -1.455100  3.259806
      ESP Fit Center  466 is at  -3.140976 -1.455100  3.002575
      ESP Fit Center  467 is at  -3.620976 -0.623716  3.002575
      ESP Fit Center  468 is at  -4.580976 -0.623716  3.002575
      ESP Fit Center  469 is at  -5.060976 -1.455100  3.002575
      ESP Fit Center  470 is at  -4.580976 -2.286485  3.002575
      ESP Fit Center  471 is at  -3.620976 -2.286485  3.002575
      ESP Fit Center  472 is at  -2.438207 -1.455100  2.299806
      ESP Fit Center  473 is at  -5.763745 -1.455100  2.299806
      ESP Fit Center  474 is at  -5.446184 -2.432451  2.299806
      ESP Fit Center  475 is at  -4.614800 -3.036487  2.299806
      ESP Fit Center  476 is at  -3.587152 -3.036487  2.299806
      ESP Fit Center  477 is at  -2.755768 -2.432451  2.299806
      ESP Fit Center  478 is at  -5.763745 -2.415100  1.339806
      ESP Fit Center  479 is at  -5.060976 -3.117869  1.339806
      ESP Fit Center  480 is at  -4.100976 -3.375100  1.339806
      ESP Fit Center  481 is at  -3.140976 -3.117869  1.339806
      ESP Fit Center  482 is at  -5.335715  0.701984  2.076472
      ESP Fit Center  483 is at  -5.815715 -0.129400  2.076472
      ESP Fit Center  484 is at  -5.369539  1.451987  1.373704
      ESP Fit Center  485 is at  -6.200923  0.847951  1.373704
      ESP Fit Center  486 is at  -6.518484 -0.129400  1.373704
      ESP Fit Center  487 is at  -5.815715  1.533369  0.413704
      ESP Fit Center  488 is at  -6.518484  0.830600  0.413704
      ESP Fit Center  489 is at  -6.775715 -0.129400  0.413704
      ESP Fit Center  490 is at  -6.518484 -1.089400  0.413704
      ESP Fit Center  491 is at  -5.369539  1.451987 -0.546296
      ESP Fit Center  492 is at  -6.200923  0.847951 -0.546296
      ESP Fit Center  493 is at  -6.518484 -0.129400 -0.546296
      ESP Fit Center  494 is at  -5.335715  0.701984 -1.249065
      ESP Fit Center  495 is at  -5.815715 -0.129400 -1.249065
      ESP Fit Center  496 is at  -4.871294 -3.200231  0.536594
      ESP Fit Center  497 is at  -6.277470 -1.618844 -0.423406
      ESP Fit Center  498 is at  -6.020239 -2.578844 -0.423406
      ESP Fit Center  499 is at  -5.317470 -3.281612 -0.423406
      ESP Fit Center  500 is at  -4.357470 -3.538844 -0.423406
      ESP Fit Center  501 is at  -6.020239 -1.618844 -1.383406
      ESP Fit Center  502 is at  -5.702679 -2.596195 -1.383406
      ESP Fit Center  503 is at  -4.871294 -3.200231 -1.383406
      ESP Fit Center  504 is at  -3.843647 -3.200231 -1.383406
      ESP Fit Center  505 is at  -3.397470 -1.618844 -2.086175
      ESP Fit Center  506 is at  -3.877470 -0.787459 -2.086175
[...]
  441 Fit       0.079427
  442 Fit       0.081449
  443 Fit       0.086512
  444 Fit       0.094755
  445 Fit       0.074685
  446 Fit       0.077756
  447 Fit       0.081384
  448 Fit       0.088728
  449 Fit       0.074995
  450 Fit       0.080747
  451 Fit       0.096445
  452 Fit       0.090605
  453 Fit       0.098013
  454 Fit       0.107707
  455 Fit       0.105456
  456 Fit       0.096395
  457 Fit       0.090406
  458 Fit       0.088004
  459 Fit       0.093317
  460 Fit       0.105420
  461 Fit       0.124819
  462 Fit       0.117055
  463 Fit       0.093524
  464 Fit       0.103806
  465 Fit       0.125624
  466 Fit       0.133312
  467 Fit       0.135630
  468 Fit       0.129631
  469 Fit       0.122555
  470 Fit       0.121352
  471 Fit       0.126430
  472 Fit       0.147556
  473 Fit       0.124659
  474 Fit       0.120870
  475 Fit       0.122175
  476 Fit       0.128755
  477 Fit       0.139042
  478 Fit       0.127456
  479 Fit       0.126077
  480 Fit       0.131395
  481 Fit       0.145512
  482 Fit       0.138135
  483 Fit       0.130692
  484 Fit       0.147017
  485 Fit       0.129897
  486 Fit       0.125090
  487 Fit       0.140314
  488 Fit       0.127287
  489 Fit       0.123499
  490 Fit       0.128415
  491 Fit       0.146016
  492 Fit       0.129866
  493 Fit       0.125275
  494 Fit       0.138639
  495 Fit       0.131472
  496 Fit       0.132292
  497 Fit       0.127860
  498 Fit       0.122494
  499 Fit       0.123374
  500 Fit       0.131473
  501 Fit       0.122730
  502 Fit       0.120370
  503 Fit       0.124220
  504 Fit       0.136913
  505 Fit       0.145448
  506 Fit       0.142571
  507 Fit       0.132006
  508 Fit       0.123823
  509 Fit       0.124489
  510 Fit       0.134660
  511 Fit       0.130529
  512 Fit       0.093229
  513 Fit       0.102539
  514 Fit       0.110097
  515 Fit       0.097743
  516 Fit       0.094148
  517 Fit       0.102572
  518 Fit       0.110293
  519 Fit       0.113071
  520 Fit       0.102417
  521 Fit       0.088658
  522 Fit       0.101195
  523 Fit       0.142263
  524 Fit       0.143376
  525 Fit       0.132365
  526 Fit       0.126704
  527 Fit       0.135158
  528 Fit       0.118551
  529 Fit       0.117494
  530 Fit       0.122178
  531 Fit       0.136299
  532 Fit       0.112424
  533 Fit       0.114519
  534 Fit       0.122739
  535 Fit       0.138232
  536 Fit       0.114187
  537 Fit       0.121800
  538 Fit       0.126673
  539 Fit       0.127322
  540 Fit       0.129897
  541 Fit       0.127265
  542 Fit       0.122356
  543 Fit       0.124792
  544 Fit       0.127637
  545 Fit       0.134481
  546 Fit       0.140019
  547 Fit       0.120421
  548 Fit       0.123951
  549 Fit       0.133544
  550 Fit       0.125302
  551 Fit       0.117552
  552 Fit       0.118205
  553 Fit       0.115706
  554 Fit       0.120205
  555 Fit       0.116193
  556 Fit       0.099673
  557 Fit       0.118336
  558 Fit       0.117493
  559 Fit       0.111283
  560 Fit       0.099971
  561 Fit       0.107687
  562 Fit       0.125738
  563 Fit       0.125569
  564 Fit       0.124598
  565 Fit       0.128223
  566 Fit       0.127641
  567 Fit       0.135233
  568 Fit       0.131817
  569 Fit       0.128127
  570 Fit       0.122207
  571 Fit       0.123222
  572 Fit       0.123154
  573 Fit       0.118896
  574 Fit       0.123634
  575 Fit       0.121700
  576 Fit       0.134195
  577 Fit       0.125543
  578 Fit       0.139126
  579 Fit       0.126477
  580 Fit       0.124640
  581 Fit       0.122694
  582 Fit       0.120166
  583 Fit       0.126011
  584 Fit       0.127177
  585 Fit       0.122552
  586 Fit       0.115930
  587 Fit       0.118110
  588 Fit       0.131008
  589 Fit       0.128603
  590 Fit       0.128381
  591 Fit       0.132222
  592 Fit       0.138267
  593 Fit       0.134571
  594 Fit       0.134883
  595 Fit       0.135459
  596 Fit       0.128928
  597 Fit       0.134699
  598 Fit       0.124862
  599 Fit       0.130188
  600 Fit       0.127304
  601 Fit       0.126135
  602 Fit       0.121106
  603 Fit       0.121378
  604 Fit       0.121350
  605 Fit       0.118271
  606 Fit       0.108689
  607 Fit       0.106484
  608 Fit       0.100151
  609 Fit       0.074823
  610 Fit       0.086690
  611 Fit       0.097429
  612 Fit       0.091870
  613 Fit       0.086145
  614 Fit       0.082375
  615 Fit       0.105232
  616 Fit       0.080656
  617 Fit       0.080056
  618 Fit       0.084798
  619 Fit       0.077857
  620 Fit       0.101670
  621 Fit       0.105166
  622 Fit       0.072730
  623 Fit       0.062774
  624 Fit       0.130391
  625 Fit       0.123131
  626 Fit       0.119649
  627 Fit       0.117212
  628 Fit       0.116843
  629 Fit       0.118219
  630 Fit       0.130807
  631 Fit       0.119780
  632 Fit       0.123230
  633 Fit       0.131197
  634 Fit       0.102808
  635 Fit       0.106728
  636 Fit       0.122193
  637 Fit       0.137409
  638 Fit       0.133887
  639 Fit       0.137019
  640 Fit       0.131164
  641 Fit       0.132676
  642 Fit       0.129640
  643 Fit       0.117644
  644 Fit       0.111905
  645 Fit       0.114077
  646 Fit       0.110771
  647 Fit       0.101599
  648 Fit       0.104906
  649 Fit       0.099543
  650 Fit       0.084060
  651 Fit       0.071798
  652 Fit       0.061901
  653 Fit       0.062295
  654 Fit       0.050603
  655 Fit       0.049263
  656 Fit       0.056792
  657 Fit       0.056355
  658 Fit       0.069551
  659 Fit       0.072870
  660 Fit       0.054032
  661 Fit       0.045390
  662 Fit       0.046799
  663 Fit       0.052698
  664 Fit       0.066784
  665 Fit       0.073791
  666 Fit       0.058394
  667 Fit       0.048398
  668 Fit       0.058590
  669 Fit       0.120613
  670 Fit       0.099426
  671 Fit       0.101715
  672 Fit       0.106135
  673 Fit       0.080752
  674 Fit       0.082632
  675 Fit       0.125733
  676 Fit       0.127244
  677 Fit       0.135430
  678 Fit       0.124053
  679 Fit       0.121802
  680 Fit       0.129099
  681 Fit       0.127860
  682 Fit       0.120623
  683 Fit       0.121381
  684 Fit       0.131108
  685 Fit       0.124494
  686 Fit       0.119996
  687 Fit       0.124393
  688 Fit       0.126263
  689 Fit       0.122469
  690 Fit       0.138029
  691 Fit       0.128981
  692 Fit       0.136782
  693 Fit       0.125371
  694 Fit       0.121822
  695 Fit       0.138002
  696 Fit       0.125059
  697 Fit       0.119485
  698 Fit       0.118994
  699 Fit       0.130625
  700 Fit       0.120920
  701 Fit       0.118063
  702 Fit       0.125630
  703 Fit       0.120611
  704 Fit       0.130606
  705 Fit       0.137127
  706 Fit       0.130374
  707 Fit       0.128344
  708 Fit       0.134495
  709 Fit       0.137782
  710 Fit       0.128744
  711 Fit       0.128602
  712 Fit       0.136844
  713 Fit       0.132554
  714 Fit       0.129302
  715 Fit       0.135776
  716 Fit       0.087228
  717 Fit       0.081803
  718 Fit       0.100612
  719 Fit       0.089456
  720 Fit       0.082105
  721 Fit       0.078142
  722 Fit       0.077343
  723 Fit       0.088010
  724 Fit       0.080424
  725 Fit       0.076278
  726 Fit       0.074427
  727 Fit       0.075217
  728 Fit       0.069768
  729 Fit       0.070492
  730 Fit       0.072863
  731 Fit       0.079422
  732 Fit       0.083722
  733 Fit       0.076963
  734 Fit       0.080683
  735 Fit       0.087169
  736 Fit       0.098939
  737 Fit       0.075106
  738 Fit       0.076441
  739 Fit       0.081037
  740 Fit       0.088585
  741 Fit       0.100981
  742 Fit       0.071198
  743 Fit       0.073435
  744 Fit       0.076522
  745 Fit       0.084107
  746 Fit       0.070335
  747 Fit       0.075658
  748 Fit       0.091947
  749 Fit       0.086011
  750 Fit       0.093115
  751 Fit       0.103068
  752 Fit       0.101560
  753 Fit       0.092773
  754 Fit       0.086349
  755 Fit       0.083655
  756 Fit       0.087990
  757 Fit       0.097805
  758 Fit       0.114516
  759 Fit       0.097353
  760 Fit       0.118380
  761 Fit       0.126370
  762 Fit       0.129151
  763 Fit       0.122974
  764 Fit       0.115286
  765 Fit       0.113777
  766 Fit       0.118981
  767 Fit       0.121114
  768 Fit       0.114893
  769 Fit       0.113217
  770 Fit       0.115954
  771 Fit       0.123169
  772 Fit       0.133041
  773 Fit       0.118716
  774 Fit       0.119751
  775 Fit       0.126940
  776 Fit       0.130643
  777 Fit       0.123363
  778 Fit       0.126266
  779 Fit       0.118166
  780 Fit       0.118668
  781 Fit       0.139195
  782 Fit       0.122727
  783 Fit       0.116322
  784 Fit       0.116715
  785 Fit       0.126145
  786 Fit       0.118369
  787 Fit       0.119263
  788 Fit       0.131198
  789 Fit       0.124367
  790 Fit       0.116949
  791 Fit       0.114507
  792 Fit       0.117333
  793 Fit       0.127496
  794 Fit       0.118988
  795 Fit       0.113373
  796 Fit       0.113179
  797 Fit       0.118679
  798 Fit       0.132947
  799 Fit       0.125275
  800 Fit       0.116433
  801 Fit       0.116647
  802 Fit       0.126831
  803 Fit       0.123082
  804 Fit       0.088158
  805 Fit       0.096611
  806 Fit       0.103438
  807 Fit       0.088504
  808 Fit       0.096897
  809 Fit       0.104790
  810 Fit       0.107746
  811 Fit       0.097290
  812 Fit       0.083359
  813 Fit       0.095475
  814 Fit       0.137391
  815 Fit       0.120057
  816 Fit       0.124739
  817 Fit       0.112775
  818 Fit       0.110770
  819 Fit       0.113694
  820 Fit       0.123958
  821 Fit       0.106433
  822 Fit       0.107294
  823 Fit       0.113284
  824 Fit       0.125768
  825 Fit       0.108220
  826 Fit       0.115780
  827 Fit       0.118816
  828 Fit       0.118350
  829 Fit       0.121935
  830 Fit       0.121472
  831 Fit       0.115846
  832 Fit       0.117692
  833 Fit       0.123972
  834 Fit       0.131910
  835 Fit       0.112515
  836 Fit       0.114796
  837 Fit       0.122710
  838 Fit       0.121184
  839 Fit       0.114664
  840 Fit       0.111464
  841 Fit       0.110729
  842 Fit       0.106975
  843 Fit       0.095315
  844 Fit       0.111936
  845 Fit       0.111186
  846 Fit       0.105097
  847 Fit       0.095043
  848 Fit       0.102600
  849 Fit       0.120727
  850 Fit       0.120488
  851 Fit       0.118975
  852 Fit       0.121700
  853 Fit       0.122607
  854 Fit       0.127165
  855 Fit       0.121691
  856 Fit       0.119388
  857 Fit       0.119182
  858 Fit       0.114498
  859 Fit       0.115723
  860 Fit       0.116363
  861 Fit       0.113312
  862 Fit       0.117547
  863 Fit       0.115972
  864 Fit       0.120757
  865 Fit       0.120505
  866 Fit       0.125539
  867 Fit       0.117550
  868 Fit       0.114209
  869 Fit       0.123536
  870 Fit       0.110261
  871 Fit       0.118602
  872 Fit       0.118781
  873 Fit       0.114313
  874 Fit       0.108741
  875 Fit       0.111786
  876 Fit       0.123880
  877 Fit       0.122754
  878 Fit       0.121743
  879 Fit       0.123848
  880 Fit       0.128830
  881 Fit       0.127277
  882 Fit       0.125034
  883 Fit       0.129473
  884 Fit       0.123550
  885 Fit       0.120039
  886 Fit       0.124659
  887 Fit       0.118205
  888 Fit       0.122392
  889 Fit       0.120855
  890 Fit       0.121863
  891 Fit       0.117991
  892 Fit       0.114333
  893 Fit       0.114827
  894 Fit       0.111154
  895 Fit       0.105211
  896 Fit       0.100495
  897 Fit       0.092243
  898 Fit       0.080398
  899 Fit       0.088378
  900 Fit       0.082849
  901 Fit       0.079113
  902 Fit       0.100670
  903 Fit       0.091905
  904 Fit       0.077445
  905 Fit       0.076217
  906 Fit       0.080483
  907 Fit       0.100353
  908 Fit       0.074468
  909 Fit       0.085132
  910 Fit       0.095084
  911 Fit       0.073262
  912 Fit       0.094388
  913 Fit       0.071117
  914 Fit       0.097075
  915 Fit       0.067967
  916 Fit       0.134163
  917 Fit       0.122998
  918 Fit       0.115220
  919 Fit       0.110080
  920 Fit       0.110154
  921 Fit       0.109339
  922 Fit       0.108558
  923 Fit       0.110475
  924 Fit       0.114924
  925 Fit       0.123526
  926 Fit       0.109663
  927 Fit       0.109583
  928 Fit       0.111284
  929 Fit       0.122831
  930 Fit       0.115703
  931 Fit       0.123214
  932 Fit       0.103043
  933 Fit       0.095910
  934 Fit       0.099175
  935 Fit       0.100042
  936 Fit       0.106179
  937 Fit       0.113351
  938 Fit       0.129473
  939 Fit       0.127030
  940 Fit       0.128927
  941 Fit       0.123361
  942 Fit       0.124206
  943 Fit       0.113434
  944 Fit       0.108663
  945 Fit       0.122900
  946 Fit       0.118223
  947 Fit       0.111290
  948 Fit       0.100384
  949 Fit       0.107068
  950 Fit       0.095309
  951 Fit       0.098156
  952 Fit       0.094818
  953 Fit       0.075053
  954 Fit       0.071969
  955 Fit       0.060252
  956 Fit       0.056978
  957 Fit       0.075907
  958 Fit       0.058979
  959 Fit       0.051000
  960 Fit       0.050157
  961 Fit       0.055494
  962 Fit       0.056663
  963 Fit       0.066342
  964 Fit       0.078644
  965 Fit       0.066254
  966 Fit       0.053965
  967 Fit       0.048608
  968 Fit       0.049967
  969 Fit       0.055630
  970 Fit       0.067478
  971 Fit       0.074220
  972 Fit       0.061087
  973 Fit       0.052394
  974 Fit       0.061435
  975 Fit       0.100171
  976 Fit       0.096115
  977 Fit       0.111130
  978 Fit       0.089072
  979 Fit       0.098828
  980 Fit       0.080866
  981 Fit       0.120437
  982 Fit       0.121735
  983 Fit       0.128032
  984 Fit       0.117996
  985 Fit       0.116102
  986 Fit       0.122903
  987 Fit       0.122534
  988 Fit       0.114918
  989 Fit       0.114286
  990 Fit       0.120654
  991 Fit       0.114679
  992 Fit       0.113377
  993 Fit       0.118672
  994 Fit       0.118087
  995 Fit       0.113931
  996 Fit       0.117687
  997 Fit       0.119669
  998 Fit       0.116265
  999 Fit       0.125776
 1000 Fit       0.116431
 1001 Fit       0.112494
 1002 Fit       0.112842
 1003 Fit       0.123391
 1004 Fit       0.114458
 1005 Fit       0.110712
 1006 Fit       0.110968
 1007 Fit       0.122124
 1008 Fit       0.113495
 1009 Fit       0.110761
 1010 Fit       0.118408
 1011 Fit       0.123785
 1012 Fit       0.129247
 1013 Fit       0.122772
 1014 Fit       0.121006
 1015 Fit       0.126183
 1016 Fit       0.122145
 1017 Fit       0.119851
 1018 Fit       0.123713
 1019 Fit       0.123081
 1020 Fit       0.120327
 1021 Fit       0.124211
 1022 Fit       0.122541
 1023 Fit       0.128023
 1024 Fit       0.084490
 1025 Fit       0.079340
 1026 Fit       0.086886
 1027 Fit       0.079524
 1028 Fit       0.075539
 1029 Fit       0.074868
 1030 Fit       0.085303
 1031 Fit       0.077931
 1032 Fit       0.073739
 1033 Fit       0.071978
 1034 Fit       0.072784
 1035 Fit       0.077943
 1036 Fit       0.073049
 1037 Fit       0.070389
 1038 Fit       0.069667
 1039 Fit       0.071569
 1040 Fit       0.063440
 1041 Fit       0.065777
 1042 Fit       0.073865
 1043 Fit       0.077179
 1044 Fit       0.083314
 1045 Fit       0.072667
 1046 Fit       0.072576
 1047 Fit       0.076026
 1048 Fit       0.081763
 1049 Fit       0.091328
 1050 Fit       0.070322
 1051 Fit       0.070694
 1052 Fit       0.072416
 1053 Fit       0.076911
 1054 Fit       0.084198
 1055 Fit       0.066890
 1056 Fit       0.069507
 1057 Fit       0.072666
 1058 Fit       0.079641
 1059 Fit       0.066914
 1060 Fit       0.088120
 1061 Fit       0.082733
 1062 Fit       0.088709
 1063 Fit       0.097013
 1064 Fit       0.096507
 1065 Fit       0.089213
 1066 Fit       0.083281
 1067 Fit       0.080098
 1068 Fit       0.084015
 1069 Fit       0.092353
 1070 Fit       0.105143
 1071 Fit       0.111782
 1072 Fit       0.103667
 1073 Fit       0.083471
 1074 Fit       0.090204
 1075 Fit       0.103447
 1076 Fit       0.112212
 1077 Fit       0.118882
 1078 Fit       0.121315
 1079 Fit       0.116010
 1080 Fit       0.109224
 1081 Fit       0.107775
 1082 Fit       0.112303
 1083 Fit       0.113032
 1084 Fit       0.107780
 1085 Fit       0.106413
 1086 Fit       0.108817
 1087 Fit       0.114833
 1088 Fit       0.122964
 1089 Fit       0.108976
 1090 Fit       0.111461
 1091 Fit       0.118237
 1092 Fit       0.129480
 1093 Fit       0.124235
 1094 Fit       0.119628
 1095 Fit       0.112583
 1096 Fit       0.119999
 1097 Fit       0.111563
 1098 Fit       0.109233
 1099 Fit       0.119893
 1100 Fit       0.111627
 1101 Fit       0.109404
 1102 Fit       0.119685
 1103 Fit       0.112996
 1104 Fit       0.125068
 1105 Fit       0.110687
 1106 Fit       0.114860
 1107 Fit       0.107025
 1108 Fit       0.107075
 1109 Fit       0.111422
 1110 Fit       0.122424
 1111 Fit       0.111950
 1112 Fit       0.107054
 1113 Fit       0.106907
 1114 Fit       0.111792
 1115 Fit       0.123473
 1116 Fit       0.118522
 1117 Fit       0.110671
 1118 Fit       0.110644
 1119 Fit       0.119162
 1120 Fit       0.116646
 1121 Fit       0.083053
 1122 Fit       0.090472
 1123 Fit       0.096611
 1124 Fit       0.084598
 1125 Fit       0.091728
 1126 Fit       0.098641
 1127 Fit       0.101089
 1128 Fit       0.092546
 1129 Fit       0.081437
 1130 Fit       0.090788
 1131 Fit       0.132409
 1132 Fit       0.117806
 1133 Fit       0.121123
 1134 Fit       0.108851
 1135 Fit       0.109506
 1136 Fit       0.116882
 1137 Fit       0.102635
 1138 Fit       0.104740
 1139 Fit       0.111679
 1140 Fit       0.101594
 1141 Fit       0.106901
 1142 Fit       0.117338
 1143 Fit       0.112301
 1144 Fit       0.111205
 1145 Fit       0.114659
 1146 Fit       0.115629
 1147 Fit       0.109229
 1148 Fit       0.110489
 1149 Fit       0.115789
 1150 Fit       0.122725
 1151 Fit       0.107084
 1152 Fit       0.107838
 1153 Fit       0.112869
 1154 Fit       0.121982
 1155 Fit       0.107029
 1156 Fit       0.114842
 -----------------------------------------------------------------
 Leave Link  602 at Sat Feb 17 20:58:32 2018, MaxMem=   33554432 cpu:       0.4

 Test job not archived.
 1\1\GINC-NODE040\SP\RHF\6-31G(d)\C9H13N2O1(1+)\WULSDORT\17-Feb-2018\0\
 \#HF/6-31G* Geom=AllCheck Guess=Read Pop=(MK,ReadRadii) Integral=(Grid
 =UltraFine) iop(6/33=2)\\Optimization for frag19-conf2\\1,1\C,0,1.4638
 872726,-1.5095063372,0.2164809331\C,0,3.5085752601,-0.5218583823,1.000
 6387491\C,0,1.1047247779,-1.7388904482,1.5280253887\C,0,3.1052635152,-
 0.7752261322,2.3005354003\C,0,2.6918497728,-0.8875819505,-0.0762215649
 \C,0,2.1104235937,-2.2981649398,-3.0115155523\C,0,2.3940490632,-3.3718
 350001,-4.0395270625\C,0,1.5023215394,-1.6643240949,3.9457098894\C,0,3
 .0881498244,-0.6050000488,-1.5160806482\N,0,1.9196794806,-1.3749932966
 ,2.5527780613\N,0,3.2019179277,-1.8056870734,-2.3307545956\O,0,0.98470
 50899,-1.866935617,-2.7844999217\H,0,0.7990730684,-1.7932284721,-0.594
 1564232\H,0,4.4638518122,-0.0325073213,0.841098489\H,0,0.1673146975,-2
 .2066387147,1.8063234256\H,0,3.706727372,-0.5099616403,3.1616732938\H,
 0,1.6234166502,-4.1428630244,-3.9694178002\H,0,2.3247766125,-2.9282523
 21,-5.0391559738\H,0,3.3808967973,-3.8306781115,-3.9296343788\H,0,1.57
 45971019,-2.7388793687,4.1291311821\H,0,2.1555988054,-1.1286555851,4.6
 335058202\H,0,0.4736247764,-1.3290439289,4.0873820632\H,0,2.3183483787
 ,0.0376262752,-1.9603392823\H,0,4.0397810397,-0.0680491472,-1.54134635
 5\H,0,4.1268868936,-2.13685807,-2.5673981659\\Version=AM64L-G09RevC.01
 \State=1-A\HF=-531.9624171\RMSD=4.501e-09\Dipole=1.2205111,0.1224424,2
 .9333576\Quadrupole=-9.0165669,-11.7389159,20.7554828,3.6843489,-9.824
 7377,5.237158\PG=C01 [X(C9H13N2O1)]\\@


 SEEN ON A WALL AT THE UNIVERSITY OF ILLINOIS AT CHICAGO CIRCLE:

 TO DO IS TO BE  -- SOCRATES
 TO BE IS TO DO  -- SARTRE
 OO BE DO BE DO  -- SINATRA
 Job cpu time:  0 days  0 hours  1 minutes 52.8 seconds.
 File lengths (MBytes):  RWF=     27 Int=      0 D2E=      0 Chk=      4 Scr=      1
 Normal termination of Gaussian 09 at Sat Feb 17 20:58:32 2018.
