 Entering Gaussian System, Link 0=g09
 Initial command:
 /home/fb_chem/chemsoft/lx24-amd64/Gaussian_09_C.01_NBO_3.1_64_istanbul-64/g09/l1.exe /local/2397318.1.parallel/Gau-8838.inp -scrdir=/local/2397318.1.parallel/
 Entering Link 1 = /home/fb_chem/chemsoft/lx24-amd64/Gaussian_09_C.01_NBO_3.1_64_istanbul-64/g09/l1.exe PID=      8839.
  
 Copyright (c) 1988,1990,1992,1993,1995,1998,2003,2009,2011,
            Gaussian, Inc.  All Rights Reserved.
  
 This is part of the Gaussian(R) 09 program.  It is based on
 the Gaussian(R) 03 system (copyright 2003, Gaussian, Inc.),
 the Gaussian(R) 98 system (copyright 1998, Gaussian, Inc.),
 the Gaussian(R) 94 system (copyright 1995, Gaussian, Inc.),
 the Gaussian 92(TM) system (copyright 1992, Gaussian, Inc.),
 the Gaussian 90(TM) system (copyright 1990, Gaussian, Inc.),
 the Gaussian 88(TM) system (copyright 1988, Gaussian, Inc.),
 the Gaussian 86(TM) system (copyright 1986, Carnegie Mellon
 University), and the Gaussian 82(TM) system (copyright 1983,
 Carnegie Mellon University). Gaussian is a federally registered
 trademark of Gaussian, Inc.
  
 This software contains proprietary and confidential information,
 including trade secrets, belonging to Gaussian, Inc.
  
 This software is provided under written license and may be
 used, copied, transmitted, or stored only in accord with that
 written license.
  
 The following legend is applicable only to US Government
 contracts under FAR:
  
                    RESTRICTED RIGHTS LEGEND
  
 Use, reproduction and disclosure by the US Government is
 subject to restrictions as set forth in subparagraphs (a)
 and (c) of the Commercial Computer Software - Restricted
 Rights clause in FAR 52.227-19.
  
 Gaussian, Inc.
 340 Quinnipiac St., Bldg. 40, Wallingford CT 06492
  
  
 ---------------------------------------------------------------
 Warning -- This program may not be used in any manner that
 competes with the business of Gaussian, Inc. or will provide
 assistance to any competitor of Gaussian, Inc.  The licensee
 of this program is prohibited from giving any competitor of
 Gaussian, Inc. access to this program.  By using this program,
 the user acknowledges that Gaussian, Inc. is engaged in the
 business of creating and licensing software in the field of
 computational chemistry and represents and warrants to the
 licensee that it is not a competitor of Gaussian, Inc. and that
 it will not use this program in any manner prohibited above.
 ---------------------------------------------------------------
  

 Cite this work as:
 Gaussian 09, Revision C.01,
 M. J. Frisch, G. W. Trucks, H. B. Schlegel, G. E. Scuseria, 
 M. A. Robb, J. R. Cheeseman, G. Scalmani, V. Barone, B. Mennucci, 
 G. A. Petersson, H. Nakatsuji, M. Caricato, X. Li, H. P. Hratchian, 
 A. F. Izmaylov, J. Bloino, G. Zheng, J. L. Sonnenberg, M. Hada, 
 M. Ehara, K. Toyota, R. Fukuda, J. Hasegawa, M. Ishida, T. Nakajima, 
 Y. Honda, O. Kitao, H. Nakai, T. Vreven, J. A. Montgomery, Jr., 
 J. E. Peralta, F. Ogliaro, M. Bearpark, J. J. Heyd, E. Brothers, 
 K. N. Kudin, V. N. Staroverov, T. Keith, R. Kobayashi, J. Normand, 
 K. Raghavachari, A. Rendell, J. C. Burant, S. S. Iyengar, J. Tomasi, 
 M. Cossi, N. Rega, J. M. Millam, M. Klene, J. E. Knox, J. B. Cross, 
 V. Bakken, C. Adamo, J. Jaramillo, R. Gomperts, R. E. Stratmann, 
 O. Yazyev, A. J. Austin, R. Cammi, C. Pomelli, J. W. Ochterski, 
 R. L. Martin, K. Morokuma, V. G. Zakrzewski, G. A. Voth, 
 P. Salvador, J. J. Dannenberg, S. Dapprich, A. D. Daniels, 
 O. Farkas, J. B. Foresman, J. V. Ortiz, J. Cioslowski, 
 and D. J. Fox, Gaussian, Inc., Wallingford CT, 2010.
 
 ******************************************
 Gaussian 09:  AM64L-G09RevC.01 23-Sep-2011
                16-Feb-2018 
 ******************************************
 %nprocs=4
 Will use up to    4 processors via shared memory.
 %chk=frag8-conf0.chk
 ---------------------------------------------------------
 #B3LYP/6-31G* Integral=(Grid=UltraFine) freq Opt pop=none
 ---------------------------------------------------------
 1/14=-1,18=20,19=15,26=3,38=1/1,3;
 2/9=110,12=2,17=6,18=5,40=1/2;
 3/5=1,6=6,7=1,11=2,16=1,25=1,30=1,71=1,74=-5,75=-5/1,2,3;
 4//1;
 5/5=2,38=5/2;
 7//1,2,3,16;
 1/14=-1,18=20,19=15/3(2);
 2/9=110/2;
 99//99;
 2/9=110/2;
 3/5=1,6=6,7=1,11=2,16=1,25=1,30=1,71=1,74=-5,75=-5/1,2,3;
 4/5=5,16=3/1;
 5/5=2,38=5/2;
 7//1,2,3,16;
 1/14=-1,18=20,19=15/3(-5);
 2/9=110/2;
 99/9=1/99;
 ----------------------------
 Optimization for frag8-conf0
 ----------------------------
 Charge =  0 Multiplicity = 1
 Symbolic Z-Matrix:
 C                     1.84636  -0.25279   0.33944 
 C                     0.57671  -0.32204   0.91249 
 C                     2.93397  -0.85331   0.97293 
 C                     1.48046  -1.59452   2.75545 
 C                     0.38578  -0.98047   2.13214 
 C                     2.75945  -1.54078   2.1808 
 C                     5.65724  -1.57973   4.53603 
 C                    -0.98501  -1.07803   2.7367 
 C                     6.15143  -0.47894   5.43416 
 C                     3.93612  -2.17162   2.87725 
 N                     4.55971  -1.23986   3.7884 
 O                     6.17994  -2.692     4.5026 
 H                     1.98852   0.27119  -0.60438 
 H                    -0.26385   0.14681   0.40162 
 H                     3.92116  -0.78477   0.51675 
 H                     1.33803  -2.11959   3.7008 
 H                    -1.48833  -1.98094   2.37768 
 H                    -0.92748  -1.11441   3.82964 
 H                    -1.59158  -0.2054    2.47252 
 H                     5.60666  -0.51599   6.38119 
 H                     7.21993  -0.61517   5.62236 
 H                     6.00346   0.50017   4.96982 
 H                     3.62483  -3.05841   3.44206 
 H                     4.68616  -2.50604   2.15067 
 H                     4.16549  -0.3073    3.87664 
 

 GradGradGradGradGradGradGradGradGradGradGradGradGradGradGradGradGradGrad
 Berny optimization.
 Initialization pass.
                           ----------------------------
                           !    Initial Parameters    !
                           ! (Angstroms and Degrees)  !
 --------------------------                            --------------------------
 ! Name  Definition              Value          Derivative Info.                !
 --------------------------------------------------------------------------------
 ! R1    R(1,2)                  1.3947         estimate D2E/DX2                !
 ! R2    R(1,3)                  1.3946         estimate D2E/DX2                !
 ! R3    R(1,13)                 1.0888         estimate D2E/DX2                !
 ! R4    R(2,5)                  1.3991         estimate D2E/DX2                !
 ! R5    R(2,14)                 1.0897         estimate D2E/DX2                !
 ! R6    R(3,6)                  1.4007         estimate D2E/DX2                !
 ! R7    R(3,15)                 1.0897         estimate D2E/DX2                !
 ! R8    R(4,5)                  1.4014         estimate D2E/DX2                !
 ! R9    R(4,6)                  1.4032         estimate D2E/DX2                !
 ! R10   R(4,16)                 1.0907         estimate D2E/DX2                !
 ! R11   R(5,8)                  1.5014         estimate D2E/DX2                !
 ! R12   R(6,10)                 1.5058         estimate D2E/DX2                !
 ! R13   R(7,9)                  1.5042         estimate D2E/DX2                !
 ! R14   R(7,11)                 1.3708         estimate D2E/DX2                !
 ! R15   R(7,12)                 1.2294         estimate D2E/DX2                !
 ! R16   R(8,17)                 1.0943         estimate D2E/DX2                !
 ! R17   R(8,18)                 1.0951         estimate D2E/DX2                !
 ! R18   R(8,19)                 1.0951         estimate D2E/DX2                !
 ! R19   R(9,20)                 1.0932         estimate D2E/DX2                !
 ! R20   R(9,21)                 1.0935         estimate D2E/DX2                !
 ! R21   R(9,22)                 1.0937         estimate D2E/DX2                !
 ! R22   R(10,11)                1.4447         estimate D2E/DX2                !
 ! R23   R(10,23)                1.0965         estimate D2E/DX2                !
 ! R24   R(10,24)                1.0965         estimate D2E/DX2                !
 ! R25   R(11,25)                1.0163         estimate D2E/DX2                !
 ! A1    A(2,1,3)              120.1283         estimate D2E/DX2                !
 ! A2    A(2,1,13)             119.9275         estimate D2E/DX2                !
 ! A3    A(3,1,13)             119.9442         estimate D2E/DX2                !
 ! A4    A(1,2,5)              120.3821         estimate D2E/DX2                !
 ! A5    A(1,2,14)             119.2247         estimate D2E/DX2                !
 ! A6    A(5,2,14)             120.3926         estimate D2E/DX2                !
 ! A7    A(1,3,6)              120.3903         estimate D2E/DX2                !
 ! A8    A(1,3,15)             119.2945         estimate D2E/DX2                !
 ! A9    A(6,3,15)             120.315          estimate D2E/DX2                !
 ! A10   A(5,4,6)              120.8677         estimate D2E/DX2                !
 ! A11   A(5,4,16)             119.6327         estimate D2E/DX2                !
 ! A12   A(6,4,16)             119.4995         estimate D2E/DX2                !
 ! A13   A(2,5,4)              119.166          estimate D2E/DX2                !
 ! A14   A(2,5,8)              120.4108         estimate D2E/DX2                !
 ! A15   A(4,5,8)              120.373          estimate D2E/DX2                !
 ! A16   A(3,6,4)              119.0463         estimate D2E/DX2                !
 ! A17   A(3,6,10)             120.4693         estimate D2E/DX2                !
 ! A18   A(4,6,10)             120.4497         estimate D2E/DX2                !
 ! A19   A(9,7,11)             114.0327         estimate D2E/DX2                !
 ! A20   A(9,7,12)             122.5904         estimate D2E/DX2                !
 ! A21   A(11,7,12)            123.3598         estimate D2E/DX2                !
 ! A22   A(5,8,17)             109.9653         estimate D2E/DX2                !
 ! A23   A(5,8,18)             110.86           estimate D2E/DX2                !
 ! A24   A(5,8,19)             110.9044         estimate D2E/DX2                !
 ! A25   A(17,8,18)            108.9168         estimate D2E/DX2                !
 ! A26   A(17,8,19)            108.8801         estimate D2E/DX2                !
 ! A27   A(18,8,19)            107.239          estimate D2E/DX2                !
 ! A28   A(7,9,20)             109.1913         estimate D2E/DX2                !
 ! A29   A(7,9,21)             109.4282         estimate D2E/DX2                !
 ! A30   A(7,9,22)             110.9279         estimate D2E/DX2                !
 ! A31   A(20,9,21)            109.4899         estimate D2E/DX2                !
 ! A32   A(20,9,22)            109.3132         estimate D2E/DX2                !
 ! A33   A(21,9,22)            108.4706         estimate D2E/DX2                !
 ! A34   A(6,10,11)            111.0253         estimate D2E/DX2                !
 ! A35   A(6,10,23)            110.8061         estimate D2E/DX2                !
 ! A36   A(6,10,24)            110.8424         estimate D2E/DX2                !
 ! A37   A(11,10,23)           108.6188         estimate D2E/DX2                !
 ! A38   A(11,10,24)           108.6238         estimate D2E/DX2                !
 ! A39   A(23,10,24)           106.7901         estimate D2E/DX2                !
 ! A40   A(7,11,10)            121.9824         estimate D2E/DX2                !
 ! A41   A(7,11,25)            119.3886         estimate D2E/DX2                !
 ! A42   A(10,11,25)           118.6283         estimate D2E/DX2                !
 ! D1    D(3,1,2,5)              0.6912         estimate D2E/DX2                !
 ! D2    D(3,1,2,14)          -179.6045         estimate D2E/DX2                !
 ! D3    D(13,1,2,5)          -179.3078         estimate D2E/DX2                !
 ! D4    D(13,1,2,14)            0.3965         estimate D2E/DX2                !
 ! D5    D(2,1,3,6)              0.6179         estimate D2E/DX2                !
 ! D6    D(2,1,3,15)          -179.5672         estimate D2E/DX2                !
 ! D7    D(13,1,3,6)          -179.3831         estimate D2E/DX2                !
 ! D8    D(13,1,3,15)            0.4318         estimate D2E/DX2                !
 ! D9    D(1,2,5,4)             -1.3992         estimate D2E/DX2                !
 ! D10   D(1,2,5,8)           -178.8318         estimate D2E/DX2                !
 ! D11   D(14,2,5,4)           178.9001         estimate D2E/DX2                !
 ! D12   D(14,2,5,8)             1.4674         estimate D2E/DX2                !
 ! D13   D(1,3,6,4)             -1.1824         estimate D2E/DX2                !
 ! D14   D(1,3,6,10)          -179.0495         estimate D2E/DX2                !
 ! D15   D(15,3,6,4)           179.0045         estimate D2E/DX2                !
 ! D16   D(15,3,6,10)            1.1375         estimate D2E/DX2                !
 ! D17   D(6,4,5,2)              0.8219         estimate D2E/DX2                !
 ! D18   D(6,4,5,8)            178.2555         estimate D2E/DX2                !
 ! D19   D(16,4,5,2)          -179.3111         estimate D2E/DX2                !
 ! D20   D(16,4,5,8)            -1.8775         estimate D2E/DX2                !
 ! D21   D(5,4,6,3)              0.4591         estimate D2E/DX2                !
 ! D22   D(5,4,6,10)           178.3265         estimate D2E/DX2                !
 ! D23   D(16,4,6,3)          -179.4081         estimate D2E/DX2                !
 ! D24   D(16,4,6,10)           -1.5407         estimate D2E/DX2                !
 ! D25   D(2,5,8,17)            89.4501         estimate D2E/DX2                !
 ! D26   D(2,5,8,18)          -150.0488         estimate D2E/DX2                !
 ! D27   D(2,5,8,19)           -31.0337         estimate D2E/DX2                !
 ! D28   D(4,5,8,17)           -87.9514         estimate D2E/DX2                !
 ! D29   D(4,5,8,18)            32.5497         estimate D2E/DX2                !
 ! D30   D(4,5,8,19)           151.5649         estimate D2E/DX2                !
 ! D31   D(3,6,10,11)           89.4016         estimate D2E/DX2                !
 ! D32   D(3,6,10,23)         -149.8039         estimate D2E/DX2                !
 ! D33   D(3,6,10,24)          -31.4237         estimate D2E/DX2                !
 ! D34   D(4,6,10,11)          -88.4353         estimate D2E/DX2                !
 ! D35   D(4,6,10,23)           32.3592         estimate D2E/DX2                !
 ! D36   D(4,6,10,24)          150.7394         estimate D2E/DX2                !
 ! D37   D(11,7,9,20)           86.5453         estimate D2E/DX2                !
 ! D38   D(11,7,9,21)         -153.6285         estimate D2E/DX2                !
 ! D39   D(11,7,9,22)          -33.9878         estimate D2E/DX2                !
 ! D40   D(12,7,9,20)          -91.9953         estimate D2E/DX2                !
 ! D41   D(12,7,9,21)           27.8309         estimate D2E/DX2                !
 ! D42   D(12,7,9,22)          147.4716         estimate D2E/DX2                !
 ! D43   D(9,7,11,10)         -179.4065         estimate D2E/DX2                !
 ! D44   D(9,7,11,25)            0.2913         estimate D2E/DX2                !
 ! D45   D(12,7,11,10)          -0.8786         estimate D2E/DX2                !
 ! D46   D(12,7,11,25)         178.8192         estimate D2E/DX2                !
 ! D47   D(6,10,11,7)         -179.6969         estimate D2E/DX2                !
 ! D48   D(6,10,11,25)           0.603          estimate D2E/DX2                !
 ! D49   D(23,10,11,7)          58.2263         estimate D2E/DX2                !
 ! D50   D(23,10,11,25)       -121.4738         estimate D2E/DX2                !
 ! D51   D(24,10,11,7)         -57.5716         estimate D2E/DX2                !
 ! D52   D(24,10,11,25)        122.7283         estimate D2E/DX2                !
 --------------------------------------------------------------------------------
 Trust Radius=3.00D-01 FncErr=1.00D-07 GrdErr=1.00D-06
 Number of steps in this run=    129 maximum allowed number of steps=    150.
 GradGradGradGradGradGradGradGradGradGradGradGradGradGradGradGradGradGrad

                          Input orientation:                          
 ---------------------------------------------------------------------
 Center     Atomic      Atomic             Coordinates (Angstroms)
 Number     Number       Type             X           Y           Z
 ---------------------------------------------------------------------
      1          6           0        1.846359   -0.252794    0.339435
      2          6           0        0.576708   -0.322043    0.912485
      3          6           0        2.933969   -0.853307    0.972933
      4          6           0        1.480460   -1.594525    2.755449
      5          6           0        0.385783   -0.980466    2.132135
      6          6           0        2.759448   -1.540775    2.180795
      7          6           0        5.657236   -1.579735    4.536035
      8          6           0       -0.985014   -1.078026    2.736696
      9          6           0        6.151432   -0.478935    5.434163
     10          6           0        3.936122   -2.171624    2.877252
     11          7           0        4.559714   -1.239864    3.788401
     12          8           0        6.179940   -2.691998    4.502605
     13          1           0        1.988521    0.271192   -0.604380
     14          1           0       -0.263850    0.146811    0.401615
     15          1           0        3.921164   -0.784774    0.516752
     16          1           0        1.338035   -2.119587    3.700804
     17          1           0       -1.488325   -1.980936    2.377678
     18          1           0       -0.927482   -1.114415    3.829645
     19          1           0       -1.591578   -0.205403    2.472516
     20          1           0        5.606659   -0.515993    6.381187
     21          1           0        7.219930   -0.615173    5.622358
     22          1           0        6.003459    0.500174    4.969816
     23          1           0        3.624830   -3.058409    3.442058
     24          1           0        4.686159   -2.506038    2.150670
     25          1           0        4.165493   -0.307298    3.876639
 ---------------------------------------------------------------------
                    Distance matrix (angstroms):
                    1          2          3          4          5
     1  C    0.000000
     2  C    1.394703   0.000000
     3  C    1.394572   2.417142   0.000000
     4  C    2.787695   2.415055   2.416497   0.000000
     5  C    2.424162   1.399114   2.802351   1.401394   0.000000
     6  C    2.425538   2.803261   1.400715   1.403184   2.439385
     7  C    5.821941   6.365820   4.543080   4.540503   5.824609
     8  C    3.800597   2.517584   4.303462   2.519064   1.501365
     9  C    6.673908   7.179675   5.513147   5.498912   6.663154
    10  C    3.806512   4.308935   2.523629   2.525501   3.818240
    11  N    4.497996   4.997762   3.274040   3.267198   4.498022
    12  O    6.485493   7.064125   5.135727   5.132457   6.490048
    13  H    1.088833   2.155463   2.155524   3.876528   3.409388
    14  H    2.148612   1.089656   3.398925   3.408137   2.165058
    15  H    2.149247   3.399429   1.089657   3.409472   3.891873
    16  H    3.878416   3.403749   3.404667   1.090721   2.159885
    17  H    4.273292   3.027058   4.775096   3.017567   2.138578
    18  H    4.540721   3.376427   4.810383   2.680034   2.150383
    19  H    4.046194   2.673717   4.811352   3.383360   2.150939
    20  H    7.121229   7.432680   6.042042   5.597744   6.747424
    21  H    7.544260   8.148695   6.327979   6.489978   7.682490
    22  H    6.268083   6.825512   5.218118   5.454238   6.465525
    23  H    4.545405   4.814301   3.381767   2.685650   4.065116
    24  H    4.052425   4.815655   2.681186   3.387200   4.562998
    25  H    4.230031   4.654654   3.200982   3.181732   4.216948
                    6          7          8          9         10
     6  C    0.000000
     7  C    3.734414   0.000000
     8  C    3.813680   6.899914   0.000000
     9  C    4.818450   1.504202   7.652718   0.000000
    10  C    1.505850   2.462544   5.043143   3.782933   0.000000
    11  N    2.432263   1.370774   5.645908   2.412698   1.444727
    12  O    4.291373   1.229417   7.553800   2.401303   2.819092
    13  H    3.410975   6.580977   4.671732   7.372687   4.677847
    14  H    3.892783   7.425203   2.733662   8.177649   5.398489
    15  H    2.165678   4.449780   5.393026   5.408194   2.737798
    16  H    2.160061   4.432217   2.722298   5.372622   2.725987
    17  H    4.275053   7.475193   1.094287   8.364449   5.450740
    18  H    4.061273   6.638826   1.095066   7.286243   5.067483
    19  H    4.560674   7.661083   1.095072   8.294599   5.880927
    20  H    5.176880   2.130421   7.553036   1.093164   4.220115
    21  H    5.709378   2.133657   8.709901   1.093465   4.554288
    22  H    4.740013   2.152686   7.504418   1.093695   3.973816
    23  H    2.154735   2.741156   5.066568   4.123819   1.096493
    24  H    2.155193   2.736968   5.877487   4.127650   1.096500
    25  H    2.524740   2.068621   5.331154   2.529683   2.127697
                   11         12         13         14         15
    11  N    0.000000
    12  O    2.289959   0.000000
    13  H    5.309505   7.240841   0.000000
    14  H    6.054747   8.148582   2.469954   0.000000
    15  H    3.364304   4.962519   2.471257   4.288992   0.000000
    16  H    3.340779   4.941112   4.967249   4.311293   4.311899
    17  H    6.254447   7.988943   5.104234   3.151424   5.844350
    18  H    5.488784   7.311435   5.484847   3.712477   5.881606
    19  H    6.374955   8.408383   4.744632   2.485064   5.878011
    20  H    2.888360   2.931334   7.906247   8.405800   6.107761
    21  H    3.290955   2.578493   8.180804   9.156623   6.080940
    22  H    2.551054   3.231005   6.873414   7.763536   5.081026
    23  H    2.073901   2.790627   5.489755   5.885539   3.716806
    24  H    2.073970   2.792411   4.751901   5.882125   2.493523
    25  H    1.016304   3.183806   5.015315   5.648104   3.402429
                   16         17         18         19         20
    16  H    0.000000
    17  H    3.123811   0.000000
    18  H    2.481841   1.781463   0.000000
    19  H    3.708830   1.781059   1.763271   0.000000
    20  H    5.289341   8.277255   7.040134   8.196878   0.000000
    21  H    6.368071   9.392921   8.357235   9.366541   1.785581
    22  H    5.499066   8.306740   7.207276   8.026141   1.783820
    23  H    2.485512   5.332749   4.965167   6.024166   4.362339
    24  H    3.709744   6.200929   6.022337   6.693765   4.764964
    25  H    3.363009   6.083881   5.156746   5.926703   2.897116
                   21         22         23         24         25
    21  H    0.000000
    22  H    1.774715   0.000000
    23  H    4.862905   4.544825   0.000000
    24  H    4.695528   4.326682   1.760459   0.000000
    25  H    3.531559   2.285863   2.837214   2.843329   0.000000
 Stoichiometry    C10H13NO
 Framework group  C1[X(C10H13NO)]
 Deg. of freedom    69
 Full point group                 C1      NOp   1
 Largest Abelian subgroup         C1      NOp   1
 Largest concise Abelian subgroup C1      NOp   1
                         Standard orientation:                         
 ---------------------------------------------------------------------
 Center     Atomic      Atomic             Coordinates (Angstroms)
 Number     Number       Type             X           Y           Z
 ---------------------------------------------------------------------
      1          6           0       -2.327596    1.735365    0.395437
      2          6           0       -3.145798    0.606432    0.430814
      3          6           0       -1.006998    1.629385   -0.040017
      4          6           0       -1.322714   -0.738237   -0.406279
      5          6           0       -2.646145   -0.642009    0.044471
      6          6           0       -0.495343    0.393934   -0.456999
      7          6           0        3.159975   -0.178324    0.049961
      8          6           0       -3.533642   -1.852909    0.057386
      9          6           0        3.891471   -0.501127    1.324063
     10          6           0        0.936507    0.273202   -0.907346
     11          7           0        1.806632   -0.026555    0.206325
     12          8           0        3.729351   -0.088411   -1.035946
     13          1           0       -2.720808    2.701264    0.708458
     14          1           0       -4.177229    0.707266    0.767461
     15          1           0       -0.377671    2.518801   -0.055434
     16          1           0       -0.928861   -1.705767   -0.720028
     17          1           0       -4.036772   -1.957730   -0.908708
     18          1           0       -2.952893   -2.759916    0.255472
     19          1           0       -4.290840   -1.774004    0.844537
     20          1           0        3.879024   -1.582838    1.481395
     21          1           0        4.926028   -0.155546    1.247053
     22          1           0        3.423446   -0.005773    2.179484
     23          1           0        1.043219   -0.518849   -1.658055
     24          1           0        1.277333    1.203281   -1.377561
     25          1           0        1.396484   -0.131290    1.130275
 ---------------------------------------------------------------------
 Rotational constants (GHZ):      2.0851086      0.4092161      0.3806992
 Standard basis: 6-31G(d) (6D, 7F)
 There are   206 symmetry adapted basis functions of A   symmetry.
 Integral buffers will be    131072 words long.
 Raffenetti 2 integral format.
 Two-electron integral symmetry is turned on.
   206 basis functions,   388 primitive gaussians,   206 cartesian basis functions
    44 alpha electrons       44 beta electrons
       nuclear repulsion energy       650.1239766402 Hartrees.
 NAtoms=   25 NActive=   25 NUniq=   25 SFac= 1.00D+00 NAtFMM=   60 NAOKFM=F Big=F
 One-electron integrals computed using PRISM.
 NBasis=   206 RedAO= T  NBF=   206
 NBsUse=   206 1.00D-06 NBFU=   206
 Harris functional with IExCor=  402 diagonalized for initial guess.
 ExpMin= 1.61D-01 ExpMax= 5.48D+03 ExpMxC= 8.25D+02 IAcc=3 IRadAn=         5 AccDes= 0.00D+00
 HarFok:  IExCor=  402 AccDes= 0.00D+00 IRadAn=         5 IDoV= 1
 ScaDFX=  1.000000  1.000000  1.000000  1.000000
 FoFCou: FMM=F IPFlag=           0 FMFlag=      100000 FMFlg1=           0
         NFxFlg=           0 DoJE=T BraDBF=F KetDBF=T FulRan=T
         Omega=  0.000000  0.000000  1.000000  0.000000  0.000000 ICntrl=     500 IOpCl=  0
         NMat0=    1 NMatS0=    1 NMatT0=    0 NMatD0=    1 NMtDS0=    0 NMtDT0=    0
         I1Cent=           4 NGrid=           0.
 Petite list used in FoFCou.
 Initial guess orbital symmetries:
       Occupied  (A) (A) (A) (A) (A) (A) (A) (A) (A) (A) (A) (A)
                 (A) (A) (A) (A) (A) (A) (A) (A) (A) (A) (A) (A)
                 (A) (A) (A) (A) (A) (A) (A) (A) (A) (A) (A) (A)
                 (A) (A) (A) (A) (A) (A) (A) (A)
       Virtual   (A) (A) (A) (A) (A) (A) (A) (A) (A) (A) (A) (A)
                 (A) (A) (A) (A) (A) (A) (A) (A) (A) (A) (A) (A)
                 (A) (A) (A) (A) (A) (A) (A) (A) (A) (A) (A) (A)
                 (A) (A) (A) (A) (A) (A) (A) (A) (A) (A) (A) (A)
                 (A) (A) (A) (A) (A) (A) (A) (A) (A) (A) (A) (A)
                 (A) (A) (A) (A) (A) (A) (A) (A) (A) (A) (A) (A)
                 (A) (A) (A) (A) (A) (A) (A) (A) (A) (A) (A) (A)
                 (A) (A) (A) (A) (A) (A) (A) (A) (A) (A) (A) (A)
                 (A) (A) (A) (A) (A) (A) (A) (A) (A) (A) (A) (A)
                 (A) (A) (A) (A) (A) (A) (A) (A) (A) (A) (A) (A)
                 (A) (A) (A) (A) (A) (A) (A) (A) (A) (A) (A) (A)
                 (A) (A) (A) (A) (A) (A) (A) (A) (A) (A) (A) (A)
                 (A) (A) (A) (A) (A) (A) (A) (A) (A) (A) (A) (A)
                 (A) (A) (A) (A) (A) (A)
 The electronic state of the initial guess is 1-A.
 Requested convergence on RMS density matrix=1.00D-08 within 128 cycles.
 Requested convergence on MAX density matrix=1.00D-06.
 Requested convergence on             energy=1.00D-06.
 No special actions if energy rises.
 Integral accuracy reduced to 1.0D-05 until final iterations.
 Initial convergence to 1.0D-05 achieved.  Increase integral accuracy.
 SCF Done:  E(RB3LYP) =  -518.890949276     A.U. after   15 cycles
             Convg  =    0.2865D-08             -V/T =  2.0096
 Calling FoFJK, ICntrl=      2127 FMM=F ISym2X=0 I1Cent= 0 IOpClX= 0 NMat=1 NMatS=1 NMatT=0.
 ***** Axes restored to original set *****
 -------------------------------------------------------------------
 Center     Atomic                   Forces (Hartrees/Bohr)
 Number     Number              X              Y              Z
 -------------------------------------------------------------------
      1        6           0.000021064    0.000302749   -0.000709567
      2        6           0.003283565    0.001717698   -0.001763863
      3        6           0.000666392    0.000741186   -0.001930531
      4        6           0.003006935    0.003111999   -0.004411806
      5        6           0.001205610   -0.002037426   -0.000215741
      6        6          -0.002843982    0.001073741   -0.000082650
      7        6          -0.000647502   -0.007984658   -0.003692512
      8        6          -0.000301865    0.003930322    0.002978475
      9        6           0.005235082    0.005982402    0.000703199
     10        6          -0.001299090   -0.008198569   -0.003139205
     11        7           0.006434537    0.009179795    0.008257286
     12        8          -0.006087734    0.004486607   -0.003673074
     13        1          -0.000062707   -0.000704436    0.001087264
     14        1           0.000062595   -0.000872777    0.002188350
     15        1          -0.000688937   -0.001492292    0.001727829
     16        1           0.000211155    0.000682150   -0.001556517
     17        1          -0.003923021   -0.000719891    0.001533573
     18        1          -0.001630859   -0.002578884    0.000149023
     19        1          -0.001994028   -0.001665923   -0.001112554
     20        1           0.000862186    0.001798324    0.002738194
     21        1          -0.001861042   -0.001172584    0.001545040
     22        1          -0.000784635    0.002771567    0.002598938
     23        1          -0.000437430   -0.001531935   -0.001101136
     24        1          -0.000504120   -0.001269626   -0.000726820
     25        1           0.002077832   -0.005549538   -0.001391196
 -------------------------------------------------------------------
 Cartesian Forces:  Max     0.009179795 RMS     0.003082938

 GradGradGradGradGradGradGradGradGradGradGradGradGradGradGradGradGradGrad
 Berny optimization.
 Internal  Forces:  Max     0.012858974 RMS     0.002703177
 Search for a local minimum.
 Step number   1 out of a maximum of  129
 All quantities printed in internal units (Hartrees-Bohrs-Radians)
 Mixed Optimization -- RFO/linear search
 Second derivative matrix not updated -- first step.
 ITU=  0
     Eigenvalues ---    0.00689   0.00710   0.00748   0.01100   0.01265
     Eigenvalues ---    0.01495   0.01501   0.01559   0.02058   0.02066
     Eigenvalues ---    0.02078   0.02094   0.02117   0.02129   0.02144
     Eigenvalues ---    0.02160   0.05241   0.06601   0.07298   0.07321
     Eigenvalues ---    0.07349   0.07512   0.09876   0.13186   0.16000
     Eigenvalues ---    0.16000   0.16000   0.16000   0.16000   0.16000
     Eigenvalues ---    0.16000   0.16000   0.16000   0.16000   0.16000
     Eigenvalues ---    0.21946   0.21998   0.22000   0.23457   0.23480
     Eigenvalues ---    0.24973   0.24982   0.24992   0.25000   0.31771
     Eigenvalues ---    0.31940   0.32235   0.34072   0.34073   0.34233
     Eigenvalues ---    0.34234   0.34322   0.34389   0.34415   0.34450
     Eigenvalues ---    0.34729   0.34852   0.34852   0.34948   0.38944
     Eigenvalues ---    0.41630   0.41822   0.44933   0.45305   0.45644
     Eigenvalues ---    0.45973   0.46390   0.50828   0.91330
 RFO step:  Lambda=-3.30965156D-03 EMin= 6.88566187D-03
 Linear search not attempted -- first point.
 Iteration  1 RMS(Cart)=  0.03298909 RMS(Int)=  0.00046351
 Iteration  2 RMS(Cart)=  0.00057154 RMS(Int)=  0.00006202
 Iteration  3 RMS(Cart)=  0.00000017 RMS(Int)=  0.00006202
 Variable       Old X    -DE/DX   Delta X   Delta X   Delta X     New X
                                 (Linear)    (Quad)   (Total)
    R1        2.63561   0.00102   0.00000   0.00254   0.00253   2.63813
    R2        2.63536   0.00020   0.00000   0.00068   0.00066   2.63602
    R3        2.05760  -0.00129   0.00000  -0.00366  -0.00366   2.05394
    R4        2.64394   0.00101   0.00000   0.00229   0.00229   2.64624
    R5        2.05915  -0.00145   0.00000  -0.00412  -0.00412   2.05503
    R6        2.64697  -0.00123   0.00000  -0.00278  -0.00278   2.64419
    R7        2.05915  -0.00144   0.00000  -0.00410  -0.00410   2.05506
    R8        2.64825  -0.00059   0.00000  -0.00155  -0.00154   2.64671
    R9        2.65163  -0.00192   0.00000  -0.00459  -0.00458   2.64706
   R10        2.06116  -0.00171   0.00000  -0.00486  -0.00486   2.05630
   R11        2.83717   0.00866   0.00000   0.02660   0.02660   2.86377
   R12        2.84564   0.00394   0.00000   0.01227   0.01227   2.85791
   R13        2.84253   0.01253   0.00000   0.03882   0.03882   2.88135
   R14        2.59039  -0.00397   0.00000  -0.00775  -0.00775   2.58263
   R15        2.32326  -0.00655   0.00000  -0.00714  -0.00714   2.31612
   R16        2.06790   0.00189   0.00000   0.00547   0.00547   2.07337
   R17        2.06938   0.00015   0.00000   0.00043   0.00043   2.06981
   R18        2.06939   0.00005   0.00000   0.00013   0.00013   2.06952
   R19        2.06578   0.00188   0.00000   0.00541   0.00541   2.07119
   R20        2.06635  -0.00141   0.00000  -0.00405  -0.00405   2.06230
   R21        2.06678   0.00148   0.00000   0.00427   0.00427   2.07106
   R22        2.73014   0.01286   0.00000   0.03274   0.03274   2.76288
   R23        2.07207   0.00080   0.00000   0.00231   0.00231   2.07439
   R24        2.07208   0.00052   0.00000   0.00152   0.00152   2.07361
   R25        1.92054  -0.00602   0.00000  -0.01330  -0.01330   1.90724
    A1        2.09663   0.00016   0.00000   0.00164   0.00155   2.09818
    A2        2.09313   0.00004   0.00000  -0.00006  -0.00001   2.09312
    A3        2.09342  -0.00021   0.00000  -0.00158  -0.00154   2.09189
    A4        2.10106   0.00135   0.00000   0.00666   0.00656   2.10763
    A5        2.08086   0.00120   0.00000   0.00822   0.00823   2.08910
    A6        2.10125  -0.00256   0.00000  -0.01482  -0.01480   2.08644
    A7        2.10121  -0.00080   0.00000  -0.00363  -0.00371   2.09750
    A8        2.08208   0.00228   0.00000   0.01336   0.01340   2.09548
    A9        2.09989  -0.00149   0.00000  -0.00972  -0.00969   2.09021
   A10        2.10954   0.00407   0.00000   0.01651   0.01646   2.12600
   A11        2.08798  -0.00201   0.00000  -0.00813  -0.00812   2.07986
   A12        2.08566  -0.00205   0.00000  -0.00836  -0.00836   2.07730
   A13        2.07984  -0.00417   0.00000  -0.01685  -0.01696   2.06288
   A14        2.10157   0.00238   0.00000   0.00997   0.00994   2.11151
   A15        2.10090   0.00180   0.00000   0.00765   0.00762   2.10853
   A16        2.07775  -0.00060   0.00000  -0.00353  -0.00359   2.07416
   A17        2.10259   0.00054   0.00000   0.00280   0.00281   2.10540
   A18        2.10224   0.00007   0.00000   0.00095   0.00097   2.10322
   A19        1.99025   0.00688   0.00000   0.02713   0.02713   2.01737
   A20        2.13961   0.00266   0.00000   0.01046   0.01046   2.15007
   A21        2.15303  -0.00954   0.00000  -0.03771  -0.03771   2.11532
   A22        1.91926   0.00408   0.00000   0.02077   0.02072   1.93998
   A23        1.93487   0.00169   0.00000   0.01239   0.01226   1.94713
   A24        1.93565   0.00135   0.00000   0.01039   0.01026   1.94590
   A25        1.90096  -0.00376   0.00000  -0.02706  -0.02711   1.87384
   A26        1.90032  -0.00356   0.00000  -0.02571  -0.02576   1.87456
   A27        1.87167  -0.00011   0.00000   0.00737   0.00717   1.87885
   A28        1.90575   0.00274   0.00000   0.01280   0.01266   1.91841
   A29        1.90988  -0.00140   0.00000  -0.00913  -0.00919   1.90070
   A30        1.93606   0.00443   0.00000   0.03171   0.03153   1.96758
   A31        1.91096  -0.00242   0.00000  -0.02418  -0.02418   1.88678
   A32        1.90788  -0.00341   0.00000  -0.01955  -0.01980   1.88808
   A33        1.89317  -0.00004   0.00000   0.00754   0.00743   1.90060
   A34        1.93776  -0.00108   0.00000  -0.00289  -0.00288   1.93488
   A35        1.93393  -0.00038   0.00000  -0.00453  -0.00455   1.92938
   A36        1.93456  -0.00027   0.00000  -0.00523  -0.00524   1.92932
   A37        1.89576   0.00153   0.00000   0.01380   0.01379   1.90954
   A38        1.89584   0.00113   0.00000   0.00925   0.00923   1.90508
   A39        1.86384  -0.00085   0.00000  -0.00999  -0.01009   1.85375
   A40        2.12899  -0.00107   0.00000  -0.00480  -0.00481   2.12418
   A41        2.08372   0.00128   0.00000   0.00693   0.00692   2.09064
   A42        2.07045  -0.00021   0.00000  -0.00216  -0.00217   2.06828
    D1        0.01206  -0.00032   0.00000  -0.01467  -0.01479  -0.00272
    D2       -3.13469  -0.00005   0.00000  -0.00263  -0.00265  -3.13734
    D3       -3.12951  -0.00036   0.00000  -0.01609  -0.01619   3.13749
    D4        0.00692  -0.00009   0.00000  -0.00405  -0.00404   0.00288
    D5        0.01078  -0.00025   0.00000  -0.01116  -0.01122  -0.00044
    D6       -3.13404  -0.00017   0.00000  -0.00696  -0.00694  -3.14098
    D7       -3.13083  -0.00021   0.00000  -0.00974  -0.00982  -3.14065
    D8        0.00754  -0.00013   0.00000  -0.00554  -0.00555   0.00199
    D9       -0.02442   0.00075   0.00000   0.03128   0.03114   0.00672
   D10       -3.12120   0.00031   0.00000   0.01128   0.01128  -3.10992
   D11        3.12240   0.00045   0.00000   0.01903   0.01895   3.14134
   D12        0.02561   0.00002   0.00000  -0.00097  -0.00091   0.02470
   D13       -0.02064   0.00046   0.00000   0.02006   0.02007  -0.00057
   D14       -3.12500   0.00033   0.00000   0.01338   0.01340  -3.11160
   D15        3.12422   0.00038   0.00000   0.01577   0.01576   3.13998
   D16        0.01985   0.00024   0.00000   0.00909   0.00910   0.02895
   D17        0.01434  -0.00052   0.00000  -0.02226  -0.02218  -0.00783
   D18        3.11115  -0.00007   0.00000  -0.00221  -0.00229   3.10885
   D19       -3.12957  -0.00031   0.00000  -0.01305  -0.01294   3.14067
   D20       -0.03277   0.00014   0.00000   0.00700   0.00694  -0.02583
   D21        0.00801  -0.00008   0.00000  -0.00325  -0.00320   0.00482
   D22        3.11238   0.00006   0.00000   0.00347   0.00350   3.11588
   D23       -3.13126  -0.00030   0.00000  -0.01245  -0.01242   3.13950
   D24       -0.02689  -0.00015   0.00000  -0.00573  -0.00572  -0.03261
   D25        1.56120   0.00014   0.00000   0.00841   0.00848   1.56968
   D26       -2.61885  -0.00079   0.00000  -0.00378  -0.00377  -2.62261
   D27       -0.54164   0.00104   0.00000   0.02021   0.02034  -0.52130
   D28       -1.53504  -0.00015   0.00000  -0.01120  -0.01127  -1.54631
   D29        0.56810  -0.00108   0.00000  -0.02339  -0.02351   0.54459
   D30        2.64531   0.00075   0.00000   0.00060   0.00059   2.64590
   D31        1.56035  -0.00011   0.00000  -0.00111  -0.00111   1.55924
   D32       -2.61457   0.00084   0.00000   0.01134   0.01132  -2.60325
   D33       -0.54845  -0.00063   0.00000  -0.00733  -0.00731  -0.55576
   D34       -1.54349  -0.00023   0.00000  -0.00779  -0.00779  -1.55128
   D35        0.56477   0.00072   0.00000   0.00466   0.00464   0.56941
   D36        2.63090  -0.00075   0.00000  -0.01401  -0.01399   2.61690
   D37        1.51050   0.00080   0.00000   0.01344   0.01351   1.52401
   D38       -2.68132  -0.00134   0.00000  -0.01381  -0.01388  -2.69520
   D39       -0.59320   0.00047   0.00000   0.00945   0.00937  -0.58383
   D40       -1.60562   0.00096   0.00000   0.01890   0.01903  -1.58660
   D41        0.48574  -0.00118   0.00000  -0.00835  -0.00837   0.47737
   D42        2.57386   0.00064   0.00000   0.01491   0.01488   2.58875
   D43       -3.13123   0.00064   0.00000   0.03071   0.03069  -3.10055
   D44        0.00508   0.00048   0.00000   0.02235   0.02230   0.02739
   D45       -0.01534   0.00068   0.00000   0.02601   0.02607   0.01073
   D46        3.12098   0.00053   0.00000   0.01766   0.01768   3.13867
   D47       -3.13630  -0.00003   0.00000  -0.00300  -0.00299  -3.13929
   D48        0.01052   0.00012   0.00000   0.00527   0.00526   0.01579
   D49        1.01624   0.00011   0.00000  -0.00468  -0.00465   1.01159
   D50       -2.12012   0.00026   0.00000   0.00359   0.00360  -2.11652
   D51       -1.00481  -0.00031   0.00000  -0.00523  -0.00524  -1.01006
   D52        2.14201  -0.00016   0.00000   0.00304   0.00301   2.14502
         Item               Value     Threshold  Converged?
 Maximum Force            0.012859     0.000450     NO 
 RMS     Force            0.002703     0.000300     NO 
 Maximum Displacement     0.173822     0.001800     NO 
 RMS     Displacement     0.033047     0.001200     NO 
 Predicted change in Energy=-1.692040D-03
 GradGradGradGradGradGradGradGradGradGradGradGradGradGradGradGradGradGrad

                          Input orientation:                          
 ---------------------------------------------------------------------
 Center     Atomic      Atomic             Coordinates (Angstroms)
 Number     Number       Type             X           Y           Z
 ---------------------------------------------------------------------
      1          6           0        1.844432   -0.260540    0.324707
      2          6           0        0.576931   -0.315823    0.907211
      3          6           0        2.931855   -0.870192    0.950524
      4          6           0        1.480136   -1.585037    2.737268
      5          6           0        0.375364   -0.983336    2.121589
      6          6           0        2.758555   -1.540488    2.166482
      7          6           0        5.664132   -1.555970    4.529723
      8          6           0       -1.005588   -1.081451    2.737958
      9          6           0        6.180646   -0.471110    5.468409
     10          6           0        3.937224   -2.171798    2.873143
     11          7           0        4.573097   -1.217084    3.779665
     12          8           0        6.158843   -2.675238    4.461255
     13          1           0        1.984819    0.257982   -0.620161
     14          1           0       -0.265649    0.158994    0.410009
     15          1           0        3.918222   -0.825084    0.494807
     16          1           0        1.341656   -2.107209    3.681844
     17          1           0       -1.531192   -1.979795    2.390792
     18          1           0       -0.955804   -1.133718    3.830871
     19          1           0       -1.624780   -0.217368    2.474714
     20          1           0        5.652415   -0.524511    6.427259
     21          1           0        7.242074   -0.641895    5.655992
     22          1           0        6.049974    0.538204    5.061799
     23          1           0        3.618105   -3.056051    3.439926
     24          1           0        4.678242   -2.525488    2.145218
     25          1           0        4.181460   -0.289934    3.854737
 ---------------------------------------------------------------------
                    Distance matrix (angstroms):
                    1          2          3          4          5
     1  C    0.000000
     2  C    1.396039   0.000000
     3  C    1.394923   2.419683   0.000000
     4  C    2.776230   2.403287   2.410590   0.000000
     5  C    2.430922   1.400327   2.814221   1.400580   0.000000
     6  C    2.421987   2.800902   1.399245   1.400762   2.447862
     7  C    5.826698   6.367117   4.554811   4.551875   5.839357
     8  C    3.823648   2.538146   4.329319   2.536222   1.515442
     9  C    6.730880   7.227050   5.578996   5.549303   6.720481
    10  C    3.811457   4.312899   2.530100   2.529828   3.829376
    11  N    4.505255   5.003259   3.289081   3.284568   4.519382
    12  O    6.446389   7.025369   5.098713   5.104015   6.464147
    13  H    1.086899   2.155056   2.153301   3.863127   3.412976
    14  H    2.153074   1.087475   3.402266   3.391982   2.155301
    15  H    2.155980   3.404945   1.087489   3.398591   3.901705
    16  H    3.864368   3.390053   3.393973   1.088147   2.152024
    17  H    4.315018   3.068224   4.819168   3.056791   2.168030
    18  H    4.571318   3.400885   4.845590   2.708036   2.171697
    19  H    4.081645   2.704495   4.848944   3.402933   2.170710
    20  H    7.198024   7.501668   6.124996   5.669979   6.826169
    21  H    7.596221   8.190322   6.385260   6.527511   7.730478
    22  H    6.384717   6.924172   5.348722   5.549326   6.569711
    23  H    4.545920   4.813755   3.383200   2.688591   4.068111
    24  H    4.058907   4.820376   2.686478   3.385684   4.570946
    25  H    4.233636   4.656308   3.214447   3.197371   4.239218
                    6          7          8          9         10
     6  C    0.000000
     7  C    3.745334   0.000000
     8  C    3.834849   6.922482   0.000000
     9  C    4.874115   1.524742   7.711668   0.000000
    10  C    1.512343   2.470975   5.063449   3.828928   0.000000
    11  N    2.449390   1.366671   5.676731   2.447968   1.462053
    12  O    4.256242   1.225637   7.539163   2.423430   2.776895
    13  H    3.405663   6.584001   4.691862   7.430156   4.681761
    14  H    3.888347   7.421284   2.739627   8.218221   5.400348
    15  H    2.156648   4.456786   5.416766   5.475452   2.733217
    16  H    2.150603   4.439207   2.729955   5.411511   2.719401
    17  H    4.318012   7.518466   1.097180   8.439211   5.493004
    18  H    4.090490   6.670101   1.095294   7.351836   5.092796
    19  H    4.589039   7.690459   1.095142   8.363687   5.908843
    20  H    5.249844   2.159789   7.632177   1.096026   4.276351
    21  H    5.752052   2.143342   8.759684   1.091323   4.583328
    22  H    4.851521   2.194890   7.602925   1.095957   4.074069
    23  H    2.158105   2.761182   5.076450   4.166927   1.097717
    24  H    2.157748   2.756412   5.894277   4.185843   1.097305
    25  H    2.537469   2.063194   5.364621   2.575559   2.136490
                   11         12         13         14         15
    11  N    0.000000
    12  O    2.259506   0.000000
    13  H    5.313518   7.200489   0.000000
    14  H    6.054885   8.106760   2.477025   0.000000
    15  H    3.372361   4.916925   2.480773   4.298881   0.000000
    16  H    3.353222   4.912782   4.951266   4.292320   4.294152
    17  H    6.306586   7.994191   5.141577   3.177974   5.884235
    18  H    5.529766   7.306974   5.513236   3.721520   5.914449
    19  H    6.412176   8.400729   4.778432   2.500378   5.917282
    20  H    2.941825   2.957578   7.983087   8.467465   6.188033
    21  H    3.312836   2.595239   8.236419   9.193893   6.141610
    22  H    2.627940   3.270889   6.992043   7.853027   5.221143
    23  H    2.099817   2.764684   5.489512   5.882215   3.706886
    24  H    2.096281   2.752931   4.759154   5.887228   2.488545
    25  H    1.009267   3.157148   5.014993   5.643090   3.412449
                   16         17         18         19         20
    16  H    0.000000
    17  H    3.152190   0.000000
    18  H    2.499644   1.766562   0.000000
    19  H    3.718656   1.766904   1.768159   0.000000
    20  H    5.350222   8.367504   7.126074   8.287009   0.000000
    21  H    6.392130   9.456305   8.412976   9.429839   1.770776
    22  H    5.574113   8.423103   7.306944   8.134233   1.775359
    23  H    2.478113   5.364165   4.976831   6.039669   4.412626
    24  H    3.697159   6.238201   6.043255   6.720422   4.825847
    25  H    3.375924   6.134586   5.206152   5.968429   2.972643
                   21         22         23         24         25
    21  H    0.000000
    22  H    1.779552   0.000000
    23  H    4.885924   4.632831   0.000000
    24  H    4.737794   4.446830   1.755465   0.000000
    25  H    3.568719   2.373638   2.853216   2.857787   0.000000
 Stoichiometry    C10H13NO
 Framework group  C1[X(C10H13NO)]
 Deg. of freedom    69
 Full point group                 C1      NOp   1
 Largest Abelian subgroup         C1      NOp   1
 Largest concise Abelian subgroup C1      NOp   1
                         Standard orientation:                         
 ---------------------------------------------------------------------
 Center     Atomic      Atomic             Coordinates (Angstroms)
 Number     Number       Type             X           Y           Z
 ---------------------------------------------------------------------
      1          6           0       -2.327071    1.734565    0.423581
      2          6           0       -3.141555    0.601292    0.458724
      3          6           0       -1.011456    1.639767   -0.030272
      4          6           0       -1.330983   -0.719274   -0.409449
      5          6           0       -2.655886   -0.642994    0.038256
      6          6           0       -0.500148    0.407662   -0.452608
      7          6           0        3.164785   -0.176421    0.052013
      8          6           0       -3.547772   -1.868187    0.035823
      9          6           0        3.942560   -0.548282    1.309640
     10          6           0        0.936158    0.285455   -0.910072
     11          7           0        1.816937   -0.020835    0.215989
     12          8           0        3.688806   -0.053283   -1.049089
     13          1           0       -2.719148    2.694433    0.749582
     14          1           0       -4.167146    0.685637    0.810365
     15          1           0       -0.379025    2.524074   -0.056048
     16          1           0       -0.936974   -1.678538   -0.739047
     17          1           0       -4.069682   -1.976068   -0.923227
     18          1           0       -2.972094   -2.785475    0.199673
     19          1           0       -4.310767   -1.810597    0.819313
     20          1           0        3.951531   -1.637100    1.434813
     21          1           0        4.974629   -0.211043    1.199698
     22          1           0        3.518495   -0.103283    2.216980
     23          1           0        1.032340   -0.498685   -1.672212
     24          1           0        1.269567    1.216795   -1.384965
     25          1           0        1.407483   -0.129535    1.132042
 ---------------------------------------------------------------------
 Rotational constants (GHZ):      2.0635519      0.4073403      0.3787662
 Standard basis: 6-31G(d) (6D, 7F)
 There are   206 symmetry adapted basis functions of A   symmetry.
 Integral buffers will be    131072 words long.
 Raffenetti 2 integral format.
 Two-electron integral symmetry is turned on.
   206 basis functions,   388 primitive gaussians,   206 cartesian basis functions
    44 alpha electrons       44 beta electrons
       nuclear repulsion energy       648.5703136351 Hartrees.
 NAtoms=   25 NActive=   25 NUniq=   25 SFac= 1.00D+00 NAtFMM=   60 NAOKFM=F Big=F
 One-electron integrals computed using PRISM.
 NBasis=   206 RedAO= T  NBF=   206
 NBsUse=   206 1.00D-06 NBFU=   206
 Initial guess read from the read-write file.
 B after Tr=     0.000000    0.000000    0.000000
         Rot=    1.000000    0.000000    0.000000    0.000000 Ang=   0.00 deg.
 Initial guess orbital symmetries:
       Occupied  (A) (A) (A) (A) (A) (A) (A) (A) (A) (A) (A) (A)
                 (A) (A) (A) (A) (A) (A) (A) (A) (A) (A) (A) (A)
                 (A) (A) (A) (A) (A) (A) (A) (A) (A) (A) (A) (A)
                 (A) (A) (A) (A) (A) (A) (A) (A)
       Virtual   (A) (A) (A) (A) (A) (A) (A) (A) (A) (A) (A) (A)
                 (A) (A) (A) (A) (A) (A) (A) (A) (A) (A) (A) (A)
                 (A) (A) (A) (A) (A) (A) (A) (A) (A) (A) (A) (A)
                 (A) (A) (A) (A) (A) (A) (A) (A) (A) (A) (A) (A)
                 (A) (A) (A) (A) (A) (A) (A) (A) (A) (A) (A) (A)
                 (A) (A) (A) (A) (A) (A) (A) (A) (A) (A) (A) (A)
                 (A) (A) (A) (A) (A) (A) (A) (A) (A) (A) (A) (A)
                 (A) (A) (A) (A) (A) (A) (A) (A) (A) (A) (A) (A)
                 (A) (A) (A) (A) (A) (A) (A) (A) (A) (A) (A) (A)
                 (A) (A) (A) (A) (A) (A) (A) (A) (A) (A) (A) (A)
                 (A) (A) (A) (A) (A) (A) (A) (A) (A) (A) (A) (A)
                 (A) (A) (A) (A) (A) (A) (A) (A) (A) (A) (A) (A)
                 (A) (A) (A) (A) (A) (A) (A) (A) (A) (A) (A) (A)
                 (A) (A) (A) (A) (A) (A)
 Harris functional with IExCor=  402 diagonalized for initial guess.
 ExpMin= 1.61D-01 ExpMax= 5.48D+03 ExpMxC= 8.25D+02 IAcc=3 IRadAn=         5 AccDes= 0.00D+00
 HarFok:  IExCor=  402 AccDes= 0.00D+00 IRadAn=         5 IDoV= 1
 ScaDFX=  1.000000  1.000000  1.000000  1.000000
 FoFCou: FMM=F IPFlag=           0 FMFlag=      100000 FMFlg1=           0
         NFxFlg=           0 DoJE=T BraDBF=F KetDBF=T FulRan=T
         Omega=  0.000000  0.000000  1.000000  0.000000  0.000000 ICntrl=     500 IOpCl=  0
         NMat0=    1 NMatS0=    1 NMatT0=    0 NMatD0=    1 NMtDS0=    0 NMtDT0=    0
         I1Cent=           4 NGrid=           0.
 Petite list used in FoFCou.
 Requested convergence on RMS density matrix=1.00D-08 within 128 cycles.
 Requested convergence on MAX density matrix=1.00D-06.
 Requested convergence on             energy=1.00D-06.
 No special actions if energy rises.
 Integral accuracy reduced to 1.0D-05 until final iterations.
 Initial convergence to 1.0D-05 achieved.  Increase integral accuracy.
 SCF Done:  E(RB3LYP) =  -518.892425931     A.U. after   12 cycles
             Convg  =    0.6704D-08             -V/T =  2.0097
 Calling FoFJK, ICntrl=      2127 FMM=F ISym2X=0 I1Cent= 0 IOpClX= 0 NMat=1 NMatS=1 NMatT=0.
 ***** Axes restored to original set *****
 -------------------------------------------------------------------
 Center     Atomic                   Forces (Hartrees/Bohr)
 Number     Number              X              Y              Z
 -------------------------------------------------------------------
      1        6          -0.000448960   -0.000187262    0.000375862
      2        6           0.000813312    0.000036884   -0.000844971
      3        6          -0.000165408    0.000860009   -0.000740160
      4        6           0.000176576    0.000143116   -0.000370144
      5        6          -0.001499790   -0.000432474    0.001086089
      6        6          -0.000322940    0.000394571    0.001064069
      7        6          -0.002104941   -0.002843636   -0.001962129
      8        6           0.002045559    0.001115148   -0.000188860
      9        6           0.000311374    0.000482481   -0.001264802
     10        6          -0.000684512   -0.002056769   -0.001170606
     11        7           0.001323619    0.002989128    0.002021989
     12        8           0.001919839    0.000458124    0.001611025
     13        1          -0.000175995    0.000050522    0.000012483
     14        1          -0.000184570    0.000172542    0.000055497
     15        1           0.000054487   -0.000240346    0.000101422
     16        1           0.000060153   -0.000229429    0.000400502
     17        1          -0.000339102   -0.000341800   -0.000078133
     18        1           0.000312510   -0.000533898   -0.000050951
     19        1           0.000010756   -0.000108662   -0.000580768
     20        1          -0.000184154   -0.000254964    0.000150837
     21        1           0.000128302   -0.000782765   -0.000038992
     22        1          -0.000684708   -0.000243069    0.000115918
     23        1           0.000541293    0.000816881    0.000569865
     24        1           0.000209610    0.000556188    0.000618855
     25        1          -0.001112311    0.000179482   -0.000893896
 -------------------------------------------------------------------
 Cartesian Forces:  Max     0.002989128 RMS     0.000938837

 GradGradGradGradGradGradGradGradGradGradGradGradGradGradGradGradGradGrad
 Berny optimization.
 Using GEDIIS/GDIIS optimizer.
 Internal  Forces:  Max     0.003853633 RMS     0.000616779
 Search for a local minimum.
 Step number   2 out of a maximum of  129
 All quantities printed in internal units (Hartrees-Bohrs-Radians)
 Mixed Optimization -- En-DIIS/RFO-DIIS
 Update second derivatives using D2CorX and points    1    2
 DE= -1.48D-03 DEPred=-1.69D-03 R= 8.73D-01
 SS=  1.41D+00  RLast= 1.48D-01 DXNew= 5.0454D-01 4.4509D-01
 Trust test= 8.73D-01 RLast= 1.48D-01 DXMaxT set to 4.45D-01
 ITU=  1  0
 Use linear search instead of GDIIS.
     Eigenvalues ---    0.00688   0.00709   0.00748   0.01100   0.01247
     Eigenvalues ---    0.01497   0.01498   0.01551   0.02058   0.02065
     Eigenvalues ---    0.02077   0.02100   0.02117   0.02130   0.02144
     Eigenvalues ---    0.02160   0.05230   0.06641   0.06978   0.07091
     Eigenvalues ---    0.07178   0.07438   0.09978   0.13187   0.15161
     Eigenvalues ---    0.16000   0.16000   0.16000   0.16000   0.16000
     Eigenvalues ---    0.16000   0.16000   0.16000   0.16000   0.16389
     Eigenvalues ---    0.21721   0.21952   0.22007   0.23393   0.23468
     Eigenvalues ---    0.24933   0.24989   0.24992   0.27293   0.31733
     Eigenvalues ---    0.31958   0.33842   0.34072   0.34232   0.34233
     Eigenvalues ---    0.34259   0.34290   0.34402   0.34430   0.34581
     Eigenvalues ---    0.34815   0.34850   0.34938   0.35353   0.39153
     Eigenvalues ---    0.41561   0.41925   0.44967   0.45368   0.45717
     Eigenvalues ---    0.46123   0.46430   0.50705   0.91309
 RFO step:  Lambda=-1.59944552D-04 EMin= 6.88434254D-03
 Quartic linear search produced a step of -0.09312.
 Iteration  1 RMS(Cart)=  0.00765220 RMS(Int)=  0.00005690
 Iteration  2 RMS(Cart)=  0.00006788 RMS(Int)=  0.00001449
 Iteration  3 RMS(Cart)=  0.00000001 RMS(Int)=  0.00001449
 Variable       Old X    -DE/DX   Delta X   Delta X   Delta X     New X
                                 (Linear)    (Quad)   (Total)
    R1        2.63813  -0.00081  -0.00024  -0.00125  -0.00148   2.63665
    R2        2.63602  -0.00010  -0.00006  -0.00009  -0.00015   2.63587
    R3        2.05394  -0.00001   0.00034  -0.00054  -0.00020   2.05375
    R4        2.64624   0.00041  -0.00021   0.00109   0.00088   2.64711
    R5        2.05503   0.00019   0.00038  -0.00007   0.00031   2.05534
    R6        2.64419   0.00081   0.00026   0.00127   0.00152   2.64571
    R7        2.05506   0.00000   0.00038  -0.00058  -0.00020   2.05486
    R8        2.64671  -0.00032   0.00014  -0.00087  -0.00073   2.64598
    R9        2.64706  -0.00069   0.00043  -0.00201  -0.00158   2.64548
   R10        2.05630   0.00045   0.00045   0.00049   0.00095   2.05725
   R11        2.86377  -0.00222  -0.00248  -0.00253  -0.00501   2.85876
   R12        2.85791  -0.00008  -0.00114   0.00148   0.00034   2.85825
   R13        2.88135  -0.00135  -0.00361   0.00159  -0.00202   2.87932
   R14        2.58263  -0.00046   0.00072  -0.00191  -0.00119   2.58145
   R15        2.31612   0.00027   0.00067  -0.00073  -0.00007   2.31605
   R16        2.07337   0.00047  -0.00051   0.00200   0.00149   2.07486
   R17        2.06981  -0.00001  -0.00004   0.00003  -0.00001   2.06980
   R18        2.06952   0.00005  -0.00001   0.00015   0.00013   2.06965
   R19        2.07119   0.00023  -0.00050   0.00137   0.00087   2.07206
   R20        2.06230   0.00024   0.00038   0.00007   0.00044   2.06275
   R21        2.07106  -0.00019  -0.00040   0.00011  -0.00029   2.07077
   R22        2.76288  -0.00035  -0.00305   0.00377   0.00072   2.76360
   R23        2.07439  -0.00052  -0.00022  -0.00106  -0.00128   2.07311
   R24        2.07361  -0.00045  -0.00014  -0.00098  -0.00112   2.07249
   R25        1.90724   0.00053   0.00124  -0.00079   0.00045   1.90769
    A1        2.09818  -0.00009  -0.00014  -0.00016  -0.00030   2.09788
    A2        2.09312  -0.00014   0.00000  -0.00087  -0.00088   2.09224
    A3        2.09189   0.00023   0.00014   0.00104   0.00118   2.09306
    A4        2.10763  -0.00001  -0.00061   0.00079   0.00019   2.10781
    A5        2.08910   0.00011  -0.00077   0.00181   0.00104   2.09013
    A6        2.08644  -0.00010   0.00138  -0.00259  -0.00121   2.08523
    A7        2.09750  -0.00001   0.00035  -0.00044  -0.00009   2.09741
    A8        2.09548   0.00024  -0.00125   0.00315   0.00189   2.09737
    A9        2.09021  -0.00023   0.00090  -0.00270  -0.00181   2.08840
   A10        2.12600  -0.00025  -0.00153   0.00130  -0.00023   2.12577
   A11        2.07986   0.00025   0.00076   0.00005   0.00080   2.08067
   A12        2.07730   0.00001   0.00078  -0.00135  -0.00057   2.07673
   A13        2.06288   0.00031   0.00158  -0.00132   0.00027   2.06314
   A14        2.11151  -0.00013  -0.00093   0.00097   0.00004   2.11155
   A15        2.10853  -0.00018  -0.00071   0.00046  -0.00025   2.10827
   A16        2.07416   0.00006   0.00033  -0.00018   0.00016   2.07432
   A17        2.10540   0.00024  -0.00026   0.00121   0.00095   2.10635
   A18        2.10322  -0.00029  -0.00009  -0.00098  -0.00107   2.10214
   A19        2.01737  -0.00184  -0.00253  -0.00275  -0.00531   2.01207
   A20        2.15007  -0.00201  -0.00097  -0.00570  -0.00670   2.14336
   A21        2.11532   0.00385   0.00351   0.00884   0.01232   2.12764
   A22        1.93998   0.00017  -0.00193   0.00285   0.00092   1.94090
   A23        1.94713  -0.00030  -0.00114   0.00051  -0.00062   1.94650
   A24        1.94590  -0.00028  -0.00096   0.00037  -0.00057   1.94533
   A25        1.87384  -0.00011   0.00252  -0.00539  -0.00287   1.87098
   A26        1.87456  -0.00011   0.00240  -0.00518  -0.00278   1.87178
   A27        1.87885   0.00065  -0.00067   0.00655   0.00590   1.88475
   A28        1.91841  -0.00032  -0.00118  -0.00115  -0.00233   1.91608
   A29        1.90070  -0.00075   0.00086  -0.00506  -0.00420   1.89650
   A30        1.96758  -0.00010  -0.00294   0.00445   0.00153   1.96912
   A31        1.88678   0.00027   0.00225  -0.00323  -0.00099   1.88579
   A32        1.88808   0.00010   0.00184  -0.00303  -0.00116   1.88691
   A33        1.90060   0.00084  -0.00069   0.00783   0.00715   1.90775
   A34        1.93488  -0.00073   0.00027  -0.00451  -0.00424   1.93064
   A35        1.92938   0.00077   0.00042   0.00488   0.00529   1.93467
   A36        1.92932   0.00059   0.00049   0.00388   0.00435   1.93367
   A37        1.90954  -0.00052  -0.00128  -0.00420  -0.00547   1.90407
   A38        1.90508  -0.00027  -0.00086  -0.00272  -0.00358   1.90150
   A39        1.85375   0.00018   0.00094   0.00283   0.00375   1.85750
   A40        2.12418  -0.00133   0.00045  -0.00616  -0.00572   2.11847
   A41        2.09064   0.00194  -0.00064   0.01093   0.01028   2.10093
   A42        2.06828  -0.00061   0.00020  -0.00478  -0.00457   2.06371
    D1       -0.00272   0.00000   0.00138  -0.00240  -0.00101  -0.00373
    D2       -3.13734  -0.00008   0.00025  -0.00390  -0.00365  -3.14099
    D3        3.13749   0.00001   0.00151  -0.00184  -0.00033   3.13716
    D4        0.00288  -0.00006   0.00038  -0.00335  -0.00297  -0.00010
    D5       -0.00044   0.00002   0.00104  -0.00078   0.00027  -0.00017
    D6       -3.14098  -0.00006   0.00065  -0.00376  -0.00312   3.13909
    D7       -3.14065   0.00001   0.00091  -0.00133  -0.00041  -3.14106
    D8        0.00199  -0.00008   0.00052  -0.00431  -0.00380  -0.00181
    D9        0.00672  -0.00001  -0.00290   0.00418   0.00129   0.00802
   D10       -3.10992  -0.00004  -0.00105  -0.00048  -0.00153  -3.11145
   D11        3.14134   0.00007  -0.00176   0.00570   0.00394  -3.13790
   D12        0.02470   0.00004   0.00008   0.00104   0.00111   0.02582
   D13       -0.00057  -0.00002  -0.00187   0.00202   0.00015  -0.00042
   D14       -3.11160  -0.00004  -0.00125   0.00005  -0.00120  -3.11280
   D15        3.13998   0.00006  -0.00147   0.00499   0.00352  -3.13969
   D16        0.02895   0.00005  -0.00085   0.00302   0.00217   0.03112
   D17       -0.00783   0.00001   0.00207  -0.00294  -0.00088  -0.00871
   D18        3.10885   0.00004   0.00021   0.00173   0.00195   3.11080
   D19        3.14067   0.00000   0.00121  -0.00207  -0.00087   3.13980
   D20       -0.02583   0.00003  -0.00065   0.00259   0.00195  -0.02387
   D21        0.00482   0.00001   0.00030  -0.00012   0.00017   0.00498
   D22        3.11588   0.00003  -0.00033   0.00188   0.00155   3.11743
   D23        3.13950   0.00002   0.00116  -0.00098   0.00017   3.13967
   D24       -0.03261   0.00004   0.00053   0.00102   0.00155  -0.03106
   D25        1.56968   0.00001  -0.00079   0.00066  -0.00014   1.56954
   D26       -2.62261  -0.00021   0.00035  -0.00391  -0.00356  -2.62618
   D27       -0.52130   0.00022  -0.00189   0.00505   0.00315  -0.51816
   D28       -1.54631  -0.00003   0.00105  -0.00410  -0.00304  -1.54935
   D29        0.54459  -0.00025   0.00219  -0.00867  -0.00647   0.53811
   D30        2.64590   0.00018  -0.00005   0.00029   0.00024   2.64613
   D31        1.55924   0.00005   0.00010  -0.00261  -0.00251   1.55673
   D32       -2.60325  -0.00058  -0.00105  -0.00765  -0.00872  -2.61197
   D33       -0.55576   0.00048   0.00068   0.00123   0.00192  -0.55384
   D34       -1.55128   0.00003   0.00073  -0.00463  -0.00390  -1.55518
   D35        0.56941  -0.00060  -0.00043  -0.00967  -0.01011   0.55930
   D36        2.61690   0.00046   0.00130  -0.00079   0.00053   2.61744
   D37        1.52401   0.00028  -0.00126   0.02374   0.02243   1.54645
   D38       -2.69520  -0.00003   0.00129   0.01613   0.01740  -2.67780
   D39       -0.58383   0.00045  -0.00087   0.02542   0.02452  -0.55931
   D40       -1.58660   0.00003  -0.00177   0.00925   0.00749  -1.57910
   D41        0.47737  -0.00028   0.00078   0.00164   0.00246   0.47984
   D42        2.58875   0.00020  -0.00139   0.01093   0.00958   2.59833
   D43       -3.10055  -0.00002  -0.00286  -0.00099  -0.00389  -3.10444
   D44        0.02739  -0.00003  -0.00208  -0.00210  -0.00423   0.02316
   D45        0.01073   0.00012  -0.00243   0.01291   0.01053   0.02127
   D46        3.13867   0.00011  -0.00165   0.01180   0.01020  -3.13432
   D47       -3.13929   0.00003   0.00028   0.00004   0.00032  -3.13898
   D48        0.01579   0.00002  -0.00049   0.00102   0.00053   0.01632
   D49        1.01159  -0.00011   0.00043  -0.00032   0.00011   1.01170
   D50       -2.11652  -0.00012  -0.00034   0.00066   0.00032  -2.11619
   D51       -1.01006   0.00011   0.00049   0.00016   0.00065  -1.00941
   D52        2.14502   0.00010  -0.00028   0.00114   0.00086   2.14588
         Item               Value     Threshold  Converged?
 Maximum Force            0.003854     0.000450     NO 
 RMS     Force            0.000617     0.000300     NO 
 Maximum Displacement     0.043233     0.001800     NO 
 RMS     Displacement     0.007657     0.001200     NO 
 Predicted change in Energy=-9.619566D-05
 GradGradGradGradGradGradGradGradGradGradGradGradGradGradGradGradGradGrad

                          Input orientation:                          
 ---------------------------------------------------------------------
 Center     Atomic      Atomic             Coordinates (Angstroms)
 Number     Number       Type             X           Y           Z
 ---------------------------------------------------------------------
      1          6           0        1.846672   -0.258534    0.326648
      2          6           0        0.579481   -0.314118    0.907915
      3          6           0        2.933277   -0.868949    0.952959
      4          6           0        1.480111   -1.585894    2.737802
      5          6           0        0.376448   -0.983822    2.121378
      6          6           0        2.758371   -1.540795    2.168761
      7          6           0        5.659015   -1.559459    4.530183
      8          6           0       -1.002296   -1.080282    2.736438
      9          6           0        6.176991   -0.470586    5.461650
     10          6           0        3.935134   -2.174891    2.876485
     11          7           0        4.569510   -1.216569    3.780864
     12          8           0        6.166440   -2.673098    4.463655
     13          1           0        1.986951    0.261486   -0.617294
     14          1           0       -0.262856    0.163895    0.413011
     15          1           0        3.920197   -0.827331    0.498360
     16          1           0        1.341204   -2.109257    3.682235
     17          1           0       -1.530872   -1.977238    2.387710
     18          1           0       -0.951800   -1.138374    3.829019
     19          1           0       -1.620414   -0.215731    2.471915
     20          1           0        5.662817   -0.533387    6.428066
     21          1           0        7.242119   -0.635897    5.633916
     22          1           0        6.027096    0.538250    5.060944
     23          1           0        3.617876   -3.054278    3.450527
     24          1           0        4.679788   -2.528747    2.153260
     25          1           0        4.173909   -0.290334    3.849335
 ---------------------------------------------------------------------
                    Distance matrix (angstroms):
                    1          2          3          4          5
     1  C    0.000000
     2  C    1.395254   0.000000
     3  C    1.394841   2.418723   0.000000
     4  C    2.776674   2.403547   2.410678   0.000000
     5  C    2.430773   1.400793   2.813499   1.400194   0.000000
     6  C    2.422554   2.800363   1.400051   1.399926   2.446636
     7  C    5.822033   6.361868   4.550053   4.547149   5.834314
     8  C    3.820861   2.536242   4.325991   2.533376   1.512791
     9  C    6.720482   7.217556   5.568543   5.542918   6.713206
    10  C    3.812580   4.312557   2.531630   2.528495   3.827934
    11  N    4.501476   4.998859   3.285596   3.281580   4.515511
    12  O    6.450221   7.030092   5.102282   5.110994   6.470234
    13  H    1.086795   2.153729   2.153859   3.863466   3.412453
    14  H    2.153140   1.087639   3.401996   3.391807   2.155106
    15  H    2.156971   3.404630   1.087384   3.397726   3.900877
    16  H    3.865312   3.391105   3.394408   1.088649   2.152587
    17  H    4.313899   3.067466   4.818241   3.056425   2.166951
    18  H    4.568607   3.399569   4.841295   2.702817   2.168909
    19  H    4.077338   2.700984   4.844587   3.400191   2.168016
    20  H    7.201792   7.507359   6.126971   5.676340   6.833458
    21  H    7.577621   8.174923   6.366458   6.518489   7.719871
    22  H    6.365875   6.902948   5.331741   5.530285   6.548861
    23  H    4.551040   4.817177   3.388537   2.689640   4.069432
    24  H    4.064102   4.823689   2.691830   3.386531   4.572368
    25  H    4.222129   4.644613   3.203585   3.189127   4.229359
                    6          7          8          9         10
     6  C    0.000000
     7  C    3.740374   0.000000
     8  C    3.831051   6.915215   0.000000
     9  C    4.865741   1.523672   7.703290   0.000000
    10  C    1.512522   2.466827   5.059249   3.822781   0.000000
    11  N    2.446267   1.366043   5.670487   2.442443   1.462434
    12  O    4.261876   1.225601   7.543946   2.418091   2.783172
    13  H    3.406671   6.580001   4.688652   7.419295   4.683784
    14  H    3.887987   7.415498   2.737346   8.207494   5.400161
    15  H    2.156179   4.451415   5.413309   5.463940   2.733426
    16  H    2.149911   4.434500   2.728610   5.407070   2.716987
    17  H    4.316947   7.513934   1.097968   8.433876   5.491375
    18  H    4.084577   6.661217   1.095289   7.343779   5.085648
    19  H    4.584916   7.683239   1.095212   8.354819   5.904752
    20  H    5.252842   2.157498   7.638779   1.096484   4.277049
    21  H    5.738478   2.139489   8.750042   1.091558   4.572535
    22  H    4.834430   2.194898   7.578610   1.095804   4.063163
    23  H    2.161551   2.750707   5.074699   4.155617   1.097041
    24  H    2.160586   2.747393   5.892727   4.174097   1.096712
    25  H    2.528187   2.068760   5.353098   2.577671   2.134245
                   11         12         13         14         15
    11  N    0.000000
    12  O    2.266686   0.000000
    13  H    5.310184   7.203885   0.000000
    14  H    6.049783   8.111233   2.476425   0.000000
    15  H    3.368671   4.916912   2.483475   4.299738   0.000000
    16  H    3.350908   4.920512   4.952106   4.292791   4.293204
    17  H    6.303504   8.002649   5.139747   3.176752   5.882694
    18  H    5.522074   7.309411   5.510495   3.720170   5.909856
    19  H    6.405481   8.404807   4.773261   2.495229   5.913319
    20  H    2.944441   2.948035   7.986295   8.472348   6.187450
    21  H    3.303607   2.583947   8.215820   9.177263   6.119292
    22  H    2.615827   3.269392   6.974364   7.829873   5.207783
    23  H    2.095687   2.768918   5.495577   5.885849   3.710253
    24  H    2.093577   2.751163   4.765788   5.891393   2.492085
    25  H    1.009504   3.166249   5.003805   5.630234   3.403200
                   16         17         18         19         20
    16  H    0.000000
    17  H    3.153101   0.000000
    18  H    2.494399   1.765330   0.000000
    19  H    3.717727   1.765790   1.772018   0.000000
    20  H    5.357172   8.376058   7.132616   8.294425   0.000000
    21  H    6.387538   9.449996   8.405382   9.419091   1.770700
    22  H    5.555872   8.402187   7.282424   8.109005   1.774860
    23  H    2.475881   5.366489   4.969495   6.037773   4.404817
    24  H    3.695927   6.239505   6.037888   6.718938   4.818897
    25  H    3.370552   6.125890   5.195429   5.956260   2.987603
                   21         22         23         24         25
    21  H    0.000000
    22  H    1.784152   0.000000
    23  H    4.873488   4.615630   0.000000
    24  H    4.718409   4.435801   1.756913   0.000000
    25  H    3.566238   2.364075   2.847385   2.853607   0.000000
 Stoichiometry    C10H13NO
 Framework group  C1[X(C10H13NO)]
 Deg. of freedom    69
 Full point group                 C1      NOp   1
 Largest Abelian subgroup         C1      NOp   1
 Largest concise Abelian subgroup C1      NOp   1
                         Standard orientation:                         
 ---------------------------------------------------------------------
 Center     Atomic      Atomic             Coordinates (Angstroms)
 Number     Number       Type             X           Y           Z
 ---------------------------------------------------------------------
      1          6           0       -2.325022    1.735849    0.419800
      2          6           0       -3.139895    0.603891    0.457041
      3          6           0       -1.009554    1.638780   -0.033746
      4          6           0       -1.330972   -0.720695   -0.409162
      5          6           0       -2.655550   -0.641866    0.037854
      6          6           0       -0.499397    0.404587   -0.454043
      7          6           0        3.160422   -0.179783    0.050572
      8          6           0       -3.546421   -1.864521    0.039663
      9          6           0        3.934828   -0.540745    1.312149
     10          6           0        0.936322    0.278736   -0.912951
     11          7           0        1.813725   -0.022881    0.217494
     12          8           0        3.696389   -0.054115   -1.044437
     13          1           0       -2.717028    2.696025    0.744634
     14          1           0       -4.164717    0.687940    0.811490
     15          1           0       -0.375631    2.521720   -0.064765
     16          1           0       -0.937157   -1.681158   -0.737149
     17          1           0       -4.071313   -1.974875   -0.918379
     18          1           0       -2.969771   -2.781717    0.200550
     19          1           0       -4.309571   -1.803054    0.822806
     20          1           0        3.960585   -1.630263    1.432833
     21          1           0        4.962193   -0.188074    1.204246
     22          1           0        3.496496   -0.107883    2.218396
     23          1           0        1.037418   -0.511955   -1.666666
     24          1           0        1.275494    1.206521   -1.389349
     25          1           0        1.397249   -0.125544    1.131336
 ---------------------------------------------------------------------
 Rotational constants (GHZ):      2.0669231      0.4076902      0.3791541
 Standard basis: 6-31G(d) (6D, 7F)
 There are   206 symmetry adapted basis functions of A   symmetry.
 Integral buffers will be    131072 words long.
 Raffenetti 2 integral format.
 Two-electron integral symmetry is turned on.
   206 basis functions,   388 primitive gaussians,   206 cartesian basis functions
    44 alpha electrons       44 beta electrons
       nuclear repulsion energy       648.8107347503 Hartrees.
 NAtoms=   25 NActive=   25 NUniq=   25 SFac= 1.00D+00 NAtFMM=   60 NAOKFM=F Big=F
 One-electron integrals computed using PRISM.
 NBasis=   206 RedAO= T  NBF=   206
 NBsUse=   206 1.00D-06 NBFU=   206
 Initial guess read from the read-write file.
 B after Tr=     0.000000    0.000000    0.000000
         Rot=    1.000000    0.000000    0.000000    0.000000 Ang=   0.00 deg.
 Initial guess orbital symmetries:
       Occupied  (A) (A) (A) (A) (A) (A) (A) (A) (A) (A) (A) (A)
                 (A) (A) (A) (A) (A) (A) (A) (A) (A) (A) (A) (A)
                 (A) (A) (A) (A) (A) (A) (A) (A) (A) (A) (A) (A)
                 (A) (A) (A) (A) (A) (A) (A) (A)
       Virtual   (A) (A) (A) (A) (A) (A) (A) (A) (A) (A) (A) (A)
                 (A) (A) (A) (A) (A) (A) (A) (A) (A) (A) (A) (A)
                 (A) (A) (A) (A) (A) (A) (A) (A) (A) (A) (A) (A)
                 (A) (A) (A) (A) (A) (A) (A) (A) (A) (A) (A) (A)
                 (A) (A) (A) (A) (A) (A) (A) (A) (A) (A) (A) (A)
                 (A) (A) (A) (A) (A) (A) (A) (A) (A) (A) (A) (A)
                 (A) (A) (A) (A) (A) (A) (A) (A) (A) (A) (A) (A)
                 (A) (A) (A) (A) (A) (A) (A) (A) (A) (A) (A) (A)
                 (A) (A) (A) (A) (A) (A) (A) (A) (A) (A) (A) (A)
                 (A) (A) (A) (A) (A) (A) (A) (A) (A) (A) (A) (A)
                 (A) (A) (A) (A) (A) (A) (A) (A) (A) (A) (A) (A)
                 (A) (A) (A) (A) (A) (A) (A) (A) (A) (A) (A) (A)
                 (A) (A) (A) (A) (A) (A) (A) (A) (A) (A) (A) (A)
                 (A) (A) (A) (A) (A) (A)
 Harris functional with IExCor=  402 diagonalized for initial guess.
 ExpMin= 1.61D-01 ExpMax= 5.48D+03 ExpMxC= 8.25D+02 IAcc=3 IRadAn=         5 AccDes= 0.00D+00
 HarFok:  IExCor=  402 AccDes= 0.00D+00 IRadAn=         5 IDoV= 1
 ScaDFX=  1.000000  1.000000  1.000000  1.000000
 FoFCou: FMM=F IPFlag=           0 FMFlag=      100000 FMFlg1=           0
         NFxFlg=           0 DoJE=T BraDBF=F KetDBF=T FulRan=T
         Omega=  0.000000  0.000000  1.000000  0.000000  0.000000 ICntrl=     500 IOpCl=  0
         NMat0=    1 NMatS0=    1 NMatT0=    0 NMatD0=    1 NMtDS0=    0 NMtDT0=    0
         I1Cent=           4 NGrid=           0.
 Petite list used in FoFCou.
 Requested convergence on RMS density matrix=1.00D-08 within 128 cycles.
[...]
 402,-0.00004492,-0.00002218,0.00001131,-0.00011875,-0.00029925,-0.0001
 7932,-0.00002919,-0.00006902,-0.00005141,-0.00003050,-0.00013304,0.000
 00815,0.09335068,0.23245198,-0.00111180,-0.00024569,-0.00053722,0.0016
 5363,-0.00001382,-0.00079843,0.00028290,-0.00050885,0.00074135,-0.0012
 5615,0.00051530,0.00047382,0.00246869,0.00634824,0.00376571,0.00070943
 ,0.00035597,-0.00053693,-0.00001249,-0.00000745,-0.00000716,-0.0445196
 4,-0.08897578,-0.09482504,0.00000394,0.00000106,-0.00000218,-0.0000210
 5,-0.00003286,0.00000406,0.00001026,0.00000701,0.00000300,0.00000296,0
 .00000869,0.00000885,0.00002211,0.00006213,0.00000839,0.00002856,0.000
 32106,0.00001720,-0.00000722,-0.00000347,0.00000372,-0.00014903,-0.000
 13276,-0.00015225,0.04868679,0.09897630,0.09937977,-0.00016297,-0.0015
 2210,0.00051136,-0.00547465,0.00160645,-0.00039812,-0.00005650,0.00016
 814,0.00005003,0.00176114,-0.00158152,0.00077785,-0.00761538,-0.002394
 68,0.03396749,-0.00006301,-0.00038036,0.00000018,-0.00001751,0.0000185
 9,0.00006456,-0.05868926,0.00020705,0.04980145,-0.00000530,-0.00000649
 ,0.00000644,0.00008067,-0.00005071,0.00005906,-0.00001033,0.00004430,-
 0.00006804,-0.00000318,-0.00000857,-0.00007210,-0.00046777,-0.00007615
 ,0.00004317,0.00008326,0.00019792,0.00026606,0.00001464,0.00007498,-0.
 00003267,0.00000996,0.00086204,-0.00065910,0.00265177,0.00168617,-0.01
 320518,0.06520802,-0.00057231,-0.00001651,0.00008859,-0.00032613,0.000
 59895,0.00031114,0.00020425,-0.00017156,0.00013596,0.00081993,0.000501
 02,-0.00043723,-0.00196524,-0.00147021,0.00201964,-0.00015266,-0.00024
 862,-0.00024656,0.00002224,0.00000727,-0.00001661,0.00045856,-0.049097
 26,0.00974749,-0.00000647,-0.00000430,0.00000505,0.00002453,0.00003267
 ,0.00000896,-0.00004407,-0.00002690,0.00000667,-0.00000804,-0.00000967
 ,0.00000341,-0.00007630,-0.00003836,-0.00000364,0.00000666,0.00027295,
 -0.00026055,-0.00002531,0.00008617,0.00005333,0.00016831,0.00013983,0.
 00026253,0.00581038,0.00178440,-0.02794066,0.00231684,0.04727795,-0.00
 063071,0.00040799,-0.00005876,0.00143474,-0.00065032,0.00019260,0.0000
 1359,-0.00031057,0.00052572,-0.00200905,0.00086281,0.00053168,0.000870
 78,0.00102515,-0.00270652,0.00079012,0.00038345,0.00018390,-0.00007783
 ,-0.00002920,-0.00002472,0.05159778,0.01007683,-0.30220378,0.00001368,
 0.00001170,-0.00000705,-0.00000834,0.00001361,-0.00016250,0.00008941,-
 0.00003098,0.00008142,0.00004352,0.00000573,0.00004015,0.00010786,-0.0
 0002757,-0.00004118,-0.00012434,-0.00025324,0.00016928,0.00000288,-0.0
 0015552,-0.00004180,0.00027913,-0.00081509,0.00023171,0.00211874,0.000
 77859,-0.01377640,-0.05635335,-0.01089761,0.32765156,-0.00023153,-0.00
 029491,-0.00026943,0.00181867,0.00048469,-0.00220565,0.00004475,0.0000
 0570,0.00021106,-0.00544613,-0.00064145,0.00310176,-0.01583599,0.02712
 819,-0.01421956,-0.00041203,0.00021702,-0.00166132,0.00021777,0.000039
 87,-0.00006724,-0.09889114,0.09382711,-0.04272110,-0.00002067,-0.00001
 755,0.00000876,-0.00020447,-0.00010652,0.00032062,-0.00026100,-0.00002
 352,-0.00010326,-0.00009520,0.00000153,0.00002527,0.00001816,-0.000004
 47,0.00002292,0.00024587,-0.00034760,0.00121820,0.00002246,-0.00000809
 ,0.00011337,0.00009618,0.00020506,0.00013121,0.00641458,-0.01067080,0.
 00639854,0.00279736,-0.00663124,0.00180731,0.10977766,0.00051569,0.000
 22475,-0.00003136,-0.00122955,0.00039582,0.00058269,-0.00004548,0.0003
 4927,-0.00040718,0.00017512,0.00039610,-0.00008615,-0.00220903,0.00266
 685,-0.00118655,-0.00075543,0.00004402,0.00029624,-0.00010825,-0.00002
 412,0.00000568,0.09622469,-0.22375215,0.08330328,0.00001299,0.00000645
 ,0.00000201,-0.00004964,-0.00010439,-0.00009377,0.00007327,0.00003678,
 -0.00000720,0.00005906,0.00000508,0.00000010,0.00003892,-0.00003098,-0
 .00003836,0.00017353,0.00012168,-0.00058569,-0.00000936,-0.00003485,-0
 .00007225,-0.00014640,0.00000888,-0.00010843,0.01163444,-0.02166345,0.
 01127283,-0.00118181,0.00037308,-0.00038754,-0.10317192,0.24096871,-0.
 00028023,-0.00042510,-0.00006412,0.00122270,-0.00049859,0.00048532,0.0
 0014572,-0.00002814,-0.00012292,0.00071696,0.00058771,0.00025527,0.001
 16583,-0.00530118,0.00126648,-0.00016138,0.00006888,0.00037129,0.00008
 078,0.00001920,-0.00002651,-0.04362239,0.08346968,-0.08955522,-0.00000
 863,-0.00000778,0.00000232,0.00005836,-0.00000927,0.00000044,-0.000087
 91,-0.00002365,-0.00000702,-0.00003798,-0.00000239,0.00001489,-0.00004
 704,0.00000319,0.00001629,0.00000766,0.00035065,0.00014400,-0.00002376
 ,0.00008033,0.00007877,0.00016748,-0.00029534,0.00030625,0.00747610,-0
 .01268368,0.00622262,-0.01472012,0.02716643,-0.01064343,0.04795016,-0.
 09246064,0.09126233,0.00001086,-0.00000533,-0.00000689,-0.00001180,0.0
 0000613,-0.00000583,-0.00005922,0.00000237,0.00000954,-0.00001408,0.00
 002712,-0.00003954,0.00002275,0.00000253,0.00000520,0.00011363,0.00001
 237,0.00012744,-0.01706493,0.00641517,-0.00424894,0.00000467,-0.000000
 77,-0.00000630,-0.24887715,0.09668759,-0.07467254,-0.00009617,-0.00063
 343,0.00079935,-0.00052312,-0.00235079,-0.00218505,0.00265095,-0.00024
 711,0.00215706,-0.00000319,0.00000712,-0.00000830,-0.00000306,0.000003
 27,-0.00000470,-0.00002176,0.00002098,-0.00001670,0.00001152,0.0000007
 5,-0.00000010,-0.00000767,-0.00000351,-0.00000078,0.00000017,0.0000009
 3,0.00000292,-0.00000457,0.00000347,-0.00000102,0.26875886,-0.00000178
 ,0.00001111,-0.00000434,-0.00000939,0.00001560,-0.00000954,-0.00001284
 ,0.00001304,-0.00000488,-0.00002105,0.00002314,-0.00000756,0.00000758,
 -0.00000518,0.00000312,0.00015596,0.00004340,0.00014645,-0.02367400,0.
 01074654,-0.00911590,0.00000092,0.00000201,-0.00000347,0.09637085,-0.0
 8866929,0.03294106,-0.00047714,-0.00098032,0.00101367,-0.00099839,-0.0
 0294492,-0.00170020,0.00149531,-0.00024762,0.00237497,-0.00000375,0.00
 000069,-0.00001170,-0.00000182,-0.00000149,-0.00000422,-0.00000856,-0.
 00000404,-0.00000689,0.00001152,-0.00000205,-0.00000417,-0.00000044,0.
 00000068,0.00000107,-0.00000084,-0.00000183,0.00000130,-0.00000312,0.0
 0000067,-0.00000146,-0.10270708,0.09664461,0.00000561,-0.00001211,0.00
 000414,-0.00001410,0.00000573,-0.00000146,-0.00001829,0.00000336,-0.00
 001747,-0.00000501,0.00001859,-0.00001649,0.00000873,0.00000807,-0.000
 00127,0.00007634,-0.00001275,0.00003339,-0.01618264,0.00989958,-0.0056
 6176,0.00000346,-0.00000031,-0.00000574,-0.07362574,0.03325490,-0.0760
 1988,-0.00038849,-0.00020428,0.00076379,-0.00002100,-0.00190901,-0.001
 50346,0.00194497,-0.00148612,0.00137835,-0.00000149,0.00000540,-0.0000
 0610,-0.00000542,0.00000282,-0.00000378,-0.00000100,0.00001505,0.00003
 030,0.00000728,-0.00000629,0.00000049,-0.00000580,-0.00000161,0.000001
 44,-0.00000215,-0.00000157,0.00000279,-0.00000491,0.00000290,-0.000001
 68,0.08174885,-0.03592889,0.07671733,0.00000209,0.00004781,-0.00000519
 ,-0.00002636,0.00002587,-0.00003042,-0.00007804,0.00007726,0.00003866,
 -0.00003510,0.00006078,-0.00008661,-0.00000207,0.00002161,0.00002414,-
 0.00010541,-0.00039602,-0.00003586,-0.00609593,-0.01569922,0.01072404,
 -0.00000100,0.00001287,-0.00000504,-0.05729544,-0.04893999,0.03603044,
 -0.00058937,0.00094068,-0.00054988,-0.00162166,-0.00135147,-0.00270085
 ,0.00040654,0.00240749,0.00014863,-0.00000753,0.00000291,-0.00002559,0
 .00000105,-0.00000340,-0.00000686,0.00003660,-0.00007413,-0.00004594,0
 .00001207,-0.00001447,-0.00001231,0.00000513,0.00000196,0.00000130,0.0
 0000179,-0.00000452,-0.00000011,-0.00000650,-0.00000032,-0.00000451,0.
 00795141,0.02395924,-0.01662774,0.06125966,0.00000763,0.00000226,0.000
 01180,-0.00003476,0.00001116,-0.00001676,-0.00010641,0.00002789,0.0000
 0800,-0.00000295,0.00003816,-0.00009891,0.00000653,0.00002992,0.000006
 03,-0.00008287,-0.00029200,-0.00000928,-0.00479256,-0.01796940,0.01386
 271,0.00000341,0.00000966,-0.00000777,-0.04767226,-0.22066162,0.120730
 04,-0.00041510,0.00072920,-0.00010442,-0.00067869,-0.00129648,-0.00230
 089,-0.00000576,0.00304950,-0.00212515,-0.00000742,0.00000985,-0.00002
 075,-0.00000328,0.00000328,-0.00000450,0.00002571,-0.00004977,0.000021
 58,0.00000848,-0.00001278,-0.00000562,-0.00000275,-0.00000235,0.000000
 78,0.00000023,-0.00000185,0.00000202,-0.00000747,0.00000241,-0.0000024
 8,-0.00314541,-0.01033437,0.00719302,0.05450106,0.23648764,-0.00000761
 ,0.00000737,0.00000953,-0.00000511,0.00000898,-0.00001932,-0.00002492,
 0.00003916,0.00000376,-0.00003391,0.00004997,-0.00006791,0.00000032,0.
 00000656,0.00002635,-0.00008403,-0.00023171,0.00002536,-0.00308799,-0.
 01813368,0.01280763,0.00000027,0.00000410,-0.00000724,0.03522123,0.119
 00124,-0.13172287,-0.00062031,0.00060199,-0.00043394,-0.00104864,-0.00
 066394,-0.00110256,-0.00047728,0.00184334,-0.00097826,-0.00000562,0.00
 000567,-0.00000968,0.00000002,-0.00000022,-0.00000138,0.00002897,-0.00
 007061,0.00000829,-0.00000144,-0.00000968,-0.00000339,-0.00000113,-0.0
 0000064,-0.00000050,0.00000049,0.00000006,0.00000093,-0.00000238,0.000
 00005,0.00000010,0.00281887,0.00780889,-0.00611962,-0.03628710,-0.1310
 8569,0.14082599,-0.00000365,0.00000720,0.00000418,0.00000593,-0.000002
 59,0.00000083,0.00002020,0.00000783,-0.00000380,0.00001466,-0.00002319
 ,0.00002460,-0.00001321,-0.00000127,-0.00000617,0.00000067,0.00006130,
 -0.00002162,0.01007994,-0.00123290,-0.01229026,-0.00000304,0.00000201,
 0.00000481,-0.12984910,0.04130802,0.11394807,0.00048542,0.00048292,0.0
 0015569,-0.00079610,-0.00004148,0.00010384,0.00022926,-0.00441084,-0.0
 0342016,-0.00000138,-0.00000127,0.00000038,0.00000196,-0.00000292,0.00
 000210,0.00000642,-0.00002303,0.00000671,-0.00000237,0.00000184,-0.000
 00085,0.00000503,0.00000128,0.00000013,0.00000103,0.00000020,-0.000003
 01,0.00000294,-0.00000192,0.00000113,-0.01311630,0.00621205,0.02345091
 ,-0.00424873,0.00238879,0.00401436,0.13750985,-0.00002689,-0.00001770,
 0.00002720,-0.00000460,0.00000009,-0.00000354,0.00007381,0.00002488,-0
 .00005422,0.00000195,-0.00000211,-0.00001167,-0.00000034,-0.00000439,0
 .00000016,0.00003857,0.00003146,0.00005107,0.01922713,-0.00420426,-0.0
 1358258,0.00000233,-0.00000295,-0.00000466,0.03919444,-0.07168629,-0.0
 6041465,-0.00009986,0.00014568,0.00015864,-0.00042457,0.00022457,0.001
 81011,-0.00401140,-0.00366271,-0.00560636,0.00000124,0.00000048,0.0000
 0032,-0.00000653,0.00000196,0.00000113,0.00001581,-0.00005807,0.000064
 29,-0.00000878,-0.00000294,0.00000713,-0.00000470,-0.00000116,-0.00000
 036,-0.00000279,0.00000139,0.00000309,-0.00000128,0.00000103,0.0000013
 1,0.00582034,-0.00418888,-0.01067986,-0.01497805,0.01042332,0.02072561
 ,-0.04348638,0.07260799,-0.00003390,-0.00000771,0.00002229,-0.00001590
 ,0.00001478,-0.00000795,0.00010982,0.00004333,-0.00006890,-0.00002791,
 0.00002343,-0.00000264,-0.00000603,-0.00000216,0.00000381,0.00005403,-
 0.00004117,0.00005179,0.01603979,0.00107049,-0.01325866,0.00000259,-0.
 00000200,-0.00000821,0.11147227,-0.06160655,-0.21554794,-0.00051144,0.
 00005436,0.00021115,-0.00036673,0.00057313,0.00165312,-0.00339532,-0.0
 0516806,-0.00194542,0.00000502,-0.00000500,-0.00000381,-0.00001095,0.0
 0000181,-0.00000288,0.00001878,-0.00003622,0.00007365,-0.00000693,-0.0
 0001401,0.00000533,-0.00000448,0.00000203,0.00000319,-0.00000699,-0.00
 000457,0.00000621,-0.00000647,0.00000203,-0.00000309,-0.00565181,0.003
 17175,0.01058478,0.00882088,-0.00614123,-0.01324125,-0.12501852,0.0682
 8274,0.23109540,0.00052110,0.00017352,-0.00092483,0.00007150,0.0000255
 5,0.00000634,-0.00277808,0.00167756,-0.00160982,0.00111574,0.00088483,
 -0.00160265,0.00022784,-0.00004559,0.00005266,0.00972061,0.01258181,-0
 .01341740,0.00208860,-0.00328038,-0.00103368,0.00001617,-0.00002584,0.
 00002994,-0.00089713,0.00043174,-0.00003820,-0.11871497,-0.07350002,0.
 08771425,-0.01793132,-0.01360566,0.00741568,-0.00089000,-0.00021656,0.
 00004771,-0.00018780,0.00011879,-0.00023092,-0.00000908,0.00000040,0.0
 0002529,0.00005646,0.00018424,-0.00002953,-0.00009741,-0.00015088,0.00
 036676,-0.00000101,0.00000037,0.00000356,-0.00002546,0.00000105,0.0000
 0527,0.00001319,-0.00000139,0.00000188,-0.00016989,-0.00025976,-0.0001
 4619,0.00000222,-0.00003909,-0.00000325,0.00008272,-0.00001606,-0.0000
 4230,0.13644919,-0.00087572,-0.00005053,0.00046784,0.00015067,0.000101
 84,-0.00016825,0.00312756,-0.00058006,0.00170984,-0.00210287,0.0004792
 1,-0.00061783,0.00013474,-0.00001423,0.00001533,-0.00862503,-0.0094998
 3,0.01411449,0.00429424,-0.00396760,-0.00372115,-0.00002845,0.00000424
 ,-0.00000105,-0.00106037,0.00076105,-0.00025697,-0.06999548,-0.1316160
 6,0.09229310,-0.02240762,-0.01479132,0.00713151,0.00047422,0.00159674,
 0.00204529,0.00017529,-0.00021471,0.00011565,0.00004690,0.00002685,-0.
 00005100,-0.00006187,-0.00009875,-0.00010263,0.00098650,0.00027152,-0.
 00044309,0.00000506,-0.00000055,-0.00000607,0.00004774,-0.00000677,-0.
 00002636,-0.00001472,0.00001207,-0.00001668,-0.00022776,-0.00027238,-0
 .00016585,0.00004365,-0.00001061,0.00002868,0.00002408,-0.00000165,-0.
 00000860,0.08675591,0.14361361,0.00107862,0.00019324,-0.00059036,-0.00
 022224,-0.00013025,0.00028453,-0.00389465,0.00264273,-0.00130165,0.001
 91851,-0.00090095,0.00036546,-0.00034689,0.00012652,-0.00012909,0.0112
 2435,0.01103250,-0.01373371,0.00164244,-0.00382389,-0.00310312,0.00003
 100,-0.00002406,-0.00004400,-0.00101900,0.00079735,-0.00038491,0.09011
 017,0.09518386,-0.15832437,-0.01917745,-0.01581522,0.01408989,0.000360
 74,0.00131658,0.00195820,-0.00026175,0.00010418,-0.00033208,-0.0000893
 3,0.00000885,0.00004702,-0.00011597,-0.00017739,0.00026423,-0.00096673
 ,-0.00009194,0.00066390,-0.00007641,-0.00001218,-0.00000995,-0.0000445
 6,0.00001821,0.00003321,-0.00002026,-0.00000757,0.00000613,-0.00023184
 ,-0.00025471,-0.00018527,0.00007217,0.00002755,0.00005700,0.00004509,0
 .00000934,-0.00001641,-0.08789356,-0.10091419,0.16947020,-0.00070107,-
 0.00027855,-0.00045832,0.00018819,0.00008322,-0.00009417,0.00088555,-0
 .00171439,0.00108771,-0.00063575,0.00193359,-0.00180156,-0.00052429,-0
 .00074172,-0.00037549,-0.01409276,0.01102671,0.00660948,0.00202166,-0.
 00226757,-0.00262317,0.00001340,0.00010947,-0.00012923,-0.00027753,0.0
 0058833,0.00043840,-0.15557462,0.10395917,0.09331371,0.01335462,-0.014
 81710,-0.01356247,-0.00300304,0.00075792,0.00104131,0.00002724,0.00002
 652,0.00002164,0.00003147,0.00013710,0.00003655,0.00042378,0.00045614,
 0.00005385,0.00018552,0.00044772,0.00018109,-0.00003917,-0.00001608,-0
 .00000647,0.00000631,-0.00000769,0.00001549,-0.00005638,0.00000680,-0.
 00000325,-0.00010342,0.00001396,0.00005967,0.00002224,0.00002089,0.000
 03747,0.00029722,0.00026851,0.00026766,-0.00891082,0.00894548,0.007106
 47,0.16922848,0.00019711,0.00020423,0.00025437,-0.00017390,-0.00009584
 ,0.00001419,0.00013495,0.00140106,-0.00063856,0.00001096,-0.00151641,0
 .00162087,0.00051460,0.00046897,-0.00026181,0.01269459,-0.00820568,-0.
 00635926,0.00395628,-0.00118951,-0.00418463,0.00002964,-0.00008801,0.0
 0013764,-0.00008748,0.00029268,0.00001733,0.09402119,-0.14024059,-0.07
 625355,0.00948031,-0.01856684,-0.01898801,0.00026041,0.00220342,0.0029
 9525,-0.00001856,0.00000406,-0.00001292,-0.00003311,0.00000552,0.00000
 677,-0.00035949,-0.00055028,0.00022315,0.00015141,0.00010023,-0.000135
 71,-0.00000177,0.00000785,0.00000172,-0.00001044,0.00000433,-0.0000058
 1,0.00003722,-0.00000600,-0.00000269,-0.00009252,0.00002276,0.00005741
 ,-0.00000030,0.00001661,0.00007590,-0.00000271,0.00017484,0.00026605,-
 0.01192914,0.01424129,0.01024409,-0.10587174,0.15368912,0.00018501,-0.
 00048593,0.00034398,-0.00060581,0.00019669,0.00007811,-0.00081103,-0.0
 0001234,0.00022186,-0.00043794,0.00153025,-0.00169334,-0.00064617,-0.0
 0056508,-0.00077966,-0.01511299,0.01372505,0.01195067,0.00302814,-0.00
 098208,-0.00137306,0.00003057,0.00006542,-0.00019225,-0.00000604,-0.00
 024450,-0.00030534,0.08579118,-0.07737032,-0.12029439,0.00834713,-0.01
 659524,-0.01627324,0.00057622,0.00233093,0.00088201,0.00004112,0.00000
 416,-0.00001607,0.00001337,-0.00000608,-0.00001219,0.00032410,0.000192
 71,-0.00013307,-0.00013702,0.00018228,0.00029328,-0.00003520,-0.000025
 52,0.00000954,-0.00000350,-0.00000913,0.00003725,-0.00004436,0.0000155
 5,-0.00000429,-0.00007322,0.00000023,0.00003462,-0.00001481,-0.0000043
 0,0.00004326,-0.00010832,0.00002725,0.00012395,0.01159720,-0.01165476,
 -0.00977469,-0.08939701,0.09191057,0.13714226,0.00032845,-0.00009505,0
 .00007579,-0.00023674,-0.00007080,0.00012323,-0.00012074,0.00062668,-0
 .00032556,-0.00001323,0.00034118,0.00020909,-0.00023459,0.00022681,-0.
 00014141,0.00123153,-0.00096032,0.00083218,-0.00397307,0.02703163,0.02
 269464,-0.00000204,0.00002297,-0.00003958,-0.00058757,0.00008868,0.000
 67326,0.01211294,-0.01215294,-0.01712551,-0.14221970,0.08294748,0.1250
 4861,-0.00697361,-0.00405662,0.00289552,-0.00001545,0.00000063,-0.0000
 1170,-0.00000318,-0.00001939,0.00000807,-0.00005906,-0.00003217,-0.000
 00966,-0.00010816,-0.00023322,-0.00001013,0.00001472,0.00000644,0.0000
 1703,-0.00002481,-0.00001391,0.00001350,-0.00000398,-0.00000750,0.0000
 0346,0.00055154,-0.00004744,-0.00025584,0.00041234,0.00003404,-0.00043
 129,-0.00070935,-0.00157191,-0.00168517,0.00024763,0.00018784,0.000771
 08,-0.00276683,-0.00290750,-0.00250064,0.14315295,0.00001172,-0.000094
 68,0.00007739,-0.00004659,-0.00003140,0.00004539,-0.00011020,-0.000164
 50,0.00008293,0.00024269,0.00016939,-0.00029975,-0.00005519,-0.0000160
 5,-0.00007712,-0.00036093,0.00079666,0.00068475,-0.00281302,0.00216081
 ,0.01207924,0.00002212,-0.00001177,-0.00003603,-0.00022017,-0.00177163
 ,0.00132680,0.01214583,-0.01032705,-0.00878751,0.09007515,-0.16292156,
 -0.18793361,-0.00495998,0.00402735,-0.00098776,0.00000231,0.00001617,0
 .00001001,-0.00001047,0.00000454,0.00000947,-0.00005416,0.00004677,0.0
 0000023,-0.00014634,-0.00002812,0.00006054,-0.00002461,-0.00001008,-0.
 00000440,-0.00001400,0.00001383,0.00001754,-0.00000175,0.00000230,0.00
 001169,0.00040357,0.00012812,-0.00005817,-0.00064130,-0.00020964,-0.00
 001137,-0.00126700,0.00019542,-0.00046867,0.00023459,0.00001663,0.0004
 4735,-0.00306668,-0.00237782,-0.00222580,-0.08934562,0.17038633,0.0000
 7547,0.00007064,-0.00004631,-0.00005114,-0.00002075,0.00000469,-0.0000
 1003,0.00054769,-0.00023436,-0.00032309,0.00006391,0.00026771,-0.00011
 832,0.00004439,-0.00012651,0.00063870,-0.00032230,0.00005877,0.0027739
 1,-0.00139481,-0.01109319,-0.00002617,0.00002972,0.00004290,-0.0020593
 4,0.00187925,-0.00090467,0.00756538,-0.00511441,-0.00881713,0.12276569
 ,-0.17821901,-0.21804570,0.00235538,-0.00158206,0.00577315,-0.00000784
 ,-0.00002321,-0.00000861,0.00002357,-0.00000513,0.00001709,0.00002632,
 -0.00008470,-0.00007593,0.00005501,0.00000544,-0.00004892,0.00005175,0
 .00000994,0.00000340,0.00001775,-0.00000932,-0.00002226,0.00001677,-0.
 00001067,-0.00000422,-0.00051567,-0.00040458,-0.00000745,0.00057854,0.
 00006423,-0.00010026,-0.00089009,-0.00081148,0.00027251,-0.00029421,0.
 00023274,0.00068985,-0.00181936,-0.00098237,-0.00030920,-0.13082897,0.
 18603686,0.23271462\\-0.00000014,-0.00000094,-0.00000148,-0.00000227,-
 0.00000091,-0.00000010,-0.00000518,-0.00000191,0.00000550,-0.00000434,
 0.00000319,0.00000295,0.00000117,-0.00000242,-0.00000029,0.00001461,-0
 .00000075,-0.00000546,-0.00000399,0.00000005,0.00000359,-0.00000322,-0
 .00000186,-0.00000142,-0.00000095,-0.00000283,0.00000051,-0.00000350,0
 .00000695,0.00000442,0.00000371,-0.00000213,-0.00000550,-0.00000128,0.
 00000012,-0.00000151,0.00000007,-0.00000006,0.00000071,-0.00000008,0.0
 0000029,0.00000039,0.00000209,-0.00000053,-0.00000058,0.00000016,0.000
 00011,-0.00000062,0.,0.00000027,-0.00000019,0.00000077,-0.00000016,-0.
 00000021,0.00000031,0.00000022,0.00000124,0.00000033,0.00000249,-0.000
 00065,0.00000075,0.00000071,-0.00000006,0.00000025,0.00000171,-0.00000
 028,0.00000133,-0.00000059,0.00000027,0.00000095,-0.00000082,-0.000001
 18,-0.00000158,-0.00000019,-0.00000006\\\@


 A leading authority is anyone who has guessed right more than once.
 -- Frank A. Clark
 Job cpu time:  0 days  1 hours 14 minutes 33.8 seconds.
 File lengths (MBytes):  RWF=    138 Int=      0 D2E=      0 Chk=      4 Scr=      1
 Normal termination of Gaussian 09 at Fri Feb 16 18:59:59 2018.
