 Entering Gaussian System, Link 0=g09
 Initial command:
 /home/fb_chem/chemsoft/lx24-amd64/Gaussian_09_C.01_NBO_3.1_64_istanbul-64/g09/l1.exe /local/2400078.1.parallel_long/Gau-7235.inp -scrdir=/local/2400078.1.parallel_long/
 Entering Link 1 = /home/fb_chem/chemsoft/lx24-amd64/Gaussian_09_C.01_NBO_3.1_64_istanbul-64/g09/l1.exe PID=      7236.
  
 Copyright (c) 1988,1990,1992,1993,1995,1998,2003,2009,2011,
            Gaussian, Inc.  All Rights Reserved.
  
 This is part of the Gaussian(R) 09 program.  It is based on
 the Gaussian(R) 03 system (copyright 2003, Gaussian, Inc.),
 the Gaussian(R) 98 system (copyright 1998, Gaussian, Inc.),
 the Gaussian(R) 94 system (copyright 1995, Gaussian, Inc.),
 the Gaussian 92(TM) system (copyright 1992, Gaussian, Inc.),
 the Gaussian 90(TM) system (copyright 1990, Gaussian, Inc.),
 the Gaussian 88(TM) system (copyright 1988, Gaussian, Inc.),
 the Gaussian 86(TM) system (copyright 1986, Carnegie Mellon
 University), and the Gaussian 82(TM) system (copyright 1983,
 Carnegie Mellon University). Gaussian is a federally registered
 trademark of Gaussian, Inc.
  
 This software contains proprietary and confidential information,
 including trade secrets, belonging to Gaussian, Inc.
  
 This software is provided under written license and may be
 used, copied, transmitted, or stored only in accord with that
 written license.
  
 The following legend is applicable only to US Government
 contracts under FAR:
  
                    RESTRICTED RIGHTS LEGEND
  
 Use, reproduction and disclosure by the US Government is
 subject to restrictions as set forth in subparagraphs (a)
 and (c) of the Commercial Computer Software - Restricted
 Rights clause in FAR 52.227-19.
  
 Gaussian, Inc.
 340 Quinnipiac St., Bldg. 40, Wallingford CT 06492
  
  
 ---------------------------------------------------------------
 Warning -- This program may not be used in any manner that
 competes with the business of Gaussian, Inc. or will provide
 assistance to any competitor of Gaussian, Inc.  The licensee
 of this program is prohibited from giving any competitor of
 Gaussian, Inc. access to this program.  By using this program,
 the user acknowledges that Gaussian, Inc. is engaged in the
 business of creating and licensing software in the field of
 computational chemistry and represents and warrants to the
 licensee that it is not a competitor of Gaussian, Inc. and that
 it will not use this program in any manner prohibited above.
 ---------------------------------------------------------------
  

 Cite this work as:
 Gaussian 09, Revision C.01,
 M. J. Frisch, G. W. Trucks, H. B. Schlegel, G. E. Scuseria, 
 M. A. Robb, J. R. Cheeseman, G. Scalmani, V. Barone, B. Mennucci, 
 G. A. Petersson, H. Nakatsuji, M. Caricato, X. Li, H. P. Hratchian, 
 A. F. Izmaylov, J. Bloino, G. Zheng, J. L. Sonnenberg, M. Hada, 
 M. Ehara, K. Toyota, R. Fukuda, J. Hasegawa, M. Ishida, T. Nakajima, 
 Y. Honda, O. Kitao, H. Nakai, T. Vreven, J. A. Montgomery, Jr., 
 J. E. Peralta, F. Ogliaro, M. Bearpark, J. J. Heyd, E. Brothers, 
 K. N. Kudin, V. N. Staroverov, T. Keith, R. Kobayashi, J. Normand, 
 K. Raghavachari, A. Rendell, J. C. Burant, S. S. Iyengar, J. Tomasi, 
 M. Cossi, N. Rega, J. M. Millam, M. Klene, J. E. Knox, J. B. Cross, 
 V. Bakken, C. Adamo, J. Jaramillo, R. Gomperts, R. E. Stratmann, 
 O. Yazyev, A. J. Austin, R. Cammi, C. Pomelli, J. W. Ochterski, 
 R. L. Martin, K. Morokuma, V. G. Zakrzewski, G. A. Voth, 
 P. Salvador, J. J. Dannenberg, S. Dapprich, A. D. Daniels, 
 O. Farkas, J. B. Foresman, J. V. Ortiz, J. Cioslowski, 
 and D. J. Fox, Gaussian, Inc., Wallingford CT, 2010.
 
 ******************************************
 Gaussian 09:  AM64L-G09RevC.01 23-Sep-2011
                17-Feb-2018 
 ******************************************
 %nprocs=2
 Will use up to    2 processors via shared memory.
 %chk=frag43-conf1.chk
 ----------------------------------------------------------------------
 #HF/6-31G* Geom=AllCheck Guess=Read Pop=(MK,ReadRadii) Integral=(Grid=
 UltraFine) iop(6/33=2)
 ----------------------------------------------------------------------
 1/29=7,38=1/1;
 2/12=2,40=1/2;
 3/5=1,6=6,7=1,11=9,14=-4,16=1,25=1,30=1,75=-5,116=-2/1,2,3;
 4/5=1/1;
 5/5=2,38=6/2;
 6/7=2,8=2,9=2,10=2,15=8,20=101,28=1,33=2/1,2;
 99/5=1,9=1/99;
 Structure from the checkpoint file:  frag43-conf1.chk
 -----------------------------
 Optimization for frag43-conf1
 -----------------------------
 Charge =  1 Multiplicity = 1
 Redundant internal coordinates found in file.
 C,0,6.5698235464,-2.3304517695,-1.3186618447
 C,0,3.117668184,-5.1923729456,-2.6508264833
 C,0,0.5019237941,-0.9643176482,-0.5047470589
 C,0,0.3124162756,-2.4817203948,-0.370925826
 C,0,0.9855022846,-0.5824977404,-1.910903875
 C,0,1.5926004883,-3.2495499261,-0.7427974019
 C,0,2.2654610853,-1.3434080925,-2.2974265213
 C,0,2.0689269004,-2.869269141,-2.1621593741
 C,0,2.1500044763,-7.2021567889,-3.6016230781
 C,0,1.864537699,-5.0666427167,-4.8108231479
 C,0,5.8520929204,-3.3904971934,-2.184118583
 C,0,3.3237034846,-3.6523611083,-2.6290648174
 N,0,7.9019282412,-2.2472446398,-1.4587676833
 N,0,2.416096738,-5.7589737016,-3.6474620638
 N,0,4.4597072085,-3.4705051244,-1.6521863972
 O,0,5.8918365193,-1.6188758084,-0.5831963341
 O,0,3.6021483916,-5.825789435,-1.6994949806
 H,0,-0.436596068,-0.4465853253,-0.2778946986
 H,0,1.2348508283,-0.6209403491,0.2394786564
 H,0,0.0171628396,-2.7438045019,0.6509850025
 H,0,-0.5068164578,-2.8101055731,-1.0262936652
 H,0,0.1987460664,-0.8095777117,-2.6442291528
 H,0,1.169643938,0.4955629788,-1.9755083007
 H,0,2.3706448452,-3.0009954306,-0.0044721273
 H,0,1.4247046191,-4.3301186013,-0.6668352997
 H,0,2.5576469838,-1.0931580622,-3.3265499266
 H,0,3.0870290395,-1.004261385,-1.6475765888
 H,0,1.2722387417,-3.158037645,-2.8613272124
 H,0,1.0696005737,-7.3762235222,-3.6406541771
 H,0,2.5562726682,-7.6114501292,-2.6791289314
 H,0,2.6188690178,-7.6923335807,-4.4615683103
 H,0,2.1813310548,-5.5854537617,-5.7216465646
 H,0,2.2065707089,-4.0344359621,-4.871439409
 H,0,0.7690497601,-5.071291954,-4.7751115744
 H,0,6.3185635248,-4.3770098438,-2.1344997894
 H,0,5.8270090374,-3.0621595158,-3.2269131476
 H,0,3.6622465331,-3.266032491,-3.5932332472
 H,0,8.437021424,-2.8716855358,-2.0459755483
 H,0,8.4028434533,-1.5473527278,-0.9248212686
 H,0,4.3700299179,-4.3287062843,-1.0586926894
 H,0,4.3611901929,-2.6185478179,-1.0630111773
 Recover connectivity data from disk.
                          Input orientation:                          
 ---------------------------------------------------------------------
 Center     Atomic      Atomic             Coordinates (Angstroms)
 Number     Number       Type             X           Y           Z
 ---------------------------------------------------------------------
      1          6           0        6.569824   -2.330452   -1.318662
      2          6           0        3.117668   -5.192373   -2.650826
      3          6           0        0.501924   -0.964318   -0.504747
      4          6           0        0.312416   -2.481720   -0.370926
      5          6           0        0.985502   -0.582498   -1.910904
      6          6           0        1.592600   -3.249550   -0.742797
      7          6           0        2.265461   -1.343408   -2.297427
      8          6           0        2.068927   -2.869269   -2.162159
      9          6           0        2.150004   -7.202157   -3.601623
     10          6           0        1.864538   -5.066643   -4.810823
     11          6           0        5.852093   -3.390497   -2.184119
     12          6           0        3.323703   -3.652361   -2.629065
     13          7           0        7.901928   -2.247245   -1.458768
     14          7           0        2.416097   -5.758974   -3.647462
     15          7           0        4.459707   -3.470505   -1.652186
     16          8           0        5.891837   -1.618876   -0.583196
     17          8           0        3.602148   -5.825789   -1.699495
     18          1           0       -0.436596   -0.446585   -0.277895
     19          1           0        1.234851   -0.620940    0.239479
     20          1           0        0.017163   -2.743805    0.650985
     21          1           0       -0.506816   -2.810106   -1.026294
     22          1           0        0.198746   -0.809578   -2.644229
     23          1           0        1.169644    0.495563   -1.975508
     24          1           0        2.370645   -3.000995   -0.004472
     25          1           0        1.424705   -4.330119   -0.666835
     26          1           0        2.557647   -1.093158   -3.326550
     27          1           0        3.087029   -1.004261   -1.647577
     28          1           0        1.272239   -3.158038   -2.861327
     29          1           0        1.069601   -7.376224   -3.640654
     30          1           0        2.556273   -7.611450   -2.679129
     31          1           0        2.618869   -7.692334   -4.461568
     32          1           0        2.181331   -5.585454   -5.721647
     33          1           0        2.206571   -4.034436   -4.871439
     34          1           0        0.769050   -5.071292   -4.775112
     35          1           0        6.318564   -4.377010   -2.134500
     36          1           0        5.827009   -3.062160   -3.226913
     37          1           0        3.662247   -3.266032   -3.593233
     38          1           0        8.437021   -2.871686   -2.045976
     39          1           0        8.402843   -1.547353   -0.924821
     40          1           0        4.370030   -4.328706   -1.058693
     41          1           0        4.361190   -2.618548   -1.063011
 ---------------------------------------------------------------------
                    Distance matrix (angstroms):
                    1          2          3          4          5
     1  C    0.000000
     2  C    4.677888   0.000000
     3  C    6.272813   5.415185   0.000000
     4  C    6.330579   4.518299   1.535035   0.000000
     5  C    5.881389   5.132696   1.535224   2.536065   0.000000
     6  C    5.094027   3.121052   2.543331   1.538416   2.974258
     7  C    4.523248   3.957989   2.543123   2.970108   1.538401
     8  C    4.610844   2.595277   2.971759   2.538512   2.542885
     9  C    6.962774   2.424792   7.156637   6.008049   6.930691
    10  C    6.466966   2.500346   6.101482   5.366898   5.412004
    11  C    1.545267   3.307817   6.109906   5.899285   5.625230
    12  C    3.741911   1.553886   4.438552   3.941756   3.925175
    13  N    1.342034   5.743164   7.570741   7.670663   7.128307
    14  N    5.867838   1.344069   6.043959   5.089357   5.644301
    15  N    2.421477   2.400662   4.823032   4.451892   4.525221
    16  O    1.227565   4.974031   5.430079   5.649734   5.187389
    17  O    4.601034   1.241358   5.888355   4.875472   5.863756
    18  H    7.329534   6.386400   1.095595   2.170587   2.169690
    19  H    5.814823   5.726854   1.099528   2.164713   2.165132
    20  H    6.854760   5.148843   2.176530   1.095520   3.488868
    21  H    7.098900   4.631543   2.167141   1.099312   2.823435
    22  H    6.682875   5.265837   2.166390   2.824339   1.099235
    23  H    6.130232   6.050080   2.177209   3.489089   1.095581
    24  H    4.450823   3.516159   2.808994   2.154122   3.376719
    25  H    5.558399   2.746967   3.493768   2.177458   3.973068
    26  H    4.654038   4.192110   3.493590   3.962938   2.176342
    27  H    3.741233   4.306707   2.826734   3.392816   2.159546
    28  H    5.579348   2.754712   3.310478   2.753319   2.760241
    29  H    7.816899   3.153338   7.160217   5.934696   7.010978
    30  H    6.771145   2.483526   7.289215   6.056139   7.243180
    31  H    7.364623   3.126882   8.087280   7.014526   7.728101
    32  H    7.017135   3.234374   7.168776   6.461905   6.401667
    33  H    5.879096   2.664965   5.603521   5.123804   4.708679
    34  H    7.287539   3.169110   5.930818   5.129449   5.329147
    35  H    2.217459   3.343223   6.938001   6.540346   6.549035
    36  H    2.174533   3.494312   6.337796   6.237332   5.596498
    37  H    3.808279   2.212574   4.982397   4.713785   4.146872
    38  H    2.075656   5.834977   8.305372   8.304642   7.796394
    39  H    2.031826   6.648184   7.933532   8.163018   7.544551
    40  H    2.983236   2.202094   5.156376   4.510943   5.120095
    41  H    2.241967   3.269875   4.235808   4.109778   4.032331
                    6          7          8          9         10
     6  C    0.000000
     7  C    2.550096   0.000000
     8  C    1.544697   1.544401   0.000000
     9  C    4.909856   6.003265   4.566459   0.000000
    10  C    4.463699   4.510031   3.447556   2.470643   0.000000
    11  C    4.498950   4.131264   3.818967   5.499411   5.060597
    12  C    2.591714   2.561469   1.551031   3.863223   2.981514
    13  N    6.428440   5.769751   5.908094   7.888448   7.458912
    14  N    3.925867   4.619795   3.267575   1.468225   1.461831
    15  N    3.015976   3.123394   2.517417   4.802109   4.388570
    16  O    4.600870   4.020580   4.321024   7.367851   6.780786
    17  O    3.404492   4.715506   3.362416   2.760652   3.643619
    18  H    3.491473   3.490546   3.962007   7.960868   6.869322
    19  H    2.828858   2.831961   3.393896   7.674893   6.757686
    20  H    2.163426   3.963469   3.484144   6.520015   6.216086
    21  H    2.163570   3.384155   2.815696   5.742920   5.003793
    22  H    3.392895   2.162535   2.823526   6.751969   5.058813
    23  H    3.965393   2.164777   3.487928   7.928445   6.281721
    24  H    1.101025   2.831307   2.182659   5.535154   5.255859
    25  H    1.096170   3.505159   2.187487   4.169849   4.231850
    26  H    3.501017   1.098678   2.179271   6.128760   4.297912
    27  H    2.844866   1.101045   2.186225   6.565837   5.291839
    28  H    2.144569   2.144144   1.098606   4.203976   2.791796
    29  H    5.069570   6.295173   4.847395   1.095032   2.708391
    30  H    4.868698   6.286384   4.795106   1.087920   3.390968
    31  H    5.883945   6.716938   5.371375   1.095268   2.754133
    32  H    5.531003   5.452276   4.478866   2.666310   1.095044
    33  H    4.247198   3.724331   2.952416   3.413223   1.089088
    34  H    4.500726   4.719670   3.655968   2.797266   1.096080
    35  H    5.053981   5.065266   4.509264   5.245073   5.241817
    36  H    4.912857   4.062349   3.910766   5.549806   4.714648
    37  H    3.522597   2.706771   2.178087   4.216636   2.820723
    38  H    6.977618   6.362941   6.369155   7.790995   7.460547
    39  H    7.022109   6.292305   6.587637   8.845342   8.380683
    40  H    2.996412   3.856900   2.939842   4.433027   4.571709
    41  H    2.857585   2.746242   2.554498   5.687123   5.125674
                   11         12         13         14         15
    11  C    0.000000
    12  C    2.580563   0.000000
    13  N    2.456621   4.929918   0.000000
    14  N    4.422344   2.509721   6.871461   0.000000
    15  N    1.492679   1.509261   3.658232   3.659858   0.000000
    16  O    2.388132   3.862117   2.280776   6.213767   2.573376
    17  O    3.350785   2.380215   5.599289   2.281613   2.506992
    18  H    7.200550   5.472189   8.612074   6.907482   5.916634
    19  H    5.904506   4.667050   7.069571   6.550041   4.700863
    20  H    6.519389   4.745252   8.177234   5.772588   5.056569
    21  H    6.489464   4.236880   8.438651   4.910170   5.049181
    22  H    6.231627   4.224572   7.925353   5.515400   5.120593
    23  H    6.088539   4.719363   7.287912   6.593050   5.163211
    24  H    4.125900   2.867243   5.768727   4.569451   2.701774
    25  H    4.773553   2.813520   6.849814   3.450887   3.304708
    26  H    4.175678   2.760951   5.777704   4.678980   3.474637
    27  H    3.691555   2.834037   4.976335   5.201633   2.822521
    28  H    4.635484   2.122925   6.837361   2.948099   3.423392
    29  H    6.393727   4.468942   8.817469   2.104423   5.540890
    30  H    5.378095   4.033093   7.670725   2.094991   4.671734
    31  H    5.843484   4.491797   8.159444   2.107550   5.394919
    32  H    5.550354   3.821770   7.876611   2.094628   5.120987
    33  H    4.574514   2.534208   6.875862   2.125100   3.969664
    34  H    5.947743   3.625622   8.357711   2.111223   5.092753
    35  H    1.092366   3.120721   2.738532   4.407735   2.123611
    36  H    1.093552   2.640511   2.845297   4.368523   2.125094
    37  H    2.607014   1.092466   4.854768   2.787577   2.108415
    38  H    2.640096   5.205331   1.010477   6.866784   4.041371
    39  H    3.389593   5.756142   1.012849   7.809716   4.447010
    40  H    2.084066   2.004572   4.119083   3.544749   1.047276
    41  H    2.018806   2.144218   3.582083   4.508331   1.040512
                   16         17         18         19         20
    16  O    0.000000
    17  O    4.918020   0.000000
    18  H    6.443332   6.875190   0.000000
    19  H    4.833238   6.037729   1.758354   0.000000
    20  H    6.107410   5.279726   2.519113   2.481663   0.000000
    21  H    6.523659   5.141123   2.480173   3.070510   1.758469
    22  H    6.108527   6.134986   2.476886   3.069995   3.825264
    23  H    5.358030   6.778846   2.519830   2.481330   4.326682
    24  H    3.826744   3.516982   3.805308   2.648434   2.456552
    25  H    5.226194   2.836314   4.324066   3.823016   2.496841
    26  H    4.349619   5.112347   4.321787   3.832667   4.999948
    27  H    3.062287   4.849245   3.821383   2.671793   4.211113
    28  H    5.375833   3.727631   4.116578   4.006652   3.752751
    29  H    8.108579   3.547639   7.848354   7.792085   6.401960
    30  H    7.171462   2.289568   8.127637   7.689711   6.421115
    31  H    7.914605   3.475611   8.907292   8.603485   7.575950
    32  H    7.476982   4.272492   7.930696   7.815192   7.305411
    33  H    6.148589   3.901002   6.399973   6.222353   6.079178
    34  H    7.465539   4.249133   6.562504   6.720767   5.951895
    35  H    3.193108   3.109196   8.032895   6.751886   7.080532
    36  H    3.012725   3.862727   7.400722   6.250067   6.992407
    37  H    4.092007   3.184684   5.978400   5.251518   5.618963
    38  H    3.191743   5.676511   9.367407   7.884188   8.842170
    39  H    2.535149   6.477022   8.931175   7.320789   8.615933
    40  H    3.144070   1.800424   6.227693   5.026144   4.937850
    41  H    1.890091   3.356733   5.324714   3.932037   4.671621
                   21         22         23         24         25
    21  H    0.000000
    22  H    2.667892   0.000000
    23  H    3.826091   1.758756   0.000000
    24  H    3.059468   4.060514   4.189667   0.000000
    25  H    2.484034   4.219866   5.006484   1.760709   0.000000
    26  H    4.198812   2.471921   2.505175   3.835494   4.339995
    27  H    4.069741   3.061600   2.456294   2.683271   3.845322
    28  H    2.579427   2.591290   3.760851   3.064764   2.492552
    29  H    5.492668   6.698663   8.046598   5.835851   4.271821
    30  H    5.930201   7.198932   8.254785   5.333342   4.012095
    31  H    6.738484   7.518779   8.678848   6.475799   5.208696
    32  H    6.080710   6.017486   7.213586   6.277049   5.263028
    33  H    4.862777   4.403582   5.475630   4.978181   4.286891
    34  H    4.560091   4.798762   6.244047   5.441529   4.225773
    35  H    7.090072   7.102011   7.090742   4.692174   5.109412
    36  H    6.709963   6.090237   5.992867   4.725920   5.248048
    37  H    4.917127   4.350933   4.793715   3.823308   3.834407
    38  H    9.001988   8.513482   8.009875   6.401983   7.293946
    39  H    8.999271   8.414742   7.589244   6.272762   7.516965
    40  H    5.107918   5.683115   5.861450   2.621400   2.971278
    41  H    4.871912   4.806097   4.551517   2.286710   3.421897
                   26         27         28         29         30
    26  H    0.000000
    27  H    1.762697   0.000000
    28  H    2.476375   3.066824   0.000000
    29  H    6.464507   6.974545   4.294357   0.000000
    30  H    6.550365   6.708260   4.638407   1.786073   0.000000
    31  H    6.696352   7.271041   4.993398   1.781589   1.785371
    32  H    5.104784   6.197230   3.860081   2.961981   3.674528
    33  H    3.340816   4.511148   2.383611   3.738325   4.209934
    34  H    4.595972   5.629853   2.752510   2.586510   3.746960
    35  H    5.133143   4.696311   5.242095   6.230200   4.991298
    36  H    3.817803   3.773160   4.570424   6.435469   5.629727
    37  H    2.452069   3.038431   2.501897   4.859808   4.576180
    38  H    6.274558   5.680529   7.216710   8.781387   7.579542
    39  H    6.335686   5.392143   7.562399   9.753355   8.604258
    40  H    4.347031   3.611760   3.770446   5.181382   4.085577
    41  H    3.271573   2.138019   3.614777   6.333584   5.549652
                   31         32         33         34         35
    31  H    0.000000
    32  H    2.493628   0.000000
    33  H    3.703809   1.768939   0.000000
    34  H    3.223352   1.776184   1.775054   0.000000
    35  H    5.485833   5.607553   4.951432   6.184817   0.000000
    36  H    5.766719   5.087404   4.093576   5.658311   1.778714
    37  H    4.629771   3.478932   2.084046   3.609208   3.227723
    38  H    7.932505   7.746532   6.939290   8.431147   2.600327
    39  H    9.150067   8.833063   7.755977   9.247577   3.716787
    40  H    5.095107   5.302165   4.393653   5.227835   2.226315
    41  H    6.350526   5.937777   4.599049   5.718314   2.841054
                   36         37         38         39         40
    36  H    0.000000
    37  H    2.204983   0.000000
    38  H    2.871073   5.034679   0.000000
    39  H    3.772160   5.705045   1.735515   0.000000
    40  H    2.903121   2.837980   4.431485   4.900759   0.000000
    41  H    2.651016   2.703661   4.200321   4.183481   1.710187
                   41
    41  H    0.000000
 Stoichiometry    C12H24N3O2(1+)
 Framework group  C1[X(C12H24N3O2)]
 Deg. of freedom   117
 Full point group                 C1      NOp   1
 Largest Abelian subgroup         C1      NOp   1
 Largest concise Abelian subgroup C1      NOp   1
                         Standard orientation:                         
 ---------------------------------------------------------------------
 Center     Atomic      Atomic             Coordinates (Angstroms)
 Number     Number       Type             X           Y           Z
 ---------------------------------------------------------------------
      1          6           0        3.571396    0.265103    0.009881
      2          6           0       -0.874698    1.684171   -0.308134
      3          6           0       -1.262100   -3.716988   -0.348531
      4          6           0       -1.935854   -2.619532   -1.183982
      5          6           0       -1.016710   -3.251354    1.093648
      6          6           0       -1.131165   -1.308658   -1.155583
      7          6           0       -0.213205   -1.940220    1.138206
      8          6           0       -0.895967   -0.839433    0.297207
      9          6           0       -2.679556    3.297119   -0.451319
     10          6           0       -2.469707    1.937239    1.600696
     11          6           0        2.346688    1.177273    0.246284
     12          6           0       -0.141800    0.511903    0.401239
     13          7           0        4.776070    0.812688    0.233410
     14          7           0       -1.941943    2.256128    0.275281
     15          7           0        1.179668    0.442199   -0.324523
     16          8           0        3.377691   -0.895997   -0.338318
     17          8           0       -0.436420    2.013538   -1.421866
     18          1           0       -1.878550   -4.622701   -0.350026
     19          1           0       -0.303583   -3.991827   -0.811856
     20          1           0       -2.057828   -2.946889   -2.222310
     21          1           0       -2.946692   -2.429216   -0.796073
     22          1           0       -1.980653   -3.097880    1.599194
     23          1           0       -0.486046   -4.022735    1.662563
     24          1           0       -0.166416   -1.485245   -1.655914
     25          1           0       -1.645334   -0.533064   -1.734955
     26          1           0       -0.099849   -1.601606    2.177237
     27          1           0        0.802246   -2.136043    0.760303
     28          1           0       -1.882637   -0.653976    0.743327
     29          1           0       -3.729581    3.001690   -0.547570
     30          1           0       -2.240188    3.423598   -1.438501
     31          1           0       -2.626698    4.241669    0.100628
     32          1           0       -2.576660    2.862051    2.177243
     33          1           0       -1.811034    1.267585    2.151900
     34          1           0       -3.456500    1.467557    1.516867
     35          1           0        2.434721    2.153013   -0.236878
     36          1           0        2.196569    1.325183    1.319337
     37          1           0        0.076517    0.733044    1.448577
     38          1           0        4.905304    1.782815    0.484839
     39          1           0        5.600477    0.237022    0.111651
     40          1           0        0.935004    0.859253   -1.253497
     41          1           0        1.526736   -0.530474   -0.451468
 ---------------------------------------------------------------------
 Rotational constants (GHZ):      0.4304726      0.3620631      0.2293547
 Standard basis: 6-31G(d) (6D, 7F)
 There are   303 symmetry adapted basis functions of A   symmetry.
 Integral buffers will be    131072 words long.
 Raffenetti 1 integral format.
 Two-electron integral symmetry is turned on.
   303 basis functions,   572 primitive gaussians,   303 cartesian basis functions
    66 alpha electrons       66 beta electrons
       nuclear repulsion energy      1340.3545508806 Hartrees.
 NAtoms=   41 NActive=   41 NUniq=   41 SFac= 1.00D+00 NAtFMM=   60 NAOKFM=F Big=F
 One-electron integrals computed using PRISM.
 NBasis=   303 RedAO= T  NBF=   303
 NBsUse=   303 1.00D-06 NBFU=   303
 Initial guess read from the checkpoint file:  frag43-conf1.chk
 B after Tr=     0.000000    0.000000    0.000000
         Rot=    1.000000    0.000000    0.000000    0.000000 Ang=   0.00 deg.
 Initial guess orbital symmetries:
       Occupied  (A) (A) (A) (A) (A) (A) (A) (A) (A) (A) (A) (A)
                 (A) (A) (A) (A) (A) (A) (A) (A) (A) (A) (A) (A)
                 (A) (A) (A) (A) (A) (A) (A) (A) (A) (A) (A) (A)
                 (A) (A) (A) (A) (A) (A) (A) (A) (A) (A) (A) (A)
                 (A) (A) (A) (A) (A) (A) (A) (A) (A) (A) (A) (A)
                 (A) (A) (A) (A) (A) (A)
       Virtual   (A) (A) (A) (A) (A) (A) (A) (A) (A) (A) (A) (A)
                 (A) (A) (A) (A) (A) (A) (A) (A) (A) (A) (A) (A)
                 (A) (A) (A) (A) (A) (A) (A) (A) (A) (A) (A) (A)
                 (A) (A) (A) (A) (A) (A) (A) (A) (A) (A) (A) (A)
                 (A) (A) (A) (A) (A) (A) (A) (A) (A) (A) (A) (A)
                 (A) (A) (A) (A) (A) (A) (A) (A) (A) (A) (A) (A)
                 (A) (A) (A) (A) (A) (A) (A) (A) (A) (A) (A) (A)
                 (A) (A) (A) (A) (A) (A) (A) (A) (A) (A) (A) (A)
                 (A) (A) (A) (A) (A) (A) (A) (A) (A) (A) (A) (A)
                 (A) (A) (A) (A) (A) (A) (A) (A) (A) (A) (A) (A)
                 (A) (A) (A) (A) (A) (A) (A) (A) (A) (A) (A) (A)
                 (A) (A) (A) (A) (A) (A) (A) (A) (A) (A) (A) (A)
                 (A) (A) (A) (A) (A) (A) (A) (A) (A) (A) (A) (A)
                 (A) (A) (A) (A) (A) (A) (A) (A) (A) (A) (A) (A)
                 (A) (A) (A) (A) (A) (A) (A) (A) (A) (A) (A) (A)
                 (A) (A) (A) (A) (A) (A) (A) (A) (A) (A) (A) (A)
                 (A) (A) (A) (A) (A) (A) (A) (A) (A) (A) (A) (A)
                 (A) (A) (A) (A) (A) (A) (A) (A) (A) (A) (A) (A)
                 (A) (A) (A) (A) (A) (A) (A) (A) (A) (A) (A) (A)
                 (A) (A) (A) (A) (A) (A) (A) (A) (A)
 Requested convergence on RMS density matrix=1.00D-08 within 128 cycles.
 Requested convergence on MAX density matrix=1.00D-06.
 Requested convergence on             energy=1.00D-06.
 No special actions if energy rises.
 SCF Done:  E(RHF) =  -781.296674452     A.U. after   13 cycles
             Convg  =    0.7376D-08             -V/T =  2.0024

 **********************************************************************

            Population analysis using the SCF density.

 **********************************************************************

 Orbital symmetries:
 BldTbl:  Degeneracy threshold= 1.00D-02
       Occupied  (A) (A) (A) (A) (A) (A) (A) (A) (A) (A) (A) (A)
                 (A) (A) (A) (A) (A) (A) (A) (A) (A) (A) (A) (A)
                 (A) (A) (A) (A) (A) (A) (A) (A) (A) (A) (A) (A)
                 (A) (A) (A) (A) (A) (A) (A) (A) (A) (A) (A) (A)
                 (A) (A) (A) (A) (A) (A) (A) (A) (A) (A) (A) (A)
                 (A) (A) (A) (A) (A) (A)
       Virtual   (A) (A) (A) (A) (A) (A) (A) (A) (A) (A) (A) (A)
                 (A) (A) (A) (A) (A) (A) (A) (A) (A) (A) (A) (A)
                 (A) (A) (A) (A) (A) (A) (A) (A) (A) (A) (A) (A)
                 (A) (A) (A) (A) (A) (A) (A) (A) (A) (A) (A) (A)
                 (A) (A) (A) (A) (A) (A) (A) (A) (A) (A) (A) (A)
                 (A) (A) (A) (A) (A) (A) (A) (A) (A) (A) (A) (A)
                 (A) (A) (A) (A) (A) (A) (A) (A) (A) (A) (A) (A)
                 (A) (A) (A) (A) (A) (A) (A) (A) (A) (A) (A) (A)
                 (A) (A) (A) (A) (A) (A) (A) (A) (A) (A) (A) (A)
                 (A) (A) (A) (A) (A) (A) (A) (A) (A) (A) (A) (A)
                 (A) (A) (A) (A) (A) (A) (A) (A) (A) (A) (A) (A)
                 (A) (A) (A) (A) (A) (A) (A) (A) (A) (A) (A) (A)
                 (A) (A) (A) (A) (A) (A) (A) (A) (A) (A) (A) (A)
                 (A) (A) (A) (A) (A) (A) (A) (A) (A) (A) (A) (A)
                 (A) (A) (A) (A) (A) (A) (A) (A) (A) (A) (A) (A)
                 (A) (A) (A) (A) (A) (A) (A) (A) (A) (A) (A) (A)
                 (A) (A) (A) (A) (A) (A) (A) (A) (A) (A) (A) (A)
                 (A) (A) (A) (A) (A) (A) (A) (A) (A) (A) (A) (A)
                 (A) (A) (A) (A) (A) (A) (A) (A) (A) (A) (A) (A)
                 (A) (A) (A) (A) (A) (A) (A) (A) (A)
 The electronic state is 1-A.
 Alpha  occ. eigenvalues --  -20.69012 -20.67770 -15.82733 -15.74116 -15.74071
 Alpha  occ. eigenvalues --  -11.52341 -11.50900 -11.46170 -11.45674 -11.39940
 Alpha  occ. eigenvalues --  -11.38266 -11.37444 -11.35059 -11.34774 -11.32750
 Alpha  occ. eigenvalues --  -11.32634 -11.31851  -1.54689  -1.53360  -1.45290
 Alpha  occ. eigenvalues --   -1.38754  -1.36670  -1.25435  -1.18904  -1.13551
 Alpha  occ. eigenvalues --   -1.12167  -1.10399  -1.10024  -1.04979  -0.96430
 Alpha  occ. eigenvalues --   -0.96235  -0.94855  -0.92776  -0.89713  -0.88002
 Alpha  occ. eigenvalues --   -0.87025  -0.83608  -0.82550  -0.81423  -0.79394
 Alpha  occ. eigenvalues --   -0.78680  -0.78578  -0.76140  -0.74571  -0.73024
 Alpha  occ. eigenvalues --   -0.72150  -0.71400  -0.70788  -0.70518  -0.69247
 Alpha  occ. eigenvalues --   -0.68735  -0.68101  -0.67133  -0.65846  -0.64569
 Alpha  occ. eigenvalues --   -0.63600  -0.62937  -0.61038  -0.60022  -0.59019
 Alpha  occ. eigenvalues --   -0.57869  -0.56429  -0.56117  -0.54925  -0.54266
 Alpha  occ. eigenvalues --   -0.51097
 Alpha virt. eigenvalues --    0.02965   0.03560   0.06997   0.07747   0.08781
 Alpha virt. eigenvalues --    0.10469   0.11624   0.12887   0.13340   0.14857
 Alpha virt. eigenvalues --    0.15365   0.16443   0.16884   0.17693   0.17935
 Alpha virt. eigenvalues --    0.18651   0.19770   0.20286   0.20751   0.21179
 Alpha virt. eigenvalues --    0.21600   0.21963   0.22641   0.22791   0.23047
 Alpha virt. eigenvalues --    0.23457   0.24538   0.24874   0.25521   0.27067
 Alpha virt. eigenvalues --    0.28401   0.29437   0.30041   0.31490   0.32435
 Alpha virt. eigenvalues --    0.33649   0.34516   0.36360   0.37416   0.37985
 Alpha virt. eigenvalues --    0.41424   0.41516   0.47719   0.54784   0.55755
 Alpha virt. eigenvalues --    0.57551   0.58176   0.59467   0.61466   0.61579
 Alpha virt. eigenvalues --    0.62422   0.63780   0.64908   0.65048   0.66285
 Alpha virt. eigenvalues --    0.67386   0.68814   0.70139   0.73177   0.74450
 Alpha virt. eigenvalues --    0.75696   0.76730   0.77977   0.78409   0.79129
 Alpha virt. eigenvalues --    0.79523   0.80379   0.81889   0.82561   0.84315
 Alpha virt. eigenvalues --    0.85558   0.86720   0.87172   0.88150   0.88509
 Alpha virt. eigenvalues --    0.89379   0.89753   0.92330   0.93476   0.94555
 Alpha virt. eigenvalues --    0.95113   0.96215   0.97332   0.98035   0.98557
 Alpha virt. eigenvalues --    1.00225   1.00518   1.00972   1.02600   1.03398
 Alpha virt. eigenvalues --    1.03501   1.04100   1.04734   1.05516   1.06029
 Alpha virt. eigenvalues --    1.06438   1.06850   1.07622   1.07736   1.08577
 Alpha virt. eigenvalues --    1.09783   1.10659   1.11379   1.12024   1.12434
 Alpha virt. eigenvalues --    1.14030   1.14142   1.16461   1.17254   1.18361
 Alpha virt. eigenvalues --    1.22675   1.23469   1.24358   1.25648   1.27538
 Alpha virt. eigenvalues --    1.28627   1.30483   1.32171   1.35375   1.37842
 Alpha virt. eigenvalues --    1.42046   1.43186   1.45754   1.47927   1.48986
 Alpha virt. eigenvalues --    1.50546   1.52290   1.54095   1.54519   1.56464
 Alpha virt. eigenvalues --    1.57318   1.59390   1.62326   1.64791   1.67926
 Alpha virt. eigenvalues --    1.71884   1.73766   1.76226   1.78807   1.80793
 Alpha virt. eigenvalues --    1.81350   1.86612   1.87622   1.88160   1.89126
 Alpha virt. eigenvalues --    1.90171   1.90967   1.93854   1.96461   1.97546
 Alpha virt. eigenvalues --    1.98538   2.01797   2.02420   2.03666   2.04316
 Alpha virt. eigenvalues --    2.07040   2.07968   2.08413   2.09370   2.10505
 Alpha virt. eigenvalues --    2.11318   2.13024   2.14361   2.16483   2.17217
 Alpha virt. eigenvalues --    2.18319   2.19071   2.20495   2.22012   2.22968
 Alpha virt. eigenvalues --    2.23852   2.24892   2.27301   2.28558   2.29058
 Alpha virt. eigenvalues --    2.30220   2.31297   2.33984   2.37375   2.39998
 Alpha virt. eigenvalues --    2.41320   2.42426   2.43381   2.44958   2.48106
 Alpha virt. eigenvalues --    2.51249   2.52590   2.55881   2.56276   2.58514
 Alpha virt. eigenvalues --    2.59465   2.60666   2.61514   2.62315   2.62602
 Alpha virt. eigenvalues --    2.64694   2.66075   2.67811   2.73788   2.74647
 Alpha virt. eigenvalues --    2.75298   2.81665   2.82153   2.82500   2.84851
 Alpha virt. eigenvalues --    2.86421   2.86663   2.89410   2.91630   2.95183
 Alpha virt. eigenvalues --    2.96165   2.98478   3.04339   3.06150   3.12171
 Alpha virt. eigenvalues --    3.17740   3.21072   3.25323   3.30801   3.42172
 Alpha virt. eigenvalues --    4.09411   4.23706   4.30546   4.34041   4.43627
 Alpha virt. eigenvalues --    4.47114   4.52608   4.54035   4.58309   4.60713
 Alpha virt. eigenvalues --    4.66112   4.72805   4.75080   4.86119   4.88445
 Alpha virt. eigenvalues --    4.89894   4.99244
          Condensed to atoms (all electrons):
              1          2          3          4          5          6
     1  C    4.106463  -0.000009   0.000000   0.000000   0.000000  -0.000030
     2  C   -0.000009   4.140015   0.000005   0.000023  -0.000056  -0.002085
     3  C    0.000000   0.000005   5.115237   0.334533   0.336156  -0.056175
     4  C    0.000000   0.000023   0.334533   5.103270  -0.058534   0.327111
     5  C    0.000000  -0.000056   0.336156  -0.058534   5.097686  -0.004230
     6  C   -0.000030  -0.002085  -0.056175   0.327111  -0.004230   5.192304
     7  C    0.000011   0.003115  -0.056125  -0.004836   0.329234  -0.053059
     8  C   -0.000093  -0.037933  -0.005128  -0.045737  -0.046478   0.318574
     9  C    0.000000  -0.032407   0.000000   0.000000   0.000000   0.000013
    10  C    0.000000  -0.031326   0.000000  -0.000002  -0.000002   0.000110
    11  C    0.330868  -0.000596   0.000000   0.000000   0.000002   0.000261
    12  C    0.002176   0.345764  -0.000352   0.004090   0.003783  -0.054412
    13  N    0.344293   0.000000   0.000000   0.000000   0.000000   0.000000
    14  N    0.000000   0.356723   0.000000  -0.000029   0.000000  -0.000467
    15  N   -0.039554  -0.053499   0.000003  -0.000093   0.000043  -0.007555
    16  O    0.566031  -0.000032   0.000000   0.000000   0.000006  -0.000003
    17  O    0.000063   0.514378  -0.000001   0.000056   0.000000   0.001297
    18  H    0.000000   0.000000   0.406035  -0.035453  -0.035731   0.004291
    19  H    0.000000   0.000000   0.397319  -0.042900  -0.043104  -0.003204
    20  H    0.000000  -0.000002  -0.033825   0.406649   0.004111  -0.038074
    21  H    0.000000  -0.000001  -0.041704   0.399930  -0.002560  -0.045466
    22  H    0.000000  -0.000001  -0.041572  -0.002454   0.400246   0.000512
    23  H    0.000000   0.000001  -0.033512   0.004085   0.405691  -0.000335
    24  H   -0.000024  -0.000369  -0.002669  -0.037404   0.000436   0.392730
    25  H    0.000001   0.004227   0.003613  -0.030533  -0.000338   0.401086
    26  H    0.000000  -0.000056   0.003854  -0.000365  -0.031734   0.003855
    27  H    0.000053  -0.000112  -0.002338   0.000486  -0.034354  -0.002576
    28  H    0.000001  -0.002351  -0.000135  -0.001806  -0.001335  -0.038086
    29  H    0.000000   0.001706   0.000000   0.000000   0.000000   0.000004
    30  H    0.000000  -0.004259   0.000000   0.000000   0.000000  -0.000003
    31  H    0.000000   0.000464   0.000000   0.000000   0.000000   0.000000
    32  H    0.000000   0.000814   0.000000   0.000000   0.000000  -0.000003
    33  H    0.000000  -0.003679   0.000001  -0.000002  -0.000013   0.000060
    34  H    0.000000   0.000942   0.000000   0.000004   0.000001   0.000030
    35  H   -0.023606   0.001294   0.000000   0.000000   0.000000  -0.000005
    36  H   -0.025104  -0.000200   0.000000   0.000000  -0.000001  -0.000009
    37  H   -0.000296  -0.030160   0.000007  -0.000048  -0.000010   0.003560
    38  H   -0.020508   0.000000   0.000000   0.000000   0.000000   0.000000
    39  H   -0.013523   0.000000   0.000000   0.000000   0.000000   0.000000
    40  H   -0.000408  -0.012723  -0.000001   0.000033   0.000001   0.000876
    41  H   -0.008855   0.002311   0.000011  -0.000147  -0.000144   0.001179
              7          8          9         10         11         12
     1  C    0.000011  -0.000093   0.000000   0.000000   0.330868   0.002176
     2  C    0.003115  -0.037933  -0.032407  -0.031326  -0.000596   0.345764
     3  C   -0.056125  -0.005128   0.000000   0.000000   0.000000  -0.000352
     4  C   -0.004836  -0.045737   0.000000  -0.000002   0.000000   0.004090
     5  C    0.329234  -0.046478   0.000000  -0.000002   0.000002   0.003783
     6  C   -0.053059   0.318574   0.000013   0.000110   0.000261  -0.054412
     7  C    5.185018   0.321136   0.000002   0.000000  -0.000123  -0.058997
     8  C    0.321136   5.230091  -0.000199  -0.002465   0.002333   0.319738
     9  C    0.000002  -0.000199   5.014310  -0.044551   0.000000   0.003332
    10  C    0.000000  -0.002465  -0.044551   4.986874  -0.000001   0.001527
    11  C   -0.000123   0.002333   0.000000  -0.000001   5.246557  -0.030237
    12  C   -0.058997   0.319738   0.003332   0.001527  -0.030237   5.314428
    13  N   -0.000001   0.000000   0.000000   0.000000  -0.107133  -0.000020
    14  N    0.000007   0.002553   0.188132   0.203167  -0.000068  -0.098187
    15  N   -0.002929  -0.039012  -0.000066   0.000301   0.163436   0.135832
    16  O   -0.000776  -0.000125   0.000000   0.000000  -0.087374   0.000770
    17  O   -0.000074  -0.002253  -0.006132   0.001523   0.000950  -0.082542
    18  H    0.004333  -0.000161   0.000000   0.000000   0.000000   0.000010
    19  H   -0.002987   0.000107   0.000000   0.000000   0.000000  -0.000049
    20  H   -0.000317   0.004242   0.000000   0.000000   0.000000  -0.000085
    21  H    0.000531  -0.005090   0.000000  -0.000003   0.000000  -0.000135
    22  H   -0.045717  -0.004727   0.000000  -0.000001   0.000000  -0.000134
    23  H   -0.037548   0.004242   0.000000   0.000000   0.000000  -0.000090
    24  H   -0.002421  -0.046931   0.000000  -0.000003   0.000198  -0.005515
    25  H    0.003497  -0.037707   0.000066   0.000004  -0.000027  -0.003887
    26  H    0.401371  -0.043539   0.000000  -0.000025   0.000008  -0.003690
    27  H    0.390231  -0.044570   0.000000  -0.000001   0.000011  -0.004983
    28  H   -0.037598   0.404933  -0.000047  -0.001389  -0.000056  -0.047498
    29  H    0.000000   0.000003   0.398484  -0.001729   0.000000  -0.000018
    30  H    0.000000  -0.000013   0.395386   0.002667  -0.000001   0.000468
    31  H    0.000000   0.000001   0.398980  -0.002159   0.000000  -0.000121
    32  H    0.000001   0.000096  -0.002037   0.400273   0.000000  -0.000219
    33  H    0.000279  -0.003302   0.003151   0.396279  -0.000005   0.002001
    34  H   -0.000033   0.000093  -0.000816   0.399368   0.000000  -0.000286
    35  H   -0.000002  -0.000032   0.000002  -0.000001   0.384481  -0.001293
    36  H    0.000054  -0.000005   0.000000   0.000002   0.387501  -0.000274
    37  H   -0.003112  -0.032200  -0.000101  -0.002225  -0.000552   0.405457
    38  H    0.000000   0.000000   0.000000   0.000000   0.001886  -0.000002
    39  H    0.000000   0.000000   0.000000   0.000000   0.004237   0.000001
    40  H   -0.000042   0.000144  -0.000021  -0.000060  -0.012410  -0.028106
    41  H    0.003584  -0.003295   0.000001  -0.000001  -0.034423  -0.019862
             13         14         15         16         17         18
     1  C    0.344293   0.000000  -0.039554   0.566031   0.000063   0.000000
     2  C    0.000000   0.356723  -0.053499  -0.000032   0.514378   0.000000
     3  C    0.000000   0.000000   0.000003   0.000000  -0.000001   0.406035
     4  C    0.000000  -0.000029  -0.000093   0.000000   0.000056  -0.035453
     5  C    0.000000   0.000000   0.000043   0.000006   0.000000  -0.035731
     6  C    0.000000  -0.000467  -0.007555  -0.000003   0.001297   0.004291
     7  C   -0.000001   0.000007  -0.002929  -0.000776  -0.000074   0.004333
     8  C    0.000000   0.002553  -0.039012  -0.000125  -0.002253  -0.000161
     9  C    0.000000   0.188132  -0.000066   0.000000  -0.006132   0.000000
    10  C    0.000000   0.203167   0.000301   0.000000   0.001523   0.000000
    11  C   -0.107133  -0.000068   0.163436  -0.087374   0.000950   0.000000
    12  C   -0.000020  -0.098187   0.135832   0.000770  -0.082542   0.000010
    13  N    7.117885   0.000000   0.001394  -0.077580   0.000000   0.000000
    14  N    0.000000   7.335479   0.000655   0.000000  -0.084580   0.000000
    15  N    0.001394   0.000655   7.346939  -0.024854  -0.039429   0.000000
    16  O   -0.077580   0.000000  -0.024854   8.184258   0.000000   0.000000
    17  O    0.000000  -0.084580  -0.039429   0.000000   8.303839   0.000000
    18  H    0.000000   0.000000   0.000000   0.000000   0.000000   0.495548
    19  H    0.000000   0.000000  -0.000011  -0.000001   0.000000  -0.024596
    20  H    0.000000   0.000000   0.000002   0.000000   0.000000  -0.002143
    21  H    0.000000  -0.000001  -0.000002   0.000000   0.000001  -0.002946
    22  H    0.000000   0.000000  -0.000003   0.000000   0.000000  -0.002994
    23  H    0.000000   0.000000   0.000001   0.000000   0.000000  -0.002145
    24  H    0.000000  -0.000014   0.001299  -0.000102   0.000021  -0.000097
    25  H    0.000000  -0.000464   0.000226   0.000000   0.001302  -0.000064
    26  H    0.000000   0.000010   0.000386  -0.000002   0.000000  -0.000073
    27  H   -0.000002  -0.000001   0.000395   0.002132   0.000002  -0.000086
    28  H    0.000000   0.001039   0.003599  -0.000001   0.000034  -0.000067
    29  H    0.000000  -0.044133   0.000000   0.000000   0.000417   0.000000
    30  H    0.000000  -0.028244  -0.000006   0.000000   0.006104   0.000000
    31  H    0.000000  -0.043581   0.000003   0.000000   0.000375   0.000000
    32  H    0.000000  -0.042723   0.000004   0.000000  -0.000015   0.000000
    33  H    0.000000  -0.035628   0.000192   0.000000   0.000037   0.000000
    34  H    0.000000  -0.046679  -0.000010   0.000000  -0.000003   0.000000
    35  H    0.002545  -0.000018  -0.028785   0.001182   0.001922   0.000000
    36  H    0.000044  -0.000047  -0.036090   0.000747  -0.000012   0.000000
    37  H   -0.000006   0.001865  -0.040205   0.000046   0.001642   0.000000
    38  H    0.319008   0.000000   0.000020   0.001860   0.000000   0.000000
    39  H    0.309769   0.000000  -0.000076   0.003269   0.000000   0.000000
    40  H    0.000006   0.001920   0.255447   0.000443   0.055856   0.000000
    41  H    0.001597  -0.000032   0.258219   0.048140   0.000201  -0.000001
             19         20         21         22         23         24
     1  C    0.000000   0.000000   0.000000   0.000000   0.000000  -0.000024
     2  C    0.000000  -0.000002  -0.000001  -0.000001   0.000001  -0.000369
     3  C    0.397319  -0.033825  -0.041704  -0.041572  -0.033512  -0.002669
     4  C   -0.042900   0.406649   0.399930  -0.002454   0.004085  -0.037404
     5  C   -0.043104   0.004111  -0.002560   0.400246   0.405691   0.000436
     6  C   -0.003204  -0.038074  -0.045466   0.000512  -0.000335   0.392730
     7  C   -0.002987  -0.000317   0.000531  -0.045717  -0.037548  -0.002421
     8  C    0.000107   0.004242  -0.005090  -0.004727   0.004242  -0.046931
     9  C    0.000000   0.000000   0.000000   0.000000   0.000000   0.000000
    10  C    0.000000   0.000000  -0.000003  -0.000001   0.000000  -0.000003
    11  C    0.000000   0.000000   0.000000   0.000000   0.000000   0.000198
    12  C   -0.000049  -0.000085  -0.000135  -0.000134  -0.000090  -0.005515
    13  N    0.000000   0.000000   0.000000   0.000000   0.000000   0.000000
    14  N    0.000000   0.000000  -0.000001   0.000000   0.000000  -0.000014
    15  N   -0.000011   0.000002  -0.000002  -0.000003   0.000001   0.001299
    16  O   -0.000001   0.000000   0.000000   0.000000   0.000000  -0.000102
    17  O    0.000000   0.000000   0.000001   0.000000   0.000000   0.000021
    18  H   -0.024596  -0.002143  -0.002946  -0.002994  -0.002145  -0.000097
    19  H    0.542252  -0.002797   0.004252   0.004260  -0.002834   0.002907
    20  H   -0.002797   0.494824  -0.024671  -0.000077  -0.000073  -0.003124
    21  H    0.004252  -0.024671   0.541060   0.002685  -0.000075   0.004372
    22  H    0.004260  -0.000077   0.002685   0.540957  -0.024897   0.000066
    23  H   -0.002834  -0.000073  -0.000075  -0.024897   0.496320  -0.000032
    24  H    0.002907  -0.003124   0.004372   0.000066  -0.000032   0.556289
    25  H   -0.000077  -0.002350  -0.002506  -0.000035   0.000010  -0.026130
    26  H   -0.000077   0.000010  -0.000039  -0.002791  -0.002415  -0.000061
    27  H    0.002645  -0.000030   0.000058   0.004154  -0.003179   0.001542
    28  H    0.000102  -0.000047   0.003046   0.002973  -0.000044   0.004103
    29  H    0.000000   0.000000   0.000000   0.000000   0.000000   0.000000
    30  H    0.000000   0.000000   0.000000   0.000000   0.000000   0.000000
    31  H    0.000000   0.000000   0.000000   0.000000   0.000000   0.000000
    32  H    0.000000   0.000000   0.000000   0.000000   0.000000   0.000000
    33  H    0.000000   0.000000   0.000000   0.000000   0.000000  -0.000001
    34  H    0.000000   0.000000   0.000003   0.000002   0.000000   0.000000
    35  H    0.000000   0.000000   0.000000   0.000000   0.000000  -0.000005
    36  H    0.000000   0.000000   0.000000   0.000000   0.000000  -0.000005
    37  H    0.000000   0.000001  -0.000001   0.000006  -0.000006  -0.000122
    38  H    0.000000   0.000000   0.000000   0.000000   0.000000   0.000000
    39  H    0.000000   0.000000   0.000000   0.000000   0.000000   0.000000
    40  H    0.000000  -0.000001   0.000000   0.000000   0.000000  -0.000593
    41  H    0.000020   0.000001   0.000003   0.000004   0.000004   0.003206
             25         26         27         28         29         30
     1  C    0.000001   0.000000   0.000053   0.000001   0.000000   0.000000
     2  C    0.004227  -0.000056  -0.000112  -0.002351   0.001706  -0.004259
     3  C    0.003613   0.003854  -0.002338  -0.000135   0.000000   0.000000
     4  C   -0.030533  -0.000365   0.000486  -0.001806   0.000000   0.000000
     5  C   -0.000338  -0.031734  -0.034354  -0.001335   0.000000   0.000000
     6  C    0.401086   0.003855  -0.002576  -0.038086   0.000004  -0.000003
     7  C    0.003497   0.401371   0.390231  -0.037598   0.000000   0.000000
     8  C   -0.037707  -0.043539  -0.044570   0.404933   0.000003  -0.000013
     9  C    0.000066   0.000000   0.000000  -0.000047   0.398484   0.395386
    10  C    0.000004  -0.000025  -0.000001  -0.001389  -0.001729   0.002667
    11  C   -0.000027   0.000008   0.000011  -0.000056   0.000000  -0.000001
    12  C   -0.003887  -0.003690  -0.004983  -0.047498  -0.000018   0.000468
    13  N    0.000000   0.000000  -0.000002   0.000000   0.000000   0.000000
    14  N   -0.000464   0.000010  -0.000001   0.001039  -0.044133  -0.028244
    15  N    0.000226   0.000386   0.000395   0.003599   0.000000  -0.000006
    16  O    0.000000  -0.000002   0.002132  -0.000001   0.000000   0.000000
    17  O    0.001302   0.000000   0.000002   0.000034   0.000417   0.006104
    18  H   -0.000064  -0.000073  -0.000086  -0.000067   0.000000   0.000000
    19  H   -0.000077  -0.000077   0.002645   0.000102   0.000000   0.000000
    20  H   -0.002350   0.000010  -0.000030  -0.000047   0.000000   0.000000
    21  H   -0.002506  -0.000039   0.000058   0.003046   0.000000   0.000000
    22  H   -0.000035  -0.002791   0.004154   0.002973   0.000000   0.000000
    23  H    0.000010  -0.002415  -0.003179  -0.000044   0.000000   0.000000
    24  H   -0.026130  -0.000061   0.001542   0.004103   0.000000   0.000000
    25  H    0.488953  -0.000078  -0.000054  -0.002003   0.000011   0.000016
    26  H   -0.000078   0.527769  -0.027247  -0.002546   0.000000   0.000000
    27  H   -0.000054  -0.027247   0.533458   0.003896   0.000000   0.000000
    28  H   -0.002003  -0.002546   0.003896   0.504855  -0.000008  -0.000001
    29  H    0.000011   0.000000   0.000000  -0.000008   0.495869  -0.019599
    30  H    0.000016   0.000000   0.000000  -0.000001  -0.019599   0.415103
    31  H   -0.000001   0.000000   0.000000   0.000002  -0.032723  -0.020002
    32  H    0.000000   0.000000   0.000000   0.000157  -0.001000  -0.000001
    33  H   -0.000005   0.000142  -0.000007  -0.000958  -0.000022  -0.000081
    34  H    0.000013   0.000000   0.000000  -0.000358   0.002942  -0.000045
    35  H    0.000000   0.000001   0.000005   0.000001   0.000000   0.000000
    36  H    0.000000   0.000010  -0.000007  -0.000008   0.000000   0.000000
    37  H   -0.000054   0.003034   0.000187  -0.001945  -0.000001  -0.000009
    38  H    0.000000   0.000000   0.000000   0.000000   0.000000   0.000000
    39  H    0.000000   0.000000   0.000000   0.000000   0.000000   0.000000
    40  H    0.000164  -0.000010   0.000091  -0.000044   0.000000  -0.000009
    41  H   -0.000085  -0.000198   0.006111   0.000269   0.000000   0.000000
             31         32         33         34         35         36
     1  C    0.000000   0.000000   0.000000   0.000000  -0.023606  -0.025104
     2  C    0.000464   0.000814  -0.003679   0.000942   0.001294  -0.000200
     3  C    0.000000   0.000000   0.000001   0.000000   0.000000   0.000000
     4  C    0.000000   0.000000  -0.000002   0.000004   0.000000   0.000000
     5  C    0.000000   0.000000  -0.000013   0.000001   0.000000  -0.000001
     6  C    0.000000  -0.000003   0.000060   0.000030  -0.000005  -0.000009
     7  C    0.000000   0.000001   0.000279  -0.000033  -0.000002   0.000054
     8  C    0.000001   0.000096  -0.003302   0.000093  -0.000032  -0.000005
     9  C    0.398980  -0.002037   0.003151  -0.000816   0.000002   0.000000
    10  C   -0.002159   0.400273   0.396279   0.399368  -0.000001   0.000002
    11  C    0.000000   0.000000  -0.000005   0.000000   0.384481   0.387501
    12  C   -0.000121  -0.000219   0.002001  -0.000286  -0.001293  -0.000274
    13  N    0.000000   0.000000   0.000000   0.000000   0.002545   0.000044
    14  N   -0.043581  -0.042723  -0.035628  -0.046679  -0.000018  -0.000047
    15  N    0.000003   0.000004   0.000192  -0.000010  -0.028785  -0.036090
    16  O    0.000000   0.000000   0.000000   0.000000   0.001182   0.000747
    17  O    0.000375  -0.000015   0.000037  -0.000003   0.001922  -0.000012
    18  H    0.000000   0.000000   0.000000   0.000000   0.000000   0.000000
    19  H    0.000000   0.000000   0.000000   0.000000   0.000000   0.000000
    20  H    0.000000   0.000000   0.000000   0.000000   0.000000   0.000000
    21  H    0.000000   0.000000   0.000000   0.000003   0.000000   0.000000
    22  H    0.000000   0.000000   0.000000   0.000002   0.000000   0.000000
    23  H    0.000000   0.000000   0.000000   0.000000   0.000000   0.000000
    24  H    0.000000   0.000000  -0.000001   0.000000  -0.000005  -0.000005
    25  H   -0.000001   0.000000  -0.000005   0.000013   0.000000   0.000000
    26  H    0.000000   0.000000   0.000142   0.000000   0.000001   0.000010
    27  H    0.000000   0.000000  -0.000007   0.000000   0.000005  -0.000007
    28  H    0.000002   0.000157  -0.000958  -0.000358   0.000001  -0.000008
    29  H   -0.032723  -0.001000  -0.000022   0.002942   0.000000   0.000000
    30  H   -0.020002  -0.000001  -0.000081  -0.000045   0.000000   0.000000
    31  H    0.497969   0.003359  -0.000034  -0.000561   0.000000   0.000000
    32  H    0.003359   0.480437  -0.023323  -0.031944   0.000000   0.000001
    33  H   -0.000034  -0.023323   0.507899  -0.025564  -0.000001   0.000006
    34  H   -0.000561  -0.031944  -0.025564   0.490847   0.000000   0.000000
    35  H    0.000000   0.000000  -0.000001   0.000000   0.408883  -0.016150
    36  H    0.000000   0.000001   0.000006   0.000000  -0.016150   0.427413
    37  H    0.000002   0.000020  -0.000743   0.000086   0.000097   0.001848
    38  H    0.000000   0.000000   0.000000   0.000000   0.000472   0.000126
    39  H    0.000000   0.000000   0.000000   0.000000  -0.000087  -0.000124
    40  H    0.000000   0.000001  -0.000011   0.000002  -0.001805   0.001464
    41  H    0.000000   0.000000   0.000001   0.000000   0.002351   0.001674
             37         38         39         40         41
     1  C   -0.000296  -0.020508  -0.013523  -0.000408  -0.008855
     2  C   -0.030160   0.000000   0.000000  -0.012723   0.002311
     3  C    0.000007   0.000000   0.000000  -0.000001   0.000011
     4  C   -0.000048   0.000000   0.000000   0.000033  -0.000147
     5  C   -0.000010   0.000000   0.000000   0.000001  -0.000144
     6  C    0.003560   0.000000   0.000000   0.000876   0.001179
     7  C   -0.003112   0.000000   0.000000  -0.000042   0.003584
     8  C   -0.032200   0.000000   0.000000   0.000144  -0.003295
     9  C   -0.000101   0.000000   0.000000  -0.000021   0.000001
    10  C   -0.002225   0.000000   0.000000  -0.000060  -0.000001
    11  C   -0.000552   0.001886   0.004237  -0.012410  -0.034423
    12  C    0.405457  -0.000002   0.000001  -0.028106  -0.019862
    13  N   -0.000006   0.319008   0.309769   0.000006   0.001597
    14  N    0.001865   0.000000   0.000000   0.001920  -0.000032
    15  N   -0.040205   0.000020  -0.000076   0.255447   0.258219
    16  O    0.000046   0.001860   0.003269   0.000443   0.048140
    17  O    0.001642   0.000000   0.000000   0.055856   0.000201
    18  H    0.000000   0.000000   0.000000   0.000000  -0.000001
    19  H    0.000000   0.000000   0.000000   0.000000   0.000020
    20  H    0.000001   0.000000   0.000000  -0.000001   0.000001
    21  H   -0.000001   0.000000   0.000000   0.000000   0.000003
    22  H    0.000006   0.000000   0.000000   0.000000   0.000004
    23  H   -0.000006   0.000000   0.000000   0.000000   0.000004
    24  H   -0.000122   0.000000   0.000000  -0.000593   0.003206
    25  H   -0.000054   0.000000   0.000000   0.000164  -0.000085
    26  H    0.003034   0.000000   0.000000  -0.000010  -0.000198
    27  H    0.000187   0.000000   0.000000   0.000091   0.006111
    28  H   -0.001945   0.000000   0.000000  -0.000044   0.000269
    29  H   -0.000001   0.000000   0.000000   0.000000   0.000000
    30  H   -0.000009   0.000000   0.000000  -0.000009   0.000000
    31  H    0.000002   0.000000   0.000000   0.000000   0.000000
    32  H    0.000020   0.000000   0.000000   0.000001   0.000000
    33  H   -0.000743   0.000000   0.000000  -0.000011   0.000001
    34  H    0.000086   0.000000   0.000000   0.000002   0.000000
    35  H    0.000097   0.000472  -0.000087  -0.001805   0.002351
    36  H    0.001848   0.000126  -0.000124   0.001464   0.001674
    37  H    0.453656   0.000000   0.000000   0.002571   0.000056
    38  H    0.000000   0.285829  -0.010261  -0.000003  -0.000049
    39  H    0.000000  -0.010261   0.266188   0.000000  -0.000040
    40  H    0.002571  -0.000003   0.000000   0.237164  -0.004627
    41  H    0.000056  -0.000049  -0.000040  -0.004627   0.230634
 Mulliken atomic charges:
              1
     1  C    0.782049
     2  C    0.840076
     3  C   -0.323237
     4  C   -0.319929
     5  C   -0.318775
     6  C   -0.342074
     7  C   -0.335709
     8  C   -0.207297
     9  C   -0.315483
    10  C   -0.306149
    11  C   -0.249722
    12  C   -0.098384
    13  N   -0.911796
    14  N   -0.666657
    15  N   -0.856218
    16  O   -0.618032
    17  O   -0.674980
    18  H    0.196339
    19  H    0.168773
    20  H    0.197775
    21  H    0.169258
    22  H    0.169538
    23  H    0.196830
    24  H    0.158455
    25  H    0.203206
    26  H    0.174496
    27  H    0.174087
    28  H    0.209324
    29  H    0.199796
    30  H    0.252526
    31  H    0.198027
    32  H    0.216103
    33  H    0.183329
    34  H    0.211966
    35  H    0.268552
    36  H    0.257145
    37  H    0.237653
    38  H    0.421623
    39  H    0.440649
    40  H    0.504686
    41  H    0.512181
 Sum of Mulliken atomic charges =   1.00000
 Mulliken charges with hydrogens summed into heavy atoms:
              1
     1  C    0.782049
     2  C    0.840076
     3  C    0.041876
     4  C    0.047103
     5  C    0.047593
     6  C    0.019587
     7  C    0.012874
     8  C    0.002027
     9  C    0.334867
    10  C    0.305248
    11  C    0.275976
    12  C    0.139269
    13  N   -0.049525
    14  N   -0.666657
    15  N    0.160649
    16  O   -0.618032
    17  O   -0.674980
 Sum of Mulliken charges with hydrogens summed into heavy atoms =   1.00000
 DipInt: DoE/N= T F RetVal/Mat= T F Init=T NMatP=  1 IDeriv=0 Min/MaxMlt=  0  4
 Entering OneElI...
 OneElI was handed    33316966 working-precision words.
 Multipole integrals L=0 to 4 MinM= 0 MaxM= 0.
 Requested accuracy = 0.1000D-12
 PrsmSu:  NPrtUS=   1 ThrOK=F IAlg=1 NPAlg=1 LenDen=           0.
 Prism:   IPart=     0 DynPar=F LinDyn=F Incr=          57.
 PRISM was handed    32866766 working-precision words and  5704 shell-pairs
 IPart=  0 NShTot=        5704 NBatch=          79 AvBLen=        72.2
 PrSmSu:  NxtVal=             58.
 Electronic moments (au):
       -132.00000000          1.24180979          1.96421245          1.51102544
      -2462.10028082      -2097.76046454       -478.85913066          7.58145267
          0.63170128          5.16356870      -7939.50598587       2506.01154539
       -131.08215735       4991.09376987      -2525.95596473       -344.98764181
        887.64271441        150.39397578        131.33743687        326.89174857
    -117709.75248275     -73608.47353308      -4884.01105063       -595.02725606
      -1004.17191192        694.36114021       1832.05171990        651.95908772
       -370.30393880     -28672.11409349      -5908.91235201      -8683.47113980
      -3544.52825820      -1144.84070495        264.67951452
 Electronic spatial extent (au):  <R**2>=           5038.7199
 DipInt: DoE/N= F T RetVal/Mat= T F Init=T NMatP=  1 IDeriv=0 Min/MaxMlt=  0  4
 Nuclear    moments (au):
        133.00000000          0.00000000          0.00000000          0.00000000
       2422.23726894       2034.46943422        404.00523474          0.00000000
          0.00000000          0.00000000       8196.35677421      -2458.95269194
        138.19308774      -5015.33059222       2665.45530671        375.31892752
       -887.79997706       -145.36670043       -113.71472709       -330.71146661
     112777.08740659      66804.77481244       3274.65820730       1070.71587671
       1176.74933502       -771.03051536      -1795.13325665       -685.99228330
        426.10351446      26542.91647401       4272.15361083       7211.49859677
       3615.26347239       1182.23169197       -295.46696539
 Total      moments (au):
          1.00000000          1.24180979          1.96421245          1.51102544
        -39.86301189        -63.29103031        -74.85389591          7.58145267
          0.63170128          5.16356870        256.85078834         47.05885345
          7.11093039        -24.23682235        139.49934197         30.33128572
         -0.15726266          5.02727535         17.62270977         -3.81971804
      -4932.66507616      -6803.69872064      -1609.35284333        475.68862065
        172.57742310        -76.66937515         36.91846325        -34.03319558
         55.79957567      -2129.19761948      -1636.75874118      -1471.97254303
         70.73521419         37.39098701        -30.78745087
 Traceless Quadrup. (au):
         19.47296748         -3.95505094        -15.51791654          7.58145267
          0.63170128          5.16356870
 Charge=              1.0000 electrons
 Dipole moment (field-independent basis, Debye):
    X=              3.1564    Y=              4.9925    Z=              3.8406  Tot=              7.0455
 Quadrupole moment (field-independent basis, Debye-Ang):
   XX=            -53.6171   YY=            -85.1286   ZZ=           -100.6810
   XY=             10.1973   XZ=              0.8497   YZ=              6.9452
 Traceless Quadrupole moment (field-independent basis, Debye-Ang):
   XX=             26.1918   YY=             -5.3197   ZZ=            -20.8721
   XY=             10.1973   XZ=              0.8497   YZ=              6.9452
 Octapole moment (field-independent basis, Debye-Ang**2):
  XXX=            182.8165  YYY=             33.4947  ZZZ=              5.0613  XYY=            -17.2508
  XXY=             99.2903  XXZ=             21.5886  XZZ=             -0.1119  YZZ=              3.5782
  YYZ=             12.5432  XYZ=             -2.7187
 Hexadecapole moment (field-independent basis, Debye-Ang**3):
 XXXX=          -1857.8781 YYYY=          -2562.5990 ZZZZ=           -606.1594 XXXY=            179.1671
 XXXZ=             65.0009 YYYX=            -28.8774 YYYZ=             13.9053 ZZZX=            -12.8185
 ZZZY=             21.0168 XXYY=           -801.9579 XXZZ=           -616.4818 YYZZ=           -554.4154
 XXYZ=             26.6423 YYXZ=             14.0832 ZZXY=            -11.5960
 N-N= 1.340354550881D+03 E-N=-4.487744917858D+03  KE= 7.794131443648D+02
 Entering OneElI...
 OneElI was handed    33132020 working-precision words.
 Calculate electrostatic properties
    NBasis =   303  MinDer = 0  MaxDer = 0
    NGrid  =    41  NMatD  =   1
 Requested accuracy = 0.1000D-12
 PrsmSu:  NPrtUS=   2 ThrOK=T IAlg=1 NPAlg=1 LenDen=           0.
 Prism:   IPart=     0 DynPar=F LinDyn=F Incr=         512.
 PRISM was handed    16294584 working-precision words and  5102 shell-pairs
 PRISM was handed    16294584 working-precision words and  5102 shell-pairs
 IPart=  0 NShTot=      105042 NBatch=        2562 AvBLen=        41.0
 IPart=  1 NShTot=      104140 NBatch=        2540 AvBLen=        41.0
 PrSmSu:  NxtVal=           1025.
 --------------------------------------------------------
       Center         ----      EFG at Nuclei      ----
                      3XX-RR        3YY-RR        3ZZ-RR
 --------------------------------------------------------
     1   Atom        0.208790      0.263036     -0.471826
     2   Atom       -0.048371     -0.101514      0.149885
     3   Atom        0.020382      0.006814     -0.027196
     4   Atom       -0.007657     -0.041678      0.049335
     5   Atom        0.005322     -0.036307      0.030984
     6   Atom        0.012527      0.053572     -0.066098
     7   Atom        0.001658      0.011775     -0.013433
     8   Atom        0.011847     -0.116761      0.104915
     9   Atom        0.030392     -0.115727      0.085335
    10   Atom        0.091772      0.145446     -0.237218
    11   Atom       -0.203240      0.076765      0.126476
    12   Atom       -0.277965      0.215874      0.062091
    13   Atom       -0.487212     -0.342982      0.830193
    14   Atom       -0.001494      0.231092     -0.229598
    15   Atom       -0.203465      0.094885      0.108580
    16   Atom        1.425425     -0.838509     -0.586916
    17   Atom        0.406830      0.493854     -0.900684
    18   Atom        0.007989     -0.150683      0.142694
    19   Atom       -0.183713      0.119128      0.064585
    20   Atom        0.143536      0.102876     -0.246413
    21   Atom       -0.216909      0.125513      0.091396
    22   Atom       -0.186526      0.131406      0.055120
    23   Atom        0.042622     -0.072252      0.029630
    24   Atom       -0.192211      0.134454      0.057757
    25   Atom        0.051790     -0.076068      0.024277
    26   Atom        0.144819      0.094197     -0.239015
    27   Atom       -0.214483      0.123567      0.090916
    28   Atom       -0.195445      0.118888      0.076558
    29   Atom       -0.252064      0.106297      0.145767
    30   Atom        0.079852      0.135958     -0.215810
    31   Atom        0.148457     -0.177786      0.029329
    32   Atom        0.148282     -0.164878      0.016596
    33   Atom       -0.021072     -0.010937      0.032009
    34   Atom       -0.200019      0.070297      0.129722
    35   Atom        0.129615     -0.193520      0.063905
    36   Atom        0.120479      0.144611     -0.265090
    37   Atom        0.109853      0.136922     -0.246774
    38   Atom        0.149300     -0.347423      0.198124
    39   Atom       -0.206765     -0.009642      0.216407
    40   Atom        0.108081      0.088322     -0.196402
    41   Atom        0.103884     -0.240581      0.136697
 --------------------------------------------------------
                        XY            XZ            YZ
 --------------------------------------------------------
     1   Atom       -0.017092      0.031817      0.232021
     2   Atom       -0.295309     -0.204250     -0.261367
     3   Atom        0.023815     -0.014371     -0.000945
     4   Atom       -0.044312     -0.002527      0.003923
     5   Atom       -0.055496      0.008631     -0.006618
     6   Atom        0.001472      0.000376     -0.038622
     7   Atom        0.042771     -0.022747      0.039713
     8   Atom       -0.115699      0.009720     -0.011145
     9   Atom        0.190371     -0.164012      0.176688
    10   Atom       -0.021638      0.150418      0.098904
    11   Atom       -0.175803     -0.169482     -0.114671
    12   Atom        0.110720      0.248579     -0.001407
    13   Atom       -0.045890     -0.081688     -0.337158
    14   Atom        0.572829      0.367156      0.338018
    15   Atom       -0.137676      0.009187     -0.107531
    16   Atom       -0.493895     -0.048766     -0.102734
    17   Atom       -0.973747      0.391330     -0.031643
    18   Atom       -0.203992     -0.002505      0.001634
    19   Atom        0.092169      0.156279     -0.042940
    20   Atom       -0.016247     -0.044564     -0.121702
    21   Atom        0.068686      0.141490     -0.026904
    22   Atom        0.052678      0.172419     -0.031214
    23   Atom        0.146785     -0.113020      0.157302
    24   Atom        0.052100      0.164150     -0.035346
    25   Atom        0.144389     -0.109470      0.154547
    26   Atom       -0.012811     -0.041916     -0.127229
    27   Atom        0.063576      0.139037     -0.016896
    28   Atom        0.062368      0.155342     -0.033008
    29   Atom       -0.110743     -0.039077      0.001112
    30   Atom       -0.012351      0.154019      0.056835
    31   Atom       -0.012497     -0.020115     -0.184744
    32   Atom        0.032976      0.026917     -0.184651
    33   Atom        0.176314     -0.125213      0.140143
    34   Atom       -0.168519     -0.029834     -0.011316
    35   Atom       -0.038981      0.006879      0.168488
    36   Atom       -0.000017      0.057634     -0.057937
    37   Atom       -0.016259     -0.076481     -0.086153
    38   Atom       -0.061480     -0.019860     -0.150961
    39   Atom        0.251086      0.049685     -0.054096
    40   Atom        0.010510     -0.054663      0.126190
    41   Atom        0.098590      0.011349     -0.051249
 --------------------------------------------------------


 ---------------------------------------------------------------------------------
              Nuclear Quadrupole in Principal Axis System
 ---------------------------------------------------------------------------------

       Atom             a.u.   MegaHertz   Gauss  10(-4) cm-1        Axes

              Baa    -0.5406   -72.545   -25.886   -24.199 -0.0471 -0.2780  0.9594
     1 C(13)  Bbb     0.2100    28.177    10.054     9.399  0.9969  0.0473  0.0626
              Bcc     0.3306    44.368    15.832    14.800 -0.0628  0.9594  0.2749
 
              Baa    -0.5320   -71.395   -25.476   -23.815  0.5959  0.6739  0.4368
     2 C(13)  Bbb     0.2161    28.999    10.348     9.673  0.7956 -0.5693 -0.2072
              Bcc     0.3159    42.396    15.128    14.142 -0.1090 -0.4710  0.8754
 
              Baa    -0.0322    -4.323    -1.543    -1.442  0.3350 -0.1820  0.9245
     3 C(13)  Bbb    -0.0083    -1.117    -0.398    -0.372 -0.4954  0.8006  0.3371
              Bcc     0.0405     5.440     1.941     1.815  0.8015  0.5709 -0.1780
 
              Baa    -0.0722    -9.683    -3.455    -3.230  0.5658  0.8244 -0.0149
     4 C(13)  Bbb     0.0221     2.968     1.059     0.990  0.8157 -0.5570  0.1560
              Bcc     0.0500     6.715     2.396     2.240 -0.1204  0.1004  0.9876
 
              Baa    -0.0748   -10.033    -3.580    -3.347  0.5692  0.8222  0.0050
     5 C(13)  Bbb     0.0248     3.325     1.186     1.109 -0.4105  0.2789  0.8681
              Bcc     0.0500     6.708     2.394     2.238  0.7124 -0.4962  0.4963
 
              Baa    -0.0775   -10.398    -3.710    -3.468 -0.0086  0.2828  0.9592
     6 C(13)  Bbb     0.0125     1.678     0.599     0.560  0.9997 -0.0214  0.0153
              Bcc     0.0650     8.721     3.112     2.909  0.0249  0.9590 -0.2825
 
              Baa    -0.0704    -9.451    -3.372    -3.153  0.5366 -0.5768  0.6160
     7 C(13)  Bbb     0.0161     2.164     0.772     0.722 -0.6621  0.1649  0.7311
              Bcc     0.0543     7.287     2.600     2.431  0.5232  0.8001  0.2934
 
              Baa    -0.1849   -24.812    -8.854    -8.276  0.5062  0.8622  0.0162
     8 C(13)  Bbb     0.0736     9.881     3.526     3.296  0.7905 -0.4565 -0.4083
              Bcc     0.1113    14.931     5.328     4.980  0.3447 -0.2195  0.9127
 
              Baa    -0.3717   -49.877   -17.797   -16.637 -0.5266  0.7121 -0.4643
     9 C(13)  Bbb     0.1465    19.660     7.015     6.558  0.6102  0.6969  0.3769
              Bcc     0.2252    30.216    10.782    10.079 -0.5920  0.0848  0.8015
 
              Baa    -0.3173   -42.575   -15.192   -14.201 -0.3472 -0.2115  0.9136
    10 C(13)  Bbb     0.1412    18.946     6.760     6.320  0.8439 -0.4954  0.2060
              Bcc     0.1761    23.629     8.431     7.882  0.4091  0.8425  0.3505
 
              Baa    -0.3707   -49.744   -17.750   -16.593  0.8245  0.4209  0.3781
    11 C(13)  Bbb     0.1491    20.007     7.139     6.674 -0.5527  0.7421  0.3793
              Bcc     0.2216    29.737    10.611     9.919 -0.1210 -0.5217  0.8445
 
              Baa    -0.4244   -56.948   -20.320   -18.996  0.8798 -0.1531 -0.4500
    12 C(13)  Bbb     0.1589    21.324     7.609     7.113  0.2979 -0.5600  0.7731
              Bcc     0.2655    35.623    12.711    11.883  0.3704  0.8142  0.4471
 
              Baa    -0.5331   -20.559    -7.336    -6.858  0.8365  0.5182  0.1783
    13 N(14)  Bbb    -0.3903   -15.054    -5.372    -5.022 -0.5459  0.8162  0.1889
              Bcc     0.9234    35.613    12.708    11.879 -0.0476 -0.2554  0.9657
 
              Baa    -0.5227   -20.160    -7.194    -6.725  0.7505 -0.3081 -0.5847
    14 N(14)  Bbb    -0.3908   -15.072    -5.378    -5.028  0.2853 -0.6471  0.7071
              Bcc     0.9135    35.233    12.572    11.752  0.5962  0.6974  0.3977
 
              Baa    -0.2600   -10.028    -3.578    -3.345  0.9192  0.3835  0.0890
    15 N(14)  Bbb     0.0252     0.971     0.347     0.324 -0.3101  0.5660  0.7639
              Bcc     0.2348     9.057     3.232     3.021 -0.2426  0.7298 -0.6392
 
              Baa    -0.9732    70.421    25.128    23.490  0.1992  0.9405  0.2753
    16 O(17)  Bbb    -0.5556    40.203    14.346    13.410 -0.0442 -0.2720  0.9613
              Bcc     1.5288  -110.624   -39.474   -36.900  0.9790 -0.2037 -0.0127
 
              Baa    -1.0620    76.842    27.419    25.632 -0.3868 -0.2239  0.8946
    17 O(17)  Bbb    -0.4001    28.948    10.329     9.656  0.6032  0.6723  0.4291
              Bcc     1.4620  -105.790   -37.749   -35.288 -0.6975  0.7056 -0.1250
 
              Baa    -0.2902  -154.849   -55.254   -51.652  0.5646  0.8254  0.0002
    18 H(1)   Bbb     0.1413    75.373    26.895    25.142  0.3555 -0.2433  0.9024
              Bcc     0.1490    79.476    28.359    26.510  0.7449 -0.5095 -0.4308
 
              Baa    -0.2847  -151.928   -54.212   -50.678  0.8737 -0.2441 -0.4209
    19 H(1)   Bbb     0.1397    74.517    26.590    24.856  0.3623 -0.2509  0.8977
              Bcc     0.1451    77.411    27.622    25.821  0.3247  0.9367  0.1308
 
              Baa    -0.2898  -154.632   -55.177   -51.580  0.1087  0.2984  0.9482
    20 H(1)   Bbb     0.1405    74.986    26.757    25.013  0.2511  0.9147 -0.3166
              Bcc     0.1493    79.646    28.420    26.567  0.9618 -0.2725 -0.0245
 
              Baa    -0.2852  -152.194   -54.307   -50.767  0.9172 -0.1768 -0.3572
    21 H(1)   Bbb     0.1388    74.035    26.417    24.695  0.1716  0.9841 -0.0464
              Bcc     0.1465    78.160    27.889    26.071  0.3597 -0.0188  0.9329
 
              Baa    -0.2852  -152.177   -54.300   -50.761  0.8772 -0.1452 -0.4577
    22 H(1)   Bbb     0.1386    73.947    26.386    24.666  0.3317  0.8724  0.3590
              Bcc     0.1466    78.230    27.914    26.095  0.3472 -0.4667  0.8134
 
              Baa    -0.2898  -154.638   -55.179   -51.582 -0.4867  0.7031 -0.5184
    23 H(1)   Bbb     0.1404    74.913    26.731    24.988  0.5531  0.7074  0.4402
              Bcc     0.1494    79.726    28.448    26.594 -0.6762  0.0725  0.7331
 
              Baa    -0.2829  -150.926   -53.854   -50.344  0.8849 -0.1479 -0.4418
    24 H(1)   Bbb     0.1327    70.786    25.258    23.612  0.4357  0.5983  0.6724
              Bcc     0.1502    80.140    28.596    26.732 -0.1649  0.7875 -0.5939
 
              Baa    -0.2856  -152.408   -54.383   -50.838 -0.4730  0.7103 -0.5213
    25 H(1)   Bbb     0.1358    72.461    25.856    24.170  0.2072  0.6647  0.7178
              Bcc     0.1498    79.947    28.527    26.668  0.8563  0.2315 -0.4616
 
              Baa    -0.2865  -152.857   -54.543   -50.988  0.1011  0.3184  0.9426
    26 H(1)   Bbb     0.1371    73.142    26.099    24.398 -0.1043  0.9456 -0.3082
              Bcc     0.1494    79.715    28.444    26.590  0.9894  0.0671 -0.1288
 
              Baa    -0.2789  -148.821   -53.103   -49.641  0.9215 -0.1604 -0.3537
    27 H(1)   Bbb     0.1306    69.693    24.868    23.247 -0.0274  0.8816 -0.4712
              Bcc     0.1483    79.128    28.235    26.394  0.3874  0.4439  0.8080
 
              Baa    -0.2784  -148.539   -53.003   -49.547  0.8960 -0.1746 -0.4083
    28 H(1)   Bbb     0.1303    69.524    24.808    23.191  0.2559  0.9545  0.1533
              Bcc     0.1481    79.015    28.195    26.357  0.3630 -0.2419  0.8999
 
              Baa    -0.2867  -152.991   -54.591   -51.032  0.9590  0.2700  0.0860
    29 H(1)   Bbb     0.1304    69.570    24.824    23.206 -0.1853  0.8271 -0.5306
              Bcc     0.1564    83.421    29.767    27.826 -0.2144  0.4930  0.8432
 
              Baa    -0.2891  -154.275   -55.049   -51.461 -0.3856 -0.1333  0.9130
    30 H(1)   Bbb     0.1337    71.338    25.455    23.796 -0.6612  0.7301 -0.1726
              Bcc     0.1554    82.936    29.594    27.665  0.6436  0.6702  0.3696
 
              Baa    -0.2870  -153.143   -54.645   -51.083  0.0481  0.8612  0.5060
    31 H(1)   Bbb     0.1310    69.886    24.937    23.312  0.5117 -0.4563  0.7280
              Bcc     0.1560    83.257    29.708    27.772  0.8578  0.2239 -0.4626
 
              Baa    -0.2840  -151.532   -54.070   -50.546 -0.0972  0.8441  0.5272
    32 H(1)   Bbb     0.1303    69.515    24.805    23.188 -0.2355 -0.5342  0.8119
              Bcc     0.1537    82.017    29.266    27.358  0.9670 -0.0452  0.2507
 
              Baa    -0.2988  -159.404   -56.879   -53.172 -0.6138  0.6163 -0.4934
    33 H(1)   Bbb     0.1334    71.166    25.394    23.738 -0.6019  0.0391  0.7976
              Bcc     0.1654    88.239    31.486    29.433  0.5108  0.7866  0.3470
 
              Baa    -0.2833  -151.172   -53.942   -50.426  0.8991  0.4309  0.0767
    34 H(1)   Bbb     0.1318    70.319    25.092    23.456 -0.0089 -0.1572  0.9875
              Bcc     0.1515    80.854    28.851    26.970 -0.4376  0.8886  0.1375
 
              Baa    -0.2804  -149.585   -53.376   -49.896  0.0923  0.8936 -0.4392
    35 H(1)   Bbb     0.1271    67.795    24.191    22.614  0.8728  0.1397  0.4677
              Bcc     0.1533    81.790    29.185    27.282 -0.4793  0.4265  0.7670
 
              Baa    -0.2812  -150.056   -53.544   -50.053 -0.1407  0.1335  0.9810
    36 H(1)   Bbb     0.1263    67.363    24.037    22.470  0.9488  0.3011  0.0952
              Bcc     0.1550    82.694    29.507    27.584 -0.2827  0.9442 -0.1690
 
              Baa    -0.2809  -149.863   -53.475   -49.989  0.1962  0.2054  0.9588
    37 H(1)   Bbb     0.1255    66.960    23.893    22.336  0.9806 -0.0450 -0.1910
              Bcc     0.1554    82.903    29.582    27.653  0.0039  0.9777 -0.2102
 
              Baa    -0.3941  -210.255   -75.024   -70.133  0.1179  0.9613  0.2490
    38 H(1)   Bbb     0.1568    83.646    29.847    27.901  0.9919 -0.1259  0.0166
              Bcc     0.2373   126.609    45.177    42.232 -0.0474 -0.2450  0.9684
 
              Baa    -0.3864  -206.183   -73.571   -68.775  0.8185 -0.5623 -0.1179
    39 H(1)   Bbb     0.1575    84.013    29.978    28.024  0.5731  0.7845  0.2369
              Bcc     0.2290   122.171    43.594    40.752 -0.0407 -0.2614  0.9644
 
              Baa    -0.2526  -134.787   -48.095   -44.960  0.1504 -0.3472  0.9256
    40 H(1)   Bbb     0.1126    60.092    21.442    20.045  0.9174  0.3980  0.0002
              Bcc     0.1400    74.695    26.653    24.916 -0.3685  0.8491  0.3784
 
              Baa    -0.2735  -145.931   -52.072   -48.677 -0.2543  0.9588  0.1268
    41 H(1)   Bbb     0.1298    69.231    24.703    23.093  0.9596  0.2337  0.1569
              Bcc     0.1438    76.700    27.368    25.584 -0.1208 -0.1616  0.9794
 

 ---------------------------------------------------------------------------------

[...]
  820 Fit       0.062809
  821 Fit       0.063037
  822 Fit       0.078626
  823 Fit       0.087789
  824 Fit       0.094583
  825 Fit       0.071561
  826 Fit       0.063347
  827 Fit       0.068998
  828 Fit       0.080685
  829 Fit       0.118982
  830 Fit       0.110454
  831 Fit       0.083431
  832 Fit       0.071290
  833 Fit       0.087936
  834 Fit       0.110228
  835 Fit       0.095300
  836 Fit       0.089913
  837 Fit       0.079699
  838 Fit       0.106719
  839 Fit       0.085440
  840 Fit       0.072408
  841 Fit       0.071894
  842 Fit       0.083677
  843 Fit       0.080680
  844 Fit       0.068956
  845 Fit       0.066950
  846 Fit       0.070323
  847 Fit       0.076970
  848 Fit       0.084820
  849 Fit       0.069658
  850 Fit       0.078244
  851 Fit       0.077748
  852 Fit       0.073593
  853 Fit       0.072480
  854 Fit       0.074547
  855 Fit       0.075983
  856 Fit       0.072044
  857 Fit       0.070181
  858 Fit       0.069954
  859 Fit       0.071966
  860 Fit       0.075071
  861 Fit       0.071300
  862 Fit       0.069764
  863 Fit       0.070471
  864 Fit       0.073583
  865 Fit       0.078377
  866 Fit       0.082854
  867 Fit       0.086561
  868 Fit       0.072421
  869 Fit       0.074534
  870 Fit       0.079211
  871 Fit       0.085140
  872 Fit       0.072359
  873 Fit       0.073150
  874 Fit       0.077464
  875 Fit       0.084623
  876 Fit       0.077008
  877 Fit       0.085069
  878 Fit       0.091286
  879 Fit       0.085311
  880 Fit       0.078344
  881 Fit       0.074557
  882 Fit       0.073558
  883 Fit       0.074507
  884 Fit       0.077239
  885 Fit       0.082826
  886 Fit       0.082707
  887 Fit       0.085295
  888 Fit       0.081289
  889 Fit       0.076069
  890 Fit       0.074544
  891 Fit       0.077097
  892 Fit       0.078173
  893 Fit       0.098547
  894 Fit       0.108204
  895 Fit       0.093718
  896 Fit       0.086240
  897 Fit       0.084721
  898 Fit       0.110685
  899 Fit       0.096608
  900 Fit       0.086601
  901 Fit       0.080789
  902 Fit       0.078953
  903 Fit       0.092067
  904 Fit       0.082955
  905 Fit       0.077856
  906 Fit       0.088720
  907 Fit       0.098237
  908 Fit       0.086807
  909 Fit       0.080790
  910 Fit       0.105914
  911 Fit       0.092299
  912 Fit       0.083391
  913 Fit       0.078724
  914 Fit       0.110132
  915 Fit       0.094886
  916 Fit       0.085743
  917 Fit       0.081123
  918 Fit       0.084126
  919 Fit       0.086326
  920 Fit       0.077726
  921 Fit       0.079218
  922 Fit       0.088366
  923 Fit       0.076071
  924 Fit       0.074973
  925 Fit       0.076564
  926 Fit       0.080754
  927 Fit       0.090307
  928 Fit       0.076124
  929 Fit       0.075497
  930 Fit       0.077500
  931 Fit       0.082039
  932 Fit       0.079185
  933 Fit       0.083960
  934 Fit       0.103306
  935 Fit       0.108727
  936 Fit       0.093571
  937 Fit       0.096895
  938 Fit       0.098532
  939 Fit       0.102259
  940 Fit       0.091844
  941 Fit       0.092538
  942 Fit       0.106804
  943 Fit       0.101613
  944 Fit       0.092703
  945 Fit       0.092100
  946 Fit       0.090205
  947 Fit       0.086125
  948 Fit       0.086096
  949 Fit       0.087219
  950 Fit       0.087425
  951 Fit       0.102566
  952 Fit       0.104625
  953 Fit       0.116103
  954 Fit       0.115628
  955 Fit       0.104135
  956 Fit       0.095949
  957 Fit       0.096078
  958 Fit       0.109919
  959 Fit       0.128249
  960 Fit       0.117496
  961 Fit       0.098424
  962 Fit       0.099373
  963 Fit       0.091571
  964 Fit       0.088287
  965 Fit       0.083345
  966 Fit       0.120663
  967 Fit       0.112541
  968 Fit       0.111178
  969 Fit       0.117083
  970 Fit       0.094033
  971 Fit       0.093758
  972 Fit       0.099508
  973 Fit       0.087777
  974 Fit       0.088091
  975 Fit       0.091720
  976 Fit       0.098563
  977 Fit       0.108666
  978 Fit       0.086427
  979 Fit       0.085619
  980 Fit       0.088390
  981 Fit       0.093989
  982 Fit       0.101945
  983 Fit       0.086417
  984 Fit       0.090726
  985 Fit       0.089225
  986 Fit       0.077860
  987 Fit       0.082736
  988 Fit       0.084088
  989 Fit       0.078920
  990 Fit       0.081454
  991 Fit       0.083090
  992 Fit       0.082464
  993 Fit       0.078510
  994 Fit       0.105756
  995 Fit       0.101521
  996 Fit       0.104668
  997 Fit       0.096081
  998 Fit       0.092002
  999 Fit       0.091778
 1000 Fit       0.096225
 1001 Fit       0.100413
 1002 Fit       0.092915
 1003 Fit       0.088675
 1004 Fit       0.087108
 1005 Fit       0.088307
 1006 Fit       0.088719
 1007 Fit       0.086748
 1008 Fit       0.103538
 1009 Fit       0.111824
 1010 Fit       0.102979
 1011 Fit       0.098225
 1012 Fit       0.099809
 1013 Fit       0.112889
 1014 Fit       0.104415
 1015 Fit       0.099591
 1016 Fit       0.097163
 1017 Fit       0.097873
 1018 Fit       0.122355
 1019 Fit       0.112047
 1020 Fit       0.107322
 1021 Fit       0.103499
 1022 Fit       0.100887
 1023 Fit       0.113531
 1024 Fit       0.124610
 1025 Fit       0.117748
 1026 Fit       0.113311
 1027 Fit       0.121342
 1028 Fit       0.136107
 1029 Fit       0.115910
 1030 Fit       0.122716
 1031 Fit       0.101167
 1032 Fit       0.106168
 1033 Fit       0.097489
 1034 Fit       0.097766
 1035 Fit       0.102528
 1036 Fit       0.112818
 1037 Fit       0.102894
 1038 Fit       0.098545
 1039 Fit       0.098404
 1040 Fit       0.102334
 1041 Fit       0.111739
 1042 Fit       0.103258
 1043 Fit       0.108047
 1044 Fit       0.114920
 1045 Fit       0.140758
 1046 Fit       0.134526
 1047 Fit       0.141967
 1048 Fit       0.135935
 1049 Fit       0.126182
 1050 Fit       0.123651
 1051 Fit       0.133572
 1052 Fit       0.123871
 1053 Fit       0.117289
 1054 Fit       0.131559
 1055 Fit       0.122258
 1056 Fit       0.114405
 1057 Fit       0.131046
 1058 Fit       0.135041
 1059 Fit       0.132573
 1060 Fit       0.133812
 1061 Fit       0.138828
 1062 Fit       0.143147
 1063 Fit       0.133390
 1064 Fit       0.145537
 1065 Fit       0.139677
 1066 Fit       0.138854
 1067 Fit       0.148224
 1068 Fit       0.144658
 1069 Fit       0.137678
 1070 Fit       0.144394
 1071 Fit       0.142874
 1072 Fit       0.123238
 1073 Fit       0.136502
 1074 Fit       0.118535
 1075 Fit       0.123618
 1076 Fit       0.133910
 1077 Fit       0.152138
 1078 Fit       0.117741
 1079 Fit       0.120358
 1080 Fit       0.127828
 1081 Fit       0.141947
 1082 Fit       0.116119
 1083 Fit       0.120672
 1084 Fit       0.132112
 1085 Fit       0.107669
 1086 Fit       0.099978
 1087 Fit       0.103561
 1088 Fit       0.106556
 1089 Fit       0.112523
 1090 Fit       0.091334
 1091 Fit       0.099267
 1092 Fit       0.103110
 1093 Fit       0.104450
 1094 Fit       0.108980
 1095 Fit       0.095528
 1096 Fit       0.101068
 1097 Fit       0.101759
 1098 Fit       0.097151
 1099 Fit       0.120762
 1100 Fit       0.106629
 1101 Fit       0.120343
 1102 Fit       0.105351
 1103 Fit       0.124467
 1104 Fit       0.120958
 1105 Fit       0.107964
 1106 Fit       0.095481
 1107 Fit       0.095059
 1108 Fit       0.106967
 1109 Fit       0.120586
 1110 Fit       0.102841
 1111 Fit       0.137439
 1112 Fit       0.114009
 1113 Fit       0.072088
 1114 Fit       0.069542
 1115 Fit       0.071534
 1116 Fit       0.074131
 1117 Fit       0.085767
 1118 Fit       0.078651
 1119 Fit       0.074347
 1120 Fit       0.084893
 1121 Fit       0.087266
 1122 Fit       0.079822
 1123 Fit       0.076378
 1124 Fit       0.074008
 1125 Fit       0.074342
 1126 Fit       0.088852
 1127 Fit       0.085129
 1128 Fit       0.085830
 1129 Fit       0.093273
 1130 Fit       0.104855
 1131 Fit       0.128314
 1132 Fit       0.093011
 1133 Fit       0.091095
 1134 Fit       0.086481
 1135 Fit       0.090688
 1136 Fit       0.082635
 1137 Fit       0.083167
 1138 Fit       0.081700
 1139 Fit       0.080917
 1140 Fit       0.081554
 1141 Fit       0.097680
 1142 Fit       0.080674
 1143 Fit       0.081817
 1144 Fit       0.087959
 1145 Fit       0.090680
 1146 Fit       0.102752
 1147 Fit       0.098065
 1148 Fit       0.102575
 1149 Fit       0.113638
 1150 Fit       0.095367
 1151 Fit       0.096904
 1152 Fit       0.101483
 1153 Fit       0.127338
 1154 Fit       0.094804
 1155 Fit       0.106687
 1156 Fit       0.096580
 1157 Fit       0.136160
 1158 Fit       0.133546
 1159 Fit       0.139699
 1160 Fit       0.108152
 1161 Fit       0.100706
 1162 Fit       0.110190
 1163 Fit       0.122488
 1164 Fit       0.109541
 1165 Fit       0.098938
 1166 Fit       0.099947
 1167 Fit       0.106574
 1168 Fit       0.099554
 1169 Fit       0.095007
 1170 Fit       0.096767
 1171 Fit       0.102805
 1172 Fit       0.106329
 1173 Fit       0.092260
 1174 Fit       0.106365
 1175 Fit       0.104320
 1176 Fit       0.108653
 1177 Fit       0.100105
 1178 Fit       0.103962
 1179 Fit       0.112252
 1180 Fit       0.124159
 1181 Fit       0.095401
 1182 Fit       0.096425
 1183 Fit       0.102362
 1184 Fit       0.113820
 1185 Fit       0.093045
 1186 Fit       0.098061
 1187 Fit       0.109769
 1188 Fit       0.090727
 1189 Fit       0.098126
 1190 Fit       0.118582
 1191 Fit       0.118623
 1192 Fit       0.114374
 1193 Fit       0.103333
 1194 Fit       0.093062
 1195 Fit       0.081980
 1196 Fit       0.078675
 1197 Fit       0.087999
 1198 Fit       0.076869
 1199 Fit       0.069450
 1200 Fit       0.072623
 1201 Fit       0.079212
 1202 Fit       0.067594
 1203 Fit       0.064310
 1204 Fit       0.069960
 1205 Fit       0.088261
 1206 Fit       0.071151
 1207 Fit       0.063730
 1208 Fit       0.065246
 1209 Fit       0.077501
 1210 Fit       0.083906
 1211 Fit       0.084731
 1212 Fit       0.070491
 1213 Fit       0.066066
 1214 Fit       0.071151
 1215 Fit       0.080724
 1216 Fit       0.111056
 1217 Fit       0.104813
 1218 Fit       0.083738
 1219 Fit       0.073544
 1220 Fit       0.087374
 1221 Fit       0.104537
 1222 Fit       0.092183
 1223 Fit       0.087230
 1224 Fit       0.106089
 1225 Fit       0.087415
 1226 Fit       0.077853
 1227 Fit       0.097645
 1228 Fit       0.083753
 1229 Fit       0.073534
 1230 Fit       0.070552
 1231 Fit       0.079002
 1232 Fit       0.079130
 1233 Fit       0.070096
 1234 Fit       0.068128
 1235 Fit       0.070953
 1236 Fit       0.076527
 1237 Fit       0.082339
 1238 Fit       0.070864
 1239 Fit       0.076434
 1240 Fit       0.072038
 1241 Fit       0.071171
 1242 Fit       0.074040
 1243 Fit       0.077869
 1244 Fit       0.071952
 1245 Fit       0.068926
 1246 Fit       0.067848
 1247 Fit       0.068633
 1248 Fit       0.076249
 1249 Fit       0.070838
 1250 Fit       0.067932
 1251 Fit       0.066748
 1252 Fit       0.067199
 1253 Fit       0.072874
 1254 Fit       0.069017
 1255 Fit       0.067673
 1256 Fit       0.068890
 1257 Fit       0.072153
 1258 Fit       0.085527
 1259 Fit       0.074014
 1260 Fit       0.078480
 1261 Fit       0.082473
 1262 Fit       0.069686
 1263 Fit       0.071838
 1264 Fit       0.076076
 1265 Fit       0.082324
 1266 Fit       0.071224
 1267 Fit       0.075047
 1268 Fit       0.082118
 1269 Fit       0.075335
 1270 Fit       0.072533
 1271 Fit       0.071980
 1272 Fit       0.072903
 1273 Fit       0.086095
 1274 Fit       0.081261
 1275 Fit       0.075328
 1276 Fit       0.071735
 1277 Fit       0.070550
 1278 Fit       0.071305
 1279 Fit       0.073914
 1280 Fit       0.078922
 1281 Fit       0.079095
 1282 Fit       0.081371
 1283 Fit       0.077939
 1284 Fit       0.073284
 1285 Fit       0.071747
 1286 Fit       0.074073
 1287 Fit       0.075146
 1288 Fit       0.093458
 1289 Fit       0.085779
 1290 Fit       0.084353
 1291 Fit       0.104012
 1292 Fit       0.090765
 1293 Fit       0.082595
 1294 Fit       0.078599
 1295 Fit       0.078633
 1296 Fit       0.095777
 1297 Fit       0.085417
 1298 Fit       0.078688
 1299 Fit       0.075331
 1300 Fit       0.079906
 1301 Fit       0.075396
 1302 Fit       0.086610
 1303 Fit       0.094696
 1304 Fit       0.084321
 1305 Fit       0.079121
 1306 Fit       0.101251
 1307 Fit       0.088770
 1308 Fit       0.080503
 1309 Fit       0.076303
 1310 Fit       0.096159
 1311 Fit       0.085498
 1312 Fit       0.079188
 1313 Fit       0.076288
 1314 Fit       0.088936
 1315 Fit       0.082292
 1316 Fit       0.082012
 1317 Fit       0.083720
 1318 Fit       0.075883
 1319 Fit       0.076958
 1320 Fit       0.085559
 1321 Fit       0.073815
 1322 Fit       0.072477
 1323 Fit       0.073901
 1324 Fit       0.078047
 1325 Fit       0.087104
 1326 Fit       0.072057
 1327 Fit       0.072321
 1328 Fit       0.074668
 1329 Fit       0.079291
 1330 Fit       0.073661
 1331 Fit       0.075834
 1332 Fit       0.080609
 1333 Fit       0.094660
 1334 Fit       0.100757
 1335 Fit       0.088613
 1336 Fit       0.091483
 1337 Fit       0.093248
 1338 Fit       0.096101
 1339 Fit       0.087976
 1340 Fit       0.088910
 1341 Fit       0.095596
 1342 Fit       0.091932
 1343 Fit       0.086928
 1344 Fit       0.086781
 1345 Fit       0.083696
 1346 Fit       0.082724
 1347 Fit       0.083579
 1348 Fit       0.084252
 1349 Fit       0.098670
 1350 Fit       0.100413
 1351 Fit       0.109891
 1352 Fit       0.109465
 1353 Fit       0.099916
 1354 Fit       0.092813
 1355 Fit       0.092934
 1356 Fit       0.104953
 1357 Fit       0.119701
 1358 Fit       0.110841
 1359 Fit       0.091136
 1360 Fit       0.094837
 1361 Fit       0.100022
 1362 Fit       0.090777
 1363 Fit       0.085326
 1364 Fit       0.083501
 1365 Fit       0.083972
 1366 Fit       0.108906
 1367 Fit       0.105253
 1368 Fit       0.109395
 1369 Fit       0.092577
 1370 Fit       0.085318
 1371 Fit       0.087533
 1372 Fit       0.093147
 1373 Fit       0.083417
 1374 Fit       0.082103
 1375 Fit       0.083726
 1376 Fit       0.087897
 1377 Fit       0.094792
 1378 Fit       0.104466
 1379 Fit       0.081409
 1380 Fit       0.083825
 1381 Fit       0.089013
 1382 Fit       0.082936
 1383 Fit       0.086944
 1384 Fit       0.083216
 1385 Fit       0.083308
 1386 Fit       0.075179
 1387 Fit       0.078418
 1388 Fit       0.079262
 1389 Fit       0.080539
 1390 Fit       0.075611
 1391 Fit       0.077471
 1392 Fit       0.079073
 1393 Fit       0.079029
 1394 Fit       0.075594
 1395 Fit       0.103633
 1396 Fit       0.094340
 1397 Fit       0.089971
 1398 Fit       0.089856
 1399 Fit       0.094631
 1400 Fit       0.102049
 1401 Fit       0.092644
 1402 Fit       0.087139
 1403 Fit       0.084582
 1404 Fit       0.084610
 1405 Fit       0.087686
 1406 Fit       0.088826
 1407 Fit       0.084457
 1408 Fit       0.082528
 1409 Fit       0.083028
 1410 Fit       0.099124
 1411 Fit       0.106511
 1412 Fit       0.098437
 1413 Fit       0.093949
 1414 Fit       0.095460
 1415 Fit       0.107307
 1416 Fit       0.099075
 1417 Fit       0.094267
 1418 Fit       0.092114
 1419 Fit       0.092988
 1420 Fit       0.117900
 1421 Fit       0.106581
 1422 Fit       0.100312
 1423 Fit       0.096480
 1424 Fit       0.094128
 1425 Fit       0.094126
 1426 Fit       0.108318
 1427 Fit       0.117204
 1428 Fit       0.107794
 1429 Fit       0.114402
 1430 Fit       0.126586
 1431 Fit       0.115027
 1432 Fit       0.093474
 1433 Fit       0.093571
 1434 Fit       0.098089
 1435 Fit       0.093869
 1436 Fit       0.092247
 1437 Fit       0.093941
 1438 Fit       0.099312
 1439 Fit       0.109785
 1440 Fit       0.097908
 1441 Fit       0.094979
 1442 Fit       0.096213
 1443 Fit       0.102028
 1444 Fit       0.100769
 1445 Fit       0.105225
 1446 Fit       0.131653
 1447 Fit       0.135962
 1448 Fit       0.123959
 1449 Fit       0.121547
 1450 Fit       0.126072
 1451 Fit       0.125802
 1452 Fit       0.117196
 1453 Fit       0.113264
 1454 Fit       0.122570
 1455 Fit       0.115158
 1456 Fit       0.109081
 1457 Fit       0.123069
 1458 Fit       0.114956
 1459 Fit       0.122572
 1460 Fit       0.127671
 1461 Fit       0.124906
 1462 Fit       0.126201
 1463 Fit       0.130985
 1464 Fit       0.134295
 1465 Fit       0.125973
 1466 Fit       0.132874
 1467 Fit       0.129986
 1468 Fit       0.130631
 1469 Fit       0.139202
 1470 Fit       0.144774
 1471 Fit       0.130327
 1472 Fit       0.135067
 1473 Fit       0.134364
 1474 Fit       0.146396
 1475 Fit       0.116095
 1476 Fit       0.128078
 1477 Fit       0.110927
 1478 Fit       0.115743
 1479 Fit       0.125351
 1480 Fit       0.109977
 1481 Fit       0.111980
 1482 Fit       0.117889
 1483 Fit       0.128584
 1484 Fit       0.109471
 1485 Fit       0.110991
 1486 Fit       0.116918
 1487 Fit       0.128303
 1488 Fit       0.112603
 1489 Fit       0.123288
 1490 Fit       0.100918
 1491 Fit       0.094675
 1492 Fit       0.097065
 1493 Fit       0.099706
 1494 Fit       0.089305
 1495 Fit       0.093543
 1496 Fit       0.096368
 1497 Fit       0.098290
 1498 Fit       0.103143
 1499 Fit       0.085919
 1500 Fit       0.092041
 1501 Fit       0.095244
 1502 Fit       0.096726
 1503 Fit       0.088906
 1504 Fit       0.093540
 1505 Fit       0.095484
 1506 Fit       0.091537
 1507 Fit       0.122831
 1508 Fit       0.110690
 1509 Fit       0.110650
 1510 Fit       0.099035
 -----------------------------------------------------------------
 Leave Link  602 at Sat Feb 17 21:06:16 2018, MaxMem=   33554432 cpu:       0.8

 Test job not archived.
 1\1\GINC-NODE040\SP\RHF\6-31G(d)\C12H24N3O2(1+)\WULSDORT\17-Feb-2018\0
 \\#HF/6-31G* Geom=AllCheck Guess=Read Pop=(MK,ReadRadii) Integral=(Gri
 d=UltraFine) iop(6/33=2)\\Optimization for frag43-conf1\\1,1\C,0,6.569
 8235464,-2.3304517695,-1.3186618447\C,0,3.117668184,-5.1923729456,-2.6
 508264833\C,0,0.5019237941,-0.9643176482,-0.5047470589\C,0,0.312416275
 6,-2.4817203948,-0.370925826\C,0,0.9855022846,-0.5824977404,-1.9109038
 75\C,0,1.5926004883,-3.2495499261,-0.7427974019\C,0,2.2654610853,-1.34
 34080925,-2.2974265213\C,0,2.0689269004,-2.869269141,-2.1621593741\C,0
 ,2.1500044763,-7.2021567889,-3.6016230781\C,0,1.864537699,-5.066642716
 7,-4.8108231479\C,0,5.8520929204,-3.3904971934,-2.184118583\C,0,3.3237
 034846,-3.6523611083,-2.6290648174\N,0,7.9019282412,-2.2472446398,-1.4
 587676833\N,0,2.416096738,-5.7589737016,-3.6474620638\N,0,4.4597072085
 ,-3.4705051244,-1.6521863972\O,0,5.8918365193,-1.6188758084,-0.5831963
 341\O,0,3.6021483916,-5.825789435,-1.6994949806\H,0,-0.436596068,-0.44
 65853253,-0.2778946986\H,0,1.2348508283,-0.6209403491,0.2394786564\H,0
 ,0.0171628396,-2.7438045019,0.6509850025\H,0,-0.5068164578,-2.81010557
 31,-1.0262936652\H,0,0.1987460664,-0.8095777117,-2.6442291528\H,0,1.16
 9643938,0.4955629788,-1.9755083007\H,0,2.3706448452,-3.0009954306,-0.0
 044721273\H,0,1.4247046191,-4.3301186013,-0.6668352997\H,0,2.557646983
 8,-1.0931580622,-3.3265499266\H,0,3.0870290395,-1.004261385,-1.6475765
 888\H,0,1.2722387417,-3.158037645,-2.8613272124\H,0,1.0696005737,-7.37
 62235222,-3.6406541771\H,0,2.5562726682,-7.6114501292,-2.6791289314\H,
 0,2.6188690178,-7.6923335807,-4.4615683103\H,0,2.1813310548,-5.5854537
 617,-5.7216465646\H,0,2.2065707089,-4.0344359621,-4.871439409\H,0,0.76
 90497601,-5.071291954,-4.7751115744\H,0,6.3185635248,-4.3770098438,-2.
 1344997894\H,0,5.8270090374,-3.0621595158,-3.2269131476\H,0,3.66224653
 31,-3.266032491,-3.5932332472\H,0,8.437021424,-2.8716855358,-2.0459755
 483\H,0,8.4028434533,-1.5473527278,-0.9248212686\H,0,4.3700299179,-4.3
 287062843,-1.0586926894\H,0,4.3611901929,-2.6185478179,-1.0630111773\\
 Version=AM64L-G09RevC.01\State=1-A\HF=-781.2966745\RMSD=7.376e-09\Dipo
 le=2.0181202,-0.4520897,-1.8455963\Quadrupole=21.2992098,-11.6142904,-
 9.6849194,3.84881,0.8446794,6.7574057\PG=C01 [X(C12H24N3O2)]\\@


 GARBAGE IN, GARBAGE OUT
 Job cpu time:  0 days  0 hours  5 minutes 25.7 seconds.
 File lengths (MBytes):  RWF=     52 Int=      0 D2E=      0 Chk=      8 Scr=      1
 Normal termination of Gaussian 09 at Sat Feb 17 21:06:16 2018.
