 Entering Gaussian System, Link 0=g09
 Initial command:
 /home/fb_chem/chemsoft/lx24-amd64/Gaussian_09_C.01_NBO_3.1_64_istanbul-64/g09/l1.exe /local/2399997.1.parallel/Gau-21760.inp -scrdir=/local/2399997.1.parallel/
 Entering Link 1 = /home/fb_chem/chemsoft/lx24-amd64/Gaussian_09_C.01_NBO_3.1_64_istanbul-64/g09/l1.exe PID=     21761.
  
 Copyright (c) 1988,1990,1992,1993,1995,1998,2003,2009,2011,
            Gaussian, Inc.  All Rights Reserved.
  
 This is part of the Gaussian(R) 09 program.  It is based on
 the Gaussian(R) 03 system (copyright 2003, Gaussian, Inc.),
 the Gaussian(R) 98 system (copyright 1998, Gaussian, Inc.),
 the Gaussian(R) 94 system (copyright 1995, Gaussian, Inc.),
 the Gaussian 92(TM) system (copyright 1992, Gaussian, Inc.),
 the Gaussian 90(TM) system (copyright 1990, Gaussian, Inc.),
 the Gaussian 88(TM) system (copyright 1988, Gaussian, Inc.),
 the Gaussian 86(TM) system (copyright 1986, Carnegie Mellon
 University), and the Gaussian 82(TM) system (copyright 1983,
 Carnegie Mellon University). Gaussian is a federally registered
 trademark of Gaussian, Inc.
  
 This software contains proprietary and confidential information,
 including trade secrets, belonging to Gaussian, Inc.
  
 This software is provided under written license and may be
 used, copied, transmitted, or stored only in accord with that
 written license.
  
 The following legend is applicable only to US Government
 contracts under FAR:
  
                    RESTRICTED RIGHTS LEGEND
  
 Use, reproduction and disclosure by the US Government is
 subject to restrictions as set forth in subparagraphs (a)
 and (c) of the Commercial Computer Software - Restricted
 Rights clause in FAR 52.227-19.
  
 Gaussian, Inc.
 340 Quinnipiac St., Bldg. 40, Wallingford CT 06492
  
  
 ---------------------------------------------------------------
 Warning -- This program may not be used in any manner that
 competes with the business of Gaussian, Inc. or will provide
 assistance to any competitor of Gaussian, Inc.  The licensee
 of this program is prohibited from giving any competitor of
 Gaussian, Inc. access to this program.  By using this program,
 the user acknowledges that Gaussian, Inc. is engaged in the
 business of creating and licensing software in the field of
 computational chemistry and represents and warrants to the
 licensee that it is not a competitor of Gaussian, Inc. and that
 it will not use this program in any manner prohibited above.
 ---------------------------------------------------------------
  

 Cite this work as:
 Gaussian 09, Revision C.01,
 M. J. Frisch, G. W. Trucks, H. B. Schlegel, G. E. Scuseria, 
 M. A. Robb, J. R. Cheeseman, G. Scalmani, V. Barone, B. Mennucci, 
 G. A. Petersson, H. Nakatsuji, M. Caricato, X. Li, H. P. Hratchian, 
 A. F. Izmaylov, J. Bloino, G. Zheng, J. L. Sonnenberg, M. Hada, 
 M. Ehara, K. Toyota, R. Fukuda, J. Hasegawa, M. Ishida, T. Nakajima, 
 Y. Honda, O. Kitao, H. Nakai, T. Vreven, J. A. Montgomery, Jr., 
 J. E. Peralta, F. Ogliaro, M. Bearpark, J. J. Heyd, E. Brothers, 
 K. N. Kudin, V. N. Staroverov, T. Keith, R. Kobayashi, J. Normand, 
 K. Raghavachari, A. Rendell, J. C. Burant, S. S. Iyengar, J. Tomasi, 
 M. Cossi, N. Rega, J. M. Millam, M. Klene, J. E. Knox, J. B. Cross, 
 V. Bakken, C. Adamo, J. Jaramillo, R. Gomperts, R. E. Stratmann, 
 O. Yazyev, A. J. Austin, R. Cammi, C. Pomelli, J. W. Ochterski, 
 R. L. Martin, K. Morokuma, V. G. Zakrzewski, G. A. Voth, 
 P. Salvador, J. J. Dannenberg, S. Dapprich, A. D. Daniels, 
 O. Farkas, J. B. Foresman, J. V. Ortiz, J. Cioslowski, 
 and D. J. Fox, Gaussian, Inc., Wallingford CT, 2010.
 
 ******************************************
 Gaussian 09:  AM64L-G09RevC.01 23-Sep-2011
                17-Feb-2018 
 ******************************************
 %nprocs=2
 Will use up to    2 processors via shared memory.
 %chk=frag13-conf2.chk
 ----------------------------------------------------------------------
 #HF/6-31G* Geom=AllCheck Guess=Read Pop=(MK,ReadRadii) Integral=(Grid=
 UltraFine) iop(6/33=2)
 ----------------------------------------------------------------------
 1/29=7,38=1/1;
 2/12=2,40=1/2;
 3/5=1,6=6,7=1,11=9,14=-4,16=1,25=1,30=1,75=-5,116=-2/1,2,3;
 4/5=1/1;
 5/5=2,38=6/2;
 6/7=2,8=2,9=2,10=2,15=8,20=101,28=1,33=2/1,2;
 99/5=1,9=1/99;
 Structure from the checkpoint file:  frag13-conf2.chk
 -----------------------------
 Optimization for frag13-conf2
 -----------------------------
 Charge =  1 Multiplicity = 1
 Redundant internal coordinates found in file.
 C,0,-5.167037702,3.24703545,1.410709717
 C,0,-1.3089833217,0.716087642,-1.0589110895
 C,0,-2.8280199017,0.6598875106,-0.8347758835
 C,0,-0.604670958,1.5084239545,0.0527394364
 C,0,-3.1773583768,0.1045759003,0.5583327479
 C,0,-0.9373416855,0.9371170414,1.4424311217
 C,0,-2.44666764,0.8223758116,1.7022397865
 C,0,-7.1736887207,4.4030899821,0.6921468026
 C,0,-7.2155478935,3.1215416307,2.8133319351
 C,0,-4.4106124401,2.3566603371,2.4331148275
 N,0,-6.4478351185,3.5575151002,1.6480156112
 N,0,-3.012915843,2.2355591963,1.9015288319
 O,0,-4.5197159031,3.6170965155,0.4203700592
 H,0,-0.9056584612,-0.3057205354,-1.084793502
 H,0,-1.0904403694,1.1626880106,-2.0345411766
 H,0,-3.2646183755,1.6599703816,-0.9645172016
 H,0,-3.3026359444,0.0267043413,-1.5919388475
 H,0,0.481059782,1.4893762841,-0.0878222821
 H,0,-0.8942055882,2.5688411268,-0.0074137673
 H,0,-4.2627960521,0.1061369054,0.7204653805
 H,0,-2.8706719615,-0.9470356412,0.6216962437
 H,0,-0.5311365277,-0.078469241,1.5255478249
 H,0,-0.4555027452,1.5181241681,2.2417158958
 H,0,-2.6292774009,0.3178395549,2.6567409763
 H,0,-8.0345788801,3.8545136082,0.2962201765
 H,0,-6.5054691542,4.6764779598,-0.1219517212
 H,0,-7.5292076368,5.3063336241,1.1985849433
 H,0,-7.5456230294,3.9922493819,3.3903891685
 H,0,-6.6294021739,2.4757769805,3.4672315779
 H,0,-8.1008750606,2.5661607485,2.4857172801
 H,0,-4.3778927947,2.7999557917,3.4301388696
 H,0,-4.8479313915,1.3595011072,2.5081019971
 H,0,-2.36602228,2.7605403113,2.4968166758
 H,0,-3.077523465,2.7600147679,0.9908560183
 Recover connectivity data from disk.
                          Input orientation:                          
 ---------------------------------------------------------------------
 Center     Atomic      Atomic             Coordinates (Angstroms)
 Number     Number       Type             X           Y           Z
 ---------------------------------------------------------------------
      1          6           0       -5.167038    3.247035    1.410710
      2          6           0       -1.308983    0.716088   -1.058911
      3          6           0       -2.828020    0.659888   -0.834776
      4          6           0       -0.604671    1.508424    0.052739
      5          6           0       -3.177358    0.104576    0.558333
      6          6           0       -0.937342    0.937117    1.442431
      7          6           0       -2.446668    0.822376    1.702240
      8          6           0       -7.173689    4.403090    0.692147
      9          6           0       -7.215548    3.121542    2.813332
     10          6           0       -4.410612    2.356660    2.433115
     11          7           0       -6.447835    3.557515    1.648016
     12          7           0       -3.012916    2.235559    1.901529
     13          8           0       -4.519716    3.617097    0.420370
     14          1           0       -0.905658   -0.305721   -1.084794
     15          1           0       -1.090440    1.162688   -2.034541
     16          1           0       -3.264618    1.659970   -0.964517
     17          1           0       -3.302636    0.026704   -1.591939
     18          1           0        0.481060    1.489376   -0.087822
     19          1           0       -0.894206    2.568841   -0.007414
     20          1           0       -4.262796    0.106137    0.720465
     21          1           0       -2.870672   -0.947036    0.621696
     22          1           0       -0.531137   -0.078469    1.525548
     23          1           0       -0.455503    1.518124    2.241716
     24          1           0       -2.629277    0.317840    2.656741
     25          1           0       -8.034579    3.854514    0.296220
     26          1           0       -6.505469    4.676478   -0.121952
     27          1           0       -7.529208    5.306334    1.198585
     28          1           0       -7.545623    3.992249    3.390389
     29          1           0       -6.629402    2.475777    3.467232
     30          1           0       -8.100875    2.566161    2.485717
     31          1           0       -4.377893    2.799956    3.430139
     32          1           0       -4.847931    1.359501    2.508102
     33          1           0       -2.366022    2.760540    2.496817
     34          1           0       -3.077523    2.760015    0.990856
 ---------------------------------------------------------------------
                    Distance matrix (angstroms):
                    1          2          3          4          5
     1  C    0.000000
     2  C    5.233479   0.000000
     3  C    4.148077   1.536511   0.000000
     4  C    5.067745   1.536105   2.539878   0.000000
     5  C    3.815812   2.545633   1.539857   2.974077   0.000000
     6  C    4.819446   2.538441   2.972742   1.538930   2.548025
     7  C    3.655732   2.988240   2.570658   2.566021   1.535470
     8  C    2.424756   7.145275   5.935309   7.206936   5.870757
     9  C    2.485858   7.461098   6.214405   7.343481   5.522144
    10  C    1.552501   4.950336   4.007836   4.568466   3.179246
    11  N    1.339087   6.465985   5.259616   6.394236   4.879161
    12  N    2.429862   3.738500   3.162956   3.121921   2.524343
    13  O    1.239655   4.573066   3.630745   4.461976   3.762813
    14  H    6.083499   1.098832   2.165729   2.162336   2.833519
    15  H    5.730000   1.095019   2.170582   2.170771   3.492538
    16  H    3.432154   2.173553   1.098916   2.851859   2.178517
    17  H    4.781467   2.175780   1.095206   3.489910   2.155325
    18  H    6.102128   2.178358   3.492277   1.094957   3.964746
    19  H    4.552814   2.170342   2.840470   1.100878   3.406679
    20  H    3.340559   3.501890   2.187235   3.974185   1.097481
    21  H    4.846243   2.833600   2.169178   3.389359   1.097250
    22  H    5.706466   2.813502   3.375200   2.166288   2.823385
    23  H    5.087069   3.502261   3.978720   2.194075   3.498628
    24  H    4.070996   3.963313   3.513856   3.506757   2.179264
    25  H    3.135906   7.544517   6.212330   7.795316   6.141932
    26  H    2.486716   6.600458   5.492245   6.699739   5.695735
    27  H    3.140948   8.053436   6.915575   7.980369   6.812254
    28  H    3.183103   8.332178   7.156286   8.092349   6.497406
    29  H    2.638680   7.203425   6.021232   6.992275   5.099107
    30  H    3.197911   7.881431   6.516330   7.951809   5.832258
    31  H    2.213758   5.823425   5.017120   5.226096   4.117478
    32  H    2.206555   5.065740   3.967913   4.904716   2.857840
    33  H    3.043352   4.235601   3.965563   3.262463   3.386759
    34  H    2.186215   3.392185   2.793872   2.926011   2.692285
                    6          7          8          9         10
     6  C    0.000000
     7  C    1.535816   0.000000
     8  C    7.174115   6.015524   0.000000
     9  C    6.787264   5.409520   2.478618   0.000000
    10  C    3.880743   2.597169   3.854015   2.932110   0.000000
    11  N    6.105267   4.846985   1.468178   1.461991   2.491728
    12  N    2.490930   1.535396   4.844876   4.390725   1.500268
    13  O    4.589151   3.708259   2.781226   3.638592   2.377340
    14  H    2.816472   3.378589   8.038571   8.170448   5.634594
    15  H    3.487644   3.989824   7.412216   8.053318   5.692896
    16  H    3.425220   2.912422   5.054708   5.658461   3.652750
    17  H    3.953589   3.495338   6.273344   6.655472   4.780938
    18  H    2.158362   3.495826   8.227591   8.385608   5.570975
    19  H    2.183217   2.895375   6.579192   6.944167   4.285594
    20  H    3.502914   2.185223   5.190174   4.710785   2.831938
    21  H    2.821596   2.116169   6.866204   6.343070   4.070265
    22  H    1.096962   2.124147   8.056204   7.521955   4.669461
    23  H    1.099361   2.177117   7.473835   6.971076   4.047551
    24  H    2.172717   1.094977   6.418767   5.377652   2.716607
    25  H    7.758594   6.511183   1.094909   2.746618   4.465760
    26  H    6.887246   5.886905   1.088124   3.396753   4.037121
    27  H    7.912156   6.796452   1.094862   2.734795   4.466573
    28  H    7.536429   6.236769   2.754567   1.095480   3.663307
    29  H    6.234328   4.831584   3.422262   1.090029   2.450839
    30  H    7.420137   5.968642   2.729630   1.095255   3.696579
    31  H    4.388456   3.259768   4.228843   2.921670   1.091622
    32  H    4.075141   2.589205   4.239136   2.967079   1.091420
    33  H    2.545138   2.096268   5.391517   4.873233   2.085072
    34  H    2.847324   2.158354   4.423516   4.536008   2.004977
                   11         12         13         14         15
    11  N    0.000000
    12  N    3.689242   0.000000
    13  O    2.286549   2.524465   0.000000
    14  H    7.287562   4.451602   5.542150   0.000000
    15  H    6.928066   4.509946   4.879615   1.758519   0.000000
    16  H    4.534189   2.934089   2.706201   3.072963   2.473720
    17  H    5.732033   4.143343   4.292038   2.472489   2.525899
    18  H    7.436391   4.089275   5.458316   2.477763   2.523104
    19  H    5.878837   2.871249   3.798179   3.069851   2.474878
    20  H    4.188885   2.737070   3.533115   3.833922   4.332459
    21  H    5.842979   3.433237   4.857075   2.680424   3.830895
    22  H    6.945697   3.413989   5.548639   2.646846   3.811499
    23  H    6.357644   2.677835   4.923496   3.820303   4.337725
    24  H    5.108269   2.096467   4.411373   4.166386   5.008984
    25  H    2.105544   5.514991   3.525059   8.368767   7.803809
    26  H    2.094799   4.717042   2.315085   7.556934   6.732552
    27  H    2.104690   5.506421   3.537821   8.976657   8.311476
    28  H    2.104756   5.084103   4.256509   9.087845   8.894137
    29  H    2.124305   3.948177   3.877725   7.824251   7.916679
    30  H    2.101682   5.132047   4.265539   8.530380   8.458645
    31  H    2.834523   2.125642   3.121945   6.487392   6.584126
    32  H    2.851439   2.121954   3.092424   5.587788   5.898566
    33  H    4.244623   1.023936   3.111867   4.935843   4.971262
    34  H    3.525176   1.052878   1.771994   4.292325   3.956385
                   16         17         18         19         20
    16  H    0.000000
    17  H    1.750046   0.000000
    18  H    3.850688   4.326445   0.000000
    19  H    2.713107   3.843659   1.750161   0.000000
    20  H    2.499985   2.505081   5.007080   4.235814   0.000000
    21  H    3.076970   2.456612   4.204001   4.082106   1.748410
    22  H    4.085893   4.172648   2.466910   3.080591   3.821979
    23  H    4.265112   5.002740   2.510921   2.520923   4.336288
    24  H    3.913884   4.311549   4.310374   3.895536   2.542118
    25  H    5.399815   6.372484   8.846325   7.261548   5.334478
    26  H    4.506922   5.834329   7.679217   5.995126   5.160161
    27  H    6.013460   7.316107   8.965957   7.278156   6.159553
    28  H    6.536952   7.651933   9.098899   7.603454   5.745199
    29  H    5.623852   6.531503   8.010622   6.706288   4.331367
    30  H    6.009549   6.789640   9.023978   7.625732   4.888628
    31  H    4.674607   5.836811   6.140284   4.899618   3.822596
    32  H    3.828348   4.579806   5.929067   4.839656   2.260299
    33  H    3.741599   5.006898   4.049950   2.911042   3.714705
    34  H    2.251352   3.767292   3.929578   2.408312   2.919084
                   21         22         23         24         25
    21  H    0.000000
    22  H    2.654201   0.000000
    23  H    3.812416   1.751493   0.000000
    24  H    2.408233   2.416372   2.517583   0.000000
    25  H    7.058806   8.560447   8.166154   6.877311   0.000000
    26  H    6.737111   7.811301   7.222480   6.460938   1.785685
    27  H    7.819168   8.836063   8.091721   7.142871   1.782539
    28  H    7.342844   8.321743   7.596746   6.181422   3.135591
    29  H    5.825871   6.890802   6.366791   4.616772   3.732392
    30  H    6.570552   8.075700   7.720728   5.917988   2.541288
    31  H    4.919249   5.168204   4.294250   3.133162   4.929999
    32  H    3.576058   4.654878   4.403357   2.455520   4.612183
    33  H    4.185316   3.517122   2.293198   2.462045   6.178344
    34  H    3.731124   3.850581   3.159420   2.990036   5.123753
                   26         27         28         29         30
    26  H    0.000000
    27  H    1.785658   0.000000
    28  H    3.726477   2.555600   0.000000
    29  H    4.211969   3.737440   1.773430   0.000000
    30  H    3.714660   3.080919   1.777770   1.771093   0.000000
    31  H    4.545906   4.603536   3.384916   2.275030   3.848011
    32  H    4.546092   4.947885   3.871348   2.310766   3.469607
    33  H    5.259637   5.901267   5.398504   4.381690   5.738157
    34  H    4.081909   5.132678   5.219203   4.339248   5.244640
                   31         32         33         34
    31  H    0.000000
    32  H    1.773696   0.000000
    33  H    2.218167   2.850072   0.000000
    34  H    2.764535   2.719893   1.665578   0.000000
 Stoichiometry    C10H21N2O(1+)
 Framework group  C1[X(C10H21N2O)]
 Deg. of freedom    96
 Full point group                 C1      NOp   1
 Largest Abelian subgroup         C1      NOp   1
 Largest concise Abelian subgroup C1      NOp   1
                         Standard orientation:                         
 ---------------------------------------------------------------------
 Center     Atomic      Atomic             Coordinates (Angstroms)
 Number     Number       Type             X           Y           Z
 ---------------------------------------------------------------------
      1          6           0       -1.776504   -0.103615   -0.345310
      2          6           0        3.292574   -1.291522    0.186323
      3          6           0        1.970700   -1.302040    0.969525
      4          6           0        3.247622   -0.293936   -0.980904
      5          6           0        1.583421    0.108441    1.450898
      6          6           0        2.882779    1.119537   -0.493783
      7          6           0        1.587378    1.158201    0.330337
      8          6           0       -3.839451   -1.373565   -0.240819
      9          6           0       -3.810419    0.950745    0.619577
     10          6           0       -0.975708    1.201062   -0.086843
     11          7           0       -3.068816   -0.147859    0.002720
     12          7           0        0.401702    0.937654   -0.619912
     13          8           0       -1.150399   -1.037961   -0.866590
     14          1           0        4.115222   -1.019439    0.862085
     15          1           0        3.514871   -2.296611   -0.187105
     16          1           0        1.168606   -1.723902    0.347999
     17          1           0        2.048956   -1.959335    1.842059
     18          1           0        4.214956   -0.254015   -1.492376
     19          1           0        2.525329   -0.639623   -1.736369
     20          1           0        0.619056    0.093287    1.974573
     21          1           0        2.315425    0.457894    2.189823
     22          1           0        3.677823    1.495372    0.161945
     23          1           0        2.824325    1.830363   -1.330386
     24          1           0        1.427739    2.161879    0.737915
     25          1           0       -4.218969   -1.763839    0.709169
     26          1           0       -3.194742   -2.113204   -0.711244
     27          1           0       -4.686332   -1.149337   -0.897505
     28          1           0       -4.638197    1.254257   -0.030608
     29          1           0       -3.175858    1.818705    0.798861
     30          1           0       -4.224601    0.623818    1.579345
     31          1           0       -1.401689    2.062770   -0.604178
     32          1           0       -0.904633    1.432322    0.977424
     33          1           0        0.560433    1.491232   -1.466552
     34          1           0        0.330920   -0.067317   -0.925812
 ---------------------------------------------------------------------
 Rotational constants (GHZ):      1.6433744      0.3833298      0.3579144
 Standard basis: 6-31G(d) (6D, 7F)
 There are   237 symmetry adapted basis functions of A   symmetry.
 Integral buffers will be    131072 words long.
 Raffenetti 1 integral format.
 Two-electron integral symmetry is turned on.
   237 basis functions,   448 primitive gaussians,   237 cartesian basis functions
    51 alpha electrons       51 beta electrons
       nuclear repulsion energy       880.9178961302 Hartrees.
 NAtoms=   34 NActive=   34 NUniq=   34 SFac= 1.00D+00 NAtFMM=   60 NAOKFM=F Big=F
 One-electron integrals computed using PRISM.
 NBasis=   237 RedAO= T  NBF=   237
 NBsUse=   237 1.00D-06 NBFU=   237
 Initial guess read from the checkpoint file:  frag13-conf2.chk
 B after Tr=     0.000000    0.000000    0.000000
         Rot=    1.000000    0.000000    0.000000    0.000000 Ang=   0.00 deg.
 Initial guess orbital symmetries:
       Occupied  (A) (A) (A) (A) (A) (A) (A) (A) (A) (A) (A) (A)
                 (A) (A) (A) (A) (A) (A) (A) (A) (A) (A) (A) (A)
                 (A) (A) (A) (A) (A) (A) (A) (A) (A) (A) (A) (A)
                 (A) (A) (A) (A) (A) (A) (A) (A) (A) (A) (A) (A)
                 (A) (A) (A)
       Virtual   (A) (A) (A) (A) (A) (A) (A) (A) (A) (A) (A) (A)
                 (A) (A) (A) (A) (A) (A) (A) (A) (A) (A) (A) (A)
                 (A) (A) (A) (A) (A) (A) (A) (A) (A) (A) (A) (A)
                 (A) (A) (A) (A) (A) (A) (A) (A) (A) (A) (A) (A)
                 (A) (A) (A) (A) (A) (A) (A) (A) (A) (A) (A) (A)
                 (A) (A) (A) (A) (A) (A) (A) (A) (A) (A) (A) (A)
                 (A) (A) (A) (A) (A) (A) (A) (A) (A) (A) (A) (A)
                 (A) (A) (A) (A) (A) (A) (A) (A) (A) (A) (A) (A)
                 (A) (A) (A) (A) (A) (A) (A) (A) (A) (A) (A) (A)
                 (A) (A) (A) (A) (A) (A) (A) (A) (A) (A) (A) (A)
                 (A) (A) (A) (A) (A) (A) (A) (A) (A) (A) (A) (A)
                 (A) (A) (A) (A) (A) (A) (A) (A) (A) (A) (A) (A)
                 (A) (A) (A) (A) (A) (A) (A) (A) (A) (A) (A) (A)
                 (A) (A) (A) (A) (A) (A) (A) (A) (A) (A) (A) (A)
                 (A) (A) (A) (A) (A) (A) (A) (A) (A) (A) (A) (A)
                 (A) (A) (A) (A) (A) (A)
 Requested convergence on RMS density matrix=1.00D-08 within 128 cycles.
 Requested convergence on MAX density matrix=1.00D-06.
 Requested convergence on             energy=1.00D-06.
 No special actions if energy rises.
 SCF Done:  E(RHF) =  -574.482893344     A.U. after   13 cycles
             Convg  =    0.6382D-08             -V/T =  2.0022

 **********************************************************************

            Population analysis using the SCF density.

 **********************************************************************

 Orbital symmetries:
 BldTbl:  Degeneracy threshold= 1.00D-02
       Occupied  (A) (A) (A) (A) (A) (A) (A) (A) (A) (A) (A) (A)
                 (A) (A) (A) (A) (A) (A) (A) (A) (A) (A) (A) (A)
                 (A) (A) (A) (A) (A) (A) (A) (A) (A) (A) (A) (A)
                 (A) (A) (A) (A) (A) (A) (A) (A) (A) (A) (A) (A)
                 (A) (A) (A)
       Virtual   (A) (A) (A) (A) (A) (A) (A) (A) (A) (A) (A) (A)
                 (A) (A) (A) (A) (A) (A) (A) (A) (A) (A) (A) (A)
                 (A) (A) (A) (A) (A) (A) (A) (A) (A) (A) (A) (A)
                 (A) (A) (A) (A) (A) (A) (A) (A) (A) (A) (A) (A)
                 (A) (A) (A) (A) (A) (A) (A) (A) (A) (A) (A) (A)
                 (A) (A) (A) (A) (A) (A) (A) (A) (A) (A) (A) (A)
                 (A) (A) (A) (A) (A) (A) (A) (A) (A) (A) (A) (A)
                 (A) (A) (A) (A) (A) (A) (A) (A) (A) (A) (A) (A)
                 (A) (A) (A) (A) (A) (A) (A) (A) (A) (A) (A) (A)
                 (A) (A) (A) (A) (A) (A) (A) (A) (A) (A) (A) (A)
                 (A) (A) (A) (A) (A) (A) (A) (A) (A) (A) (A) (A)
                 (A) (A) (A) (A) (A) (A) (A) (A) (A) (A) (A) (A)
                 (A) (A) (A) (A) (A) (A) (A) (A) (A) (A) (A) (A)
                 (A) (A) (A) (A) (A) (A) (A) (A) (A) (A) (A) (A)
                 (A) (A) (A) (A) (A) (A) (A) (A) (A) (A) (A) (A)
                 (A) (A) (A) (A) (A) (A)
 The electronic state is 1-A.
 Alpha  occ. eigenvalues --  -20.68763 -15.83792 -15.74782 -11.52063 -11.46712
 Alpha  occ. eigenvalues --  -11.44474 -11.40468 -11.37928 -11.37271 -11.37219
 Alpha  occ. eigenvalues --  -11.35033 -11.34585 -11.33748  -1.54468  -1.46057
 Alpha  occ. eigenvalues --   -1.39649  -1.25625  -1.17387  -1.14744  -1.13393
 Alpha  occ. eigenvalues --   -1.10710  -1.06607  -0.98955  -0.97963  -0.93416
 Alpha  occ. eigenvalues --   -0.90258  -0.88735  -0.84429  -0.83305  -0.81081
 Alpha  occ. eigenvalues --   -0.79482  -0.78613  -0.76562  -0.74602  -0.73667
 Alpha  occ. eigenvalues --   -0.73024  -0.71372  -0.69046  -0.68920  -0.67397
 Alpha  occ. eigenvalues --   -0.67080  -0.66718  -0.66393  -0.66145  -0.65682
 Alpha  occ. eigenvalues --   -0.62080  -0.59075  -0.58374  -0.57109  -0.57004
 Alpha  occ. eigenvalues --   -0.51794
 Alpha virt. eigenvalues --    0.02360   0.03644   0.07832   0.09069   0.11165
 Alpha virt. eigenvalues --    0.12029   0.12677   0.14282   0.14344   0.15541
 Alpha virt. eigenvalues --    0.16541   0.17399   0.18213   0.18744   0.19038
 Alpha virt. eigenvalues --    0.19403   0.20392   0.20674   0.21565   0.22071
 Alpha virt. eigenvalues --    0.22211   0.22539   0.23235   0.24697   0.25800
 Alpha virt. eigenvalues --    0.26723   0.27006   0.28865   0.28958   0.30665
 Alpha virt. eigenvalues --    0.32375   0.33702   0.35045   0.38410   0.43625
 Alpha virt. eigenvalues --    0.52669   0.54249   0.57367   0.57708   0.59974
 Alpha virt. eigenvalues --    0.60274   0.61325   0.62398   0.62586   0.63518
 Alpha virt. eigenvalues --    0.65245   0.67605   0.69932   0.72884   0.75099
 Alpha virt. eigenvalues --    0.76168   0.77097   0.77499   0.78101   0.80020
 Alpha virt. eigenvalues --    0.81400   0.83515   0.84326   0.84657   0.86826
 Alpha virt. eigenvalues --    0.88911   0.89324   0.90745   0.91883   0.94235
 Alpha virt. eigenvalues --    0.94853   0.95140   0.95559   0.96486   0.97827
 Alpha virt. eigenvalues --    0.99356   0.99701   1.00400   1.01765   1.02273
 Alpha virt. eigenvalues --    1.03115   1.04008   1.04714   1.05906   1.06717
 Alpha virt. eigenvalues --    1.07697   1.08520   1.09135   1.09316   1.10808
 Alpha virt. eigenvalues --    1.12173   1.12358   1.13504   1.14541   1.16142
 Alpha virt. eigenvalues --    1.18687   1.21774   1.25265   1.25412   1.30922
 Alpha virt. eigenvalues --    1.32045   1.37963   1.41388   1.43063   1.46464
 Alpha virt. eigenvalues --    1.46841   1.49222   1.54018   1.56196   1.56596
 Alpha virt. eigenvalues --    1.59251   1.63843   1.66339   1.68793   1.75086
 Alpha virt. eigenvalues --    1.77685   1.79287   1.82432   1.84429   1.86568
 Alpha virt. eigenvalues --    1.88910   1.89208   1.92718   1.94493   1.96200
 Alpha virt. eigenvalues --    2.00281   2.01724   2.03115   2.04964   2.06721
 Alpha virt. eigenvalues --    2.09385   2.10415   2.11513   2.12743   2.13417
 Alpha virt. eigenvalues --    2.15178   2.17369   2.20592   2.21809   2.23845
 Alpha virt. eigenvalues --    2.24378   2.25715   2.27236   2.28681   2.32533
 Alpha virt. eigenvalues --    2.33067   2.36415   2.39485   2.39893   2.44818
 Alpha virt. eigenvalues --    2.45653   2.47085   2.49125   2.51314   2.53890
 Alpha virt. eigenvalues --    2.54914   2.56422   2.58306   2.59115   2.59901
 Alpha virt. eigenvalues --    2.62217   2.66888   2.68974   2.72909   2.76336
 Alpha virt. eigenvalues --    2.81042   2.82360   2.84706   2.88579   2.89128
 Alpha virt. eigenvalues --    2.90854   2.91328   2.91733   2.98137   3.01931
 Alpha virt. eigenvalues --    3.16332   3.24280   3.41604   4.18190   4.30249
 Alpha virt. eigenvalues --    4.36863   4.43610   4.48257   4.56417   4.59934
 Alpha virt. eigenvalues --    4.62646   4.65181   4.80106   4.85073   4.86359
 Alpha virt. eigenvalues --    4.90736
          Condensed to atoms (all electrons):
              1          2          3          4          5          6
     1  C    4.116551  -0.000004   0.000220  -0.000010  -0.000592  -0.000119
     2  C   -0.000004   5.121227   0.324598   0.328182  -0.055899  -0.056612
     3  C    0.000220   0.324598   5.176728  -0.056562   0.310770  -0.005228
     4  C   -0.000010   0.328182  -0.056562   5.152944  -0.005586   0.311920
     5  C   -0.000592  -0.055899   0.310770  -0.005586   5.195366  -0.051953
     6  C   -0.000119  -0.056612  -0.005228   0.311920  -0.051953   5.197719
     7  C    0.001488  -0.002254  -0.051232  -0.053073   0.321620   0.331987
     8  C   -0.031969   0.000000  -0.000001   0.000000   0.000000   0.000000
     9  C   -0.034396   0.000000   0.000000   0.000000  -0.000001   0.000000
    10  C    0.343006  -0.000011   0.000192  -0.000051  -0.003326   0.002998
    11  N    0.369391   0.000000   0.000002   0.000000  -0.000042   0.000000
    12  N   -0.038398  -0.000233   0.001656   0.001060  -0.059569  -0.063508
    13  O    0.530123   0.000081  -0.003054  -0.000108   0.001134   0.000029
    14  H    0.000000   0.399046  -0.042621  -0.043391  -0.002335  -0.002731
    15  H    0.000000   0.406435  -0.035081  -0.035212   0.004107   0.004148
    16  H    0.000019  -0.039609   0.393451  -0.002421  -0.040923   0.000788
    17  H    0.000003  -0.032078   0.405338   0.003885  -0.036102  -0.000315
    18  H    0.000000  -0.031862   0.003850   0.406991  -0.000331  -0.035356
    19  H   -0.000033  -0.042641  -0.002403   0.395438   0.000884  -0.043698
    20  H   -0.000731   0.003793  -0.035723  -0.000328   0.399773   0.003435
    21  H    0.000018  -0.001848  -0.034293   0.000305   0.400805  -0.001905
    22  H    0.000001  -0.002082   0.000245  -0.033435  -0.001621   0.400518
    23  H    0.000002   0.003813  -0.000333  -0.036273   0.003682   0.399985
    24  H    0.000180  -0.000428   0.003311   0.003374  -0.035268  -0.035608
    25  H    0.001038   0.000000   0.000000   0.000000   0.000000   0.000000
    26  H   -0.003969   0.000000   0.000000   0.000000   0.000000   0.000000
    27  H    0.001098   0.000000   0.000000   0.000000   0.000000   0.000000
    28  H    0.001015   0.000000   0.000000   0.000000   0.000000   0.000000
    29  H   -0.005204   0.000000   0.000000   0.000000  -0.000001   0.000000
    30  H    0.001207   0.000000   0.000000   0.000000   0.000000   0.000000
    31  H   -0.023687   0.000001  -0.000017   0.000000   0.000266  -0.000078
    32  H   -0.025792   0.000005  -0.000014  -0.000010  -0.000176   0.000130
    33  H    0.001101   0.000059  -0.000260  -0.000100   0.003324  -0.000642
    34  H   -0.009871  -0.000652   0.003315   0.002586  -0.002932  -0.001574
              7          8          9         10         11         12
     1  C    0.001488  -0.031969  -0.034396   0.343006   0.369391  -0.038398
     2  C   -0.002254   0.000000   0.000000  -0.000011   0.000000  -0.000233
     3  C   -0.051232  -0.000001   0.000000   0.000192   0.000002   0.001656
     4  C   -0.053073   0.000000   0.000000  -0.000051   0.000000   0.001060
     5  C    0.321620   0.000000  -0.000001  -0.003326  -0.000042  -0.059569
     6  C    0.331987   0.000000   0.000000   0.002998   0.000000  -0.063508
     7  C    5.174697   0.000000  -0.000002  -0.023110   0.000004   0.103417
     8  C    0.000000   5.016316  -0.043535   0.003319   0.183455  -0.000052
     9  C   -0.000002  -0.043535   4.987851   0.002276   0.205500   0.000405
    10  C   -0.023110   0.003319   0.002276   5.230226  -0.099136   0.160106
    11  N    0.000004   0.183455   0.205500  -0.099136   7.312581   0.000674
    12  N    0.103417  -0.000052   0.000405   0.160106   0.000674   7.313829
    13  O    0.000018  -0.005271   0.001404  -0.083985  -0.079872  -0.041051
    14  H    0.000111   0.000000   0.000000   0.000001   0.000000   0.000031
    15  H   -0.000253   0.000000   0.000000  -0.000001   0.000000  -0.000019
    16  H   -0.004568   0.000004   0.000000   0.000203  -0.000038   0.000402
    17  H    0.004097   0.000000   0.000000  -0.000009   0.000000  -0.000021
    18  H    0.004242   0.000000   0.000000   0.000002   0.000000  -0.000042
    19  H   -0.005375   0.000000   0.000000   0.000128   0.000000   0.001149
    20  H   -0.040341  -0.000001   0.000004   0.000482  -0.000031  -0.002728
    21  H   -0.040969   0.000000   0.000000  -0.000076   0.000000   0.003760
    22  H   -0.040226   0.000000   0.000000  -0.000043   0.000000   0.003771
    23  H   -0.041945   0.000000   0.000000  -0.000164   0.000000  -0.003844
    24  H    0.421866   0.000000   0.000001  -0.002058  -0.000003  -0.045189
    25  H    0.000000   0.398490  -0.001937  -0.000072  -0.043391   0.000001
    26  H    0.000000   0.395446   0.002601   0.000443  -0.028349  -0.000002
    27  H    0.000000   0.398603  -0.001791  -0.000070  -0.043417   0.000001
    28  H    0.000000  -0.001145   0.398682  -0.000271  -0.044981  -0.000004
    29  H   -0.000003   0.003064   0.395456   0.001806  -0.034810   0.000302
    30  H    0.000000  -0.001392   0.398882  -0.000282  -0.044622  -0.000005
    31  H    0.000344  -0.000101  -0.001516   0.389708   0.000967  -0.029346
    32  H    0.000671  -0.000102  -0.001429   0.391210   0.000867  -0.034544
    33  H   -0.022447   0.000001  -0.000004  -0.020236  -0.000007   0.311427
    34  H   -0.011022  -0.000022  -0.000066  -0.036053   0.001994   0.244611
             13         14         15         16         17         18
     1  C    0.530123   0.000000   0.000000   0.000019   0.000003   0.000000
     2  C    0.000081   0.399046   0.406435  -0.039609  -0.032078  -0.031862
     3  C   -0.003054  -0.042621  -0.035081   0.393451   0.405338   0.003850
     4  C   -0.000108  -0.043391  -0.035212  -0.002421   0.003885   0.406991
     5  C    0.001134  -0.002335   0.004107  -0.040923  -0.036102  -0.000331
     6  C    0.000029  -0.002731   0.004148   0.000788  -0.000315  -0.035356
     7  C    0.000018   0.000111  -0.000253  -0.004568   0.004097   0.004242
     8  C   -0.005271   0.000000   0.000000   0.000004   0.000000   0.000000
     9  C    0.001404   0.000000   0.000000   0.000000   0.000000   0.000000
    10  C   -0.083985   0.000001  -0.000001   0.000203  -0.000009   0.000002
    11  N   -0.079872   0.000000   0.000000  -0.000038   0.000000   0.000000
    12  N   -0.041051   0.000031  -0.000019   0.000402  -0.000021  -0.000042
    13  O    8.267817   0.000000  -0.000001   0.005356   0.000027   0.000000
    14  H    0.000000   0.528921  -0.023253   0.003848  -0.002900  -0.002767
    15  H   -0.000001  -0.023253   0.483958  -0.002871  -0.002054  -0.002045
    16  H    0.005356   0.003848  -0.002871   0.512397  -0.022027  -0.000062
    17  H    0.000027  -0.002900  -0.002054  -0.022027   0.477722  -0.000064
    18  H    0.000000  -0.002767  -0.002045  -0.000062  -0.000064   0.472413
    19  H   -0.000065   0.004231  -0.003002   0.001882  -0.000076  -0.024118
    20  H    0.000180  -0.000075  -0.000069  -0.001995  -0.002216   0.000009
    21  H    0.000002   0.002470  -0.000062   0.003534  -0.003242  -0.000032
    22  H    0.000000   0.002608  -0.000057   0.000048  -0.000035  -0.003162
    23  H    0.000000  -0.000069  -0.000069  -0.000029   0.000010  -0.002319
    24  H   -0.000039  -0.000066   0.000009  -0.000133  -0.000056  -0.000051
    25  H    0.000370   0.000000   0.000000   0.000001   0.000000   0.000000
    26  H    0.005636   0.000000   0.000000   0.000002   0.000000   0.000000
    27  H    0.000374   0.000000   0.000000   0.000000   0.000000   0.000000
    28  H   -0.000008   0.000000   0.000000   0.000000   0.000000   0.000000
    29  H    0.000063   0.000000   0.000000   0.000000   0.000000   0.000000
    30  H   -0.000006   0.000000   0.000000   0.000000   0.000000   0.000000
    31  H    0.001166   0.000000   0.000000   0.000001   0.000000   0.000000
    32  H    0.000927   0.000000   0.000000  -0.000054   0.000001   0.000000
    33  H    0.000737   0.000002  -0.000002   0.000027   0.000004  -0.000047
    34  H    0.058707   0.000021   0.000007   0.002862  -0.000070  -0.000061
             19         20         21         22         23         24
     1  C   -0.000033  -0.000731   0.000018   0.000001   0.000002   0.000180
     2  C   -0.042641   0.003793  -0.001848  -0.002082   0.003813  -0.000428
     3  C   -0.002403  -0.035723  -0.034293   0.000245  -0.000333   0.003311
     4  C    0.395438  -0.000328   0.000305  -0.033435  -0.036273   0.003374
     5  C    0.000884   0.399773   0.400805  -0.001621   0.003682  -0.035268
     6  C   -0.043698   0.003435  -0.001905   0.400518   0.399985  -0.035608
     7  C   -0.005375  -0.040341  -0.040969  -0.040226  -0.041945   0.421866
     8  C    0.000000  -0.000001   0.000000   0.000000   0.000000   0.000000
     9  C    0.000000   0.000004   0.000000   0.000000   0.000000   0.000001
    10  C    0.000128   0.000482  -0.000076  -0.000043  -0.000164  -0.002058
    11  N    0.000000  -0.000031   0.000000   0.000000   0.000000  -0.000003
    12  N    0.001149  -0.002728   0.003760   0.003771  -0.003844  -0.045189
    13  O   -0.000065   0.000180   0.000002   0.000000   0.000000  -0.000039
    14  H    0.004231  -0.000075   0.002470   0.002608  -0.000069  -0.000066
    15  H   -0.003002  -0.000069  -0.000062  -0.000057  -0.000069   0.000009
    16  H    0.001882  -0.001995   0.003534   0.000048  -0.000029  -0.000133
    17  H   -0.000076  -0.002216  -0.003242  -0.000035   0.000010  -0.000056
    18  H   -0.024118   0.000009  -0.000032  -0.003162  -0.002319  -0.000051
    19  H    0.554746  -0.000032   0.000048   0.003703  -0.001985  -0.000129
    20  H   -0.000032   0.513626  -0.021574  -0.000067  -0.000080  -0.001573
    21  H    0.000048  -0.021574   0.478913   0.001555  -0.000059  -0.003080
    22  H    0.003703  -0.000067   0.001555   0.472270  -0.020005  -0.003011
    23  H   -0.001985  -0.000080  -0.000059  -0.020005   0.509072  -0.001679
    24  H   -0.000129  -0.001573  -0.003080  -0.003011  -0.001679   0.468812
    25  H    0.000000   0.000000   0.000000   0.000000   0.000000   0.000000
    26  H    0.000000   0.000000   0.000000   0.000000   0.000000   0.000000
    27  H    0.000000   0.000000   0.000000   0.000000   0.000000   0.000000
    28  H    0.000000   0.000000   0.000000   0.000000   0.000000   0.000000
    29  H    0.000000   0.000002   0.000000   0.000000   0.000000   0.000000
    30  H    0.000000   0.000001   0.000000   0.000000   0.000000   0.000000
    31  H   -0.000003   0.000136   0.000000   0.000001  -0.000001   0.000012
    32  H   -0.000001   0.001409  -0.000099  -0.000005   0.000000  -0.000063
    33  H    0.000316  -0.000144  -0.000061   0.000011   0.004745  -0.000986
    34  H    0.002030  -0.000170   0.000100   0.000027  -0.000058   0.001647
             25         26         27         28         29         30
     1  C    0.001038  -0.003969   0.001098   0.001015  -0.005204   0.001207
     2  C    0.000000   0.000000   0.000000   0.000000   0.000000   0.000000
     3  C    0.000000   0.000000   0.000000   0.000000   0.000000   0.000000
     4  C    0.000000   0.000000   0.000000   0.000000   0.000000   0.000000
     5  C    0.000000   0.000000   0.000000   0.000000  -0.000001   0.000000
     6  C    0.000000   0.000000   0.000000   0.000000   0.000000   0.000000
     7  C    0.000000   0.000000   0.000000   0.000000  -0.000003   0.000000
     8  C    0.398490   0.395446   0.398603  -0.001145   0.003064  -0.001392
     9  C   -0.001937   0.002601  -0.001791   0.398682   0.395456   0.398882
    10  C   -0.000072   0.000443  -0.000070  -0.000271   0.001806  -0.000282
    11  N   -0.043391  -0.028349  -0.043417  -0.044981  -0.034810  -0.044622
    12  N    0.000001  -0.000002   0.000001  -0.000004   0.000302  -0.000005
    13  O    0.000370   0.005636   0.000374  -0.000008   0.000063  -0.000006
    14  H    0.000000   0.000000   0.000000   0.000000   0.000000   0.000000
    15  H    0.000000   0.000000   0.000000   0.000000   0.000000   0.000000
    16  H    0.000001   0.000002   0.000000   0.000000   0.000000   0.000000
    17  H    0.000000   0.000000   0.000000   0.000000   0.000000   0.000000
    18  H    0.000000   0.000000   0.000000   0.000000   0.000000   0.000000
    19  H    0.000000   0.000000   0.000000   0.000000   0.000000   0.000000
    20  H    0.000000   0.000000   0.000000   0.000000   0.000002   0.000001
    21  H    0.000000   0.000000   0.000000   0.000000   0.000000   0.000000
    22  H    0.000000   0.000000   0.000000   0.000000   0.000000   0.000000
    23  H    0.000000   0.000000   0.000000   0.000000   0.000000   0.000000
    24  H    0.000000   0.000000   0.000000   0.000000   0.000000   0.000000
    25  H    0.492646  -0.019758  -0.032057  -0.000678  -0.000034   0.003222
    26  H   -0.019758   0.415508  -0.019644  -0.000036  -0.000081  -0.000025
    27  H   -0.032057  -0.019644   0.491649   0.003140  -0.000029  -0.000776
    28  H   -0.000678  -0.000036   0.003140   0.481687  -0.024009  -0.031705
    29  H   -0.000034  -0.000081  -0.000029  -0.024009   0.505877  -0.023674
    30  H    0.003222  -0.000025  -0.000776  -0.031705  -0.023674   0.480776
    31  H   -0.000002  -0.000007   0.000008   0.000178  -0.001754   0.000011
    32  H    0.000009  -0.000008  -0.000002   0.000003  -0.001516   0.000148
    33  H    0.000000   0.000000   0.000000   0.000000   0.000000   0.000000
    34  H    0.000000  -0.000011   0.000001   0.000002  -0.000012   0.000001
             31         32         33         34
     1  C   -0.023687  -0.025792   0.001101  -0.009871
     2  C    0.000001   0.000005   0.000059  -0.000652
     3  C   -0.000017  -0.000014  -0.000260   0.003315
     4  C    0.000000  -0.000010  -0.000100   0.002586
     5  C    0.000266  -0.000176   0.003324  -0.002932
     6  C   -0.000078   0.000130  -0.000642  -0.001574
     7  C    0.000344   0.000671  -0.022447  -0.011022
     8  C   -0.000101  -0.000102   0.000001  -0.000022
     9  C   -0.001516  -0.001429  -0.000004  -0.000066
    10  C    0.389708   0.391210  -0.020236  -0.036053
    11  N    0.000967   0.000867  -0.000007   0.001994
    12  N   -0.029346  -0.034544   0.311427   0.244611
    13  O    0.001166   0.000927   0.000737   0.058707
    14  H    0.000000   0.000000   0.000002   0.000021
    15  H    0.000000   0.000000  -0.000002   0.000007
    16  H    0.000001  -0.000054   0.000027   0.002862
    17  H    0.000000   0.000001   0.000004  -0.000070
    18  H    0.000000   0.000000  -0.000047  -0.000061
    19  H   -0.000003  -0.000001   0.000316   0.002030
    20  H    0.000136   0.001409  -0.000144  -0.000170
    21  H    0.000000  -0.000099  -0.000061   0.000100
    22  H    0.000001  -0.000005   0.000011   0.000027
    23  H   -0.000001   0.000000   0.004745  -0.000058
    24  H    0.000012  -0.000063  -0.000986   0.001647
    25  H   -0.000002   0.000009   0.000000   0.000000
    26  H   -0.000007  -0.000008   0.000000  -0.000011
    27  H    0.000008  -0.000002   0.000000   0.000001
    28  H    0.000178   0.000003   0.000000   0.000002
    29  H   -0.001754  -0.001516   0.000000  -0.000012
    30  H    0.000011   0.000148   0.000000   0.000001
    31  H    0.419182  -0.017250  -0.003016   0.002043
    32  H   -0.017250   0.419179   0.001656   0.001823
    33  H   -0.003016   0.001656   0.286451  -0.007570
    34  H    0.002043   0.001823  -0.007570   0.230920
 Mulliken atomic charges:
              1
     1  C    0.808315
     2  C   -0.321027
     3  C   -0.356857
     4  C   -0.340125
     5  C   -0.345074
     6  C   -0.354328
     7  C   -0.027744
     8  C   -0.315107
     9  C   -0.308383
    10  C   -0.257152
    11  N   -0.656739
    12  N   -0.828046
    13  O   -0.660691
    14  H    0.178920
    15  H    0.205385
    16  H    0.189902
    17  H    0.210180
    18  H    0.214815
    19  H    0.159007
    20  H    0.185027
    21  H    0.215790
    22  H    0.218991
    23  H    0.187602
    24  H    0.230209
    25  H    0.202153
    26  H    0.252255
    27  H    0.202912
    28  H    0.218129
    29  H    0.184557
    30  H    0.218239
    31  H    0.262756
    32  H    0.263025
    33  H    0.445660
    34  H    0.517444
 Sum of Mulliken atomic charges =   1.00000
 Mulliken charges with hydrogens summed into heavy atoms:
              1
     1  C    0.808315
     2  C    0.063278
     3  C    0.043225
     4  C    0.033697
     5  C    0.055744
     6  C    0.052265
     7  C    0.202465
     8  C    0.342212
     9  C    0.312542
    10  C    0.268629
    11  N   -0.656739
    12  N    0.135058
    13  O   -0.660691
 Sum of Mulliken charges with hydrogens summed into heavy atoms =   1.00000
 DipInt: DoE/N= T F RetVal/Mat= T F Init=T NMatP=  1 IDeriv=0 Min/MaxMlt=  0  4
 Entering OneElI...
 OneElI was handed    33407737 working-precision words.
 Multipole integrals L=0 to 4 MinM= 0 MaxM= 0.
 Requested accuracy = 0.1000D-12
 PrsmSu:  NPrtUS=   1 ThrOK=F IAlg=1 NPAlg=1 LenDen=           0.
 Prism:   IPart=     0 DynPar=F LinDyn=F Incr=          39.
 PRISM was handed    33096945 working-precision words and  3912 shell-pairs
 IPart=  0 NShTot=        3912 NBatch=          61 AvBLen=        64.1
 PrSmSu:  NxtVal=             40.
 Electronic moments (au):
       -102.00000000         -0.69563856          2.03068296          0.12676936
      -2532.19656948       -493.76358950       -299.75231296         -0.68672428
         -1.94113933         -2.46327181       2497.92290996         90.54784292
       -186.80904602        -75.22091139       1015.04006863         10.22079106
       -439.51387531         48.11715046        -24.97436458        469.52576710
    -110846.53959400      -5063.92459754      -2604.86580014        388.66124834
       4913.46138823        -57.07285786        208.31022702       -183.66558124
         32.46793268     -12990.35541168      -6600.53242893      -1269.28754343
       -853.18525822       -345.96892603        242.34234816
 Electronic spatial extent (au):  <R**2>=           3325.7125
 DipInt: DoE/N= F T RetVal/Mat= T F Init=T NMatP=  1 IDeriv=0 Min/MaxMlt=  0  4
 Nuclear    moments (au):
        103.00000000          0.00000000          0.00000000          0.00000000
       2501.21023670        441.04990483        243.99279821          0.00000000
          0.00000000          0.00000000      -2608.86707433        -76.75477849
        182.13373032         63.14407988      -1016.11458485         -2.96894051
        440.29309128        -38.00623129         20.94108780       -472.39808546
     103398.61047190       3450.79369864       1611.50628570       -308.86722172
      -4971.62598500         73.39212997       -225.59092746        177.27826310
        -61.68437487      11394.34639658       5022.45418554        847.79626308
        882.96877571        346.14047213       -236.41230167
 Total      moments (au):
          1.00000000         -0.69563856          2.03068296          0.12676936
        -30.98633278        -52.71368467        -55.75951475         -0.68672428
         -1.94113933         -2.46327181       -110.94416437         13.79306444
         -4.67531570        -12.07683151         -1.07451622          7.25185055
          0.77921597         10.11091917         -4.03327678         -2.87231836
      -7447.92912210      -1613.13089890       -993.35951444         79.79402661
        -58.16459677         16.31927211        -17.28070044         -6.38731815
        -29.21644220      -1596.00901510      -1578.07824339       -421.49128034
         29.78351749          0.17154610          5.93004649
 Traceless Quadrup. (au):
         15.50017795         -6.22717393         -9.27300402         -0.68672428
         -1.94113933         -2.46327181
 Charge=              1.0000 electrons
 Dipole moment (field-independent basis, Debye):
    X=             -1.7681    Y=              5.1615    Z=              0.3222  Tot=              5.4654
 Quadrupole moment (field-independent basis, Debye-Ang):
   XX=            -41.6777   YY=            -70.9017   ZZ=            -74.9985
   XY=             -0.9237   XZ=             -2.6109   YZ=             -3.3132
 Traceless Quadrupole moment (field-independent basis, Debye-Ang):
   XX=             20.8483   YY=             -8.3758   ZZ=            -12.4725
   XY=             -0.9237   XZ=             -2.6109   YZ=             -3.3132
 Octapole moment (field-independent basis, Debye-Ang**2):
  XXX=            -78.9658  YYY=              9.8174  ZZZ=             -3.3277  XYY=             -8.5958
  XXY=             -0.7648  XXZ=              5.1616  XZZ=              0.5546  YZZ=              7.1966
  YYZ=             -2.8707  XYZ=             -2.0444
 Hexadecapole moment (field-independent basis, Debye-Ang**3):
 XXXX=          -2805.2471 YYYY=           -607.5824 ZZZZ=           -374.1468 XXXY=             30.0543
 XXXZ=            -21.9076 YYYX=              6.1466 YYYZ=             -6.5087 ZZZX=             -2.4058
 ZZZY=            -11.0043 XXYY=           -601.1335 XXZZ=           -594.3799 YYZZ=           -158.7538
 XXYZ=             11.2179 YYXZ=              0.0646 ZZXY=              2.2335
 N-N= 8.809178961302D+02 E-N=-3.086335949497D+03  KE= 5.732095633134D+02
 Entering OneElI...
 OneElI was handed    33294312 working-precision words.
 Calculate electrostatic properties
    NBasis =   237  MinDer = 0  MaxDer = 0
    NGrid  =    34  NMatD  =   1
 Requested accuracy = 0.1000D-12
 PrsmSu:  NPrtUS=   2 ThrOK=T IAlg=1 NPAlg=1 LenDen=           0.
 Prism:   IPart=     0 DynPar=F LinDyn=F Incr=         512.
 PRISM was handed    16455954 working-precision words and  3562 shell-pairs
 PRISM was handed    16455954 working-precision words and  3562 shell-pairs
 IPart=  0 NShTot=       60894 NBatch=        1791 AvBLen=        34.0
 IPart=  1 NShTot=       60214 NBatch=        1771 AvBLen=        34.0
 PrSmSu:  NxtVal=           1025.
 --------------------------------------------------------
       Center         ----      EFG at Nuclei      ----
                      3XX-RR        3YY-RR        3ZZ-RR
 --------------------------------------------------------
     1   Atom        0.182760      0.187826     -0.370587
     2   Atom       -0.011606      0.025705     -0.014099
     3   Atom        0.019283     -0.059862      0.040580
     4   Atom        0.031911     -0.050111      0.018199
     5   Atom        0.036028      0.004075     -0.040103
     6   Atom       -0.056584      0.058204     -0.001619
     7   Atom       -0.193030      0.216303     -0.023273
     8   Atom        0.035874     -0.188826      0.152952
     9   Atom        0.029581     -0.122341      0.092759
    10   Atom       -0.309763      0.158328      0.151435
    11   Atom       -0.423910     -0.237795      0.661706
    12   Atom       -0.144423      0.193419     -0.048996
    13   Atom        0.561552     -0.067900     -0.493652
    14   Atom       -0.095125      0.116560     -0.021435
    15   Atom        0.129531     -0.221956      0.092425
    16   Atom       -0.081915      0.077701      0.004213
    17   Atom        0.144525     -0.011623     -0.132901
    18   Atom       -0.193814      0.140017      0.053798
    19   Atom       -0.048752      0.100063     -0.051311
    20   Atom       -0.195508      0.143983      0.051525
    21   Atom       -0.045242      0.095145     -0.049903
    22   Atom       -0.084185      0.097030     -0.012845
    23   Atom        0.132764     -0.030245     -0.102519
    24   Atom        0.123325     -0.208867      0.085542
    25   Atom        0.098836      0.084752     -0.183587
    26   Atom       -0.004500     -0.068047      0.072547
    27   Atom       -0.110858      0.113187     -0.002329
    28   Atom       -0.096753      0.106001     -0.009247
    29   Atom       -0.018551     -0.130279      0.148830
    30   Atom        0.088691      0.094760     -0.183451
    31   Atom        0.066546     -0.116861      0.050314
    32   Atom        0.125834      0.136269     -0.262103
    33   Atom        0.150694      0.023596     -0.174289
    34   Atom        0.117043     -0.201917      0.084875
 --------------------------------------------------------
                        XY            XZ            YZ
 --------------------------------------------------------
     1   Atom        0.025871     -0.186869      0.252624
     2   Atom        0.002761      0.018894      0.041407
     3   Atom        0.029928      0.013621     -0.037183
     4   Atom        0.025954     -0.018399     -0.037997
     5   Atom        0.002343      0.007713      0.090203
     6   Atom       -0.003691      0.074626      0.023009
     7   Atom       -0.094551     -0.377766     -0.103003
     8   Atom       -0.267319     -0.067513     -0.053349
     9   Atom        0.167114      0.104832     -0.162846
    10   Atom        0.047706      0.188132     -0.034698
    11   Atom       -0.090549      0.338805     -0.403157
    12   Atom        0.052805      0.094546      0.097831
    13   Atom        1.150528      0.144389     -0.211201
    14   Atom       -0.082512     -0.195142     -0.064996
    15   Atom        0.079131      0.033314     -0.135497
    16   Atom       -0.111309     -0.176474     -0.090422
    17   Atom        0.022476     -0.022592      0.206076
    18   Atom       -0.014063      0.180084      0.008245
    19   Atom       -0.083178     -0.194582     -0.090262
    20   Atom        0.001555      0.177998      0.008705
    21   Atom       -0.092775     -0.193362     -0.087046
    22   Atom       -0.104338     -0.182049     -0.090200
    23   Atom        0.022267     -0.019596      0.211863
    24   Atom        0.060274      0.012279     -0.145711
    25   Atom       -0.062530      0.128752      0.126702
    26   Atom        0.166308      0.110413     -0.133999
    27   Atom        0.064324     -0.205288      0.054684
    28   Atom        0.094717     -0.192874      0.061846
    29   Atom       -0.204013     -0.032586     -0.064229
    30   Atom       -0.042793      0.145741      0.110124
    31   Atom        0.132170     -0.068941      0.166651
    32   Atom       -0.005200     -0.024843     -0.089917
    33   Atom       -0.040919      0.063865      0.236164
    34   Atom        0.014456      0.006411     -0.104920
 --------------------------------------------------------


 ---------------------------------------------------------------------------------
              Nuclear Quadrupole in Principal Axis System
 ---------------------------------------------------------------------------------

       Atom             a.u.   MegaHertz   Gauss  10(-4) cm-1        Axes

              Baa    -0.5163   -69.286   -24.723   -23.111  0.2549 -0.3348  0.9072
     1 C(13)  Bbb     0.2085    27.976     9.983     9.332  0.8485  0.5273 -0.0438
              Bcc     0.3078    41.310    14.741    13.780 -0.4637  0.7809  0.4185
 
              Baa    -0.0465    -6.236    -2.225    -2.080 -0.3993 -0.4447  0.8018
     2 C(13)  Bbb    -0.0077    -1.032    -0.368    -0.344  0.8966 -0.3720  0.2402
              Bcc     0.0542     7.268     2.593     2.424  0.1914  0.8148  0.5472
 
              Baa    -0.0826   -11.087    -3.956    -3.698 -0.3057  0.9016  0.3059
     3 C(13)  Bbb     0.0293     3.929     1.402     1.311  0.9421  0.3330 -0.0400
              Bcc     0.0533     7.158     2.554     2.388  0.1379 -0.2760  0.9512
 
              Baa    -0.0698    -9.370    -3.343    -3.126 -0.1688  0.9173  0.3607
     4 C(13)  Bbb     0.0079     1.061     0.379     0.354  0.6972 -0.1476  0.7015
              Bcc     0.0619     8.309     2.965     2.772  0.6967  0.3699 -0.6146
 
              Baa    -0.1110   -14.899    -5.316    -4.970 -0.0315 -0.6161  0.7870
     5 C(13)  Bbb     0.0351     4.707     1.680     1.570  0.9860 -0.1481 -0.0765
              Bcc     0.0759    10.192     3.637     3.400  0.1637  0.7736  0.6122
 
              Baa    -0.1102   -14.788    -5.277    -4.933  0.8106  0.0967 -0.5776
     6 C(13)  Bbb     0.0378     5.069     1.809     1.691  0.5101 -0.6010  0.6153
              Bcc     0.0724     9.718     3.468     3.242  0.2876  0.7934  0.5364
 
              Baa    -0.5212   -69.946   -24.958   -23.331  0.7643  0.1843  0.6179
     7 C(13)  Bbb     0.2327    31.226    11.142    10.416 -0.3903  0.8951  0.2158
              Bcc     0.2885    38.720    13.816    12.916 -0.5133 -0.4061  0.7560
 
              Baa    -0.3790   -50.865   -18.150   -16.967  0.5527  0.8194  0.1523
     8 C(13)  Bbb     0.1539    20.645     7.367     6.887  0.2584 -0.3422  0.9034
              Bcc     0.2252    30.219    10.783    10.080  0.7923 -0.4599 -0.4008
 
              Baa    -0.3207   -43.031   -15.355   -14.354 -0.4902  0.7614  0.4242
     9 C(13)  Bbb     0.1372    18.409     6.569     6.141  0.8409  0.5412  0.0004
              Bcc     0.1835    24.622     8.786     8.213  0.2293 -0.3569  0.9056
 
              Baa    -0.3827   -51.354   -18.324   -17.130  0.9359 -0.1041 -0.3364
    10 C(13)  Bbb     0.1596    21.413     7.641     7.143  0.1861  0.9572  0.2216
              Bcc     0.2231    29.941    10.684     9.987  0.2990 -0.2700  0.9153
 
              Baa    -0.5247   -20.236    -7.221    -6.750  0.9352 -0.1534 -0.3192
    11 N(14)  Bbb    -0.3827   -14.760    -5.267    -4.923  0.2471  0.9282  0.2781
              Bcc     0.9074    34.996    12.488    11.674  0.2536 -0.3390  0.9060
 
              Baa    -0.2027    -7.819    -2.790    -2.608  0.8463  0.0187 -0.5324
    12 N(14)  Bbb    -0.0429    -1.654    -0.590    -0.552  0.4887 -0.4247  0.7621
              Bcc     0.2456     9.473     3.380     3.160  0.2119  0.9051  0.3686
 
              Baa    -1.0610    76.776    27.395    25.610 -0.5514  0.7262  0.4106
    13 O(17)  Bbb    -0.3787    27.401     9.777     9.140  0.2545 -0.3224  0.9118
              Bcc     1.4397  -104.177   -37.173   -34.750  0.7945  0.6073 -0.0070
 
              Baa    -0.2844  -151.727   -54.140   -50.611  0.7458  0.2534  0.6161
    14 H(1)   Bbb     0.1390    74.184    26.471    24.745 -0.4813 -0.4346  0.7613
              Bcc     0.1453    77.543    27.669    25.866 -0.4607  0.8642  0.2022
 
              Baa    -0.2898  -154.646   -55.181   -51.584 -0.2004  0.9178  0.3428
    15 H(1)   Bbb     0.1407    75.086    26.792    25.046 -0.4826 -0.3970  0.7807
              Bcc     0.1491    79.560    28.389    26.538  0.8526 -0.0089  0.5224
 
              Baa    -0.2783  -148.468   -52.977   -49.524  0.7282  0.3737  0.5745
    16 H(1)   Bbb     0.1349    71.952    25.674    24.001 -0.4481  0.8939 -0.0134
              Bcc     0.1434    76.516    27.303    25.523 -0.5186 -0.2477  0.8184
 
              Baa    -0.2894  -154.394   -55.092   -51.500  0.0725 -0.5981  0.7982
    17 H(1)   Bbb     0.1397    74.563    26.606    24.872 -0.5313  0.6541  0.5384
              Bcc     0.1496    79.831    28.486    26.629  0.8441  0.4631  0.2703
 
              Baa    -0.2892  -154.283   -55.052   -51.463  0.8844  0.0379 -0.4653
    18 H(1)   Bbb     0.1406    74.998    26.761    25.017 -0.0770  0.9949 -0.0653
              Bcc     0.1486    79.285    28.291    26.447  0.4604  0.0936  0.8828
 
              Baa    -0.2838  -151.430   -54.034   -50.511  0.6690  0.3044  0.6781
    19 H(1)   Bbb     0.1368    72.979    26.041    24.343 -0.5364  0.8292  0.1570
              Bcc     0.1470    78.450    27.993    26.168 -0.5145 -0.4688  0.7180
 
              Baa    -0.2887  -154.017   -54.957   -51.375  0.8860  0.0061 -0.4637
    20 H(1)   Bbb     0.1359    72.505    25.872    24.185 -0.3253  0.7209 -0.6120
              Bcc     0.1528    81.512    29.085    27.189  0.3305  0.6930  0.6407
 
              Baa    -0.2836  -151.327   -53.997   -50.477  0.6688  0.3182  0.6719
    21 H(1)   Bbb     0.1357    72.425    25.843    24.158  0.0892  0.8629 -0.4975
              Bcc     0.1479    78.902    28.154    26.319  0.7380 -0.3927 -0.5487
 
              Baa    -0.2839  -151.493   -54.057   -50.533  0.7243  0.3403  0.5996
    22 H(1)   Bbb     0.1361    72.612    25.910    24.221  0.6854 -0.2605 -0.6800
              Bcc     0.1478    78.881    28.147    26.312 -0.0753  0.9035 -0.4219
 
              Baa    -0.2834  -151.194   -53.950   -50.433  0.0703 -0.6439  0.7619
    23 H(1)   Bbb     0.1336    71.261    25.428    23.770  0.9576 -0.1702 -0.2323
              Bcc     0.1498    79.934    28.522    26.663  0.2793  0.7460  0.6046
 
              Baa    -0.2779  -148.270   -52.906   -49.458 -0.1490  0.9161  0.3723
    24 H(1)   Bbb     0.1258    67.109    23.946    22.385  0.8547 -0.0700  0.5143
              Bcc     0.1521    81.161    28.960    27.072 -0.4972 -0.3949  0.7726
 
              Baa    -0.2868  -153.037   -54.607   -51.048 -0.3473 -0.3545  0.8682
    25 H(1)   Bbb     0.1305    69.645    24.851    23.231  0.3945  0.7847  0.4782
              Bcc     0.1563    83.392    29.756    27.817  0.8507 -0.5085  0.1327
 
              Baa    -0.2890  -154.185   -55.017   -51.430 -0.5742  0.6948  0.4329
    26 H(1)   Bbb     0.1330    70.983    25.329    23.678  0.7742  0.6329  0.0110
              Bcc     0.1559    83.201    29.688    27.753  0.2663 -0.3415  0.9014
 
              Baa    -0.2867  -152.979   -54.587   -51.028  0.7741 -0.2064  0.5985
    27 H(1)   Bbb     0.1303    69.544    24.815    23.197  0.2565  0.9665  0.0015
              Bcc     0.1564    83.435    29.772    27.831 -0.5788  0.1524  0.8011
 
              Baa    -0.2834  -151.189   -53.948   -50.431  0.7550 -0.2780  0.5939
    28 H(1)   Bbb     0.1309    69.827    24.916    23.292 -0.1948  0.7697  0.6079
              Bcc     0.1525    81.362    29.032    27.140  0.6262  0.5747 -0.5269
 
              Baa    -0.2972  -158.570   -56.582   -52.893  0.5953  0.7880  0.1570
    29 H(1)   Bbb     0.1313    70.074    25.004    23.374  0.7669 -0.4990 -0.4035
              Bcc     0.1659    88.495    31.577    29.519  0.2396 -0.3606  0.9014
 
              Baa    -0.2836  -151.320   -53.995   -50.475 -0.3775 -0.2979  0.8768
    30 H(1)   Bbb     0.1307    69.724    24.879    23.257 -0.3026  0.9345  0.1872
              Bcc     0.1529    81.596    29.115    27.217  0.8752  0.1947  0.4429
 
              Baa    -0.2830  -150.997   -53.879   -50.367 -0.3916  0.7880 -0.4750
    31 H(1)   Bbb     0.1262    67.322    24.022    22.456  0.8628  0.1351 -0.4872
              Bcc     0.1568    83.674    29.857    27.911  0.3197  0.6006  0.7328
 
              Baa    -0.2830  -151.013   -53.885   -50.373  0.0620  0.2100  0.9757
    32 H(1)   Bbb     0.1274    67.979    24.257    22.675  0.9981 -0.0180 -0.0595
              Bcc     0.1556    83.034    29.629    27.697  0.0051  0.9775 -0.2107
 
              Baa    -0.3430  -183.034   -65.311   -61.054 -0.1518 -0.5472  0.8231
    33 H(1)   Bbb     0.1623    86.570    30.890    28.877  0.9860 -0.1420  0.0875
              Bcc     0.1808    96.464    34.421    32.177  0.0690  0.8249  0.5610
 
              Baa    -0.2369  -126.400   -45.103   -42.162 -0.0444  0.9495  0.3105
    34 H(1)   Bbb     0.1167    62.265    22.218    20.769  0.8372  0.2049 -0.5070
              Bcc     0.1202    64.135    22.885    21.393  0.5451 -0.2374  0.8041
 

 ---------------------------------------------------------------------------------

 No NMR shielding tensors so no spin-rotation constants.
 Leave Link  601 at Sat Feb 17 20:57:50 2018, MaxMem=   33554432 cpu:       0.6
 Merz-Kollman atomic radii used.
 Read replacement radii for each type of atom:
 Atom Element Radius
    1     6    1.50
    2     6    1.50
    3     6    1.50
    4     6    1.50
    5     6    1.50
    6     6    1.50
    7     6    1.50
    8     6    1.50
    9     6    1.50
   10     6    1.50
   11     7    1.50
   12     7    1.50
   13     8    1.40
   14     1    1.20
   15     1    1.20
   16     1    1.20
   17     1    1.20
   18     1    1.20
   19     1    1.20
   20     1    1.20
   21     1    1.20
   22     1    1.20
   23     1    1.20
   24     1    1.20
   25     1    1.20
   26     1    1.20
   27     1    1.20
   28     1    1.20
   29     1    1.20
   30     1    1.20
   31     1    1.20
   32     1    1.20
   33     1    1.20
   34     1    1.20
 Generate VDW surfaces: Layer= 4 Dens= 1 Start= 1.400 Inc= 0.200

 **********************************************************************

            Electrostatic Properties Using The SCF Density

 **********************************************************************

       Atomic Center    1 is at  -1.776504 -0.103615 -0.345310
       Atomic Center    2 is at   3.292574 -1.291522  0.186323
       Atomic Center    3 is at   1.970700 -1.302040  0.969525
       Atomic Center    4 is at   3.247622 -0.293936 -0.980904
       Atomic Center    5 is at   1.583421  0.108441  1.450898
       Atomic Center    6 is at   2.882779  1.119537 -0.493783
       Atomic Center    7 is at   1.587378  1.158201  0.330337
       Atomic Center    8 is at  -3.839451 -1.373565 -0.240819
       Atomic Center    9 is at  -3.810419  0.950745  0.619577
       Atomic Center   10 is at  -0.975708  1.201062 -0.086843
       Atomic Center   11 is at  -3.068816 -0.147859  0.002720
       Atomic Center   12 is at   0.401702  0.937654 -0.619912
       Atomic Center   13 is at  -1.150399 -1.037961 -0.866590
       Atomic Center   14 is at   4.115222 -1.019439  0.862085
       Atomic Center   15 is at   3.514871 -2.296611 -0.187105
       Atomic Center   16 is at   1.168606 -1.723902  0.347999
       Atomic Center   17 is at   2.048956 -1.959335  1.842059
       Atomic Center   18 is at   4.214956 -0.254015 -1.492376
       Atomic Center   19 is at   2.525329 -0.639623 -1.736369
       Atomic Center   20 is at   0.619056  0.093287  1.974573
       Atomic Center   21 is at   2.315425  0.457894  2.189823
       Atomic Center   22 is at   3.677823  1.495372  0.161945
       Atomic Center   23 is at   2.824325  1.830363 -1.330386
       Atomic Center   24 is at   1.427739  2.161879  0.737915
       Atomic Center   25 is at  -4.218969 -1.763839  0.709169
       Atomic Center   26 is at  -3.194742 -2.113204 -0.711244
       Atomic Center   27 is at  -4.686332 -1.149337 -0.897505
       Atomic Center   28 is at  -4.638197  1.254257 -0.030608
       Atomic Center   29 is at  -3.175858  1.818705  0.798861
       Atomic Center   30 is at  -4.224601  0.623818  1.579345
       Atomic Center   31 is at  -1.401689  2.062770 -0.604178
       Atomic Center   32 is at  -0.904633  1.432322  0.977424
       Atomic Center   33 is at   0.560433  1.491232 -1.466552
       Atomic Center   34 is at   0.330920 -0.067317 -0.925812
      ESP Fit Center   35 is at  -1.776504 -0.103615  1.754690
      ESP Fit Center   36 is at  -1.251504 -1.012941  1.473344
      ESP Fit Center   37 is at  -2.035325 -1.903757  0.704690
      ESP Fit Center   38 is at  -1.251504  0.805712 -2.163963
      ESP Fit Center   39 is at  -2.301504  0.805712 -2.163963
      ESP Fit Center   40 is at  -2.826504 -0.103615 -2.163963
      ESP Fit Center   41 is at   0.225714 -1.814414  2.019525
      ESP Fit Center   42 is at   2.223827 -3.386729  0.969525
      ESP Fit Center   43 is at   4.003118 -1.948241 -2.030904
      ESP Fit Center   44 is at   1.324600  1.908583  2.500898
      ESP Fit Center   45 is at  -3.083955 -3.027871  0.809181
      ESP Fit Center   46 is at  -2.309502 -2.356804  0.809181
      ESP Fit Center   47 is at  -5.411323 -2.766123 -0.240819
      ESP Fit Center   48 is at  -4.584121 -3.337099 -0.240819
      ESP Fit Center   49 is at  -5.030415 -2.748012 -1.290819
      ESP Fit Center   50 is at  -3.314451 -0.464239 -2.059473
      ESP Fit Center   51 is at  -3.839451 -1.373565 -2.340819
      ESP Fit Center   52 is at  -2.760419  0.950745  2.438230
      ESP Fit Center   53 is at  -5.001383  2.325192  1.669577
      ESP Fit Center   54 is at  -4.555089  2.914279  0.619577
      ESP Fit Center   55 is at  -3.285419  1.860072 -1.199076
      ESP Fit Center   56 is at  -0.975708  1.201062 -2.186843
      ESP Fit Center   57 is at  -2.018816 -0.147859  1.821374
      ESP Fit Center   58 is at  -2.543816 -1.057186  1.821374
      ESP Fit Center   59 is at  -3.593816  0.761468 -1.815933
      ESP Fit Center   60 is at  -3.068816 -0.147859 -2.097280
      ESP Fit Center   61 is at   0.654829  3.022343 -0.619912
      ESP Fit Center   62 is at  -1.640399 -1.886666  0.830819
      ESP Fit Center   63 is at  -0.660399 -1.886666  0.830819
      ESP Fit Center   64 is at  -1.674927 -2.652293  0.113410
      ESP Fit Center   65 is at  -0.625870 -2.652293  0.113410
      ESP Fit Center   66 is at  -1.150399 -2.997961 -0.866590
      ESP Fit Center   67 is at  -0.170399 -2.735371 -0.866590
      ESP Fit Center   68 is at  -1.674927 -2.652293 -1.846590
      ESP Fit Center   69 is at  -0.625870 -2.652293 -1.846590
      ESP Fit Center   70 is at   0.222834 -2.035673 -1.846590
      ESP Fit Center   71 is at  -0.170399 -1.037961 -2.564000
      ESP Fit Center   72 is at  -0.660399 -0.189256 -2.564000
      ESP Fit Center   73 is at  -1.640399 -0.189256 -2.564000
      ESP Fit Center   74 is at  -2.130399 -1.037961 -2.564000
      ESP Fit Center   75 is at  -1.640399 -1.886666 -2.564000
      ESP Fit Center   76 is at  -0.660399 -1.886666 -2.564000
      ESP Fit Center   77 is at  -1.150399 -1.037961 -2.826590
      ESP Fit Center   78 is at   4.115222 -1.019439  2.542085
      ESP Fit Center   79 is at   5.102701 -1.019439  2.221234
      ESP Fit Center   80 is at   4.420369 -0.080291  2.221234
      ESP Fit Center   81 is at   4.420369 -1.958588  2.221234
      ESP Fit Center   82 is at   5.712997 -1.019439  1.381234
      ESP Fit Center   83 is at   5.339188  0.007591  1.381234
      ESP Fit Center   84 is at   4.392672  0.554062  1.381234
      ESP Fit Center   85 is at   5.339188 -2.046469  1.381234
      ESP Fit Center   86 is at   5.712997 -1.019439  0.342937
      ESP Fit Center   87 is at   5.339188  0.007591  0.342937
      ESP Fit Center   88 is at   5.339188 -2.046469  0.342937
      ESP Fit Center   89 is at   3.820019 -3.235759  1.172044
      ESP Fit Center   90 is at   2.715983 -3.680325  0.332044
      ESP Fit Center   91 is at   3.792321 -3.870112  0.332044
      ESP Fit Center   92 is at   4.738837 -3.323641  0.332044
      ESP Fit Center   93 is at   5.112646 -2.296611 -0.706254
      ESP Fit Center   94 is at   2.013453 -2.843082 -0.706254
      ESP Fit Center   95 is at   2.715983 -3.680325 -0.706254
      ESP Fit Center   96 is at   3.792321 -3.870112 -0.706254
      ESP Fit Center   97 is at   4.738837 -3.323641 -0.706254
      ESP Fit Center   98 is at   4.502350 -2.296611 -1.546254
      ESP Fit Center   99 is at   2.715983 -2.877037 -1.546254
      ESP Fit Center  100 is at   3.820019 -3.235759 -1.546254
      ESP Fit Center  101 is at   3.514871 -2.296611 -1.867105
      ESP Fit Center  102 is at  -0.332812 -2.270374  0.867147
      ESP Fit Center  103 is at   0.369718 -3.107616  0.867147
      ESP Fit Center  104 is at   0.369718 -3.107616 -0.171150
      ESP Fit Center  105 is at   1.446056 -3.297404 -0.171150
      ESP Fit Center  106 is at   0.369718 -2.304328 -1.011150
      ESP Fit Center  107 is at   1.473753 -2.663051 -1.011150
      ESP Fit Center  108 is at   1.168606 -1.723902 -1.332001
      ESP Fit Center  109 is at   2.048956 -1.959335  3.522059
      ESP Fit Center  110 is at   3.036436 -1.959335  3.201207
      ESP Fit Center  111 is at   2.354104 -1.020186  3.201207
      ESP Fit Center  112 is at   1.250069 -1.378909  3.201207
      ESP Fit Center  113 is at   1.250069 -2.539761  3.201207
      ESP Fit Center  114 is at   2.354104 -2.898484  3.201207
      ESP Fit Center  115 is at   3.646731 -1.959335  2.361207
      ESP Fit Center  116 is at   0.547539 -2.505806  2.361207
      ESP Fit Center  117 is at   1.250069 -3.343049  2.361207
      ESP Fit Center  118 is at   2.326407 -3.532836  2.361207
      ESP Fit Center  119 is at   3.272923 -2.986365  2.361207
      ESP Fit Center  120 is at   1.250069 -3.343049  1.322910
      ESP Fit Center  121 is at   2.326407 -3.532836  1.322910
      ESP Fit Center  122 is at   5.812731 -0.254015 -0.973228
      ESP Fit Center  123 is at   5.438922  0.773015 -0.973228
      ESP Fit Center  124 is at   5.438922 -1.281044 -0.973228
      ESP Fit Center  125 is at   5.812731 -0.254015 -2.011525
      ESP Fit Center  126 is at   5.438922  0.773015 -2.011525
      ESP Fit Center  127 is at   4.492406  1.319487 -2.011525
      ESP Fit Center  128 is at   4.492406 -1.827516 -2.011525
      ESP Fit Center  129 is at   5.438922 -1.281044 -2.011525
      ESP Fit Center  130 is at   5.202435 -0.254015 -2.851525
      ESP Fit Center  131 is at   4.520104  0.685134 -2.851525
      ESP Fit Center  132 is at   4.520104 -1.193163 -2.851525
      ESP Fit Center  133 is at   4.214956 -0.254015 -3.172376
      ESP Fit Center  134 is at   1.726442 -2.023337 -1.217220
      ESP Fit Center  135 is at   1.023912 -1.186094 -2.255518
      ESP Fit Center  136 is at   1.726442 -2.023337 -2.255518
      ESP Fit Center  137 is at   2.802780 -2.213124 -2.255518
      ESP Fit Center  138 is at   3.512808 -0.639623 -3.095518
      ESP Fit Center  139 is at   2.830477  0.299526 -3.095518
      ESP Fit Center  140 is at   1.726442 -0.059197 -3.095518
      ESP Fit Center  141 is at   1.726442 -1.220049 -3.095518
      ESP Fit Center  142 is at   2.830477 -1.578772 -3.095518
      ESP Fit Center  143 is at   2.525329 -0.639623 -3.416369
      ESP Fit Center  144 is at   0.619056  0.093287  3.654573
      ESP Fit Center  145 is at   0.924204  1.032435  3.333721
      ESP Fit Center  146 is at  -0.179831  0.673712  3.333721
      ESP Fit Center  147 is at  -0.179831 -0.487139  3.333721
      ESP Fit Center  148 is at   0.924204 -0.845862  3.333721
      ESP Fit Center  149 is at  -0.179831  1.477000  2.493721
      ESP Fit Center  150 is at  -0.882361  0.639758  2.493721
      ESP Fit Center  151 is at  -0.882361 -0.453185  2.493721
      ESP Fit Center  152 is at  -0.179831 -1.290427  2.493721
      ESP Fit Center  153 is at  -0.179831 -1.290427  1.455424
      ESP Fit Center  154 is at   2.315425  0.457894  3.869823
      ESP Fit Center  155 is at   3.302904  0.457894  3.548972
      ESP Fit Center  156 is at   2.620573  1.397043  3.548972
      ESP Fit Center  157 is at   1.516537  1.038320  3.548972
      ESP Fit Center  158 is at   1.516537 -0.122531  3.548972
      ESP Fit Center  159 is at   2.620573 -0.481254  3.548972
      ESP Fit Center  160 is at   3.913200  0.457894  2.708972
      ESP Fit Center  161 is at   3.539391  1.484924  2.708972
      ESP Fit Center  162 is at   2.592876  2.031395  2.708972
      ESP Fit Center  163 is at   1.516537  1.841608  2.708972
      ESP Fit Center  164 is at   3.539391 -0.569136  2.708972
      ESP Fit Center  165 is at   3.913200  0.457894  1.670675
      ESP Fit Center  166 is at   3.677823  1.495372  1.841945
      ESP Fit Center  167 is at   4.665302  1.495372  1.521093
      ESP Fit Center  168 is at   3.982971  2.434521  1.521093
      ESP Fit Center  169 is at   3.982971  0.556224  1.521093
      ESP Fit Center  170 is at   5.275598  1.495372  0.681093
      ESP Fit Center  171 is at   4.901790  2.522402  0.681093
      ESP Fit Center  172 is at   3.955274  3.068874  0.681093
      ESP Fit Center  173 is at   4.901790  0.468342  0.681093
      ESP Fit Center  174 is at   5.275598  1.495372 -0.357204
      ESP Fit Center  175 is at   4.901790  2.522402 -0.357204
      ESP Fit Center  176 is at   3.955274  3.068874 -0.357204
      ESP Fit Center  177 is at   4.048291  2.857393 -0.811237
      ESP Fit Center  178 is at   3.101776  3.403864 -0.811237
      ESP Fit Center  179 is at   2.025437  3.214076 -0.811237
      ESP Fit Center  180 is at   4.422100  1.830363 -1.849534
      ESP Fit Center  181 is at   4.048291  2.857393 -1.849534
      ESP Fit Center  182 is at   3.101776  3.403864 -1.849534
      ESP Fit Center  183 is at   2.025437  3.214076 -1.849534
      ESP Fit Center  184 is at   3.811804  1.830363 -2.689534
      ESP Fit Center  185 is at   3.129473  2.769511 -2.689534
      ESP Fit Center  186 is at   2.025437  2.410788 -2.689534
      ESP Fit Center  187 is at   2.025437  1.249937 -2.689534
      ESP Fit Center  188 is at   2.824325  1.830363 -3.010386
      ESP Fit Center  189 is at   1.427739  2.161879  2.417915
      ESP Fit Center  190 is at   2.415218  2.161879  2.097064
      ESP Fit Center  191 is at   1.732887  3.101028  2.097064
      ESP Fit Center  192 is at   0.628851  2.742305  2.097064
      ESP Fit Center  193 is at   2.651705  3.188909  1.257064
      ESP Fit Center  194 is at   1.705189  3.735380  1.257064
      ESP Fit Center  195 is at   0.628851  3.545593  1.257064
      ESP Fit Center  196 is at   2.651705  3.188909  0.218767
      ESP Fit Center  197 is at   1.705189  3.735380  0.218767
      ESP Fit Center  198 is at   0.628851  3.545593  0.218767
      ESP Fit Center  199 is at   1.732887  3.101028 -0.621233
      ESP Fit Center  200 is at  -4.218969 -1.763839  2.389169
      ESP Fit Center  201 is at  -3.231490 -1.763839  2.068317
      ESP Fit Center  202 is at  -5.017857 -1.183414  2.068317
      ESP Fit Center  203 is at  -5.017857 -2.344265  2.068317
      ESP Fit Center  204 is at  -3.913821 -2.702988  2.068317
      ESP Fit Center  205 is at  -5.720387 -1.217368  1.228317
      ESP Fit Center  206 is at  -5.720387 -2.310311  1.228317
      ESP Fit Center  207 is at  -5.017857 -3.147553  1.228317
      ESP Fit Center  208 is at  -3.941519 -3.337341  1.228317
      ESP Fit Center  209 is at  -2.995003 -2.790869  1.228317
      ESP Fit Center  210 is at  -5.720387 -2.310311  0.190020
      ESP Fit Center  211 is at  -5.017857 -3.147553  0.190020
      ESP Fit Center  212 is at  -2.889594 -3.052353  0.647905
      ESP Fit Center  213 is at  -3.993629 -3.496918 -0.192095
      ESP Fit Center  214 is at  -2.917291 -3.686705 -0.192095
      ESP Fit Center  215 is at  -1.970775 -3.140234 -0.192095
      ESP Fit Center  216 is at  -3.993629 -3.496918 -1.230392
      ESP Fit Center  217 is at  -2.917291 -3.686705 -1.230392
      ESP Fit Center  218 is at  -1.970775 -3.140234 -1.230392
      ESP Fit Center  219 is at  -3.993629 -2.693630 -2.070392
      ESP Fit Center  220 is at  -2.889594 -3.052353 -2.070392
      ESP Fit Center  221 is at  -3.194742 -2.113204 -2.391244
      ESP Fit Center  222 is at  -6.187749 -0.602865 -0.378357
      ESP Fit Center  223 is at  -6.187749 -1.695808 -0.378357
      ESP Fit Center  224 is at  -5.485219  0.234377 -1.416654
      ESP Fit Center  225 is at  -6.187749 -0.602865 -1.416654
      ESP Fit Center  226 is at  -6.187749 -1.695808 -1.416654
      ESP Fit Center  227 is at  -5.485219 -2.533050 -1.416654
      ESP Fit Center  228 is at  -4.381184 -0.210188 -2.256654
      ESP Fit Center  229 is at  -5.485219 -0.568911 -2.256654
      ESP Fit Center  230 is at  -5.485219 -1.729762 -2.256654
      ESP Fit Center  231 is at  -4.381184 -2.088485 -2.256654
      ESP Fit Center  232 is at  -4.686332 -1.149337 -2.577505
      ESP Fit Center  233 is at  -5.437084  2.637971  0.488541
      ESP Fit Center  234 is at  -6.139614  1.800729  0.488541
      ESP Fit Center  235 is at  -6.139614  0.707786  0.488541
      ESP Fit Center  236 is at  -4.360746  2.827759 -0.549756
      ESP Fit Center  237 is at  -5.437084  2.637971 -0.549756
      ESP Fit Center  238 is at  -6.139614  1.800729 -0.549756
      ESP Fit Center  239 is at  -6.139614  0.707786 -0.549756
      ESP Fit Center  240 is at  -4.333049  2.193406 -1.389756
[...]
  552 Fit       0.149369
  553 Fit       0.130054
  554 Fit       0.121085
  555 Fit       0.129649
  556 Fit       0.109625
  557 Fit       0.119195
  558 Fit       0.115717
  559 Fit       0.108105
  560 Fit       0.105057
  561 Fit       0.108054
  562 Fit       0.113835
  563 Fit       0.113283
  564 Fit       0.106077
  565 Fit       0.103893
  566 Fit       0.106802
  567 Fit       0.114105
  568 Fit       0.119258
  569 Fit       0.125905
  570 Fit       0.106858
  571 Fit       0.109880
  572 Fit       0.155951
  573 Fit       0.150727
  574 Fit       0.159756
  575 Fit       0.146585
  576 Fit       0.144273
  577 Fit       0.154826
  578 Fit       0.143923
  579 Fit       0.143343
  580 Fit       0.148620
  581 Fit       0.164077
  582 Fit       0.147602
  583 Fit       0.148097
  584 Fit       0.161095
  585 Fit       0.145591
  586 Fit       0.146705
  587 Fit       0.144845
  588 Fit       0.147066
  589 Fit       0.148418
  590 Fit       0.151018
  591 Fit       0.148687
  592 Fit       0.157917
  593 Fit       0.168934
  594 Fit       0.159946
  595 Fit       0.164324
  596 Fit       0.173107
  597 Fit       0.154572
  598 Fit       0.155582
  599 Fit       0.158188
  600 Fit       0.158884
  601 Fit       0.154417
  602 Fit       0.154481
  603 Fit       0.153789
  604 Fit       0.117757
  605 Fit       0.132952
  606 Fit       0.148330
  607 Fit       0.129643
  608 Fit       0.111571
  609 Fit       0.133778
  610 Fit       0.145059
  611 Fit       0.128441
  612 Fit       0.110109
  613 Fit       0.087658
  614 Fit       0.082607
  615 Fit       0.108645
  616 Fit       0.102932
  617 Fit       0.088062
  618 Fit       0.087894
  619 Fit       0.089792
  620 Fit       0.102672
  621 Fit       0.092386
  622 Fit       0.111854
  623 Fit       0.105585
  624 Fit       0.103424
  625 Fit       0.120616
  626 Fit       0.109481
  627 Fit       0.101233
  628 Fit       0.103208
  629 Fit       0.090364
  630 Fit       0.091501
  631 Fit       0.088799
  632 Fit       0.087822
  633 Fit       0.087958
  634 Fit       0.105325
  635 Fit       0.090270
  636 Fit       0.094737
  637 Fit       0.118843
  638 Fit       0.113348
  639 Fit       0.106524
  640 Fit       0.105526
  641 Fit       0.102474
  642 Fit       0.110945
  643 Fit       0.106222
  644 Fit       0.117443
  645 Fit       0.136750
  646 Fit       0.150194
  647 Fit       0.146856
  648 Fit       0.158403
  649 Fit       0.134321
  650 Fit       0.117604
  651 Fit       0.110438
  652 Fit       0.117354
  653 Fit       0.161655
  654 Fit       0.135616
  655 Fit       0.142433
  656 Fit       0.087414
  657 Fit       0.076892
  658 Fit       0.072040
  659 Fit       0.083655
  660 Fit       0.071599
  661 Fit       0.074964
  662 Fit       0.093908
  663 Fit       0.104464
  664 Fit       0.123119
  665 Fit       0.110938
  666 Fit       0.090853
  667 Fit       0.077742
  668 Fit       0.080902
  669 Fit       0.091396
  670 Fit       0.099215
  671 Fit       0.089802
  672 Fit       0.101245
  673 Fit       0.088707
  674 Fit       0.085603
  675 Fit       0.093480
  676 Fit       0.107792
  677 Fit       0.083927
  678 Fit       0.082352
  679 Fit       0.085399
  680 Fit       0.093183
  681 Fit       0.081711
  682 Fit       0.090377
  683 Fit       0.084787
  684 Fit       0.080959
  685 Fit       0.080662
  686 Fit       0.084551
  687 Fit       0.080661
  688 Fit       0.078944
  689 Fit       0.079652
  690 Fit       0.087043
  691 Fit       0.089046
  692 Fit       0.083371
  693 Fit       0.080891
  694 Fit       0.081463
  695 Fit       0.089986
  696 Fit       0.085749
  697 Fit       0.102859
  698 Fit       0.092558
  699 Fit       0.083893
  700 Fit       0.085783
  701 Fit       0.087234
  702 Fit       0.102021
  703 Fit       0.094640
  704 Fit       0.092943
  705 Fit       0.099310
  706 Fit       0.090316
  707 Fit       0.088051
  708 Fit       0.094415
  709 Fit       0.099361
  710 Fit       0.090022
  711 Fit       0.085815
  712 Fit       0.085182
  713 Fit       0.087664
  714 Fit       0.091376
  715 Fit       0.086620
  716 Fit       0.085473
  717 Fit       0.086991
  718 Fit       0.093049
  719 Fit       0.100184
  720 Fit       0.087416
  721 Fit       0.091923
  722 Fit       0.100661
  723 Fit       0.088116
  724 Fit       0.086017
  725 Fit       0.085954
  726 Fit       0.090444
  727 Fit       0.099397
  728 Fit       0.086715
  729 Fit       0.084659
  730 Fit       0.087510
  731 Fit       0.094404
  732 Fit       0.087208
  733 Fit       0.092979
  734 Fit       0.100599
  735 Fit       0.117285
  736 Fit       0.100637
  737 Fit       0.094258
  738 Fit       0.091961
  739 Fit       0.120612
  740 Fit       0.113313
  741 Fit       0.098358
  742 Fit       0.092673
  743 Fit       0.101083
  744 Fit       0.107900
  745 Fit       0.117130
  746 Fit       0.114984
  747 Fit       0.107775
  748 Fit       0.133082
  749 Fit       0.136619
  750 Fit       0.124886
  751 Fit       0.113274
  752 Fit       0.123812
  753 Fit       0.100905
  754 Fit       0.099331
  755 Fit       0.102655
  756 Fit       0.107468
  757 Fit       0.099839
  758 Fit       0.102597
  759 Fit       0.105365
  760 Fit       0.110162
  761 Fit       0.116978
  762 Fit       0.102122
  763 Fit       0.122023
  764 Fit       0.108225
  765 Fit       0.111013
  766 Fit       0.100693
  767 Fit       0.100399
  768 Fit       0.105543
  769 Fit       0.118809
  770 Fit       0.098470
  771 Fit       0.097546
  772 Fit       0.100772
  773 Fit       0.109571
  774 Fit       0.103828
  775 Fit       0.101738
  776 Fit       0.100202
  777 Fit       0.105492
  778 Fit       0.114459
  779 Fit       0.132737
  780 Fit       0.103768
  781 Fit       0.101843
  782 Fit       0.106765
  783 Fit       0.119525
  784 Fit       0.145288
  785 Fit       0.105988
  786 Fit       0.109010
  787 Fit       0.125301
  788 Fit       0.117107
  789 Fit       0.122226
  790 Fit       0.129159
  791 Fit       0.122113
  792 Fit       0.119755
  793 Fit       0.125045
  794 Fit       0.138295
  795 Fit       0.121962
  796 Fit       0.125174
  797 Fit       0.135205
  798 Fit       0.132515
  799 Fit       0.141817
  800 Fit       0.102659
  801 Fit       0.107775
  802 Fit       0.098226
  803 Fit       0.093002
  804 Fit       0.096390
  805 Fit       0.100061
  806 Fit       0.091784
  807 Fit       0.088619
  808 Fit       0.088692
  809 Fit       0.091814
  810 Fit       0.099145
  811 Fit       0.092044
  812 Fit       0.088695
  813 Fit       0.088059
  814 Fit       0.089696
  815 Fit       0.087429
  816 Fit       0.086708
  817 Fit       0.084089
  818 Fit       0.081304
  819 Fit       0.087747
  820 Fit       0.083825
  821 Fit       0.080933
  822 Fit       0.086101
  823 Fit       0.081899
  824 Fit       0.088346
  825 Fit       0.101523
  826 Fit       0.095297
  827 Fit       0.089968
  828 Fit       0.088889
  829 Fit       0.102761
  830 Fit       0.093308
  831 Fit       0.088294
  832 Fit       0.087059
  833 Fit       0.104607
  834 Fit       0.098542
  835 Fit       0.090797
  836 Fit       0.088352
  837 Fit       0.093498
  838 Fit       0.104153
  839 Fit       0.100847
  840 Fit       0.105577
  841 Fit       0.099487
  842 Fit       0.097773
  843 Fit       0.100229
  844 Fit       0.109627
  845 Fit       0.101549
  846 Fit       0.099262
  847 Fit       0.102554
  848 Fit       0.120706
  849 Fit       0.107087
  850 Fit       0.104837
  851 Fit       0.113243
  852 Fit       0.126278
  853 Fit       0.115924
  854 Fit       0.130480
  855 Fit       0.117296
  856 Fit       0.127147
  857 Fit       0.116462
  858 Fit       0.127548
  859 Fit       0.104155
  860 Fit       0.115041
  861 Fit       0.111115
  862 Fit       0.102596
  863 Fit       0.099155
  864 Fit       0.102235
  865 Fit       0.108728
  866 Fit       0.102581
  867 Fit       0.098538
  868 Fit       0.098772
  869 Fit       0.103386
  870 Fit       0.115253
  871 Fit       0.102178
  872 Fit       0.142260
  873 Fit       0.154899
  874 Fit       0.139788
  875 Fit       0.135240
  876 Fit       0.138059
  877 Fit       0.149630
  878 Fit       0.136494
  879 Fit       0.133748
  880 Fit       0.137238
  881 Fit       0.154847
  882 Fit       0.138487
  883 Fit       0.139127
  884 Fit       0.151759
  885 Fit       0.136801
  886 Fit       0.138057
  887 Fit       0.136092
  888 Fit       0.138589
  889 Fit       0.139823
  890 Fit       0.144480
  891 Fit       0.139723
  892 Fit       0.156014
  893 Fit       0.147788
  894 Fit       0.150404
  895 Fit       0.157987
  896 Fit       0.142760
  897 Fit       0.143387
  898 Fit       0.145974
  899 Fit       0.146854
  900 Fit       0.142093
  901 Fit       0.142617
  902 Fit       0.141680
  903 Fit       0.111465
  904 Fit       0.125024
  905 Fit       0.134144
  906 Fit       0.120468
  907 Fit       0.105295
  908 Fit       0.085429
  909 Fit       0.081715
  910 Fit       0.079373
  911 Fit       0.085019
  912 Fit       0.080039
  913 Fit       0.083208
  914 Fit       0.096325
  915 Fit       0.095836
  916 Fit       0.087543
  917 Fit       0.084413
  918 Fit       0.085192
  919 Fit       0.090463
  920 Fit       0.086701
  921 Fit       0.085953
  922 Fit       0.098116
  923 Fit       0.109314
  924 Fit       0.088988
  925 Fit       0.100285
  926 Fit       0.105832
  927 Fit       0.100297
  928 Fit       0.098055
  929 Fit       0.112518
  930 Fit       0.132734
  931 Fit       0.113846
  932 Fit       0.097237
  933 Fit       0.096458
  934 Fit       0.101668
  935 Fit       0.098852
  936 Fit       0.087777
  937 Fit       0.091022
  938 Fit       0.089035
  939 Fit       0.085689
  940 Fit       0.084073
  941 Fit       0.083545
  942 Fit       0.084276
  943 Fit       0.084691
  944 Fit       0.082657
  945 Fit       0.082481
  946 Fit       0.082624
  947 Fit       0.100848
  948 Fit       0.086246
  949 Fit       0.091016
  950 Fit       0.112358
  951 Fit       0.106919
  952 Fit       0.125492
  953 Fit       0.101184
  954 Fit       0.097365
  955 Fit       0.106496
  956 Fit       0.100025
  957 Fit       0.097112
  958 Fit       0.097259
  959 Fit       0.108449
  960 Fit       0.116252
  961 Fit       0.137386
  962 Fit       0.139236
  963 Fit       0.127709
  964 Fit       0.113809
  965 Fit       0.107680
  966 Fit       0.127320
  967 Fit       0.112167
  968 Fit       0.149313
  969 Fit       0.126169
  970 Fit       0.130917
  971 Fit       0.090079
  972 Fit       0.081466
  973 Fit       0.074470
  974 Fit       0.079704
  975 Fit       0.073011
  976 Fit       0.073796
  977 Fit       0.085111
  978 Fit       0.077221
  979 Fit       0.072939
  980 Fit       0.078334
  981 Fit       0.094432
  982 Fit       0.101602
  983 Fit       0.116461
  984 Fit       0.106667
  985 Fit       0.090144
  986 Fit       0.079487
  987 Fit       0.082459
  988 Fit       0.091471
  989 Fit       0.096229
  990 Fit       0.087370
  991 Fit       0.097733
  992 Fit       0.086722
  993 Fit       0.082854
  994 Fit       0.090032
  995 Fit       0.103008
  996 Fit       0.082024
  997 Fit       0.080147
  998 Fit       0.081549
  999 Fit       0.088085
 1000 Fit       0.078636
 1001 Fit       0.078449
 1002 Fit       0.083538
 1003 Fit       0.090887
 1004 Fit       0.080099
 1005 Fit       0.083391
 1006 Fit       0.079317
 1007 Fit       0.080568
 1008 Fit       0.077097
 1009 Fit       0.075809
 1010 Fit       0.076999
 1011 Fit       0.085057
 1012 Fit       0.079778
 1013 Fit       0.076807
 1014 Fit       0.075852
 1015 Fit       0.077291
 1016 Fit       0.086505
 1017 Fit       0.080785
 1018 Fit       0.078421
 1019 Fit       0.079369
 1020 Fit       0.087785
 1021 Fit       0.083671
 1022 Fit       0.085901
 1023 Fit       0.084786
 1024 Fit       0.082942
 1025 Fit       0.085294
 1026 Fit       0.091123
 1027 Fit       0.089420
 1028 Fit       0.095381
 1029 Fit       0.087186
 1030 Fit       0.084932
 1031 Fit       0.090205
 1032 Fit       0.095973
 1033 Fit       0.087092
 1034 Fit       0.082705
 1035 Fit       0.081830
 1036 Fit       0.084101
 1037 Fit       0.086276
 1038 Fit       0.082340
 1039 Fit       0.081301
 1040 Fit       0.082545
 1041 Fit       0.084138
 1042 Fit       0.085380
 1043 Fit       0.089925
 1044 Fit       0.084017
 1045 Fit       0.082394
 1046 Fit       0.086178
 1047 Fit       0.093266
 1048 Fit       0.082584
 1049 Fit       0.081156
 1050 Fit       0.082124
 1051 Fit       0.086377
 1052 Fit       0.094779
 1053 Fit       0.083061
 1054 Fit       0.081020
 1055 Fit       0.084367
 1056 Fit       0.090816
 1057 Fit       0.084362
 1058 Fit       0.090015
 1059 Fit       0.095823
 1060 Fit       0.092762
 1061 Fit       0.109621
 1062 Fit       0.095913
 1063 Fit       0.090050
 1064 Fit       0.087873
 1065 Fit       0.113168
 1066 Fit       0.107005
 1067 Fit       0.094542
 1068 Fit       0.089720
 1069 Fit       0.097305
 1070 Fit       0.103510
 1071 Fit       0.110686
 1072 Fit       0.108787
 1073 Fit       0.103052
 1074 Fit       0.126663
 1075 Fit       0.124718
 1076 Fit       0.116270
 1077 Fit       0.107258
 1078 Fit       0.111241
 1079 Fit       0.096601
 1080 Fit       0.094566
 1081 Fit       0.097539
 1082 Fit       0.102118
 1083 Fit       0.095260
 1084 Fit       0.096292
 1085 Fit       0.098617
 1086 Fit       0.102846
 1087 Fit       0.108813
 1088 Fit       0.096070
 1089 Fit       0.102511
 1090 Fit       0.104983
 1091 Fit       0.109317
 1092 Fit       0.116093
 1093 Fit       0.105136
 1094 Fit       0.107681
 1095 Fit       0.097363
 1096 Fit       0.097092
 1097 Fit       0.102218
 1098 Fit       0.114828
 1099 Fit       0.094052
 1100 Fit       0.093234
 1101 Fit       0.095976
 1102 Fit       0.103213
 1103 Fit       0.094580
 1104 Fit       0.093342
 1105 Fit       0.096044
 1106 Fit       0.109800
 1107 Fit       0.124411
 1108 Fit       0.097437
 1109 Fit       0.099088
 1110 Fit       0.105830
 1111 Fit       0.119241
 1112 Fit       0.099153
 1113 Fit       0.097744
 1114 Fit       0.102245
 1115 Fit       0.113622
 1116 Fit       0.135234
 1117 Fit       0.102076
 1118 Fit       0.104714
 1119 Fit       0.118485
 1120 Fit       0.111898
 1121 Fit       0.116974
 1122 Fit       0.122954
 1123 Fit       0.115956
 1124 Fit       0.113801
 1125 Fit       0.118433
 1126 Fit       0.130133
 1127 Fit       0.114318
 1128 Fit       0.115664
 1129 Fit       0.122429
 1130 Fit       0.135844
 1131 Fit       0.121113
 1132 Fit       0.129478
 1133 Fit       0.141340
 1134 Fit       0.098817
 1135 Fit       0.104115
 1136 Fit       0.094578
 1137 Fit       0.089815
 1138 Fit       0.093385
 1139 Fit       0.096309
 1140 Fit       0.088277
 1141 Fit       0.085189
 1142 Fit       0.085482
 1143 Fit       0.089050
 1144 Fit       0.096896
 1145 Fit       0.090485
 1146 Fit       0.085492
 1147 Fit       0.083481
 1148 Fit       0.083670
 1149 Fit       0.085908
 1150 Fit       0.086935
 1151 Fit       0.083361
 1152 Fit       0.081720
 1153 Fit       0.080585
 1154 Fit       0.080890
 1155 Fit       0.079231
 1156 Fit       0.076863
 1157 Fit       0.080050
 1158 Fit       0.077915
 1159 Fit       0.082944
 1160 Fit       0.079830
 1161 Fit       0.085965
 1162 Fit       0.097412
 1163 Fit       0.089597
 1164 Fit       0.086644
 1165 Fit       0.093146
 1166 Fit       0.086615
 1167 Fit       0.083692
 1168 Fit       0.083752
 1169 Fit       0.107182
 1170 Fit       0.096753
 1171 Fit       0.088566
 1172 Fit       0.084066
 1173 Fit       0.082921
 1174 Fit       0.099893
 1175 Fit       0.093997
 1176 Fit       0.086968
 1177 Fit       0.084926
 1178 Fit       0.090001
 1179 Fit       0.097139
 1180 Fit       0.093808
 1181 Fit       0.094126
 1182 Fit       0.098553
 1183 Fit       0.103466
 1184 Fit       0.096157
 1185 Fit       0.093149
 1186 Fit       0.093696
 1187 Fit       0.098679
 1188 Fit       0.105604
 1189 Fit       0.097610
 1190 Fit       0.095309
 1191 Fit       0.098511
 1192 Fit       0.115952
 1193 Fit       0.103331
 1194 Fit       0.100954
 1195 Fit       0.109107
 1196 Fit       0.120089
 1197 Fit       0.123009
 1198 Fit       0.111570
 1199 Fit       0.121942
 1200 Fit       0.111428
 1201 Fit       0.128734
 1202 Fit       0.115454
 1203 Fit       0.125145
 1204 Fit       0.099473
 1205 Fit       0.109064
 1206 Fit       0.105550
 1207 Fit       0.097874
 1208 Fit       0.094630
 1209 Fit       0.097282
 1210 Fit       0.103423
 1211 Fit       0.096982
 1212 Fit       0.093436
 1213 Fit       0.093552
 1214 Fit       0.097227
 1215 Fit       0.103094
 1216 Fit       0.108524
 1217 Fit       0.117264
 1218 Fit       0.096226
 1219 Fit       0.094603
 1220 Fit       0.096548
 1221 Fit       0.135519
 1222 Fit       0.130005
 1223 Fit       0.151289
 1224 Fit       0.134217
 1225 Fit       0.127272
 1226 Fit       0.126767
 1227 Fit       0.142320
 1228 Fit       0.129591
 1229 Fit       0.126417
 1230 Fit       0.129054
 1231 Fit       0.146142
 1232 Fit       0.131779
 1233 Fit       0.131979
 1234 Fit       0.143219
 1235 Fit       0.129229
 1236 Fit       0.130015
 1237 Fit       0.128252
 1238 Fit       0.130381
 1239 Fit       0.134442
 1240 Fit       0.130639
 1241 Fit       0.139803
 1242 Fit       0.137200
 1243 Fit       0.141668
 1244 Fit       0.146330
 1245 Fit       0.136209
 1246 Fit       0.138318
 1247 Fit       0.143725
 1248 Fit       0.132417
 1249 Fit       0.132895
 1250 Fit       0.134970
 1251 Fit       0.135545
 1252 Fit       0.131802
 1253 Fit       0.132090
 1254 Fit       0.131661
 -----------------------------------------------------------------
 Leave Link  602 at Sat Feb 17 20:57:50 2018, MaxMem=   33554432 cpu:       0.6

 Test job not archived.
 1\1\GINC-NODE008\SP\RHF\6-31G(d)\C10H21N2O1(1+)\WULSDORT\17-Feb-2018\0
 \\#HF/6-31G* Geom=AllCheck Guess=Read Pop=(MK,ReadRadii) Integral=(Gri
 d=UltraFine) iop(6/33=2)\\Optimization for frag13-conf2\\1,1\C,0,-5.16
 7037702,3.24703545,1.410709717\C,0,-1.3089833217,0.716087642,-1.058911
 0895\C,0,-2.8280199017,0.6598875106,-0.8347758835\C,0,-0.604670958,1.5
 084239545,0.0527394364\C,0,-3.1773583768,0.1045759003,0.5583327479\C,0
 ,-0.9373416855,0.9371170414,1.4424311217\C,0,-2.44666764,0.8223758116,
 1.7022397865\C,0,-7.1736887207,4.4030899821,0.6921468026\C,0,-7.215547
 8935,3.1215416307,2.8133319351\C,0,-4.4106124401,2.3566603371,2.433114
 8275\N,0,-6.4478351185,3.5575151002,1.6480156112\N,0,-3.012915843,2.23
 55591963,1.9015288319\O,0,-4.5197159031,3.6170965155,0.4203700592\H,0,
 -0.9056584612,-0.3057205354,-1.084793502\H,0,-1.0904403694,1.162688010
 6,-2.0345411766\H,0,-3.2646183755,1.6599703816,-0.9645172016\H,0,-3.30
 26359444,0.0267043413,-1.5919388475\H,0,0.481059782,1.4893762841,-0.08
 78222821\H,0,-0.8942055882,2.5688411268,-0.0074137673\H,0,-4.262796052
 1,0.1061369054,0.7204653805\H,0,-2.8706719615,-0.9470356412,0.62169624
 37\H,0,-0.5311365277,-0.078469241,1.5255478249\H,0,-0.4555027452,1.518
 1241681,2.2417158958\H,0,-2.6292774009,0.3178395549,2.6567409763\H,0,-
 8.0345788801,3.8545136082,0.2962201765\H,0,-6.5054691542,4.6764779598,
 -0.1219517212\H,0,-7.5292076368,5.3063336241,1.1985849433\H,0,-7.54562
 30294,3.9922493819,3.3903891685\H,0,-6.6294021739,2.4757769805,3.46723
 15779\H,0,-8.1008750606,2.5661607485,2.4857172801\H,0,-4.3778927947,2.
 7999557917,3.4301388696\H,0,-4.8479313915,1.3595011072,2.5081019971\H,
 0,-2.36602228,2.7605403113,2.4968166758\H,0,-3.077523465,2.7600147679,
 0.9908560183\\Version=AM64L-G09RevC.01\State=1-A\HF=-574.4828933\RMSD=
 6.382e-09\Dipole=-0.3361948,-0.2506309,2.1089841\Quadrupole=10.5863443
 ,-6.4513525,-4.1349918,-8.6710912,-4.1343103,3.8914634\PG=C01 [X(C10H2
 1N2O1)]\\@


 IF AT FIRST YOU DON'T SUCCEED, TRY LOOKING IN 
 THE WASTEBASKET FOR THE DIRECTIONS.
 Job cpu time:  0 days  0 hours  3 minutes 14.4 seconds.
 File lengths (MBytes):  RWF=     34 Int=      0 D2E=      0 Chk=      6 Scr=      1
 Normal termination of Gaussian 09 at Sat Feb 17 20:57:50 2018.
