 Entering Gaussian System, Link 0=g09
 Initial command:
 /home/fb_chem/chemsoft/lx24-amd64/Gaussian_09_C.01_NBO_3.1_64_istanbul-64/g09/l1.exe /local/2397332.1.parallel/Gau-26114.inp -scrdir=/local/2397332.1.parallel/
 Entering Link 1 = /home/fb_chem/chemsoft/lx24-amd64/Gaussian_09_C.01_NBO_3.1_64_istanbul-64/g09/l1.exe PID=     26115.
  
 Copyright (c) 1988,1990,1992,1993,1995,1998,2003,2009,2011,
            Gaussian, Inc.  All Rights Reserved.
  
 This is part of the Gaussian(R) 09 program.  It is based on
 the Gaussian(R) 03 system (copyright 2003, Gaussian, Inc.),
 the Gaussian(R) 98 system (copyright 1998, Gaussian, Inc.),
 the Gaussian(R) 94 system (copyright 1995, Gaussian, Inc.),
 the Gaussian 92(TM) system (copyright 1992, Gaussian, Inc.),
 the Gaussian 90(TM) system (copyright 1990, Gaussian, Inc.),
 the Gaussian 88(TM) system (copyright 1988, Gaussian, Inc.),
 the Gaussian 86(TM) system (copyright 1986, Carnegie Mellon
 University), and the Gaussian 82(TM) system (copyright 1983,
 Carnegie Mellon University). Gaussian is a federally registered
 trademark of Gaussian, Inc.
  
 This software contains proprietary and confidential information,
 including trade secrets, belonging to Gaussian, Inc.
  
 This software is provided under written license and may be
 used, copied, transmitted, or stored only in accord with that
 written license.
  
 The following legend is applicable only to US Government
 contracts under FAR:
  
                    RESTRICTED RIGHTS LEGEND
  
 Use, reproduction and disclosure by the US Government is
 subject to restrictions as set forth in subparagraphs (a)
 and (c) of the Commercial Computer Software - Restricted
 Rights clause in FAR 52.227-19.
  
 Gaussian, Inc.
 340 Quinnipiac St., Bldg. 40, Wallingford CT 06492
  
  
 ---------------------------------------------------------------
 Warning -- This program may not be used in any manner that
 competes with the business of Gaussian, Inc. or will provide
 assistance to any competitor of Gaussian, Inc.  The licensee
 of this program is prohibited from giving any competitor of
 Gaussian, Inc. access to this program.  By using this program,
 the user acknowledges that Gaussian, Inc. is engaged in the
 business of creating and licensing software in the field of
 computational chemistry and represents and warrants to the
 licensee that it is not a competitor of Gaussian, Inc. and that
 it will not use this program in any manner prohibited above.
 ---------------------------------------------------------------
  

 Cite this work as:
 Gaussian 09, Revision C.01,
 M. J. Frisch, G. W. Trucks, H. B. Schlegel, G. E. Scuseria, 
 M. A. Robb, J. R. Cheeseman, G. Scalmani, V. Barone, B. Mennucci, 
 G. A. Petersson, H. Nakatsuji, M. Caricato, X. Li, H. P. Hratchian, 
 A. F. Izmaylov, J. Bloino, G. Zheng, J. L. Sonnenberg, M. Hada, 
 M. Ehara, K. Toyota, R. Fukuda, J. Hasegawa, M. Ishida, T. Nakajima, 
 Y. Honda, O. Kitao, H. Nakai, T. Vreven, J. A. Montgomery, Jr., 
 J. E. Peralta, F. Ogliaro, M. Bearpark, J. J. Heyd, E. Brothers, 
 K. N. Kudin, V. N. Staroverov, T. Keith, R. Kobayashi, J. Normand, 
 K. Raghavachari, A. Rendell, J. C. Burant, S. S. Iyengar, J. Tomasi, 
 M. Cossi, N. Rega, J. M. Millam, M. Klene, J. E. Knox, J. B. Cross, 
 V. Bakken, C. Adamo, J. Jaramillo, R. Gomperts, R. E. Stratmann, 
 O. Yazyev, A. J. Austin, R. Cammi, C. Pomelli, J. W. Ochterski, 
 R. L. Martin, K. Morokuma, V. G. Zakrzewski, G. A. Voth, 
 P. Salvador, J. J. Dannenberg, S. Dapprich, A. D. Daniels, 
 O. Farkas, J. B. Foresman, J. V. Ortiz, J. Cioslowski, 
 and D. J. Fox, Gaussian, Inc., Wallingford CT, 2010.
 
 ******************************************
 Gaussian 09:  AM64L-G09RevC.01 23-Sep-2011
                16-Feb-2018 
 ******************************************
 %nprocs=4
 Will use up to    4 processors via shared memory.
 %chk=frag13-conf2.chk
 ---------------------------------------------------------
 #B3LYP/6-31G* Integral=(Grid=UltraFine) freq Opt pop=none
 ---------------------------------------------------------
 1/14=-1,18=20,19=15,26=3,38=1/1,3;
 2/9=110,12=2,17=6,18=5,40=1/2;
 3/5=1,6=6,7=1,11=2,16=1,25=1,30=1,71=1,74=-5,75=-5/1,2,3;
 4//1;
 5/5=2,38=5/2;
 7//1,2,3,16;
 1/14=-1,18=20,19=15/3(2);
 2/9=110/2;
 99//99;
 2/9=110/2;
 3/5=1,6=6,7=1,11=2,16=1,25=1,30=1,71=1,74=-5,75=-5/1,2,3;
 4/5=5,16=3/1;
 5/5=2,38=5/2;
 7//1,2,3,16;
 1/14=-1,18=20,19=15/3(-5);
 2/9=110/2;
 99/9=1/99;
 -----------------------------
 Optimization for frag13-conf2
 -----------------------------
 Charge =  1 Multiplicity = 1
 Symbolic Z-Matrix:
 C                    -6.01868   2.93664   0.75826 
 C                    -0.7336    0.63119  -0.56647 
 C                    -2.13346   0.0764   -0.81449 
 C                    -0.74428   1.78832   0.4282 
 C                    -2.83018  -0.30131   0.49276 
 C                    -1.44109   1.40381   1.73365 
 C                    -2.85078   0.8387    1.51686 
 C                    -7.24425   4.95075   1.47071 
 C                    -6.09205   3.60985   3.19326 
 C                    -5.21777   1.67645   1.11632 
 N                    -6.40143   3.80254   1.77992 
 N                    -3.74451   1.94505   1.07023 
 O                    -6.2617    3.19026  -0.42946 
 H                    -0.08994  -0.16992  -0.18226 
 H                    -0.29519   0.96328  -1.5143 
 H                    -2.73185   0.81536  -1.35981 
 H                    -2.06564  -0.80734  -1.45944 
 H                     0.28592   2.09578   0.64164 
 H                    -1.24303   2.65495  -0.0215 
 H                    -3.84187  -0.66177   0.27891 
 H                    -2.29544  -1.15214   0.93549 
 H                    -0.8343    0.64464   2.24414 
 H                    -1.47339   2.27312   2.40159 
 H                    -3.24902   0.48525   2.47485 
 H                    -8.17872   4.86016   2.03258 
 H                    -7.47955   5.01785   0.4058 
 H                    -6.72166   5.86224   1.77548 
 H                    -5.90119   4.58217   3.65747 
 H                    -5.21004   2.98557   3.3397 
 H                    -6.95467   3.13879   3.6728 
 H                    -5.47518   1.28572   2.10309 
 H                    -5.4392    0.90934   0.36818 
 H                    -3.5722    2.77066   1.65301 
 H                    -3.51084   2.25459   0.12134 
 

 GradGradGradGradGradGradGradGradGradGradGradGradGradGradGradGradGradGrad
 Berny optimization.
 Initialization pass.
                           ----------------------------
                           !    Initial Parameters    !
                           ! (Angstroms and Degrees)  !
 --------------------------                            --------------------------
 ! Name  Definition              Value          Derivative Info.                !
 --------------------------------------------------------------------------------
 ! R1    R(1,10)                 1.5355         estimate D2E/DX2                !
 ! R2    R(1,11)                 1.3929         estimate D2E/DX2                !
 ! R3    R(1,13)                 1.2386         estimate D2E/DX2                !
 ! R4    R(2,3)                  1.5261         estimate D2E/DX2                !
 ! R5    R(2,4)                  1.5259         estimate D2E/DX2                !
 ! R6    R(2,14)                 1.0971         estimate D2E/DX2                !
 ! R7    R(2,15)                 1.0958         estimate D2E/DX2                !
 ! R8    R(3,5)                  1.5287         estimate D2E/DX2                !
 ! R9    R(3,16)                 1.0961         estimate D2E/DX2                !
 ! R10   R(3,17)                 1.0962         estimate D2E/DX2                !
 ! R11   R(4,6)                  1.5289         estimate D2E/DX2                !
 ! R12   R(4,18)                 1.0961         estimate D2E/DX2                !
 ! R13   R(4,19)                 1.0964         estimate D2E/DX2                !
 ! R14   R(5,7)                  1.5326         estimate D2E/DX2                !
 ! R15   R(5,20)                 1.0951         estimate D2E/DX2                !
 ! R16   R(5,21)                 1.0981         estimate D2E/DX2                !
 ! R17   R(6,7)                  1.5341         estimate D2E/DX2                !
 ! R18   R(6,22)                 1.0978         estimate D2E/DX2                !
 ! R19   R(6,23)                 1.0968         estimate D2E/DX2                !
 ! R20   R(7,12)                 1.4907         estimate D2E/DX2                !
 ! R21   R(7,24)                 1.096          estimate D2E/DX2                !
 ! R22   R(8,11)                 1.4575         estimate D2E/DX2                !
 ! R23   R(8,25)                 1.0941         estimate D2E/DX2                !
 ! R24   R(8,26)                 1.0927         estimate D2E/DX2                !
 ! R25   R(8,27)                 1.094          estimate D2E/DX2                !
 ! R26   R(9,11)                 1.4596         estimate D2E/DX2                !
 ! R27   R(9,28)                 1.0942         estimate D2E/DX2                !
 ! R28   R(9,29)                 1.0905         estimate D2E/DX2                !
 ! R29   R(9,30)                 1.0936         estimate D2E/DX2                !
 ! R30   R(10,12)                1.4982         estimate D2E/DX2                !
 ! R31   R(10,31)                1.0921         estimate D2E/DX2                !
 ! R32   R(10,32)                1.0942         estimate D2E/DX2                !
 ! R33   R(12,33)                1.0252         estimate D2E/DX2                !
 ! R34   R(12,34)                1.0251         estimate D2E/DX2                !
 ! A1    A(10,1,11)            118.8482         estimate D2E/DX2                !
 ! A2    A(10,1,13)            119.6044         estimate D2E/DX2                !
 ! A3    A(11,1,13)            121.4782         estimate D2E/DX2                !
 ! A4    A(3,2,4)              112.0363         estimate D2E/DX2                !
 ! A5    A(3,2,14)             109.2453         estimate D2E/DX2                !
 ! A6    A(3,2,15)             109.6691         estimate D2E/DX2                !
 ! A7    A(4,2,14)             109.2409         estimate D2E/DX2                !
 ! A8    A(4,2,15)             109.6818         estimate D2E/DX2                !
 ! A9    A(14,2,15)            106.8263         estimate D2E/DX2                !
 ! A10   A(2,3,5)              111.6486         estimate D2E/DX2                !
 ! A11   A(2,3,16)             109.6655         estimate D2E/DX2                !
 ! A12   A(2,3,17)             109.3875         estimate D2E/DX2                !
 ! A13   A(5,3,16)             110.0709         estimate D2E/DX2                !
 ! A14   A(5,3,17)             109.3988         estimate D2E/DX2                !
 ! A15   A(16,3,17)            106.5335         estimate D2E/DX2                !
 ! A16   A(2,4,6)              111.6578         estimate D2E/DX2                !
 ! A17   A(2,4,18)             109.455          estimate D2E/DX2                !
 ! A18   A(2,4,19)             109.5866         estimate D2E/DX2                !
 ! A19   A(6,4,18)             109.4291         estimate D2E/DX2                !
 ! A20   A(6,4,19)             109.9791         estimate D2E/DX2                !
 ! A21   A(18,4,19)            106.601          estimate D2E/DX2                !
 ! A22   A(3,5,7)              113.1877         estimate D2E/DX2                !
 ! A23   A(3,5,20)             109.5964         estimate D2E/DX2                !
 ! A24   A(3,5,21)             108.3165         estimate D2E/DX2                !
 ! A25   A(7,5,20)             111.2797         estimate D2E/DX2                !
 ! A26   A(7,5,21)             108.2686         estimate D2E/DX2                !
 ! A27   A(20,5,21)            105.8775         estimate D2E/DX2                !
 ! A28   A(4,6,7)              113.002          estimate D2E/DX2                !
 ! A29   A(4,6,22)             108.6057         estimate D2E/DX2                !
 ! A30   A(4,6,23)             109.5173         estimate D2E/DX2                !
 ! A31   A(7,6,22)             108.595          estimate D2E/DX2                !
 ! A32   A(7,6,23)             110.5461         estimate D2E/DX2                !
 ! A33   A(22,6,23)            106.3323         estimate D2E/DX2                !
 ! A34   A(5,7,6)              110.8596         estimate D2E/DX2                !
 ! A35   A(5,7,12)             111.0944         estimate D2E/DX2                !
 ! A36   A(5,7,24)             110.43           estimate D2E/DX2                !
 ! A37   A(6,7,12)             108.6544         estimate D2E/DX2                !
 ! A38   A(6,7,24)             109.2173         estimate D2E/DX2                !
 ! A39   A(12,7,24)            106.4614         estimate D2E/DX2                !
 ! A40   A(11,8,25)            108.6447         estimate D2E/DX2                !
 ! A41   A(11,8,26)            112.3128         estimate D2E/DX2                !
 ! A42   A(11,8,27)            108.7253         estimate D2E/DX2                !
 ! A43   A(25,8,26)            108.7635         estimate D2E/DX2                !
 ! A44   A(25,8,27)            109.5059         estimate D2E/DX2                !
 ! A45   A(26,8,27)            108.8579         estimate D2E/DX2                !
 ! A46   A(11,9,28)            109.2972         estimate D2E/DX2                !
 ! A47   A(11,9,29)            112.1516         estimate D2E/DX2                !
 ! A48   A(11,9,30)            108.3175         estimate D2E/DX2                !
 ! A49   A(28,9,29)            108.0986         estimate D2E/DX2                !
 ! A50   A(28,9,30)            109.5309         estimate D2E/DX2                !
 ! A51   A(29,9,30)            109.4209         estimate D2E/DX2                !
 ! A52   A(1,10,12)            111.0138         estimate D2E/DX2                !
 ! A53   A(1,10,31)            112.4202         estimate D2E/DX2                !
 ! A54   A(1,10,32)            108.0823         estimate D2E/DX2                !
 ! A55   A(12,10,31)           108.8878         estimate D2E/DX2                !
 ! A56   A(12,10,32)           107.6771         estimate D2E/DX2                !
 ! A57   A(31,10,32)           108.6189         estimate D2E/DX2                !
 ! A58   A(1,11,8)             119.5398         estimate D2E/DX2                !
 ! A59   A(1,11,9)             124.7466         estimate D2E/DX2                !
 ! A60   A(8,11,9)             115.5945         estimate D2E/DX2                !
 ! A61   A(7,12,10)            116.5682         estimate D2E/DX2                !
 ! A62   A(7,12,33)            109.0626         estimate D2E/DX2                !
 ! A63   A(7,12,34)            111.3935         estimate D2E/DX2                !
 ! A64   A(10,12,33)           106.9876         estimate D2E/DX2                !
 ! A65   A(10,12,34)           107.8646         estimate D2E/DX2                !
 ! A66   A(33,12,34)           104.1653         estimate D2E/DX2                !
 ! D1    D(11,1,10,12)         -90.582          estimate D2E/DX2                !
 ! D2    D(11,1,10,31)          31.6687         estimate D2E/DX2                !
 ! D3    D(11,1,10,32)         151.5387         estimate D2E/DX2                !
 ! D4    D(13,1,10,12)          86.4381         estimate D2E/DX2                !
 ! D5    D(13,1,10,31)        -151.3113         estimate D2E/DX2                !
 ! D6    D(13,1,10,32)         -31.4412         estimate D2E/DX2                !
 ! D7    D(10,1,11,8)         -175.5515         estimate D2E/DX2                !
 ! D8    D(10,1,11,9)            0.2981         estimate D2E/DX2                !
 ! D9    D(13,1,11,8)            7.4865         estimate D2E/DX2                !
 ! D10   D(13,1,11,9)         -176.6638         estimate D2E/DX2                !
 ! D11   D(4,2,3,5)            -53.5678         estimate D2E/DX2                !
 ! D12   D(4,2,3,16)            68.7043         estimate D2E/DX2                !
 ! D13   D(4,2,3,17)          -174.7999         estimate D2E/DX2                !
 ! D14   D(14,2,3,5)            67.6215         estimate D2E/DX2                !
 ! D15   D(14,2,3,16)         -170.1063         estimate D2E/DX2                !
 ! D16   D(14,2,3,17)          -53.6106         estimate D2E/DX2                !
 ! D17   D(15,2,3,5)          -175.6094         estimate D2E/DX2                !
 ! D18   D(15,2,3,16)          -53.3372         estimate D2E/DX2                !
 ! D19   D(15,2,3,17)           63.1585         estimate D2E/DX2                !
 ! D20   D(3,2,4,6)             53.7686         estimate D2E/DX2                !
 ! D21   D(3,2,4,18)           175.0906         estimate D2E/DX2                !
 ! D22   D(3,2,4,19)           -68.3385         estimate D2E/DX2                !
 ! D23   D(14,2,4,6)           -67.4233         estimate D2E/DX2                !
 ! D24   D(14,2,4,18)           53.8987         estimate D2E/DX2                !
 ! D25   D(14,2,4,19)          170.4696         estimate D2E/DX2                !
 ! D26   D(15,2,4,6)           175.8028         estimate D2E/DX2                !
 ! D27   D(15,2,4,18)          -62.8751         estimate D2E/DX2                !
 ! D28   D(15,2,4,19)           53.6957         estimate D2E/DX2                !
 ! D29   D(2,3,5,7)             53.1875         estimate D2E/DX2                !
 ! D30   D(2,3,5,20)           178.0484         estimate D2E/DX2                !
 ! D31   D(2,3,5,21)           -66.8798         estimate D2E/DX2                !
 ! D32   D(16,3,5,7)           -68.8515         estimate D2E/DX2                !
 ! D33   D(16,3,5,20)           56.0093         estimate D2E/DX2                !
 ! D34   D(16,3,5,21)          171.0811         estimate D2E/DX2                !
 ! D35   D(17,3,5,7)           174.4131         estimate D2E/DX2                !
 ! D36   D(17,3,5,20)          -60.7261         estimate D2E/DX2                !
 ! D37   D(17,3,5,21)           54.3457         estimate D2E/DX2                !
 ! D38   D(2,4,6,7)            -53.4706         estimate D2E/DX2                !
 ! D39   D(2,4,6,22)            67.0891         estimate D2E/DX2                !
 ! D40   D(2,4,6,23)          -177.1808         estimate D2E/DX2                !
 ! D41   D(18,4,6,7)          -174.8076         estimate D2E/DX2                !
 ! D42   D(18,4,6,22)          -54.2479         estimate D2E/DX2                !
 ! D43   D(18,4,6,23)           61.4821         estimate D2E/DX2                !
 ! D44   D(19,4,6,7)            68.4106         estimate D2E/DX2                !
 ! D45   D(19,4,6,22)         -171.0298         estimate D2E/DX2                !
 ! D46   D(19,4,6,23)          -55.2997         estimate D2E/DX2                !
 ! D47   D(3,5,7,6)            -51.9722         estimate D2E/DX2                !
 ! D48   D(3,5,7,12)            68.95           estimate D2E/DX2                !
 ! D49   D(3,5,7,24)          -173.1584         estimate D2E/DX2                !
 ! D50   D(20,5,7,6)          -175.917          estimate D2E/DX2                !
 ! D51   D(20,5,7,12)          -54.9948         estimate D2E/DX2                !
 ! D52   D(20,5,7,24)           62.8968         estimate D2E/DX2                !
 ! D53   D(21,5,7,6)            68.1225         estimate D2E/DX2                !
 ! D54   D(21,5,7,12)         -170.9553         estimate D2E/DX2                !
 ! D55   D(21,5,7,24)          -53.0637         estimate D2E/DX2                !
 ! D56   D(4,6,7,5)             52.0691         estimate D2E/DX2                !
 ! D57   D(4,6,7,12)           -70.2848         estimate D2E/DX2                !
 ! D58   D(4,6,7,24)           173.9676         estimate D2E/DX2                !
 ! D59   D(22,6,7,5)           -68.4967         estimate D2E/DX2                !
 ! D60   D(22,6,7,12)          169.1494         estimate D2E/DX2                !
 ! D61   D(22,6,7,24)           53.4018         estimate D2E/DX2                !
 ! D62   D(23,6,7,5)           175.211          estimate D2E/DX2                !
 ! D63   D(23,6,7,12)           52.8571         estimate D2E/DX2                !
 ! D64   D(23,6,7,24)          -62.8904         estimate D2E/DX2                !
 ! D65   D(5,7,12,10)           71.806          estimate D2E/DX2                !
 ! D66   D(5,7,12,33)         -166.9683         estimate D2E/DX2                !
 ! D67   D(5,7,12,34)          -52.5463         estimate D2E/DX2                !
 ! D68   D(6,7,12,10)         -165.9826         estimate D2E/DX2                !
 ! D69   D(6,7,12,33)          -44.7569         estimate D2E/DX2                !
 ! D70   D(6,7,12,34)           69.6651         estimate D2E/DX2                !
 ! D71   D(24,7,12,10)         -48.4662         estimate D2E/DX2                !
 ! D72   D(24,7,12,33)          72.7595         estimate D2E/DX2                !
 ! D73   D(24,7,12,34)        -172.8185         estimate D2E/DX2                !
 ! D74   D(25,8,11,1)          119.2081         estimate D2E/DX2                !
 ! D75   D(25,8,11,9)          -57.0111         estimate D2E/DX2                !
 ! D76   D(26,8,11,1)           -1.1513         estimate D2E/DX2                !
 ! D77   D(26,8,11,9)         -177.3706         estimate D2E/DX2                !
 ! D78   D(27,8,11,1)         -121.6834         estimate D2E/DX2                !
 ! D79   D(27,8,11,9)           62.0974         estimate D2E/DX2                !
 ! D80   D(28,9,11,1)          143.9877         estimate D2E/DX2                !
 ! D81   D(28,9,11,8)          -40.0158         estimate D2E/DX2                !
 ! D82   D(29,9,11,1)           24.1251         estimate D2E/DX2                !
 ! D83   D(29,9,11,8)         -159.8784         estimate D2E/DX2                !
 ! D84   D(30,9,11,1)          -96.7348         estimate D2E/DX2                !
 ! D85   D(30,9,11,8)           79.2616         estimate D2E/DX2                !
 ! D86   D(1,10,12,7)          174.6537         estimate D2E/DX2                !
 ! D87   D(1,10,12,33)          52.3377         estimate D2E/DX2                !
 ! D88   D(1,10,12,34)         -59.2122         estimate D2E/DX2                !
 ! D89   D(31,10,12,7)          50.3729         estimate D2E/DX2                !
 ! D90   D(31,10,12,33)        -71.9431         estimate D2E/DX2                !
 ! D91   D(31,10,12,34)        176.5069         estimate D2E/DX2                !
 ! D92   D(32,10,12,7)         -67.2211         estimate D2E/DX2                !
 ! D93   D(32,10,12,33)        170.4629         estimate D2E/DX2                !
 ! D94   D(32,10,12,34)         58.9129         estimate D2E/DX2                !
 --------------------------------------------------------------------------------
 Trust Radius=3.00D-01 FncErr=1.00D-07 GrdErr=1.00D-06
 Number of steps in this run=    204 maximum allowed number of steps=    204.
 GradGradGradGradGradGradGradGradGradGradGradGradGradGradGradGradGradGrad

                          Input orientation:                          
 ---------------------------------------------------------------------
 Center     Atomic      Atomic             Coordinates (Angstroms)
 Number     Number       Type             X           Y           Z
 ---------------------------------------------------------------------
      1          6           0       -6.018685    2.936645    0.758259
      2          6           0       -0.733599    0.631188   -0.566474
      3          6           0       -2.133461    0.076397   -0.814485
      4          6           0       -0.744279    1.788315    0.428200
      5          6           0       -2.830183   -0.301312    0.492757
      6          6           0       -1.441090    1.403814    1.733651
      7          6           0       -2.850781    0.838704    1.516858
      8          6           0       -7.244255    4.950751    1.470705
      9          6           0       -6.092052    3.609855    3.193258
     10          6           0       -5.217768    1.676452    1.116322
     11          7           0       -6.401426    3.802541    1.779919
     12          7           0       -3.744514    1.945049    1.070226
     13          8           0       -6.261702    3.190256   -0.429455
     14          1           0       -0.089940   -0.169923   -0.182261
     15          1           0       -0.295189    0.963284   -1.514296
     16          1           0       -2.731855    0.815365   -1.359806
     17          1           0       -2.065639   -0.807337   -1.459441
     18          1           0        0.285924    2.095776    0.641635
     19          1           0       -1.243031    2.654953   -0.021495
     20          1           0       -3.841869   -0.661765    0.278910
     21          1           0       -2.295441   -1.152140    0.935494
     22          1           0       -0.834302    0.644640    2.244142
     23          1           0       -1.473393    2.273120    2.401592
     24          1           0       -3.249025    0.485251    2.474853
     25          1           0       -8.178718    4.860158    2.032583
     26          1           0       -7.479549    5.017847    0.405798
     27          1           0       -6.721665    5.862236    1.775478
     28          1           0       -5.901187    4.582168    3.657472
     29          1           0       -5.210044    2.985570    3.339701
     30          1           0       -6.954666    3.138787    3.672804
     31          1           0       -5.475179    1.285717    2.103093
     32          1           0       -5.439205    0.909335    0.368175
     33          1           0       -3.572202    2.770660    1.653009
     34          1           0       -3.510836    2.254587    0.121335
 ---------------------------------------------------------------------
                    Distance matrix (angstroms):
                    1          2          3          4          5
     1  C    0.000000
     2  C    5.916264   0.000000
     3  C    5.074397   1.526079   0.000000
     4  C    5.408046   1.525921   2.530762   0.000000
     5  C    4.552076   2.527289   1.528714   2.953253   0.000000
     6  C    4.924970   2.527463   2.955404   1.528917   2.525243
     7  C    3.874590   2.977548   2.555547   2.554269   1.532594
     8  C    2.462971   8.074488   7.423047   7.303253   6.929977
     9  C    2.527413   7.191736   6.649645   6.289852   5.764523
    10  C    1.535501   4.902260   3.975065   4.527486   3.162427
    11  N    1.392859   6.905600   6.231421   6.155288   5.590364
    12  N    2.500488   3.670235   3.104752   3.072161   2.493112
    13  O    1.238564   6.093236   5.185242   5.756993   4.981650
    14  H    6.759094   1.097130   2.153221   2.153026   2.825215
    15  H    6.466612   1.095837   2.157672   2.157695   3.471838
    16  H    4.448514   2.157852   1.096140   2.845006   2.165323
    17  H    5.878959   2.154315   1.096154   3.470820   2.156772
    18  H    6.361505   2.154988   3.471542   1.096086   3.934249
    19  H    4.847086   2.156884   2.840889   1.096376   3.394556
    20  H    4.232831   3.470986   2.158484   3.952246   1.095064
    21  H    5.532822   2.806335   2.144287   3.362994   1.098123
    22  H    5.859945   2.812451   3.371337   2.147962   2.818815
    23  H    4.878574   3.471692   3.950244   2.158916   3.480262
    24  H    4.077627   3.949473   3.497341   3.487193   2.173204
    25  H    3.160624   8.948133   8.217986   8.202508   7.590695
    26  H    2.567052   8.105303   7.381577   7.469554   7.065240
    27  H    3.176161   8.288880   7.825308   7.358066   7.401238
    28  H    3.335714   7.756026   7.382150   6.695335   6.579883
    29  H    2.705575   6.390609   5.931772   5.463819   4.957058
    30  H    3.067816   7.934810   7.263471   7.135835   6.241662
    31  H    2.197621   5.480655   4.598021   5.043737   3.479633
    32  H    2.144282   4.805587   3.608381   4.776875   2.878920
    33  H    2.610250   4.190599   3.926520   3.234549   3.366569
    34  H    2.675851   3.289613   2.741794   2.822307   2.670929
                    6          7          8          9         10
     6  C    0.000000
     7  C    1.534137   0.000000
     8  C    6.806366   6.017780   0.000000
     9  C    5.350563   4.582078   2.468352   0.000000
    10  C    3.836498   2.542613   3.866946   2.969189   0.000000
    11  N    5.510079   4.632560   1.457519   1.459577   2.522233
    12  N    2.457403   1.490718   4.630639   3.576280   1.498248
    13  O    5.577517   4.577370   2.770445   3.650876   2.402255
    14  H    2.823645   3.395081   8.951973   7.855330   5.602681
    15  H    3.472220   3.966669   8.549833   7.922691   5.626770
    16  H    3.403208   2.879216   6.743513   6.311141   3.612817
    17  H    3.933838   3.490595   8.280060   7.574378   4.768614
    18  H    2.157287   3.490725   8.095791   7.034330   5.540016
    19  H    2.164513   2.872308   6.596366   5.895718   4.248603
    20  H    3.485201   2.183158   6.670603   5.639458   2.839299
    21  H    2.810671   2.147056   7.875436   6.495257   4.071072
    22  H    1.097788   2.152391   7.760689   6.110422   4.642347
    23  H    1.096759   2.176579   6.429549   4.872947   4.003532
    24  H    2.159112   1.096030   6.075431   4.285097   2.672174
    25  H    7.578344   6.695146   1.094137   2.695291   4.443280
    26  H    7.161523   6.334445   1.092654   3.417239   4.097001
    27  H    6.911132   6.347165   1.093979   2.734910   4.496329
    28  H    5.804782   5.282114   2.592611   1.094220   3.920164
    29  H    4.391625   3.673951   3.390147   1.090466   2.580167
    30  H    6.096718   5.174974   2.866412   1.093605   3.419187
    31  H    4.052691   2.725978   4.118497   2.640191   1.092086
    32  H    4.253699   2.832737   4.561450   3.962336   1.094179
    33  H    2.533064   2.066747   4.274342   3.070221   2.047733
    34  H    2.758120   2.094728   4.798803   4.235108   2.058605
                   11         12         13         14         15
    11  N    0.000000
    12  N    3.318602   0.000000
    13  O    2.296900   3.183680   0.000000
    14  H    7.711386   4.404287   7.031539   0.000000
    15  H    7.496624   4.420572   6.460306   1.760853   0.000000
    16  H    5.678631   2.864738   4.354937   3.055670   2.446036
    17  H    7.109394   4.097983   5.886303   2.437390   2.504517
    18  H    6.994954   4.055963   6.724323   2.439974   2.503651
    19  H    5.583108   2.820149   5.063599   3.055387   2.447162
    20  H    5.360447   2.726012   4.603851   3.812028   4.293637
    21  H    6.490072   3.422068   6.037443   2.660518   3.804931
    22  H    6.417220   3.396833   6.563913   2.665524   3.810253
    23  H    5.197222   2.652952   5.637718   3.815586   4.293950
    24  H    4.628712   2.085545   4.982798   4.179632   4.986680
    25  H    2.083545   5.393158   3.539089   9.779344   9.482405
    26  H    2.127799   4.882012   2.349657   9.047933   8.470022
    27  H    2.084447   4.970429   3.494678   9.176026   8.724788
    28  H    2.093624   4.277789   4.332478   8.431875   8.442199
    29  H    2.125971   2.894992   3.918471   6.969707   7.197689
    30  H    2.080783   4.301569   4.160695   8.540114   8.717079
    31  H    2.701254   2.120550   3.264918   6.028476   6.326276
    32  H    3.359990   2.106551   2.552512   5.484743   5.477911
    33  H    3.014198   1.025164   3.427262   4.913390   4.902780
    34  H    3.674584   1.025092   2.957382   4.203921   3.831859
                   16         17         18         19         20
    16  H    0.000000
    17  H    1.756967   0.000000
    18  H    3.840860   4.286307   0.000000
    19  H    2.718779   3.838206   1.757874   0.000000
    20  H    2.469703   2.489588   4.977376   4.224314   0.000000
    21  H    3.054494   2.430516   4.159177   4.064155   1.750146
    22  H    4.076554   4.164247   2.434898   3.056392   3.822864
    23  H    4.225741   4.974690   2.494813   2.463780   4.327702
    24  H    3.883433   4.306954   4.295386   3.868252   2.547406
    25  H    7.585313   9.037946   9.012585   7.562137   7.237075
    26  H    6.581703   8.168372   8.300403   6.682815   6.745874
    27  H    7.156780   8.753655   8.036051   6.597818   7.286668
    28  H    7.028980   8.363073   7.318317   6.240784   6.569194
    29  H    5.739040   6.877877   6.186838   5.210005   4.954130
    30  H    6.968328   8.112609   7.918459   6.819437   5.970948
    31  H    4.442829   5.357003   5.998529   4.929479   3.128583
    32  H    3.213175   4.203343   5.853163   4.561459   2.242277
    33  H    3.688688   4.975856   4.045180   2.870957   3.707076
    34  H    2.207250   3.736687   3.835534   2.307301   2.939307
                   21         22         23         24         25
    21  H    0.000000
    22  H    2.660058   0.000000
    23  H    3.815444   1.756466   0.000000
    24  H    2.441311   2.430950   2.520855   0.000000
    25  H    8.483176   8.470879   7.196548   6.605852   0.000000
    26  H    8.076156   8.164788   6.898596   6.536264   1.777676
    27  H    8.336576   7.880609   6.388907   6.438969   1.786971
    28  H    7.300196   6.570765   5.149204   5.021681   2.811528
    29  H    5.603193   5.082059   3.917933   3.293198   3.746419
    30  H    6.900239   6.761708   5.692953   4.712549   2.674275
    31  H    4.173389   4.687069   4.132596   2.394726   4.482267
    32  H    3.801945   4.979402   4.660724   3.068359   5.087650
    33  H    4.187280   3.516461   2.283182   2.450095   5.072481
    34  H    3.707537   3.776516   3.057955   2.956035   5.677234
                   26         27         28         29         30
    26  H    0.000000
    27  H    1.778596   0.000000
    28  H    3.640663   2.419434   0.000000
    29  H    4.229490   3.606522   1.768553   0.000000
    30  H    3.805220   3.327359   1.787009   1.782733   0.000000
    31  H    4.563672   4.754533   3.669355   2.118725   2.843720
    32  H    4.587405   5.306263   4.952030   3.632249   4.264698
    33  H    4.676830   4.414969   3.567016   2.360856   3.956785
    34  H    4.844296   5.104972   4.861653   3.712078   5.025406
                   31         32         33         34
    31  H    0.000000
    32  H    1.775640   0.000000
    33  H    2.455392   2.932751   0.000000
    34  H    2.953763   2.364157   1.617443   0.000000
 Stoichiometry    C10H21N2O(1+)
 Framework group  C1[X(C10H21N2O)]
 Deg. of freedom    96
 Full point group                 C1      NOp   1
 Largest Abelian subgroup         C1      NOp   1
 Largest concise Abelian subgroup C1      NOp   1
                         Standard orientation:                         
 ---------------------------------------------------------------------
 Center     Atomic      Atomic             Coordinates (Angstroms)
 Number     Number       Type             X           Y           Z
 ---------------------------------------------------------------------
      1          6           0       -2.101070   -0.749631    0.077874
      2          6           0        3.747638   -0.420038   -0.750482
      3          6           0        2.942480   -1.292937    0.207998
      4          6           0        2.910377    0.716103   -1.330665
      5          6           0        2.273756   -0.460678    1.302129
      6          6           0        2.245535    1.545279   -0.231556
      7          6           0        1.430686    0.694571    0.751243
      8          6           0       -4.322126   -0.148431   -0.800587
      9          6           0       -3.060055    1.557245    0.460605
     10          6           0       -0.863779   -0.389059    0.912656
     11          7           0       -3.097981    0.207765   -0.094221
     12          7           0        0.217427    0.186436    0.049786
     13          8           0       -2.166944   -1.857847   -0.471270
     14          1           0        4.609641    0.001322   -0.218410
     15          1           0        4.147154   -1.036544   -1.563603
     16          1           0        2.186359   -1.855283   -0.351977
     17          1           0        3.605233   -2.034672    0.668585
     18          1           0        3.548715    1.365020   -1.941268
     19          1           0        2.147945    0.304737   -2.002614
     20          1           0        1.678453   -1.114126    1.948492
     21          1           0        3.059074   -0.038549    1.943189
     22          1           0        3.026944    2.075185    0.328567
     23          1           0        1.614373    2.318167   -0.686705
     24          1           0        1.073082    1.330996    1.568778
     25          1           0       -5.169197   -0.017009   -0.120636
     26          1           0       -4.311661   -1.182562   -1.153229
     27          1           0       -4.437587    0.517381   -1.660909
     28          1           0       -3.515871    2.253334   -0.250034
     29          1           0       -2.041193    1.892532    0.657119
     30          1           0       -3.630568    1.561431    1.393595
     31          1           0       -1.092546    0.318948    1.712058
     32          1           0       -0.476694   -1.309051    1.360995
     33          1           0       -0.203527    0.951219   -0.487676
     34          1           0        0.460646   -0.513652   -0.658404
 ---------------------------------------------------------------------
 Rotational constants (GHZ):      1.6170112      0.3508985      0.3314398
 Standard basis: 6-31G(d) (6D, 7F)
 There are   237 symmetry adapted basis functions of A   symmetry.
 Integral buffers will be    131072 words long.
 Raffenetti 2 integral format.
 Two-electron integral symmetry is turned on.
   237 basis functions,   448 primitive gaussians,   237 cartesian basis functions
    51 alpha electrons       51 beta electrons
       nuclear repulsion energy       868.4003203972 Hartrees.
 NAtoms=   34 NActive=   34 NUniq=   34 SFac= 1.00D+00 NAtFMM=   60 NAOKFM=F Big=F
 One-electron integrals computed using PRISM.
 NBasis=   237 RedAO= T  NBF=   237
 NBsUse=   237 1.00D-06 NBFU=   237
 Harris functional with IExCor=  402 diagonalized for initial guess.
 ExpMin= 1.61D-01 ExpMax= 5.48D+03 ExpMxC= 8.25D+02 IAcc=3 IRadAn=         5 AccDes= 0.00D+00
 HarFok:  IExCor=  402 AccDes= 0.00D+00 IRadAn=         5 IDoV= 1
 ScaDFX=  1.000000  1.000000  1.000000  1.000000
 FoFCou: FMM=F IPFlag=           0 FMFlag=      100000 FMFlg1=           0
         NFxFlg=           0 DoJE=T BraDBF=F KetDBF=T FulRan=T
         Omega=  0.000000  0.000000  1.000000  0.000000  0.000000 ICntrl=     500 IOpCl=  0
         NMat0=    1 NMatS0=    1 NMatT0=    0 NMatD0=    1 NMtDS0=    0 NMtDT0=    0
         I1Cent=           4 NGrid=           0.
 Petite list used in FoFCou.
 Initial guess orbital symmetries:
       Occupied  (A) (A) (A) (A) (A) (A) (A) (A) (A) (A) (A) (A)
                 (A) (A) (A) (A) (A) (A) (A) (A) (A) (A) (A) (A)
                 (A) (A) (A) (A) (A) (A) (A) (A) (A) (A) (A) (A)
                 (A) (A) (A) (A) (A) (A) (A) (A) (A) (A) (A) (A)
                 (A) (A) (A)
       Virtual   (A) (A) (A) (A) (A) (A) (A) (A) (A) (A) (A) (A)
                 (A) (A) (A) (A) (A) (A) (A) (A) (A) (A) (A) (A)
                 (A) (A) (A) (A) (A) (A) (A) (A) (A) (A) (A) (A)
                 (A) (A) (A) (A) (A) (A) (A) (A) (A) (A) (A) (A)
                 (A) (A) (A) (A) (A) (A) (A) (A) (A) (A) (A) (A)
                 (A) (A) (A) (A) (A) (A) (A) (A) (A) (A) (A) (A)
                 (A) (A) (A) (A) (A) (A) (A) (A) (A) (A) (A) (A)
                 (A) (A) (A) (A) (A) (A) (A) (A) (A) (A) (A) (A)
                 (A) (A) (A) (A) (A) (A) (A) (A) (A) (A) (A) (A)
                 (A) (A) (A) (A) (A) (A) (A) (A) (A) (A) (A) (A)
                 (A) (A) (A) (A) (A) (A) (A) (A) (A) (A) (A) (A)
                 (A) (A) (A) (A) (A) (A) (A) (A) (A) (A) (A) (A)
                 (A) (A) (A) (A) (A) (A) (A) (A) (A) (A) (A) (A)
                 (A) (A) (A) (A) (A) (A) (A) (A) (A) (A) (A) (A)
                 (A) (A) (A) (A) (A) (A) (A) (A) (A) (A) (A) (A)
                 (A) (A) (A) (A) (A) (A)
 The electronic state of the initial guess is 1-A.
 Requested convergence on RMS density matrix=1.00D-08 within 128 cycles.
 Requested convergence on MAX density matrix=1.00D-06.
 Requested convergence on             energy=1.00D-06.
 No special actions if energy rises.
 Integral accuracy reduced to 1.0D-05 until final iterations.
 Initial convergence to 1.0D-05 achieved.  Increase integral accuracy.
 SCF Done:  E(RB3LYP) =  -578.218571726     A.U. after   15 cycles
             Convg  =    0.3285D-08             -V/T =  2.0097
 Calling FoFJK, ICntrl=      2127 FMM=F ISym2X=0 I1Cent= 0 IOpClX= 0 NMat=1 NMatS=1 NMatT=0.
 ***** Axes restored to original set *****
 -------------------------------------------------------------------
 Center     Atomic                   Forces (Hartrees/Bohr)
 Number     Number              X              Y              Z
 -------------------------------------------------------------------
      1        6          -0.014097015    0.034374151   -0.009017666
      2        6           0.003985213    0.000085375   -0.004610718
      3        6           0.002927421   -0.000787659   -0.001808920
      4        6           0.003856682   -0.000317962   -0.001748263
      5        6          -0.004663156   -0.006662024   -0.003453956
      6        6           0.005031508    0.003345623    0.002391727
      7        6           0.018816537   -0.017983524    0.006806306
      8        6          -0.002478950    0.003814420   -0.000642103
      9        6          -0.007904828   -0.000759139   -0.003721487
     10        6          -0.014421190   -0.006732392    0.000534603
     11        7           0.017492924   -0.022631937   -0.019020770
     12        7          -0.012809302    0.017416603    0.000514356
     13        8           0.008950524   -0.013425750    0.017224302
     14        1           0.000744885   -0.000690521    0.000103186
     15        1           0.001008503   -0.000993724    0.000446313
     16        1          -0.001798530    0.001517565   -0.004225144
     17        1          -0.003230593    0.001151529   -0.000039356
     18        1          -0.001896580    0.002382462    0.000755289
     19        1           0.000489196    0.003893353   -0.002020212
     20        1          -0.001367398   -0.001441334    0.002240452
     21        1          -0.001466214    0.002670244    0.003509184
     22        1          -0.003868343   -0.000639337    0.000879427
     23        1          -0.000833332   -0.000016943    0.003683038
     24        1          -0.003089783    0.002132394   -0.001462989
     25        1          -0.001481013    0.002311156    0.001063557
     26        1           0.003906804   -0.005041779    0.002170412
     27        1          -0.001686400    0.002325276    0.000626540
     28        1          -0.000221504   -0.000844912    0.000417597
     29        1           0.000588580   -0.000326036    0.001443188
     30        1           0.001062507   -0.000137675    0.007964678
     31        1           0.004413556   -0.001220381   -0.000346791
     32        1          -0.000353058    0.003968716    0.001311036
     33        1           0.003217456    0.001147209    0.002138283
     34        1           0.001174892   -0.001883045   -0.004105097
 -------------------------------------------------------------------
 Cartesian Forces:  Max     0.034374151 RMS     0.007196168

 GradGradGradGradGradGradGradGradGradGradGradGradGradGradGradGradGradGrad
 Berny optimization.
 Internal  Forces:  Max     0.022898758 RMS     0.003780393
 Search for a local minimum.
 Step number   1 out of a maximum of  204
 All quantities printed in internal units (Hartrees-Bohrs-Radians)
 Mixed Optimization -- RFO/linear search
 Second derivative matrix not updated -- first step.
 ITU=  0
     Eigenvalues ---    0.00296   0.00392   0.00492   0.00523   0.00550
     Eigenvalues ---    0.00650   0.00904   0.00913   0.00931   0.01163
     Eigenvalues ---    0.01786   0.01884   0.02025   0.03166   0.03544
     Eigenvalues ---    0.03829   0.04095   0.04216   0.04289   0.04494
     Eigenvalues ---    0.04755   0.04783   0.04850   0.04897   0.05452
     Eigenvalues ---    0.05546   0.05551   0.05998   0.06577   0.07341
     Eigenvalues ---    0.07343   0.07698   0.07735   0.07976   0.08196
     Eigenvalues ---    0.08198   0.08256   0.08392   0.08450   0.08802
     Eigenvalues ---    0.08887   0.09108   0.12135   0.12211   0.12591
     Eigenvalues ---    0.12739   0.14243   0.14943   0.16000   0.16000
     Eigenvalues ---    0.16000   0.16000   0.16000   0.16000   0.17361
     Eigenvalues ---    0.20837   0.21900   0.21987   0.24933   0.24963
     Eigenvalues ---    0.24972   0.25000   0.27661   0.28017   0.28203
     Eigenvalues ---    0.28921   0.29485   0.29533   0.29543   0.32562
     Eigenvalues ---    0.33371   0.33891   0.33928   0.34001   0.34043
     Eigenvalues ---    0.34086   0.34111   0.34113   0.34119   0.34125
     Eigenvalues ---    0.34147   0.34234   0.34330   0.34334   0.34339
     Eigenvalues ---    0.34357   0.34399   0.34508   0.34573   0.34759
     Eigenvalues ---    0.37017   0.37277   0.43524   0.43536   0.46825
     Eigenvalues ---    0.87609
 RFO step:  Lambda=-1.18271101D-02 EMin= 2.96340965D-03
 Linear search not attempted -- first point.
 Iteration  1 RMS(Cart)=  0.11198523 RMS(Int)=  0.00407636
 Iteration  2 RMS(Cart)=  0.00734847 RMS(Int)=  0.00021480
 Iteration  3 RMS(Cart)=  0.00002486 RMS(Int)=  0.00021460
 Iteration  4 RMS(Cart)=  0.00000001 RMS(Int)=  0.00021460
 Variable       Old X    -DE/DX   Delta X   Delta X   Delta X     New X
                                 (Linear)    (Quad)   (Total)
    R1        2.90168  -0.00208   0.00000  -0.00691  -0.00691   2.89477
    R2        2.63212  -0.02290   0.00000  -0.04770  -0.04770   2.58442
    R3        2.34055  -0.02102   0.00000  -0.02368  -0.02368   2.31687
    R4        2.88387   0.00687   0.00000   0.02233   0.02234   2.90621
    R5        2.88357   0.00633   0.00000   0.02116   0.02118   2.90475
    R6        2.07328   0.00098   0.00000   0.00278   0.00278   2.07606
    R7        2.07083  -0.00028   0.00000  -0.00080  -0.00080   2.07003
    R8        2.88885   0.00782   0.00000   0.02545   0.02545   2.91431
    R9        2.07140   0.00410   0.00000   0.01163   0.01163   2.08303
   R10        2.07143  -0.00110   0.00000  -0.00313  -0.00313   2.06830
   R11        2.88923   0.00773   0.00000   0.02518   0.02517   2.91441
   R12        2.07130  -0.00097   0.00000  -0.00274  -0.00274   2.06856
   R13        2.07185   0.00368   0.00000   0.01045   0.01045   2.08230
   R14        2.89618   0.00268   0.00000   0.00810   0.00808   2.90427
   R15        2.06937   0.00130   0.00000   0.00367   0.00367   2.07304
   R16        2.07515  -0.00137   0.00000  -0.00390  -0.00390   2.07126
   R17        2.89910   0.00352   0.00000   0.01148   0.01147   2.91057
   R18        2.07452  -0.00129   0.00000  -0.00367  -0.00367   2.07085
   R19        2.07257   0.00225   0.00000   0.00640   0.00640   2.07898
   R20        2.81705   0.01839   0.00000   0.05321   0.05321   2.87026
   R21        2.07120  -0.00084   0.00000  -0.00239  -0.00239   2.06881
   R22        2.75431   0.00301   0.00000   0.00783   0.00783   2.76214
   R23        2.06762   0.00162   0.00000   0.00456   0.00456   2.07218
   R24        2.06482  -0.00326   0.00000  -0.00915  -0.00915   2.05567
   R25        2.06732   0.00131   0.00000   0.00367   0.00367   2.07099
   R26        2.75820   0.00481   0.00000   0.01259   0.01259   2.77079
   R27        2.06778  -0.00061   0.00000  -0.00171  -0.00171   2.06606
   R28        2.06068   0.00086   0.00000   0.00238   0.00238   2.06306
   R29        2.06661   0.00271   0.00000   0.00762   0.00762   2.07423
   R30        2.83128   0.00689   0.00000   0.02043   0.02043   2.85170
   R31        2.06374  -0.00091   0.00000  -0.00256  -0.00256   2.06118
   R32        2.06770  -0.00361   0.00000  -0.01016  -0.01016   2.05754
   R33        1.93728   0.00268   0.00000   0.00600   0.00600   1.94327
   R34        1.93714   0.00350   0.00000   0.00782   0.00782   1.94497
    A1        2.07429  -0.00148   0.00000  -0.00521  -0.00534   2.06895
    A2        2.08749  -0.01190   0.00000  -0.04511  -0.04525   2.04224
    A3        2.12020   0.01340   0.00000   0.05170   0.05158   2.17178
    A4        1.95540  -0.00036   0.00000  -0.00292  -0.00285   1.95255
    A5        1.90669  -0.00011   0.00000  -0.00229  -0.00234   1.90435
    A6        1.91409   0.00060   0.00000   0.00758   0.00756   1.92165
    A7        1.90661   0.00003   0.00000  -0.00174  -0.00179   1.90483
    A8        1.91431   0.00036   0.00000   0.00595   0.00592   1.92023
    A9        1.86447  -0.00053   0.00000  -0.00684  -0.00681   1.85766
   A10        1.94864  -0.00017   0.00000   0.00346   0.00339   1.95202
   A11        1.91402  -0.00014   0.00000   0.00141   0.00138   1.91540
   A12        1.90917   0.00169   0.00000   0.01539   0.01541   1.92458
   A13        1.92110   0.00134   0.00000   0.01199   0.01195   1.93305
   A14        1.90937  -0.00146   0.00000  -0.01333  -0.01332   1.89605
   A15        1.85936  -0.00131   0.00000  -0.01998  -0.01995   1.83941
   A16        1.94880  -0.00067   0.00000  -0.00035  -0.00042   1.94837
   A17        1.91035   0.00185   0.00000   0.01596   0.01596   1.92631
   A18        1.91265  -0.00017   0.00000   0.00062   0.00064   1.91329
   A19        1.90990  -0.00100   0.00000  -0.00920  -0.00917   1.90073
   A20        1.91950   0.00131   0.00000   0.01090   0.01089   1.93038
   A21        1.86054  -0.00133   0.00000  -0.01870  -0.01868   1.84186
   A22        1.97550  -0.00026   0.00000  -0.00330  -0.00335   1.97215
   A23        1.91282   0.00174   0.00000   0.02427   0.02418   1.93700
   A24        1.89048   0.00242   0.00000   0.02014   0.01993   1.91041
   A25        1.94220  -0.00066   0.00000  -0.00160  -0.00172   1.94048
   A26        1.88964  -0.00292   0.00000  -0.03509  -0.03503   1.85462
   A27        1.84791  -0.00031   0.00000  -0.00484  -0.00537   1.84254
   A28        1.97226   0.00033   0.00000   0.00291   0.00285   1.97510
   A29        1.89553   0.00215   0.00000   0.01557   0.01549   1.91102
   A30        1.91144   0.00152   0.00000   0.02483   0.02478   1.93622
   A31        1.89534  -0.00278   0.00000  -0.03247  -0.03245   1.86289
   A32        1.92939  -0.00086   0.00000  -0.00390  -0.00416   1.92523
   A33        1.85585  -0.00039   0.00000  -0.00788  -0.00837   1.84748
   A34        1.93486   0.00189   0.00000   0.01513   0.01510   1.94996
   A35        1.93896  -0.00112   0.00000  -0.00706  -0.00721   1.93175
   A36        1.92737  -0.00004   0.00000   0.00178   0.00137   1.92874
   A37        1.89638  -0.00003   0.00000   0.00450   0.00455   1.90093
   A38        1.90620   0.00049   0.00000   0.01368   0.01361   1.91981
   A39        1.85810  -0.00130   0.00000  -0.02934  -0.02936   1.82874
   A40        1.89621   0.00407   0.00000   0.02501   0.02484   1.92104
   A41        1.96023  -0.01005   0.00000  -0.06124  -0.06099   1.89923
   A42        1.89761   0.00463   0.00000   0.02826   0.02812   1.92574
   A43        1.89828   0.00224   0.00000   0.01029   0.01050   1.90878
   A44        1.91124  -0.00284   0.00000  -0.01063  -0.01116   1.90008
   A45        1.89993   0.00196   0.00000   0.00868   0.00895   1.90888
   A46        1.90760  -0.00134   0.00000  -0.01209  -0.01217   1.89542
   A47        1.95742   0.00003   0.00000  -0.00032  -0.00074   1.95668
   A48        1.89050   0.01101   0.00000   0.06879   0.06842   1.95892
   A49        1.88668  -0.00122   0.00000  -0.01589  -0.01603   1.87065
   A50        1.91167  -0.00451   0.00000  -0.02534  -0.02537   1.88630
   A51        1.90975  -0.00421   0.00000  -0.01653  -0.01716   1.89259
   A52        1.93756  -0.00740   0.00000  -0.03521  -0.03559   1.90197
   A53        1.96210   0.00647   0.00000   0.05489   0.05509   2.01719
   A54        1.88639  -0.00061   0.00000  -0.02478  -0.02564   1.86076
   A55        1.90045  -0.00005   0.00000   0.00174   0.00210   1.90255
   A56        1.87932   0.00192   0.00000  -0.00875  -0.00977   1.86955
   A57        1.89576  -0.00036   0.00000   0.01032   0.01048   1.90624
   A58        2.08636  -0.00550   0.00000  -0.02155  -0.02163   2.06474
   A59        2.17724   0.00673   0.00000   0.02525   0.02510   2.20234
   A60        2.01750  -0.00127   0.00000  -0.00531  -0.00541   2.01210
   A61        2.03450   0.00270   0.00000   0.01027   0.00999   2.04449
   A62        1.90350  -0.00195   0.00000  -0.00314  -0.00357   1.89993
   A63        1.94418  -0.00241   0.00000  -0.03033  -0.03046   1.91372
   A64        1.86729   0.00161   0.00000   0.02932   0.02921   1.89650
   A65        1.88259  -0.00112   0.00000  -0.01456  -0.01467   1.86792
   A66        1.81803   0.00121   0.00000   0.01110   0.01115   1.82918
    D1       -1.58095  -0.00235   0.00000  -0.13121  -0.13037  -1.71133
    D2        0.55272  -0.00319   0.00000  -0.11545  -0.11519   0.43753
    D3        2.64485  -0.00008   0.00000  -0.08537  -0.08539   2.55946
    D4        1.50863  -0.00142   0.00000  -0.09992  -0.09980   1.40882
    D5       -2.64088  -0.00226   0.00000  -0.08416  -0.08462  -2.72550
    D6       -0.54875   0.00086   0.00000  -0.05408  -0.05482  -0.60357
    D7       -3.06395  -0.00103   0.00000  -0.02110  -0.02055  -3.08450
    D8        0.00520  -0.00176   0.00000  -0.04957  -0.04912  -0.04391
    D9        0.13066  -0.00120   0.00000  -0.04996  -0.05041   0.08025
   D10       -3.08337  -0.00192   0.00000  -0.07843  -0.07898   3.12084
   D11       -0.93493  -0.00050   0.00000  -0.00580  -0.00576  -0.94070
   D12        1.19912   0.00099   0.00000   0.01273   0.01276   1.21187
   D13       -3.05083   0.00031   0.00000  -0.00172  -0.00170  -3.05254
   D14        1.18022  -0.00078   0.00000  -0.01148  -0.01145   1.16876
   D15       -2.96892   0.00071   0.00000   0.00705   0.00707  -2.96185
   D16       -0.93568   0.00003   0.00000  -0.00739  -0.00739  -0.94308
   D17       -3.06496  -0.00113   0.00000  -0.01672  -0.01672  -3.08168
   D18       -0.93091   0.00036   0.00000   0.00181   0.00180  -0.92911
   D19        1.10232  -0.00033   0.00000  -0.01263  -0.01266   1.08967
   D20        0.93844   0.00009   0.00000   0.00027   0.00023   0.93867
   D21        3.05591  -0.00035   0.00000  -0.00070  -0.00073   3.05518
   D22       -1.19273  -0.00100   0.00000  -0.01373  -0.01376  -1.20649
   D23       -1.17676   0.00045   0.00000   0.00626   0.00624  -1.17052
   D24        0.94071   0.00001   0.00000   0.00529   0.00529   0.94600
   D25        2.97526  -0.00064   0.00000  -0.00773  -0.00775   2.96751
   D26        3.06834   0.00087   0.00000   0.01212   0.01212   3.08046
   D27       -1.09738   0.00042   0.00000   0.01115   0.01116  -1.08622
   D28        0.93717  -0.00022   0.00000  -0.00188  -0.00187   0.93529
   D29        0.92830  -0.00061   0.00000  -0.00669  -0.00669   0.92161
   D30        3.10753  -0.00032   0.00000   0.00748   0.00747   3.11500
   D31       -1.16727   0.00157   0.00000   0.02569   0.02589  -1.14138
   D32       -1.20169  -0.00125   0.00000  -0.01919  -0.01927  -1.22095
   D33        0.97755  -0.00096   0.00000  -0.00502  -0.00511   0.97243
   D34        2.98593   0.00092   0.00000   0.01318   0.01331   2.99924
   D35        3.04408   0.00042   0.00000   0.00590   0.00583   3.04992
   D36       -1.05987   0.00070   0.00000   0.02007   0.01998  -1.03988
   D37        0.94851   0.00259   0.00000   0.03827   0.03841   0.98692
   D38       -0.93324   0.00086   0.00000   0.01262   0.01262  -0.92062
   D39        1.17093  -0.00094   0.00000  -0.01571  -0.01586   1.15507
   D40       -3.09239   0.00061   0.00000  -0.00293  -0.00297  -3.09536
   D41       -3.05097  -0.00034   0.00000  -0.00100  -0.00095  -3.05192
   D42       -0.94681  -0.00215   0.00000  -0.02933  -0.02942  -0.97623
   D43        1.07307  -0.00060   0.00000  -0.01655  -0.01654   1.05652
   D44        1.19399   0.00110   0.00000   0.02072   0.02077   1.21476
   D45       -2.98503  -0.00070   0.00000  -0.00761  -0.00770  -2.99273
   D46       -0.96516   0.00085   0.00000   0.00517   0.00518  -0.95998
   D47       -0.90709   0.00085   0.00000   0.01628   0.01625  -0.89084
   D48        1.20340   0.00134   0.00000   0.02747   0.02739   1.23080
   D49       -3.02218  -0.00100   0.00000  -0.01224  -0.01235  -3.03453
   D50       -3.07033  -0.00075   0.00000  -0.01215  -0.01202  -3.08235
   D51       -0.95984  -0.00026   0.00000  -0.00096  -0.00087  -0.96071
   D52        1.09776  -0.00260   0.00000  -0.04067  -0.04061   1.05714
   D53        1.18896   0.00173   0.00000   0.01543   0.01546   1.20443
   D54       -2.98373   0.00221   0.00000   0.02662   0.02661  -2.95713
   D55       -0.92614  -0.00013   0.00000  -0.01309  -0.01313  -0.93927
   D56        0.90878  -0.00066   0.00000  -0.01639  -0.01642   0.89236
   D57       -1.22670  -0.00046   0.00000  -0.02027  -0.02029  -1.24699
   D58        3.03631   0.00084   0.00000   0.00475   0.00482   3.04113
   D59       -1.19549  -0.00166   0.00000  -0.01544  -0.01543  -1.21092
   D60        2.95221  -0.00146   0.00000  -0.01933  -0.01929   2.93292
   D61        0.93204  -0.00016   0.00000   0.00569   0.00582   0.93785
   D62        3.05801   0.00092   0.00000   0.01522   0.01505   3.07306
   D63        0.92253   0.00112   0.00000   0.01134   0.01118   0.93371
   D64       -1.09765   0.00242   0.00000   0.03636   0.03629  -1.06136
   D65        1.25325  -0.00242   0.00000  -0.04372  -0.04355   1.20970
   D66       -2.91415   0.00007   0.00000  -0.00015  -0.00012  -2.91426
   D67       -0.91711  -0.00096   0.00000  -0.00546  -0.00539  -0.92249
   D68       -2.89694  -0.00080   0.00000  -0.02634  -0.02627  -2.92322
   D69       -0.78116   0.00169   0.00000   0.01723   0.01716  -0.76399
   D70        1.21589   0.00066   0.00000   0.01192   0.01189   1.22778
   D71       -0.84589  -0.00093   0.00000  -0.02371  -0.02372  -0.86962
   D72        1.26989   0.00156   0.00000   0.01986   0.01972   1.28961
   D73       -3.01625   0.00053   0.00000   0.01455   0.01445  -3.00181
   D74        2.08057  -0.00089   0.00000  -0.01812  -0.01820   2.06238
   D75       -0.99503  -0.00058   0.00000   0.00647   0.00594  -0.98909
   D76       -0.02009  -0.00009   0.00000  -0.00918  -0.00897  -0.02907
   D77       -3.09570   0.00022   0.00000   0.01542   0.01517  -3.08053
   D78       -2.12378   0.00071   0.00000  -0.00025   0.00030  -2.12347
   D79        1.08380   0.00102   0.00000   0.02435   0.02444   1.10825
   D80        2.51306  -0.00072   0.00000  -0.00925  -0.00904   2.50402
   D81       -0.69841  -0.00159   0.00000  -0.03738  -0.03751  -0.73592
   D82        0.42106   0.00169   0.00000   0.01898   0.01934   0.44040
   D83       -2.79040   0.00082   0.00000  -0.00915  -0.00913  -2.79954
   D84       -1.68834  -0.00047   0.00000  -0.00639  -0.00645  -1.69479
   D85        1.38338  -0.00134   0.00000  -0.03452  -0.03492   1.34846
   D86        3.04828   0.00358   0.00000   0.08080   0.08077   3.12905
   D87        0.91347   0.00303   0.00000   0.05492   0.05462   0.96808
   D88       -1.03345   0.00141   0.00000   0.03514   0.03502  -0.99842
   D89        0.87917   0.00041   0.00000   0.03386   0.03395   0.91312
   D90       -1.25564  -0.00013   0.00000   0.00798   0.00780  -1.24785
   D91        3.08063  -0.00175   0.00000  -0.01180  -0.01179   3.06883
   D92       -1.17323  -0.00020   0.00000   0.02552   0.02581  -1.14742
   D93        2.97514  -0.00074   0.00000  -0.00036  -0.00034   2.97480
   D94        1.02822  -0.00236   0.00000  -0.02014  -0.01993   1.00829
         Item               Value     Threshold  Converged?
 Maximum Force            0.022899     0.000450     NO 
 RMS     Force            0.003780     0.000300     NO 
 Maximum Displacement     0.536597     0.001800     NO 
 RMS     Displacement     0.114412     0.001200     NO 
 Predicted change in Energy=-6.773702D-03
 GradGradGradGradGradGradGradGradGradGradGradGradGradGradGradGradGradGrad

                          Input orientation:                          
 ---------------------------------------------------------------------
 Center     Atomic      Atomic             Coordinates (Angstroms)
 Number     Number       Type             X           Y           Z
 ---------------------------------------------------------------------
      1          6           0       -5.945421    2.970020    0.817257
      2          6           0       -0.748018    0.616361   -0.654016
      3          6           0       -2.180089    0.088185   -0.842008
      4          6           0       -0.693213    1.777003    0.352301
      5          6           0       -2.832101   -0.293236    0.502511
      6          6           0       -1.345592    1.395250    1.696610
      7          6           0       -2.773110    0.838336    1.540797
      8          6           0       -7.205485    4.963808    1.399771
      9          6           0       -6.323450    3.570488    3.243064
     10          6           0       -5.187367    1.704698    1.230615
     11          7           0       -6.420598    3.796716    1.797644
     12          7           0       -3.704498    1.973061    1.151046
     13          8           0       -6.062855    3.181108   -0.384747
     14          1           0       -0.107219   -0.201128   -0.296226
     15          1           0       -0.334871    0.935211   -1.617120
     16          1           0       -2.787810    0.840116   -1.371468
     17          1           0       -2.177145   -0.792672   -1.491630
     18          1           0        0.344237    2.075388    0.533647
     19          1           0       -1.184302    2.664176   -0.078919
     20          1           0       -3.861518   -0.642388    0.354810
     21          1           0       -2.294024   -1.141133    0.941707
     22          1           0       -0.752391    0.611755    2.181507
     23          1           0       -1.342226    2.248173    2.391472
     24          1           0       -3.146943    0.490273    2.509101
     25          1           0       -8.218790    4.894471    1.813078
     26          1           0       -7.260302    4.996186    0.313822
     27          1           0       -6.734868    5.882679    1.767528
     28          1           0       -6.159222    4.532296    3.736304
     29          1           0       -5.480587    2.926953    3.502509
     30          1           0       -7.238621    3.127504    3.656625
     31          1           0       -5.425338    1.315746    2.221464
     32          1           0       -5.416374    0.946541    0.483457
     33          1           0       -3.487340    2.794959    1.729668
     34          1           0       -3.503355    2.270039    0.186336
 ---------------------------------------------------------------------
                    Distance matrix (angstroms):
                    1          2          3          4          5
     1  C    0.000000
     2  C    5.892144   0.000000
     3  C    5.023530   1.537901   0.000000
     4  C    5.406030   1.537129   2.547406   0.000000
     5  C    4.521135   2.551141   1.542184   2.980485   0.000000
     6  C    4.940809   2.547392   2.974791   1.542238   2.546874
     7  C    3.889877   2.994575   2.567520   2.572857   1.536872
     8  C    2.429460   8.050914   7.351998   7.325476   6.896961
     9  C    2.527451   7.416167   6.780979   6.578196   5.884599
    10  C    1.531845   4.944100   3.994070   4.579747   3.173193
    11  N    1.367618   6.950069   6.221164   6.242692   5.593066
    12  N    2.475294   3.720169   3.138286   3.121581   2.513519
    13  O    1.226035   5.907447   4.985091   5.598911   4.826599
    14  H    6.736515   1.098601   2.162954   2.162632   2.841030
    15  H    6.445534   1.095411   2.173265   2.171553   3.498296
    16  H    4.392893   2.173834   1.102294   2.869925   2.190489
    17  H    5.804198   2.174713   1.094499   3.493618   2.157546
    18  H    6.359293   2.175390   3.494799   1.094634   3.962382
    19  H    4.854372   2.171319   2.865243   1.101905   3.435052
    20  H    4.195950   3.506575   2.189364   3.986429   1.097006
    21  H    5.499979   2.832888   2.169296   3.380165   1.096062
    22  H    5.864312   2.835530   3.384389   2.169631   2.821920
    23  H    4.918194   3.505837   3.977808   2.191218   3.499523
    24  H    4.104018   3.971908   3.510899   3.511161   2.177021
    25  H    3.140602   8.955513   8.161849   8.275674   7.592517
    26  H    2.467328   7.907555   7.157722   7.313773   6.900909
    27  H    3.163831   8.333088   7.818686   7.440500   7.414431
    28  H    3.317718   7.993159   7.519611   6.994309   6.694244
    29  H    2.725529   6.709154   6.150343   5.845095   5.136544
    30  H    3.123969   8.186293   7.420506   7.455520   6.408379
    31  H    2.231346   5.534876   4.628543   5.108770   3.502642
    32  H    2.117965   4.816266   3.600996   4.797407   2.866335
    33  H    2.627794   4.234634   3.955887   3.277273   3.387063
    34  H    2.617580   3.321555   2.751183   2.857888   2.668506
                    6          7          8          9         10
     6  C    0.000000
     7  C    1.540208   0.000000
     8  C    6.867392   6.056843   0.000000
     9  C    5.648208   4.792418   2.473269   0.000000
    10  C    3.882286   2.583685   3.837084   2.970153   0.000000
    11  N    5.615420   4.703419   1.461661   1.466239   2.493777
    12  N    2.489165   1.518878   4.611219   3.713115   1.509056
    13  O    5.456547   4.474228   2.769138   3.657942   2.357045
    14  H    2.837849   3.400312   8.940825   8.086605   5.636605
    15  H    3.494853   3.990844   8.516840   8.150408   5.678769
    16  H    3.435297   2.912303   6.648342   6.422584   3.643653
    17  H    3.955169   3.494422   8.171993   7.658090   4.765387
    18  H    2.161155   3.501786   8.129665   7.350804   5.587649
    19  H    2.188308   2.912299   6.612826   6.186099   4.319723
    20  H    3.504609   2.187177   6.610862   5.670224   2.834382
    21  H    2.811164   2.122907   7.848731   6.613009   4.068619
    22  H    1.095845   2.131937   7.822653   6.396695   4.665590
    23  H    1.100147   2.181449   6.537274   5.223631   4.053155
    24  H    2.173475   1.094766   6.141245   4.485155   2.696791
    25  H    7.713557   6.795719   1.096549   2.718475   4.438856
    26  H    7.061348   6.239236   1.087814   3.389804   3.996431
    27  H    7.013298   6.418125   1.095923   2.773572   4.487601
    28  H    6.096921   5.470954   2.596200   1.093312   3.901063
    29  H    4.765036   3.942215   3.397876   1.091726   2.596419
    30  H    6.447492   5.445898   2.909725   1.097636   3.481027
    31  H    4.114137   2.779485   4.141552   2.633274   1.090732
    32  H    4.271340   2.848950   4.492102   3.914500   1.088802
    33  H    2.558782   2.091451   4.317098   3.306861   2.080340
    34  H    2.775270   2.101808   4.736516   4.357486   2.060589
                   11         12         13         14         15
    11  N    0.000000
    12  N    3.334818   0.000000
    13  O    2.295600   3.062660   0.000000
    14  H    7.760529   4.445460   6.849596   0.000000
    15  H    7.542208   4.482662   6.274759   1.757228   0.000000
    16  H    5.655254   2.913238   4.144850   3.070163   2.467042
    17  H    7.063194   4.118959   5.666998   2.462420   2.528893
    18  H    7.093917   4.096817   6.566346   2.464756   2.527249
    19  H    5.676525   2.888224   4.915387   3.068761   2.465140
    20  H    5.323186   2.738471   4.473472   3.835795   4.337576
    21  H    6.491811   3.425123   5.886029   2.682948   3.833677
    22  H    6.513057   3.410270   6.433371   2.686296   3.835168
    23  H    5.342330   2.682289   5.555367   3.840318   4.336755
    24  H    4.706969   2.086587   4.910956   4.193784   5.013125
    25  H    2.106845   5.417726   3.523365   9.808766   9.465632
    26  H    2.084600   4.741726   2.283941   8.862891   8.257218
    27  H    2.109719   4.984808   3.518860   9.230251   8.768880
    28  H    2.089928   4.388498   4.337978   8.677174   8.690295
    29  H    2.132293   3.097383   3.938831   7.286176   7.527020
    30  H    2.138415   4.483380   4.209274   8.806914   8.959928
    31  H    2.706543   2.130528   3.267772   6.076353   6.386892
    32  H    3.295307   2.104742   2.482943   5.487457   5.498566
    33  H    3.100346   1.028337   3.354569   4.950354   4.959608
    34  H    3.665701   1.029232   2.776189   4.227679   3.882462
                   16         17         18         19         20
    16  H    0.000000
    17  H    1.747383   0.000000
    18  H    3.868472   4.322601   0.000000
    19  H    2.751202   3.864102   1.748812   0.000000
    20  H    2.516089   2.503806   5.010656   4.276561   0.000000
    21  H    3.085442   2.460939   4.180065   4.093109   1.746492
    22  H    4.101062   4.182616   2.461759   3.083587   3.817902
    23  H    4.269901   5.002231   2.515060   2.510146   4.341679
    24  H    3.912823   4.311880   4.313161   3.908410   2.536633
    25  H    7.488302   8.931191   9.105472   7.618261   7.195080
    26  H    6.333743   7.912586   8.149135   6.519992   6.583838
    27  H    7.131620   8.715232   8.132138   6.676595   7.268316
    28  H    7.147583   8.458340   7.654306   6.541837   6.594793
    29  H    5.946561   7.049097   6.593018   5.599441   5.026887
    30  H    7.093912   8.215282   8.267992   7.129077   6.043087
    31  H    4.482403   5.365003   6.059190   5.009632   3.124775
    32  H    3.218916   4.173541   5.870388   4.601844   2.226842
    33  H    3.731996   4.996445   4.077896   2.931224   3.720967
    34  H    2.232361   3.735586   3.868136   2.367215   2.939200
                   21         22         23         24         25
    21  H    0.000000
    22  H    2.643171   0.000000
    23  H    3.807248   1.752100   0.000000
    24  H    2.417785   2.419909   2.522113   0.000000
    25  H    8.502392   8.615365   7.390844   6.753150   0.000000
    26  H    7.919902   8.066250   6.847761   6.483998   1.782362
    27  H    8.350870   7.983988   6.532958   6.519293   1.783439
    28  H    7.411972   6.857249   5.498113   5.188237   2.841089
    29  H    5.767254   5.427801   4.338338   3.517124   3.771347
    30  H    7.073973   7.111691   6.094367   5.001362   2.735245
    31  H    4.180809   4.725848   4.191674   2.440333   4.558226
    32  H    3.783841   4.974756   4.683316   3.075993   5.020715
    33  H    4.187805   3.528525   2.310515   2.456616   5.177019
    34  H    3.697184   3.781325   3.087650   2.947853   5.636423
                   26         27         28         29         30
    26  H    0.000000
    27  H    1.781912   0.000000
    28  H    3.625045   2.455805   0.000000
    29  H    4.197241   3.649616   1.758502   0.000000
    30  H    3.829723   3.378378   1.773384   1.776135   0.000000
    31  H    4.533412   4.772609   3.630361   2.059155   2.937712
    32  H    4.452917   5.268085   4.898007   3.611209   4.259833
    33  H    4.591869   4.481282   3.766149   2.670847   4.230350
    34  H    4.643574   5.098433   4.977319   3.916374   5.170142
                   31         32         33         34
    31  H    0.000000
    32  H    1.776811   0.000000
    33  H    2.487121   2.948026   0.000000
    34  H    2.957438   2.345116   1.630236   0.000000
 Stoichiometry    C10H21N2O(1+)
 Framework group  C1[X(C10H21N2O)]
 Deg. of freedom    96
 Full point group                 C1      NOp   1
 Largest Abelian subgroup         C1      NOp   1
 Largest concise Abelian subgroup C1      NOp   1
                         Standard orientation:                         
 ---------------------------------------------------------------------
 Center     Atomic      Atomic             Coordinates (Angstroms)
 Number     Number       Type             X           Y           Z
 ---------------------------------------------------------------------
      1          6           0       -2.076783   -0.689707    0.113160
      2          6           0        3.763281   -0.563282   -0.658222
      3          6           0        2.904321   -1.274177    0.401001
      4          6           0        2.968106    0.516200   -1.410009
      5          6           0        2.245609   -0.273146    1.371757
      6          6           0        2.309315    1.516878   -0.438857
      7          6           0        1.461305    0.834703    0.650985
      8          6           0       -4.282847   -0.363249   -0.850678
      9          6           0       -3.275882    1.516301    0.402468
     10          6           0       -0.897427   -0.177641    0.945902
     11          7           0       -3.128579    0.153379   -0.117728
     12          7           0        0.201441    0.273180    0.015041
     13          8           0       -1.996285   -1.833058   -0.322074
     14          1           0        4.627765   -0.096782   -0.166319
     15          1           0        4.167215   -1.293766   -1.367556
     16          1           0        2.141829   -1.897029   -0.094692
     17          1           0        3.517242   -1.971635    0.980492
     18          1           0        3.623212    1.064863   -2.094136
     19          1           0        2.208099    0.038337   -2.048938
     20          1           0        1.615364   -0.792802    2.103994
     21          1           0        3.022015    0.231982    1.957754
     22          1           0        3.086819    2.089898    0.078844
     23          1           0        1.705262    2.255957   -0.985853
     24          1           0        1.103561    1.580266    1.368388
     25          1           0       -5.178238   -0.323543   -0.218921
     26          1           0       -4.086047   -1.395197   -1.132973
     27          1           0       -4.459090    0.233161   -1.753053
     28          1           0       -3.756050    2.131737   -0.363045
     29          1           0       -2.311912    1.976359    0.628245
     30          1           0       -3.897333    1.550951    1.306571
     31          1           0       -1.127715    0.630462    1.641338
     32          1           0       -0.515414   -1.031745    1.502733
     33          1           0       -0.183160    0.972016   -0.633947
     34          1           0        0.442827   -0.532225   -0.578570
 ---------------------------------------------------------------------
 Rotational constants (GHZ):      1.6208358      0.3464602      0.3299894
 Standard basis: 6-31G(d) (6D, 7F)
 There are   237 symmetry adapted basis functions of A   symmetry.
 Integral buffers will be    131072 words long.
 Raffenetti 2 integral format.
 Two-electron integral symmetry is turned on.
   237 basis functions,   448 primitive gaussians,   237 cartesian basis functions
    51 alpha electrons       51 beta electrons
       nuclear repulsion energy       865.8224337328 Hartrees.
 NAtoms=   34 NActive=   34 NUniq=   34 SFac= 1.00D+00 NAtFMM=   60 NAOKFM=F Big=F
 One-electron integrals computed using PRISM.
 NBasis=   237 RedAO= T  NBF=   237
 NBsUse=   237 1.00D-06 NBFU=   237
 Initial guess read from the read-write file.
 B after Tr=     0.000000    0.000000    0.000000
         Rot=    1.000000    0.000000    0.000000    0.000000 Ang=   0.00 deg.
 Initial guess orbital symmetries:
       Occupied  (A) (A) (A) (A) (A) (A) (A) (A) (A) (A) (A) (A)
                 (A) (A) (A) (A) (A) (A) (A) (A) (A) (A) (A) (A)
                 (A) (A) (A) (A) (A) (A) (A) (A) (A) (A) (A) (A)
                 (A) (A) (A) (A) (A) (A) (A) (A) (A) (A) (A) (A)
                 (A) (A) (A)
       Virtual   (A) (A) (A) (A) (A) (A) (A) (A) (A) (A) (A) (A)
                 (A) (A) (A) (A) (A) (A) (A) (A) (A) (A) (A) (A)
                 (A) (A) (A) (A) (A) (A) (A) (A) (A) (A) (A) (A)
                 (A) (A) (A) (A) (A) (A) (A) (A) (A) (A) (A) (A)
                 (A) (A) (A) (A) (A) (A) (A) (A) (A) (A) (A) (A)
                 (A) (A) (A) (A) (A) (A) (A) (A) (A) (A) (A) (A)
                 (A) (A) (A) (A) (A) (A) (A) (A) (A) (A) (A) (A)
                 (A) (A) (A) (A) (A) (A) (A) (A) (A) (A) (A) (A)
                 (A) (A) (A) (A) (A) (A) (A) (A) (A) (A) (A) (A)
                 (A) (A) (A) (A) (A) (A) (A) (A) (A) (A) (A) (A)
                 (A) (A) (A) (A) (A) (A) (A) (A) (A) (A) (A) (A)
                 (A) (A) (A) (A) (A) (A) (A) (A) (A) (A) (A) (A)
                 (A) (A) (A) (A) (A) (A) (A) (A) (A) (A) (A) (A)
                 (A) (A) (A) (A) (A) (A) (A) (A) (A) (A) (A) (A)
                 (A) (A) (A) (A) (A) (A) (A) (A) (A) (A) (A) (A)
                 (A) (A) (A) (A) (A) (A)
 Harris functional with IExCor=  402 diagonalized for initial guess.
 ExpMin= 1.61D-01 ExpMax= 5.48D+03 ExpMxC= 8.25D+02 IAcc=3 IRadAn=         5 AccDes= 0.00D+00
 HarFok:  IExCor=  402 AccDes= 0.00D+00 IRadAn=         5 IDoV= 1
 ScaDFX=  1.000000  1.000000  1.000000  1.000000
 FoFCou: FMM=F IPFlag=           0 FMFlag=      100000 FMFlg1=           0
         NFxFlg=           0 DoJE=T BraDBF=F KetDBF=T FulRan=T
         Omega=  0.000000  0.000000  1.000000  0.000000  0.000000 ICntrl=     500 IOpCl=  0
         NMat0=    1 NMatS0=    1 NMatT0=    0 NMatD0=    1 NMtDS0=    0 NMtDT0=    0
         I1Cent=           4 NGrid=           0.
 Petite list used in FoFCou.
 Requested convergence on RMS density matrix=1.00D-08 within 128 cycles.
 Requested convergence on MAX density matrix=1.00D-06.
 Requested convergence on             energy=1.00D-06.
 No special actions if energy rises.
 Integral accuracy reduced to 1.0D-05 until final iterations.
 Initial convergence to 1.0D-05 achieved.  Increase integral accuracy.
 SCF Done:  E(RB3LYP) =  -578.225690923     A.U. after   13 cycles
             Convg  =    0.3803D-08             -V/T =  2.0098
 Calling FoFJK, ICntrl=      2127 FMM=F ISym2X=0 I1Cent= 0 IOpClX= 0 NMat=1 NMatS=1 NMatT=0.
 ***** Axes restored to original set *****
 -------------------------------------------------------------------
 Center     Atomic                   Forces (Hartrees/Bohr)
 Number     Number              X              Y              Z
 -------------------------------------------------------------------
      1        6          -0.007433500    0.006898299    0.004406170
      2        6           0.000015862   -0.000427342    0.000501018
      3        6           0.000861526    0.000371131    0.001050726
      4        6          -0.000791569   -0.001005968   -0.000128011
      5        6          -0.001190486    0.000791334   -0.002173155
      6        6          -0.000618102    0.002502553   -0.001576814
      7        6           0.007572493   -0.007612584    0.001931309
      8        6          -0.002520418    0.002526768   -0.001461593
      9        6           0.000421727   -0.000019574   -0.001087380
     10        6          -0.002223995   -0.004712321    0.002162946
     11        7           0.003974460   -0.005847519   -0.000517363
     12        7          -0.004150311    0.008076224   -0.002494890
     13        8           0.004646360    0.000169559   -0.001288218
     14        1          -0.000143198    0.000009621    0.000148639
     15        1          -0.000226505   -0.000093209    0.000259389
     16        1          -0.000245829   -0.000148052    0.000136849
     17        1          -0.000520954    0.000092393   -0.000348441
     18        1          -0.000107632    0.000387496    0.000205460
     19        1          -0.000099209    0.000031207    0.000291823
     20        1           0.000471421    0.000004242    0.000395062
     21        1           0.000575196    0.000217633    0.000433712
     22        1          -0.000340695   -0.000629876    0.000018912
[...]
 1285,0.00000094,0.00000043,0.00000250,-0.00000402,-0.00001135,0.000000
 96,-0.00000306,-0.00000701,-0.00000006,-0.00000898,0.00000440,-0.00000
 759,0.00000689,-0.00000289,-0.00000380,-0.00000756,-0.00002162,0.00002
 549,-0.00000039,-0.00000915,-0.00001498,-0.00000153,-0.00001087,0.0000
 0046,0.00000184,0.00000288,0.00021559,0.00007522,0.00009906,0.00057613
 ,0.00006554,0.00044911,-0.00012146,0.00043718,-0.00022015,0.01482680,-
 0.01361082,0.01646045,-0.10024219,0.15329747,-0.00351277,0.00164475,0.
 00038635,0.00000829,-0.00002400,0.00001394,-0.00002141,0.00004560,-0.0
 0003548,-0.00001370,0.00001123,-0.00002192,0.00005975,0.00003446,-0.00
 002433,0.00002090,0.00007278,-0.00000570,0.00006194,-0.00027580,0.0000
 1396,0.00502228,-0.00001902,-0.00276673,-0.08391637,0.09374531,-0.1444
 9100,0.00084004,0.00007076,-0.00007007,-0.01531153,0.01628419,-0.01928
 453,-0.00042080,-0.00030892,0.00058749,0.00089842,-0.00033336,-0.00026
 509,0.00000589,0.00000167,-0.00000309,-0.00001305,-0.00000154,0.000011
 58,-0.00001522,-0.00000578,0.00000676,-0.00000010,0.00000175,0.0000098
 8,-0.00000811,0.00000091,0.00001114,0.00000541,0.00000592,-0.00000459,
 -0.00004878,-0.00001804,-0.00001913,-0.00001092,0.00000647,0.00002561,
 -0.00002908,-0.00000056,0.00001461,0.00000037,-0.00000937,0.00000798,0
 .00002408,0.00000702,0.00001622,0.00009271,-0.00019604,0.00028039,-0.0
 0096843,0.00110919,-0.00070390,-0.00005981,0.00018907,0.00018750,0.009
 49229,-0.00928059,0.01267529,0.09350361,-0.10827589,0.15815175,0.00225
 993,-0.00434521,-0.00045691,-0.00000123,0.00001768,-0.00001317,0.00004
 639,-0.00005467,0.00003367,0.00000030,-0.00002888,-0.00000860,-0.00007
 908,0.00001636,0.00001124,0.00000452,0.00006253,0.00001613,0.00006226,
 -0.00025186,-0.00006244,0.00055191,0.00131595,-0.00101056,-0.21794603,
 -0.10557750,-0.07059128,0.00002775,0.00000943,-0.00008969,-0.02079722,
 -0.00748810,0.00414920,-0.00013668,0.00024754,-0.00012112,-0.00133970,
 0.00086805,0.00135398,-0.00000989,0.00000658,0.00000035,0.00000547,-0.
 00000338,0.00000174,-0.00000021,0.00002139,-0.00004701,-0.00001399,0.0
 0002473,0.00001405,-0.00000560,0.00000824,0.00000525,0.00000527,0.0000
 2199,-0.00000387,-0.00000098,-0.00002608,-0.00000512,-0.00000176,0.000
 01515,0.00001050,-0.00002252,0.00000459,0.00000849,0.00001445,-0.00000
 247,0.00000605,-0.00001292,0.00002243,0.00000732,0.00049637,-0.0005559
 0,0.00067698,0.00004975,0.00025153,0.00012089,0.00008419,-0.00015520,0
 .00007167,0.00957830,0.00510778,0.00227693,-0.01258264,-0.00861795,-0.
 00575620,0.23972400,0.00278235,-0.00164607,-0.00058578,0.00001017,0.00
 000997,0.00000024,-0.00000233,-0.00003062,0.00000415,-0.00000125,-0.00
 000537,0.00000421,0.00003236,-0.00000154,0.00000042,0.00000490,-0.0000
 1645,-0.00000251,0.00001411,0.00003538,-0.00000062,-0.00094860,0.00023
 657,-0.00111526,-0.10585068,-0.11976639,-0.04469111,-0.00008378,0.0001
 1707,0.00011334,-0.00990645,-0.00141780,0.00410520,0.00006508,0.000067
 57,-0.00034752,-0.00109706,-0.00002388,0.00089632,-0.00000724,0.000002
 25,-0.00000145,-0.00000382,-0.00000334,0.00000102,0.00000914,0.0000080
 1,-0.00002247,-0.00000178,0.00000779,-0.00000320,-0.00000400,0.0000009
 8,-0.00000177,0.00000364,0.00000315,-0.00000066,-0.00000564,-0.0000058
 7,0.00000403,-0.00000543,0.00000230,-0.00000642,0.00000538,0.00000174,
 -0.00000009,-0.00000488,-0.00000332,-0.00000133,-0.00000850,0.00001088
 ,0.00000333,0.00026474,0.00006447,0.00055856,0.00020534,0.00015893,0.0
 0007420,-0.00009312,-0.00028486,-0.00012072,-0.02203988,-0.01281805,-0
 .01000097,0.01730986,0.01207184,0.00596905,0.11923525,0.12339479,-0.00
 180618,0.00518336,-0.00055033,-0.00000689,-0.00002163,0.00000535,-0.00
 002100,0.00005595,-0.00002789,0.00000094,0.00001797,-0.00000453,0.0000
 1638,0.00000357,-0.00001796,-0.00000576,0.00000099,-0.00001070,-0.0000
 2504,0.00000700,0.00003801,0.00198055,-0.00029991,0.00219300,-0.076137
 49,-0.04645741,-0.07996089,-0.00008010,0.00005023,-0.00015475,0.033514
 55,0.01677882,0.00338170,-0.00000907,-0.00021661,0.00050230,0.00215601
 ,-0.00151171,-0.00228294,0.00001093,-0.00000229,0.00000025,-0.00000058
 ,0.00000364,0.00000142,-0.00001091,-0.00001051,0.00004822,0.00001100,-
 0.00002244,-0.00000188,0.00000380,-0.00000502,0.00000109,-0.00000554,-
 0.00000949,0.00000104,-0.00000086,0.00000698,0.00000443,-0.00000061,-0
 .00000507,0.00000815,-0.00000115,-0.00000211,-0.00000007,0.00000072,0.
 00000304,0.00000297,0.00001614,-0.00002285,-0.00000758,-0.00076698,-0.
 00047124,-0.00009961,0.00007950,-0.00024528,0.00012505,-0.00032139,-0.
 00002509,-0.00039632,-0.01383295,-0.00716547,-0.00445436,-0.01379707,-
 0.01077540,-0.00527811,0.06918554,0.04510747,0.08712242,0.00282536,-0.
 01132262,-0.01117242,-0.00001930,-0.00002861,-0.00008679,0.00015475,0.
 00002103,0.00002557,0.00003435,-0.00005292,-0.00014322,-0.00055700,-0.
 00011274,-0.00022748,-0.00008015,0.00105942,0.00001721,-0.00133406,-0.
 00319795,0.00181568,-0.00013635,0.00045304,0.00045827,-0.00020341,0.00
 037448,-0.00059496,-0.04918219,-0.00987862,-0.02133326,-0.00064175,0.0
 0142956,0.00006228,-0.00898066,0.01460451,0.03518455,0.00029498,0.0028
 1877,-0.00125598,0.00001133,0.00000830,0.00000494,0.00002168,0.0000107
 6,0.00001937,-0.00006475,0.00004268,-0.00000836,-0.00001811,0.00003126
 ,0.00002647,-0.00001681,0.00004146,0.00002752,0.00002729,0.00007197,-0
 .00002461,0.00036640,0.00005633,-0.00000496,0.00021084,0.00005609,0.00
 004678,-0.00034363,-0.00005997,0.00000786,-0.00001240,-0.00006557,-0.0
 0002251,0.00007428,0.00017006,-0.00025650,0.00002614,-0.00003285,0.000
 01380,0.00007032,-0.00004546,0.00007881,-0.00008174,0.00018018,-0.0001
 7279,-0.00033158,0.00011013,0.00004826,-0.00218149,-0.00060403,-0.0002
 6136,0.00013132,-0.00028452,0.00033486,0.06194575,-0.00045543,0.012249
 44,0.01768792,-0.00002215,0.00005781,-0.00010431,0.00022890,-0.0000941
 9,0.00013632,-0.00005170,-0.00003318,0.00000530,-0.00039880,-0.0001895
 2,0.00000382,0.00001367,-0.00022352,0.00013539,0.00047095,0.00021317,-
 0.00073559,-0.00026013,-0.00072768,-0.00038951,0.00011554,0.00066191,-
 0.00050352,-0.00384438,-0.09554296,-0.10411951,-0.00002684,-0.00042162
 ,-0.00017498,-0.00081042,-0.00069394,-0.00028679,-0.00034996,-0.004215
 07,0.00166060,-0.00001163,-0.00000188,0.00000945,0.00004427,0.00000585
 ,-0.00001036,-0.00000757,0.00000941,-0.00004774,-0.00000867,0.00001811
 ,-0.00001181,0.00000066,0.00001667,0.00000879,0.00000305,0.00001952,0.
 00000041,0.00050347,0.00006625,0.00005845,0.00016147,0.00001067,-0.000
 05470,0.00006501,0.00001106,-0.00002075,0.00005256,0.00003107,-0.00001
 171,-0.00001218,-0.00013307,0.00003435,-0.00005381,0.00011283,-0.00012
 563,-0.00004101,0.00001484,-0.00000603,0.00010543,-0.00012108,0.000161
 05,0.00025818,-0.00015996,0.00003682,0.00031374,0.00000460,0.00014512,
 0.00007215,-0.00007638,-0.00000930,0.00503275,0.09846082,-0.00015551,-
 0.00761779,-0.01610548,0.00000156,-0.00001132,0.00002547,-0.00006676,0
 .00007020,-0.00005630,-0.00000936,0.00001931,0.00001497,0.00005775,0.0
 0014809,0.00011906,-0.00004809,-0.00024701,-0.00004394,0.00042563,0.00
 074620,-0.00012722,-0.00011033,0.00060788,0.00022498,-0.00006255,0.000
 48835,-0.00008024,-0.00891313,-0.10769588,-0.28034377,0.00050689,0.000
 77429,0.00017788,0.00035484,-0.00318058,-0.00648974,-0.00087084,0.0027
 5358,-0.00027456,0.00000834,-0.00000469,-0.00000219,-0.00000922,-0.000
 00287,-0.00000248,0.00000826,-0.00003924,0.00003947,0.00001037,-0.0000
 2268,-0.00000190,0.00000669,-0.00001112,-0.00000263,-0.00000954,-0.000
 02392,0.00000321,-0.00007756,-0.00001873,-0.00002518,-0.00000314,-0.00
 000673,0.00002740,0.00006994,0.00001834,0.00000025,0.00000707,-0.00000
 554,0.00000834,0.00001773,-0.00006912,-0.00002535,0.00002463,-0.000134
 05,0.00010909,0.00008264,-0.00005422,0.00004108,-0.00005184,0.00004805
 ,-0.00015002,0.00002085,-0.00019251,0.00012294,0.00038685,-0.00042011,
 0.00068398,0.00003757,-0.00013259,0.00014656,0.00766234,0.11292304,0.2
 9761449,0.01120143,0.01429397,0.00346719,-0.00006849,0.00005965,-0.000
 09318,0.00011910,-0.00016751,0.00008766,0.00011038,-0.00018605,0.00007
 008,-0.00007209,0.00031471,0.00009874,-0.00005127,0.00005911,-0.000400
 87,0.00122746,-0.00317030,-0.00018795,-0.00039560,-0.00060573,-0.00024
 091,0.00000723,0.00031821,-0.00010769,-0.08713501,-0.09041468,0.005925
 84,-0.00114553,-0.00024129,-0.00072888,-0.02229416,-0.02774240,0.00420
 961,-0.00069932,-0.00033054,-0.00347841,0.00002089,0.00001090,0.000024
 88,0.00004292,0.00000585,-0.00000270,-0.00002169,0.00004073,-0.0000252
 9,0.00000678,0.00003239,-0.00005882,0.00000405,0.00009225,-0.00003315,
 -0.00001209,0.00016203,-0.00007371,0.00041387,0.00026046,0.00045293,0.
 00013969,0.00001954,0.00001438,0.00001448,0.00006647,0.00005089,0.0001
 3997,0.00004654,0.00012033,-0.00034874,0.00062915,-0.00068716,-0.00012
 403,0.00013329,-0.00021680,0.00003677,-0.00005586,0.00003067,0.0000547
 6,-0.00003940,0.00004106,0.00009796,-0.00020330,0.00026254,-0.00116570
 ,0.00129327,0.00070050,-0.00039364,0.00014978,-0.00005068,0.00067690,-
 0.00122894,-0.00028139,0.10604353,-0.00675557,-0.01330788,0.00059630,0
 .00008335,0.00001666,0.00000953,-0.00004713,0.00003480,0.00002936,0.00
 008608,-0.00002421,-0.00004938,0.00068206,-0.00009580,-0.00040401,-0.0
 0011087,0.00002982,-0.00012059,0.00139768,-0.00025707,-0.00092048,0.00
 051715,0.00030043,0.00024108,0.00027653,-0.00027395,0.00072909,-0.1053
 1733,-0.28715031,0.01454293,0.00033427,0.00060583,0.00092810,0.0029960
 8,0.00733388,-0.00081055,0.00149191,0.00035663,0.00129472,-0.00001255,
 0.00000401,-0.00000571,0.00000283,-0.00000036,-0.00000530,0.00000678,-
 0.00002931,0.00002015,-0.00000801,-0.00000375,0.00001854,0.00000206,-0
 .00001192,-0.00003231,-0.00001017,-0.00003116,0.00003997,0.00050460,-0
 .00032645,-0.00084974,0.00008179,-0.00001330,0.00011222,-0.00001427,-0
 .00001991,-0.00000540,-0.00003706,0.00000654,-0.00001203,-0.00008204,0
 .00048140,0.00019825,0.00003038,-0.00012414,0.00012419,-0.00007227,0.0
 0006454,-0.00005003,-0.00005424,0.00002872,-0.00010061,-0.00013349,0.0
 0018085,-0.00027997,0.00030988,-0.00003692,-0.00084772,-0.00002832,0.0
 0006779,-0.00019313,-0.00420424,-0.01000065,0.00131388,0.10609906,0.30
 280730,0.00962431,0.02016979,0.00021526,0.00014224,-0.00007853,0.00019
 261,-0.00041742,0.00019716,-0.00029474,0.00000508,0.00015736,0.0000181
 3,0.00150833,0.00036363,-0.00020411,0.00005839,0.00003458,-0.00021211,
 -0.00014602,0.00050947,0.00156583,-0.00029392,-0.00064362,-0.00053996,
 -0.00008807,-0.00027824,0.00066242,0.00727047,0.01396445,-0.04784049,0
 .00008229,-0.00043887,-0.00033722,0.00630991,0.01117588,-0.00192905,-0
 .00175561,-0.00057785,-0.00393239,-0.00001068,-0.00000652,-0.00002433,
 -0.00009926,-0.00002292,0.00001033,0.00004875,-0.00001243,0.00003458,0
 .00002106,-0.00003027,-0.00000017,-0.00001079,-0.00005073,-0.00002248,
 0.00001433,-0.00009891,0.00000632,-0.00040371,-0.00107955,-0.00096402,
 -0.00044110,0.00001922,0.00022626,0.00000042,-0.00001193,0.00002864,-0
 .00012757,-0.00005028,-0.00002539,-0.00011108,-0.00013926,-0.00002690,
 -0.00007300,0.00015662,-0.00011747,0.00005696,-0.00002355,0.00000493,0
 .00006262,-0.00009755,0.00018392,-0.00010987,0.00004007,-0.00004604,0.
 00027006,-0.00037067,-0.00002430,-0.00008882,0.00004349,0.00002533,-0.
 01188590,-0.02822177,0.00428740,-0.01134698,-0.01533501,0.05037683,-0.
 00341752,-0.00046843,0.00119714,0.00032824,0.00012977,-0.00013887,0.00
 026729,-0.00005016,-0.00023494,-0.00046121,-0.00026875,-0.00004426,-0.
 00147486,0.00332314,0.00027711,0.00255330,0.00282257,0.00292570,0.0099
 6668,0.00418314,0.00850621,-0.00007000,0.00017171,0.00007159,0.0000326
 2,0.00001391,-0.00002855,-0.01993199,-0.01469634,-0.01609295,0.0002575
 4,0.00036047,-0.00046585,-0.19478226,-0.11015906,-0.13093910,0.0008704
 6,-0.00019178,0.00013390,-0.00004221,0.00000345,-0.00003842,-0.0001634
 5,-0.00006709,-0.00009592,-0.00009299,0.00002743,-0.00007870,-0.000129
 35,0.00001097,0.00005138,-0.00005400,-0.00007019,0.00005184,0.00008631
 ,-0.00011358,0.00013933,-0.00018629,-0.00016775,-0.00014893,0.00052707
 ,0.00057118,0.00078081,-0.00047442,-0.00041692,-0.00027568,-0.00109240
 ,-0.00049739,-0.00154124,-0.00004917,-0.00012403,-0.00010135,0.0000189
 3,-0.00000466,0.00001295,-0.00003451,0.00000343,-0.00001350,-0.0000400
 8,0.00001022,-0.00003999,-0.00000754,0.00001139,-0.00003058,0.00001435
 ,-0.00007830,-0.00003598,0.00001223,0.00000400,0.00000553,0.00155965,-
 0.00000598,0.00036383,-0.00331265,0.00130158,0.00076122,0.20943372,0.0
 0099455,0.00034668,-0.00006042,-0.00016187,-0.00021155,0.00010713,0.00
 006428,-0.00006253,0.00042798,0.00023345,0.00070445,-0.00041870,0.0039
 8299,-0.00588479,0.00212552,-0.00143414,0.00178029,-0.00055702,-0.0185
 8855,-0.01769240,-0.02256106,0.00004108,0.00006161,-0.00014702,-0.0000
 7148,0.00004925,0.00008133,0.00233412,0.00104062,0.00242848,0.00044270
 ,-0.00052624,0.00027700,-0.11556461,-0.14593866,-0.10566119,0.00105098
 ,-0.00197685,0.00003770,-0.00004650,-0.00000863,-0.00003600,0.00011892
 ,0.00006929,0.00009963,0.00000143,0.00023033,-0.00015045,-0.00001991,0
 .00013504,-0.00001933,-0.00002724,-0.00003161,0.00007566,0.00011028,-0
 .00019818,0.00006979,0.00003666,0.00033273,0.00042954,-0.00090491,-0.0
 0065906,-0.00167541,-0.00052362,0.00021700,0.00077150,0.00174238,0.000
 44056,0.00050608,-0.00076467,0.00029600,0.00073229,0.00002396,-0.00003
 504,0.00002258,-0.00001805,0.00003531,-0.00000321,0.00007183,-0.000039
 68,0.00001652,0.00004865,-0.00001314,-0.00000954,-0.00001215,-0.000006
 44,0.00003597,0.00002437,-0.00000248,-0.00001456,0.00134962,0.00141795
 ,0.00007201,-0.00030010,0.00006167,0.00008122,0.11351025,0.15216071,0.
 00091228,0.00124586,-0.00216920,-0.00021015,0.00017762,-0.00013309,-0.
 00010505,0.00005920,0.00033137,0.00004299,-0.00081069,-0.00029812,0.00
 078786,-0.00088332,0.00071242,0.00028739,0.00037752,0.00054801,-0.0005
 4421,-0.00275993,-0.00146059,0.00000167,0.00001273,-0.00015790,-0.0001
 3278,-0.00009601,0.00009911,0.01373892,0.00969948,0.00927185,0.0003952
 9,-0.00060293,0.00024886,-0.13401811,-0.10310190,-0.18134927,-0.001316
 30,0.00224538,0.00057728,0.00012168,0.00009323,0.00010039,0.00002901,-
 0.00000928,0.00000747,-0.00000934,-0.00005183,0.00007510,0.00003551,-0
 .00000994,0.00000587,-0.00004822,0.00021983,0.00007766,0.00004155,0.00
 048258,-0.00040985,-0.00000560,0.00005535,-0.00002236,-0.00018251,-0.0
 0008143,-0.00017849,-0.00003152,0.00031263,0.00019255,0.00040120,-0.00
 032569,0.00016652,0.00033773,0.00068956,0.00025223,0.00001595,-0.00000
 661,0.00001524,-0.00000890,-0.00000726,0.00002746,0.00002101,-0.000038
 86,0.00005496,0.00004279,-0.00003010,0.00000460,-0.00002989,0.00004760
 ,0.00009912,0.00000842,-0.00000032,-0.00000410,0.00122929,0.00044229,0
 .00086874,0.00343670,-0.00019842,-0.00042817,0.13569765,0.11412324,0.1
 8893243,-0.02164814,-0.00292770,0.01851721,0.00034262,0.00030703,0.000
 56510,-0.00003329,-0.00031856,0.00007348,0.00006532,0.00205274,0.00009
 250,0.00123406,-0.00080576,0.00044654,-0.00030187,0.00028579,-0.001041
 83,-0.00110736,0.00629665,-0.00708452,-0.00034386,0.00059703,-0.000711
 71,-0.00012809,-0.00102141,0.00189300,-0.00153126,-0.01387053,0.029561
 16,0.00697924,-0.00007493,-0.00342239,-0.05439512,-0.00659181,-0.00166
 565,0.01114581,-0.00387301,-0.00568356,-0.00030863,-0.00022454,-0.0001
 7890,-0.00007731,-0.00001617,-0.00007377,0.00061334,-0.00007997,-0.000
 38777,-0.00010395,-0.00010063,-0.00005180,0.00018597,-0.00084846,-0.00
 017340,-0.00076070,-0.00145715,0.00098477,-0.00040645,-0.00030835,0.00
 017307,-0.00033697,-0.00011247,-0.00032541,0.00007428,-0.00027940,0.00
 025470,-0.00022288,0.00014025,-0.00008851,-0.00008990,0.00018107,0.000
 45787,0.00024670,-0.00004979,0.00009411,-0.00043263,0.00037511,-0.0003
 5254,0.00021479,-0.00015879,-0.00001604,0.00022728,0.00011303,-0.00046
 956,-0.00021699,0.00030468,-0.00033287,0.00028970,0.00025286,-0.000436
 20,-0.00424594,0.00014778,0.00061546,-0.00311816,0.00068351,0.00117335
 ,-0.00011150,0.01225528,-0.02094231,0.06830189,0.01213710,0.00581308,-
 0.01288101,0.00044258,-0.00020380,-0.00013935,0.00083260,-0.00034067,-
 0.00018312,0.00012962,0.00048205,-0.00030394,-0.00158857,0.00049008,0.
 00033979,0.00033096,0.00085748,0.00001694,0.00226451,-0.01693048,0.024
 16673,0.00057548,-0.00038431,0.00058161,0.00005454,0.00122453,-0.00111
 066,-0.00941911,0.00177165,0.00259923,-0.00569931,0.00008056,0.0044157
 8,-0.00185875,-0.11733282,0.10354224,-0.01086318,-0.00779832,0.0047109
 5,-0.00014571,0.00001001,-0.00004109,-0.00010236,0.00002339,0.00014234
 ,-0.00050746,0.00085752,-0.00127071,-0.00040307,0.00049386,0.00021904,
 -0.00015215,0.00008266,0.00004653,0.00004403,0.00024336,-0.00019574,-0
 .00013159,-0.00028328,-0.00011935,0.00023306,0.00061727,0.00044898,-0.
 00036899,0.00006161,0.00004067,0.00013196,-0.00003812,0.00000577,0.001
 84186,-0.00335389,-0.00122591,-0.00019533,-0.00003339,0.00000332,0.000
 31725,-0.00024583,0.00023983,-0.00008833,0.00014034,-0.00004414,-0.000
 28620,-0.00013603,0.00045676,0.00007798,-0.00018123,0.00021538,-0.0002
 1824,-0.00015906,0.00026751,0.00196766,-0.00074729,-0.00009252,0.00059
 873,-0.00067378,0.00065555,0.00092180,0.01390778,-0.02126957,0.0091266
 4,0.12168508,-0.00587741,-0.00398883,0.01180000,0.00045201,0.00049383,
 -0.00025911,0.00123779,-0.00207358,0.00139627,0.00013571,-0.00068569,0
 .00038528,0.00079549,-0.00108463,0.00153227,-0.00068455,-0.00047078,0.
 00041761,-0.00433327,0.00298801,0.01439028,-0.00058380,0.00050471,-0.0
 0030434,0.00029251,-0.00059796,0.00116768,0.01832794,0.00339533,-0.017
 15750,0.00539610,0.00112842,-0.00431417,-0.00987412,0.09679242,-0.2493
 4120,0.00622073,-0.00003778,-0.01228674,-0.00035513,0.00005016,0.00002
 631,0.00004643,-0.00009837,-0.00020975,-0.00058623,0.00029119,-0.00233
 798,-0.00054178,0.00085251,-0.00021156,-0.00005930,0.00026654,-0.00029
 115,0.00079454,0.00018968,-0.00023975,-0.00017022,-0.00002303,-0.00010
 707,-0.00027818,0.00003009,-0.00077173,0.00044118,0.00006875,-0.000306
 15,-0.00019047,0.00003438,-0.00036517,0.00174764,-0.00450012,-0.000304
 30,0.00008890,0.00001399,0.00005560,-0.00026665,0.00020878,-0.00017324
 ,0.00007132,-0.00006969,-0.00007477,0.00020709,0.00007490,-0.00031714,
 -0.00002596,0.00013513,-0.00018559,0.00025882,0.00014976,-0.00035529,0
 .00038724,0.00138491,-0.00078432,-0.00097942,0.00002211,-0.00086947,-0
 .00063135,0.00879275,-0.01605810,-0.01146361,-0.10423785,0.27645427\\-
 0.00000183,-0.00000443,0.00000488,-0.00000119,-0.00000065,-0.00000057,
 0.00000016,-0.00000091,-0.00000051,0.00000089,-0.00000007,0.00000147,-
 0.00000017,-0.00000013,-0.00000022,0.00000069,-0.00000071,-0.00000085,
 -0.00000496,0.00000528,0.00000071,-0.00000339,0.00000378,-0.00000455,-
 0.00000212,0.00000042,-0.00000078,-0.00000540,0.00000341,0.00000085,0.
 00000729,-0.00000480,0.00000312,0.00000318,-0.00000503,-0.00000518,0.0
 0000260,0.00000305,-0.00000292,0.00000037,-0.00000055,0.00000039,0.000
 00052,-0.00000067,0.00000031,0.00000060,0.00000007,0.00000039,-0.00000
 003,0.00000002,0.00000024,-0.00000027,-0.00000029,0.00000053,0.0000001
 2,-0.00000013,-0.00000007,-0.00000007,-0.00000067,-0.00000050,0.000000
 05,0.00000012,0.00000072,-0.00000009,-0.00000014,0.00000048,0.00000027
 ,-0.00000022,0.00000043,-0.00000018,0.00000041,0.00000072,0.00000082,-
 0.00000019,0.00000044,0.00000077,0.00000021,0.00000004,0.00000069,-0.0
 0000053,0.00000009,0.00000047,0.00000125,-0.00000020,-0.00000005,0.000
 00113,-0.00000051,0.00000019,0.00000085,-0.00000152,0.00000038,0.00000
 007,-0.00000011,0.00000052,0.00000085,-0.00000055,-0.00000047,-0.00000
 004,0.00000105,-0.00000036,-0.00000075,0.00000221\\\@


 Where a calculator on the ENIAC is equipped with 18,000
 vacuum tubes and weighs 30 tons, computers inthe future
 may  have only 1,000 vacuum tubes and weigh only 1 1/2 tons.
              ---Popular Mechanics, March 1949
 Job cpu time:  0 days  2 hours 19 minutes 40.7 seconds.
 File lengths (MBytes):  RWF=    241 Int=      0 D2E=      0 Chk=      6 Scr=      1
 Normal termination of Gaussian 09 at Fri Feb 16 19:49:54 2018.
