 Entering Gaussian System, Link 0=g09
 Initial command:
 /home/fb_chem/chemsoft/lx24-amd64/Gaussian_09_C.01_NBO_3.1_64_istanbul-64/g09/l1.exe /local/2397338.1.parallel_long/Gau-16603.inp -scrdir=/local/2397338.1.parallel_long/
 Entering Link 1 = /home/fb_chem/chemsoft/lx24-amd64/Gaussian_09_C.01_NBO_3.1_64_istanbul-64/g09/l1.exe PID=     16604.
  
 Copyright (c) 1988,1990,1992,1993,1995,1998,2003,2009,2011,
            Gaussian, Inc.  All Rights Reserved.
  
 This is part of the Gaussian(R) 09 program.  It is based on
 the Gaussian(R) 03 system (copyright 2003, Gaussian, Inc.),
 the Gaussian(R) 98 system (copyright 1998, Gaussian, Inc.),
 the Gaussian(R) 94 system (copyright 1995, Gaussian, Inc.),
 the Gaussian 92(TM) system (copyright 1992, Gaussian, Inc.),
 the Gaussian 90(TM) system (copyright 1990, Gaussian, Inc.),
 the Gaussian 88(TM) system (copyright 1988, Gaussian, Inc.),
 the Gaussian 86(TM) system (copyright 1986, Carnegie Mellon
 University), and the Gaussian 82(TM) system (copyright 1983,
 Carnegie Mellon University). Gaussian is a federally registered
 trademark of Gaussian, Inc.
  
 This software contains proprietary and confidential information,
 including trade secrets, belonging to Gaussian, Inc.
  
 This software is provided under written license and may be
 used, copied, transmitted, or stored only in accord with that
 written license.
  
 The following legend is applicable only to US Government
 contracts under FAR:
  
                    RESTRICTED RIGHTS LEGEND
  
 Use, reproduction and disclosure by the US Government is
 subject to restrictions as set forth in subparagraphs (a)
 and (c) of the Commercial Computer Software - Restricted
 Rights clause in FAR 52.227-19.
  
 Gaussian, Inc.
 340 Quinnipiac St., Bldg. 40, Wallingford CT 06492
  
  
 ---------------------------------------------------------------
 Warning -- This program may not be used in any manner that
 competes with the business of Gaussian, Inc. or will provide
 assistance to any competitor of Gaussian, Inc.  The licensee
 of this program is prohibited from giving any competitor of
 Gaussian, Inc. access to this program.  By using this program,
 the user acknowledges that Gaussian, Inc. is engaged in the
 business of creating and licensing software in the field of
 computational chemistry and represents and warrants to the
 licensee that it is not a competitor of Gaussian, Inc. and that
 it will not use this program in any manner prohibited above.
 ---------------------------------------------------------------
  

 Cite this work as:
 Gaussian 09, Revision C.01,
 M. J. Frisch, G. W. Trucks, H. B. Schlegel, G. E. Scuseria, 
 M. A. Robb, J. R. Cheeseman, G. Scalmani, V. Barone, B. Mennucci, 
 G. A. Petersson, H. Nakatsuji, M. Caricato, X. Li, H. P. Hratchian, 
 A. F. Izmaylov, J. Bloino, G. Zheng, J. L. Sonnenberg, M. Hada, 
 M. Ehara, K. Toyota, R. Fukuda, J. Hasegawa, M. Ishida, T. Nakajima, 
 Y. Honda, O. Kitao, H. Nakai, T. Vreven, J. A. Montgomery, Jr., 
 J. E. Peralta, F. Ogliaro, M. Bearpark, J. J. Heyd, E. Brothers, 
 K. N. Kudin, V. N. Staroverov, T. Keith, R. Kobayashi, J. Normand, 
 K. Raghavachari, A. Rendell, J. C. Burant, S. S. Iyengar, J. Tomasi, 
 M. Cossi, N. Rega, J. M. Millam, M. Klene, J. E. Knox, J. B. Cross, 
 V. Bakken, C. Adamo, J. Jaramillo, R. Gomperts, R. E. Stratmann, 
 O. Yazyev, A. J. Austin, R. Cammi, C. Pomelli, J. W. Ochterski, 
 R. L. Martin, K. Morokuma, V. G. Zakrzewski, G. A. Voth, 
 P. Salvador, J. J. Dannenberg, S. Dapprich, A. D. Daniels, 
 O. Farkas, J. B. Foresman, J. V. Ortiz, J. Cioslowski, 
 and D. J. Fox, Gaussian, Inc., Wallingford CT, 2010.
 
 ******************************************
 Gaussian 09:  AM64L-G09RevC.01 23-Sep-2011
                16-Feb-2018 
 ******************************************
 %nprocs=4
 Will use up to    4 processors via shared memory.
 %chk=frag16-conf1.chk
 ---------------------------------------------------------
 #B3LYP/6-31G* Integral=(Grid=UltraFine) freq Opt pop=none
 ---------------------------------------------------------
 1/14=-1,18=20,19=15,26=3,38=1/1,3;
 2/9=110,12=2,17=6,18=5,40=1/2;
 3/5=1,6=6,7=1,11=2,16=1,25=1,30=1,71=1,74=-5,75=-5/1,2,3;
 4//1;
 5/5=2,38=5/2;
 7//1,2,3,16;
 1/14=-1,18=20,19=15/3(2);
 2/9=110/2;
 99//99;
 2/9=110/2;
 3/5=1,6=6,7=1,11=2,16=1,25=1,30=1,71=1,74=-5,75=-5/1,2,3;
 4/5=5,16=3/1;
 5/5=2,38=5/2;
 7//1,2,3,16;
 1/14=-1,18=20,19=15/3(-5);
 2/9=110/2;
 99/9=1/99;
 -----------------------------
 Optimization for frag16-conf1
 -----------------------------
 Charge =  0 Multiplicity = 1
 Symbolic Z-Matrix:
 C                     5.59845  -5.27742  -1.13256 
 C                     5.89909  -2.52844  -2.79704 
 C                    -0.31127  -4.02395  -0.32526 
 C                    -0.306    -3.15899  -1.57947 
 C                     0.92612  -3.76957   0.52635 
 C                     0.97329  -3.35526  -2.38749 
 C                     2.21621  -3.95504  -0.27121 
 C                     2.23828  -3.09817  -1.54685 
 C                     6.17535  -6.05407   0.02015 
 C                     6.71665  -0.93498  -4.48956 
 C                     4.70634  -0.32271  -3.2078 
 C                     3.49034  -3.34423  -2.42046 
 C                     4.82247  -2.94869  -1.75165 
 N                     5.36023  -3.95941  -0.82926 
 N                     5.74909  -1.31261  -3.46565 
 O                     5.36022  -5.79772  -2.21904 
 O                     6.86803  -3.26053  -3.04209 
 H                    -1.21303  -3.81788   0.26216 
 H                    -0.34908  -5.08266  -0.6097 
 H                    -1.17496  -3.40478  -2.20023 
 H                    -0.40239  -2.10318  -1.29802 
 H                     0.89021  -2.74833   0.9256 
 H                     0.92628  -4.4477    1.38728 
 H                     0.99379  -4.37815  -2.78525 
 H                     0.95621  -2.67981  -3.25135 
 H                     3.05466  -3.69081   0.38096 
 H                     2.33053  -5.01449  -0.53283 
 H                     2.23149  -2.04101  -1.24833 
 H                     5.43107  -6.13292   0.81738 
 H                     6.45208  -7.05802  -0.31311 
 H                     7.06807  -5.55085   0.4022 
 H                     6.17955  -0.7146   -5.41698 
 H                     7.44599  -1.72409  -4.68718 
 H                     7.24819  -0.03924  -4.15469 
 H                     5.18469   0.62335  -2.93651 
 H                     4.02773  -0.6058   -2.40583 
 H                     4.12638  -0.18367  -4.12509 
 H                     3.50195  -4.38998  -2.74374 
 H                     3.36708  -2.76661  -3.3452 
 H                     4.6638   -2.07791  -1.10551 
 H                     5.63589  -3.63083   0.092 
 

 GradGradGradGradGradGradGradGradGradGradGradGradGradGradGradGradGradGrad
 Berny optimization.
 Initialization pass.
                           ----------------------------
                           !    Initial Parameters    !
                           ! (Angstroms and Degrees)  !
 --------------------------                            --------------------------
 ! Name  Definition              Value          Derivative Info.                !
 --------------------------------------------------------------------------------
 ! R1    R(1,9)                  1.5049         estimate D2E/DX2                !
 ! R2    R(1,14)                 1.3733         estimate D2E/DX2                !
 ! R3    R(1,16)                 1.228          estimate D2E/DX2                !
 ! R4    R(2,13)                 1.5584         estimate D2E/DX2                !
 ! R5    R(2,15)                 1.3956         estimate D2E/DX2                !
 ! R6    R(2,17)                 1.2389         estimate D2E/DX2                !
 ! R7    R(3,4)                  1.5236         estimate D2E/DX2                !
 ! R8    R(3,5)                  1.5235         estimate D2E/DX2                !
 ! R9    R(3,18)                 1.0958         estimate D2E/DX2                !
 ! R10   R(3,19)                 1.0969         estimate D2E/DX2                !
 ! R11   R(4,6)                  1.5258         estimate D2E/DX2                !
 ! R12   R(4,20)                 1.0958         estimate D2E/DX2                !
 ! R13   R(4,21)                 1.0969         estimate D2E/DX2                !
 ! R14   R(5,7)                  1.528          estimate D2E/DX2                !
 ! R15   R(5,22)                 1.0971         estimate D2E/DX2                !
 ! R16   R(5,23)                 1.0959         estimate D2E/DX2                !
 ! R17   R(6,8)                  1.5404         estimate D2E/DX2                !
 ! R18   R(6,24)                 1.0977         estimate D2E/DX2                !
 ! R19   R(6,25)                 1.0967         estimate D2E/DX2                !
 ! R20   R(7,8)                  1.5369         estimate D2E/DX2                !
 ! R21   R(7,26)                 1.0946         estimate D2E/DX2                !
 ! R22   R(7,27)                 1.0972         estimate D2E/DX2                !
 ! R23   R(8,12)                 1.5464         estimate D2E/DX2                !
 ! R24   R(8,28)                 1.0985         estimate D2E/DX2                !
 ! R25   R(9,29)                 1.0935         estimate D2E/DX2                !
 ! R26   R(9,30)                 1.0934         estimate D2E/DX2                !
 ! R27   R(9,31)                 1.0937         estimate D2E/DX2                !
 ! R28   R(10,15)                1.4585         estimate D2E/DX2                !
 ! R29   R(10,32)                1.0941         estimate D2E/DX2                !
 ! R30   R(10,33)                1.0926         estimate D2E/DX2                !
 ! R31   R(10,34)                1.0941         estimate D2E/DX2                !
 ! R32   R(11,15)                1.4607         estimate D2E/DX2                !
 ! R33   R(11,35)                1.0943         estimate D2E/DX2                !
 ! R34   R(11,36)                1.088          estimate D2E/DX2                !
 ! R35   R(11,37)                1.0941         estimate D2E/DX2                !
 ! R36   R(12,13)                1.5422         estimate D2E/DX2                !
 ! R37   R(12,38)                1.0946         estimate D2E/DX2                !
 ! R38   R(12,39)                1.0973         estimate D2E/DX2                !
 ! R39   R(13,14)                1.4702         estimate D2E/DX2                !
 ! R40   R(13,40)                1.0959         estimate D2E/DX2                !
 ! R41   R(14,41)                1.0162         estimate D2E/DX2                !
 ! A1    A(9,1,14)             113.1185         estimate D2E/DX2                !
 ! A2    A(9,1,16)             122.2369         estimate D2E/DX2                !
 ! A3    A(14,1,16)            124.6396         estimate D2E/DX2                !
 ! A4    A(13,2,15)            118.8191         estimate D2E/DX2                !
 ! A5    A(13,2,17)            120.9069         estimate D2E/DX2                !
 ! A6    A(15,2,17)            120.2719         estimate D2E/DX2                !
 ! A7    A(4,3,5)              111.2575         estimate D2E/DX2                !
 ! A8    A(4,3,18)             109.7177         estimate D2E/DX2                !
 ! A9    A(4,3,19)             109.5482         estimate D2E/DX2                !
 ! A10   A(5,3,18)             109.7152         estimate D2E/DX2                !
 ! A11   A(5,3,19)             109.5183         estimate D2E/DX2                !
 ! A12   A(18,3,19)            106.9868         estimate D2E/DX2                !
 ! A13   A(3,4,6)              111.4586         estimate D2E/DX2                !
 ! A14   A(3,4,20)             109.6483         estimate D2E/DX2                !
 ! A15   A(3,4,21)             109.5675         estimate D2E/DX2                !
 ! A16   A(6,4,20)             109.6346         estimate D2E/DX2                !
 ! A17   A(6,4,21)             109.4735         estimate D2E/DX2                !
 ! A18   A(20,4,21)            106.9511         estimate D2E/DX2                !
 ! A19   A(3,5,7)              111.944          estimate D2E/DX2                !
 ! A20   A(3,5,22)             109.4063         estimate D2E/DX2                !
 ! A21   A(3,5,23)             109.6287         estimate D2E/DX2                !
 ! A22   A(7,5,22)             109.3028         estimate D2E/DX2                !
 ! A23   A(7,5,23)             109.5607         estimate D2E/DX2                !
 ! A24   A(22,5,23)            106.8648         estimate D2E/DX2                !
 ! A25   A(4,6,8)              112.2136         estimate D2E/DX2                !
 ! A26   A(4,6,24)             109.1127         estimate D2E/DX2                !
 ! A27   A(4,6,25)             108.9574         estimate D2E/DX2                !
 ! A28   A(8,6,24)             109.7501         estimate D2E/DX2                !
 ! A29   A(8,6,25)             109.8676         estimate D2E/DX2                !
 ! A30   A(24,6,25)            106.7848         estimate D2E/DX2                !
 ! A31   A(5,7,8)              112.1904         estimate D2E/DX2                !
 ! A32   A(5,7,26)             107.8442         estimate D2E/DX2                !
 ! A33   A(5,7,27)             109.245          estimate D2E/DX2                !
 ! A34   A(8,7,26)             110.4233         estimate D2E/DX2                !
 ! A35   A(8,7,27)             109.8119         estimate D2E/DX2                !
 ! A36   A(26,7,27)            107.178          estimate D2E/DX2                !
 ! A37   A(6,8,7)              110.3721         estimate D2E/DX2                !
 ! A38   A(6,8,12)             109.2708         estimate D2E/DX2                !
 ! A39   A(6,8,28)             107.6875         estimate D2E/DX2                !
 ! A40   A(7,8,12)             113.0674         estimate D2E/DX2                !
 ! A41   A(7,8,28)             108.1133         estimate D2E/DX2                !
 ! A42   A(12,8,28)            108.1589         estimate D2E/DX2                !
 ! A43   A(1,9,29)             109.5556         estimate D2E/DX2                !
 ! A44   A(1,9,30)             109.719          estimate D2E/DX2                !
 ! A45   A(1,9,31)             110.0612         estimate D2E/DX2                !
 ! A46   A(29,9,30)            109.1638         estimate D2E/DX2                !
 ! A47   A(29,9,31)            109.5161         estimate D2E/DX2                !
 ! A48   A(30,9,31)            108.806          estimate D2E/DX2                !
 ! A49   A(15,10,32)           108.7571         estimate D2E/DX2                !
 ! A50   A(15,10,33)           112.5094         estimate D2E/DX2                !
 ! A51   A(15,10,34)           108.6265         estimate D2E/DX2                !
 ! A52   A(32,10,33)           108.6539         estimate D2E/DX2                !
 ! A53   A(32,10,34)           109.4522         estimate D2E/DX2                !
 ! A54   A(33,10,34)           108.8064         estimate D2E/DX2                !
 ! A55   A(15,11,35)           108.5172         estimate D2E/DX2                !
 ! A56   A(15,11,36)           113.5169         estimate D2E/DX2                !
 ! A57   A(15,11,37)           108.4522         estimate D2E/DX2                !
 ! A58   A(35,11,36)           108.3527         estimate D2E/DX2                !
 ! A59   A(35,11,37)           109.2507         estimate D2E/DX2                !
 ! A60   A(36,11,37)           108.688          estimate D2E/DX2                !
 ! A61   A(8,12,13)            114.4292         estimate D2E/DX2                !
 ! A62   A(8,12,38)            109.1138         estimate D2E/DX2                !
 ! A63   A(8,12,39)            107.5411         estimate D2E/DX2                !
 ! A64   A(13,12,38)           111.3419         estimate D2E/DX2                !
 ! A65   A(13,12,39)           109.1175         estimate D2E/DX2                !
 ! A66   A(38,12,39)           104.7859         estimate D2E/DX2                !
 ! A67   A(2,13,12)            112.0249         estimate D2E/DX2                !
 ! A68   A(2,13,14)            110.705          estimate D2E/DX2                !
 ! A69   A(2,13,40)            106.3358         estimate D2E/DX2                !
 ! A70   A(12,13,14)           114.3125         estimate D2E/DX2                !
 ! A71   A(12,13,40)           109.5381         estimate D2E/DX2                !
 ! A72   A(14,13,40)           103.2557         estimate D2E/DX2                !
 ! A73   A(1,14,13)            125.78           estimate D2E/DX2                !
 ! A74   A(1,14,41)            117.6134         estimate D2E/DX2                !
 ! A75   A(13,14,41)           116.4682         estimate D2E/DX2                !
 ! A76   A(2,15,10)            119.3788         estimate D2E/DX2                !
 ! A77   A(2,15,11)            125.629          estimate D2E/DX2                !
 ! A78   A(10,15,11)           114.9634         estimate D2E/DX2                !
 ! D1    D(14,1,9,29)           66.8071         estimate D2E/DX2                !
 ! D2    D(14,1,9,30)         -173.366          estimate D2E/DX2                !
 ! D3    D(14,1,9,31)          -53.6661         estimate D2E/DX2                !
 ! D4    D(16,1,9,29)         -112.4136         estimate D2E/DX2                !
 ! D5    D(16,1,9,30)            7.4133         estimate D2E/DX2                !
 ! D6    D(16,1,9,31)          127.1131         estimate D2E/DX2                !
 ! D7    D(9,1,14,13)          178.9535         estimate D2E/DX2                !
 ! D8    D(9,1,14,41)            3.3967         estimate D2E/DX2                !
 ! D9    D(16,1,14,13)          -1.8477         estimate D2E/DX2                !
 ! D10   D(16,1,14,41)        -177.4044         estimate D2E/DX2                !
 ! D11   D(15,2,13,12)          71.4836         estimate D2E/DX2                !
 ! D12   D(15,2,13,14)        -159.6364         estimate D2E/DX2                !
 ! D13   D(15,2,13,40)         -48.1536         estimate D2E/DX2                !
 ! D14   D(17,2,13,12)        -107.9868         estimate D2E/DX2                !
 ! D15   D(17,2,13,14)          20.8931         estimate D2E/DX2                !
 ! D16   D(17,2,13,40)         132.376          estimate D2E/DX2                !
 ! D17   D(13,2,15,10)        -177.2574         estimate D2E/DX2                !
 ! D18   D(13,2,15,11)           4.7975         estimate D2E/DX2                !
 ! D19   D(17,2,15,10)           2.2164         estimate D2E/DX2                !
 ! D20   D(17,2,15,11)        -175.7286         estimate D2E/DX2                !
 ! D21   D(5,3,4,6)             55.1112         estimate D2E/DX2                !
 ! D22   D(5,3,4,20)           176.6928         estimate D2E/DX2                !
 ! D23   D(5,3,4,21)           -66.2125         estimate D2E/DX2                !
 ! D24   D(18,3,4,6)           176.7085         estimate D2E/DX2                !
 ! D25   D(18,3,4,20)          -61.7099         estimate D2E/DX2                !
 ! D26   D(18,3,4,21)           55.3848         estimate D2E/DX2                !
 ! D27   D(19,3,4,6)           -66.1245         estimate D2E/DX2                !
 ! D28   D(19,3,4,20)           55.4571         estimate D2E/DX2                !
 ! D29   D(19,3,4,21)          172.5518         estimate D2E/DX2                !
 ! D30   D(4,3,5,7)            -54.7277         estimate D2E/DX2                !
 ! D31   D(4,3,5,22)            66.5896         estimate D2E/DX2                !
 ! D32   D(4,3,5,23)          -176.525          estimate D2E/DX2                !
 ! D33   D(18,3,5,7)          -176.3266         estimate D2E/DX2                !
 ! D34   D(18,3,5,22)          -55.0092         estimate D2E/DX2                !
 ! D35   D(18,3,5,23)           61.8761         estimate D2E/DX2                !
 ! D36   D(19,3,5,7)            66.5254         estimate D2E/DX2                !
 ! D37   D(19,3,5,22)         -172.1573         estimate D2E/DX2                !
 ! D38   D(19,3,5,23)          -55.2719         estimate D2E/DX2                !
 ! D39   D(3,4,6,8)            -55.3438         estimate D2E/DX2                !
 ! D40   D(3,4,6,24)            66.5142         estimate D2E/DX2                !
 ! D41   D(3,4,6,25)          -177.2425         estimate D2E/DX2                !
 ! D42   D(20,4,6,8)          -176.9334         estimate D2E/DX2                !
 ! D43   D(20,4,6,24)          -55.0753         estimate D2E/DX2                !
 ! D44   D(20,4,6,25)           61.1679         estimate D2E/DX2                !
 ! D45   D(21,4,6,8)            66.0346         estimate D2E/DX2                !
 ! D46   D(21,4,6,24)         -172.1074         estimate D2E/DX2                !
 ! D47   D(21,4,6,25)          -55.8641         estimate D2E/DX2                !
 ! D48   D(3,5,7,8)             54.367          estimate D2E/DX2                !
 ! D49   D(3,5,7,26)           176.1848         estimate D2E/DX2                !
 ! D50   D(3,5,7,27)           -67.6463         estimate D2E/DX2                !
 ! D51   D(22,5,7,8)           -67.0101         estimate D2E/DX2                !
 ! D52   D(22,5,7,26)           54.8078         estimate D2E/DX2                !
 ! D53   D(22,5,7,27)          170.9767         estimate D2E/DX2                !
 ! D54   D(23,5,7,8)           176.2033         estimate D2E/DX2                !
 ! D55   D(23,5,7,26)          -61.9788         estimate D2E/DX2                !
 ! D56   D(23,5,7,27)           54.1901         estimate D2E/DX2                !
 ! D57   D(4,6,8,7)             53.8882         estimate D2E/DX2                !
 ! D58   D(4,6,8,12)           178.8196         estimate D2E/DX2                !
 ! D59   D(4,6,8,28)           -63.9204         estimate D2E/DX2                !
 ! D60   D(24,6,8,7)           -67.6054         estimate D2E/DX2                !
 ! D61   D(24,6,8,12)           57.326          estimate D2E/DX2                !
 ! D62   D(24,6,8,28)          174.586          estimate D2E/DX2                !
 ! D63   D(25,6,8,7)           175.2662         estimate D2E/DX2                !
 ! D64   D(25,6,8,12)          -59.8023         estimate D2E/DX2                !
 ! D65   D(25,6,8,28)           57.4577         estimate D2E/DX2                !
 ! D66   D(5,7,8,6)            -53.2211         estimate D2E/DX2                !
 ! D67   D(5,7,8,12)          -175.9586         estimate D2E/DX2                !
 ! D68   D(5,7,8,28)            64.3253         estimate D2E/DX2                !
 ! D69   D(26,7,8,6)          -173.554          estimate D2E/DX2                !
 ! D70   D(26,7,8,12)           63.7085         estimate D2E/DX2                !
 ! D71   D(26,7,8,28)          -56.0076         estimate D2E/DX2                !
 ! D72   D(27,7,8,6)            68.4685         estimate D2E/DX2                !
 ! D73   D(27,7,8,12)          -54.269          estimate D2E/DX2                !
 ! D74   D(27,7,8,28)         -173.9851         estimate D2E/DX2                !
 ! D75   D(6,8,12,13)          172.6059         estimate D2E/DX2                !
 ! D76   D(6,8,12,38)          -61.9115         estimate D2E/DX2                !
 ! D77   D(6,8,12,39)           51.2179         estimate D2E/DX2                !
 ! D78   D(7,8,12,13)          -64.0463         estimate D2E/DX2                !
 ! D79   D(7,8,12,38)           61.4363         estimate D2E/DX2                !
 ! D80   D(7,8,12,39)          174.5658         estimate D2E/DX2                !
 ! D81   D(28,8,12,13)          55.6437         estimate D2E/DX2                !
 ! D82   D(28,8,12,38)        -178.8737         estimate D2E/DX2                !
 ! D83   D(28,8,12,39)         -65.7443         estimate D2E/DX2                !
 ! D84   D(32,10,15,2)         125.2789         estimate D2E/DX2                !
 ! D85   D(32,10,15,11)        -56.5634         estimate D2E/DX2                !
 ! D86   D(33,10,15,2)           4.8561         estimate D2E/DX2                !
 ! D87   D(33,10,15,11)       -176.9862         estimate D2E/DX2                !
 ! D88   D(34,10,15,2)        -115.6693         estimate D2E/DX2                !
 ! D89   D(34,10,15,11)         62.4884         estimate D2E/DX2                !
 ! D90   D(35,11,15,2)         121.4743         estimate D2E/DX2                !
 ! D91   D(35,11,15,10)        -56.5505         estimate D2E/DX2                !
 ! D92   D(36,11,15,2)           0.9514         estimate D2E/DX2                !
 ! D93   D(36,11,15,10)       -177.0735         estimate D2E/DX2                !
 ! D94   D(37,11,15,2)        -119.951          estimate D2E/DX2                !
 ! D95   D(37,11,15,10)         62.0242         estimate D2E/DX2                !
 ! D96   D(8,12,13,2)         -151.2969         estimate D2E/DX2                !
 ! D97   D(8,12,13,14)          81.7425         estimate D2E/DX2                !
 ! D98   D(8,12,13,40)         -33.5542         estimate D2E/DX2                !
 ! D99   D(38,12,13,2)          84.3978         estimate D2E/DX2                !
 ! D100  D(38,12,13,14)        -42.5628         estimate D2E/DX2                !
 ! D101  D(38,12,13,40)       -157.8596         estimate D2E/DX2                !
 ! D102  D(39,12,13,2)         -30.7797         estimate D2E/DX2                !
 ! D103  D(39,12,13,14)       -157.7403         estimate D2E/DX2                !
 ! D104  D(39,12,13,40)         86.9629         estimate D2E/DX2                !
 ! D105  D(2,13,14,1)          -73.4718         estimate D2E/DX2                !
 ! D106  D(2,13,14,41)         102.1302         estimate D2E/DX2                !
 ! D107  D(12,13,14,1)          54.1667         estimate D2E/DX2                !
 ! D108  D(12,13,14,41)       -130.2314         estimate D2E/DX2                !
 ! D109  D(40,13,14,1)         173.0778         estimate D2E/DX2                !
 ! D110  D(40,13,14,41)        -11.3203         estimate D2E/DX2                !
 --------------------------------------------------------------------------------
 Trust Radius=3.00D-01 FncErr=1.00D-07 GrdErr=1.00D-06
 Number of steps in this run=    239 maximum allowed number of steps=    246.
 GradGradGradGradGradGradGradGradGradGradGradGradGradGradGradGradGradGrad

                          Input orientation:                          
 ---------------------------------------------------------------------
 Center     Atomic      Atomic             Coordinates (Angstroms)
 Number     Number       Type             X           Y           Z
 ---------------------------------------------------------------------
      1          6           0        5.598450   -5.277425   -1.132559
      2          6           0        5.899093   -2.528437   -2.797043
      3          6           0       -0.311266   -4.023948   -0.325257
      4          6           0       -0.305996   -3.158990   -1.579469
      5          6           0        0.926115   -3.769571    0.526354
      6          6           0        0.973288   -3.355255   -2.387486
      7          6           0        2.216215   -3.955038   -0.271208
      8          6           0        2.238280   -3.098172   -1.546850
      9          6           0        6.175355   -6.054074    0.020151
     10          6           0        6.716652   -0.934982   -4.489562
     11          6           0        4.706337   -0.322706   -3.207797
     12          6           0        3.490335   -3.344235   -2.420461
     13          6           0        4.822471   -2.948695   -1.751654
     14          7           0        5.360233   -3.959409   -0.829256
     15          7           0        5.749087   -1.312607   -3.465646
     16          8           0        5.360222   -5.797717   -2.219038
     17          8           0        6.868031   -3.260534   -3.042089
     18          1           0       -1.213031   -3.817880    0.262156
     19          1           0       -0.349083   -5.082663   -0.609704
     20          1           0       -1.174961   -3.404783   -2.200231
     21          1           0       -0.402387   -2.103179   -1.298017
     22          1           0        0.890212   -2.748328    0.925602
     23          1           0        0.926276   -4.447700    1.387282
     24          1           0        0.993793   -4.378155   -2.785250
     25          1           0        0.956213   -2.679807   -3.251352
     26          1           0        3.054657   -3.690806    0.380963
     27          1           0        2.330528   -5.014490   -0.532829
     28          1           0        2.231488   -2.041013   -1.248326
     29          1           0        5.431068   -6.132921    0.817377
     30          1           0        6.452081   -7.058018   -0.313115
     31          1           0        7.068069   -5.550850    0.402204
     32          1           0        6.179554   -0.714603   -5.416977
     33          1           0        7.445989   -1.724091   -4.687182
     34          1           0        7.248188   -0.039244   -4.154686
     35          1           0        5.184693    0.623348   -2.936508
     36          1           0        4.027730   -0.605805   -2.405833
     37          1           0        4.126379   -0.183673   -4.125090
     38          1           0        3.501955   -4.389982   -2.743738
     39          1           0        3.367076   -2.766615   -3.345200
     40          1           0        4.663802   -2.077914   -1.105512
     41          1           0        5.635888   -3.630826    0.091997
 ---------------------------------------------------------------------
                    Distance matrix (angstroms):
                    1          2          3          4          5
     1  C    0.000000
     2  C    3.227666   0.000000
     3  C    6.094890   6.849441   0.000000
     4  C    6.288877   6.354778   1.523557   0.000000
     5  C    5.182309   6.108673   1.523503   2.515034   0.000000
     6  C    5.163497   5.011479   2.519924   1.525771   2.943526
     7  C    3.732312   4.688137   2.528997   2.950726   1.528024
     8  C    4.026354   3.910132   2.974817   2.545212   2.543762
     9  C    1.504907   4.521396   6.805657   7.276552   5.747148
    10  C    5.601486   2.464167   8.733543   7.920381   8.168514
    11  C    5.445338   2.540990   6.869103   5.984935   6.333627
    12  C    3.136887   2.570885   4.393639   3.892777   3.929358
    13  C    2.531483   1.558387   5.435626   5.135664   4.587455
    14  N    1.373283   2.492035   5.694215   5.771451   4.640594
    15  N    4.602800   1.395627   7.344473   6.605363   6.725607
    16  O    1.227962   3.363430   6.236861   6.283148   5.595699
    17  O    3.053848   1.238892   7.714032   7.322311   6.949767
    18  H    7.104349   7.848800   1.095763   2.156022   2.155941
    19  H    5.973647   7.095648   1.096913   2.154719   2.154290
    20  H    7.108151   7.153070   2.155194   1.095837   3.461481
    21  H    6.790674   6.491269   2.154975   1.096924   2.805371
    22  H    5.727117   6.244624   2.152999   2.806232   1.097099
    23  H    5.372826   6.776507   2.154963   3.461340   1.095927
    24  H    4.974228   5.242476   2.807171   2.151679   3.367740
    25  H    5.726017   4.966021   3.460528   2.148949   3.931863
    26  H    3.358421   4.420592   3.455310   3.926845   2.134955
    27  H    3.332885   4.903241   2.829017   3.389630   2.155010
    28  H    4.671637   4.010914   3.354055   2.792553   2.800249
    29  H    2.135917   5.125952   6.223165   6.892244   5.095558
    30  H    2.137917   5.195460   7.412732   7.904282   6.484974
    31  H    2.142437   4.553753   7.570681   8.001553   6.396245
    32  H    6.285958   3.198860   8.888651   7.922364   8.500272
    33  H    5.354897   2.571476   9.191885   8.474084   8.594981
    34  H    6.268447   3.139958   9.364173   8.569145   8.706094
    35  H    6.184217   3.234744   7.656472   6.804065   7.030265
    36  H    5.090424   2.711375   5.902490   5.097334   5.312923
    37  H    6.088394   3.225545   6.991361   5.914274   6.688518
    38  H    2.789040   3.035533   4.530308   4.167895   4.208724
    39  H    4.022310   2.601598   4.922514   4.094292   4.685418
    40  H    3.333342   2.142474   5.398810   5.108058   4.415313
    41  H    2.052371   3.103400   5.974720   6.190509   4.731794
                    6          7          8          9         10
     6  C    0.000000
     7  C    2.526508   0.000000
     8  C    1.540444   1.536870   0.000000
     9  C    6.335759   4.490616   5.166567   0.000000
    10  C    6.577437   6.867983   5.778820   6.843655   0.000000
    11  C    4.879029   5.293213   4.068570   6.739899   2.461538
    12  C    2.517288   2.572111   1.546411   4.528703   4.527118
    13  C    3.922472   3.161806   2.596600   3.822692   3.890900
    14  N    4.694505   3.193163   3.317117   2.402819   4.938104
    15  N    5.305007   5.446840   4.381299   5.900339   1.458488
    16  O    5.023862   4.132105   4.181615   2.396691   5.535465
    17  O    5.931735   5.458893   4.867925   4.202498   2.743407
    18  H    3.466210   3.473185   3.962579   7.723172   9.683481
    19  H    2.809468   2.822564   3.392771   6.626360   9.065383
    20  H    2.156963   3.940049   3.488715   8.122560   8.580123
    21  H    2.155717   3.367609   2.832852   7.785488   7.888686
    22  H    3.369245   2.155641   2.837727   6.299249   8.158408
    23  H    3.929951   2.158065   3.485930   5.657059   8.966880
    24  H    1.097707   2.827322   2.172726   6.125975   6.892839
    25  H    1.096716   3.477798   2.173488   7.023379   6.144936
    26  H    3.479799   1.094592   2.175810   3.931154   6.687808
    27  H    2.834593   1.097247   2.170028   4.021096   7.178872
    28  H    2.146622   2.149066   1.098520   5.767823   5.643192
    29  H    6.152916   4.032799   4.999317   1.093503   7.538892
    30  H    6.930414   5.250981   5.912580   1.093411   7.416487
    31  H    7.053323   5.151756   5.756848   1.093680   6.734916
    32  H    6.576935   7.258610   6.016056   7.620521   1.094140
    33  H    7.060111   7.199201   6.234583   6.520909   1.092556
    34  H    7.313912   7.465628   6.423163   7.399894   1.094084
    35  H    5.819505   6.072669   4.945928   7.369614   2.680908
    36  H    4.109676   4.365269   3.186201   6.338874   3.417687
    37  H    4.797935   5.720518   4.325106   7.472813   2.721548
    38  H    2.755310   2.820587   2.167531   4.189912   5.031819
    39  H    2.644605   3.490883   2.148994   5.478997   3.985487
    40  H    4.110348   3.195363   2.668120   4.400200   4.119743
    41  H    5.288064   3.454156   3.809630   2.483610   5.424602
                   11         12         13         14         15
    11  C    0.000000
    12  C    3.350850   0.000000
    13  C    3.004938   1.542187   0.000000
    14  N    4.394388   2.531184   1.470221   0.000000
    15  N    1.460725   3.212768   2.544242   3.755972   0.000000
    16  O    5.601870   3.091379   2.936759   2.304532   4.671344
    17  O    3.651193   3.435441   2.438603   2.767402   2.286013
    18  H    7.700372   5.435295   6.421697   6.664759   8.285166
    19  H    7.413808   4.587168   5.709889   5.822903   7.717344
    20  H    6.715956   4.670884   6.031453   6.700444   7.343086
    21  H    5.737282   4.237144   5.312233   6.072324   6.569951
    22  H    6.126291   4.279239   4.761355   4.952508   6.704701
    23  H    7.240109   4.721329   5.223051   4.981109   7.525903
    24  H    5.514362   2.726680   4.215501   4.802818   5.698538
    25  H    4.429588   2.748385   4.155640   5.186456   4.988667
    26  H    5.191468   2.856205   2.867743   2.617720   5.264236
    27  H    5.900233   2.774538   3.458731   3.221828   5.830257
    28  H    3.594021   2.158005   2.791132   3.693902   4.221444
    29  H    7.105339   4.693273   4.136376   2.727741   6.456070
    30  H    7.535996   5.196637   4.648824   3.325644   6.591085
    31  H    6.778154   5.063276   4.056233   2.639295   5.887502
    32  H    2.684106   4.808947   4.501937   5.678666   2.085810
    33  H    3.414404   4.838397   4.123085   4.922461   2.130950
    34  H    2.727261   5.296410   4.485931   5.476364   2.084115
    35  H    1.094276   4.344982   3.780817   5.047077   2.084814
    36  H    1.088025   2.790700   2.559042   3.937997   2.141458
    37  H    1.094125   3.646843   3.709864   5.161502   2.083876
    38  H    4.267156   1.094637   2.192100   2.702561   3.878271
    39  H    2.790195   1.097260   2.165806   3.424239   2.793317
    40  H    2.739008   2.170181   1.095872   2.025181   2.708094
    41  H    4.764070   3.316320   2.127440   1.016199   4.247797
                   16         17         18         19         20
    16  O    0.000000
    17  O    3.064017   0.000000
    18  H    7.299571   8.748270   0.000000
    19  H    5.974732   7.830925   1.762447   0.000000
    20  H    6.959533   8.088217   2.497087   2.455021   0.000000
    21  H    6.906920   7.565728   2.455907   3.058421   1.762110
    22  H    6.258476   7.193000   2.451068   3.056491   3.803512
    23  H    5.872645   7.505541   2.497843   2.453094   4.286388
    24  H    4.626171   5.985124   3.804032   2.651914   2.448100
    25  H    5.493845   5.943957   4.283172   3.802081   2.484421
    26  H    4.063829   5.142396   4.271232   3.808429   4.963269
    27  H    3.554685   5.473726   3.823701   2.681581   4.202362
    28  H    4.984383   5.118823   4.159750   4.039655   3.790763
    29  H    3.055682   5.021050   7.057743   6.045639   7.758113
    30  H    2.532401   4.694806   8.341665   7.088429   8.664820
    31  H    3.138247   4.141101   8.461643   7.500486   8.906504
    32  H    6.061037   3.549065   9.825130   9.209393   8.466015
    33  H    5.199672   2.324010  10.191100   9.416421   9.128551
    34  H    6.361695   3.429155  10.265418   9.783736   9.278803
    35  H    6.463409   4.234302   8.419431   8.282225   7.563937
    36  H    5.363430   3.939507   6.700833   6.513435   5.911392
    37  H    6.055815   4.261059   7.807988   7.509181   6.494985
    38  H    2.389600   3.563023   5.620836   4.456950   4.810360
    39  H    3.798480   3.548594   5.924150   5.163028   4.727400
    40  H    3.944855   3.163471   6.279742   5.865438   6.086883
    41  H    3.179983   3.387889   6.853585   6.198394   7.189789
                   21         22         23         24         25
    21  H    0.000000
    22  H    2.651700   0.000000
    23  H    3.804333   1.761339   0.000000
    24  H    3.055600   4.054317   4.173658   0.000000
    25  H    2.448226   4.178037   4.964198   1.761547   0.000000
    26  H    4.158207   2.422750   2.472968   3.839858   4.315008
    27  H    4.065719   3.055654   2.445404   2.695401   3.837949
    28  H    2.635077   2.650524   3.800282   3.058799   2.458962
    29  H    7.398845   5.664499   4.843337   5.978924   6.964401
    30  H    8.514939   7.144385   6.343471   6.563995   7.616202
    31  H    8.401481   6.803968   6.317352   6.959303   7.677639
    32  H    7.887707   8.505380   9.371813   6.873115   5.986255
    33  H    8.557287   8.690835   9.317930   7.231337   6.715072
    34  H    8.423282   8.577431   9.492864   7.734272   6.883134
    35  H    6.429158   6.687799   7.908527   6.526986   5.374942
    36  H    4.805760   5.053007   6.226307   4.855858   3.801395
    37  H    5.673320   6.523781   7.668691   5.403882   4.128444
    38  H    4.750101   4.793776   4.868550   2.508533   3.108564
    39  H    4.340502   4.937098   5.583900   2.922854   2.414250
    40  H    5.069908   4.337610   5.079272   4.645600   4.325867
    41  H    6.381740   4.898483   4.952321   5.512358   5.829389
                   26         27         28         29         30
    26  H    0.000000
    27  H    1.763949   0.000000
    28  H    2.460489   3.059952   0.000000
    29  H    3.435362   3.561922   5.590004   0.000000
    30  H    4.833461   4.605592   6.622564   1.782213   0.000000
    31  H    4.423538   4.858627   6.199654   1.786322   1.778392
    32  H    7.227646   7.560352   5.892728   8.293707   8.146325
    33  H    6.988409   7.365685   6.254374   7.334702   6.969297
    34  H    7.175773   7.877455   6.133620   8.071941   8.040812
    35  H    5.844193   6.760854   4.320903   7.733015   8.215342
    36  H    4.269699   5.081844   2.574128   6.550378   7.203333
    37  H    5.809740   6.282213   3.913578   7.843707   8.197357
    38  H    3.233060   2.578831   3.060718   4.409179   4.661501
    39  H    3.851756   3.746572   2.492577   5.737519   6.093188
    40  H    2.720363   3.794155   2.436783   4.552942   5.350446
    41  H    2.598047   3.637352   3.989224   2.613160   3.546256
                   31         32         33         34         35
    31  H    0.000000
    32  H    7.618505   0.000000
    33  H    6.378774   1.776380   0.000000
    34  H    7.153705   1.786468   1.778030   0.000000
    35  H    7.267381   2.988743   3.699837   2.486161   0.000000
    36  H    6.448426   3.702590   4.259062   3.708210   1.769462
    37  H    7.612918   2.483221   3.702520   3.125288   1.784387
    38  H    4.895073   5.274860   5.141921   5.912187   5.291714
    39  H    5.957546   4.051302   4.418745   4.812156   3.868153
    40  H    4.484974   4.769157   4.549079   4.486947   3.304647
    41  H    2.415339   6.256895   5.454600   5.790794   5.241509
                   36         37         38         39         40
    36  H    0.000000
    37  H    1.773068   0.000000
    38  H    3.835442   4.471137   0.000000
    39  H    2.447034   2.802919   1.736453   0.000000
    40  H    2.064588   3.604833   3.062570   2.678061   0.000000
    41  H    4.239820   5.652018   3.629240   4.208170   2.188724
                   41
    41  H    0.000000
 Stoichiometry    C13H24N2O2
 Framework group  C1[X(C13H24N2O2)]
 Deg. of freedom   117
 Full point group                 C1      NOp   1
 Largest Abelian subgroup         C1      NOp   1
 Largest concise Abelian subgroup C1      NOp   1
                         Standard orientation:                         
 ---------------------------------------------------------------------
 Center     Atomic      Atomic             Coordinates (Angstroms)
 Number     Number       Type             X           Y           Z
 ---------------------------------------------------------------------
      1          6           0        0.865703    2.524448    0.243941
      2          6           0        2.356938   -0.320281   -0.074747
      3          6           0       -4.491280   -0.375511    0.042289
      4          6           0       -3.826118   -1.652797    0.539607
      5          6           0       -3.644713    0.309338   -1.023247
      6          6           0       -2.410759   -1.385557    1.042916
      7          6           0       -2.221251    0.577230   -0.536575
      8          6           0       -1.534598   -0.697345   -0.020884
      9          6           0        0.782095    3.909808   -0.337896
     10          6           0        4.075857   -2.065635    0.192040
     11          6           0        1.912465   -2.719687   -0.783215
     12          6           0       -0.129639   -0.432580    0.568504
     13          6           0        0.901742    0.090684   -0.451686
     14          7           0        0.819725    1.536010   -0.708310
     15          7           0        2.736139   -1.656188   -0.213786
     16          8           0        0.950456    2.325704    1.452746
     17          8           0        3.164716    0.517179    0.350707
     18          1           0       -5.481160   -0.608848   -0.365618
     19          1           0       -4.645242    0.310064    0.884607
     20          1           0       -4.426470   -2.091543    1.344553
     21          1           0       -3.792483   -2.389618   -0.272309
     22          1           0       -3.608614   -0.320673   -1.920693
     23          1           0       -4.116036    1.254182   -1.316814
     24          1           0       -2.461639   -0.759512    1.943160
     25          1           0       -1.954129   -2.336251    1.343679
     26          1           0       -1.656301    1.004513   -1.371076
     27          1           0       -2.247034    1.333317    0.258168
     28          1           0       -1.426461   -1.392316   -0.864726
     29          1           0       -0.206611    4.062300   -0.779432
     30          1           0        0.941579    4.651066    0.449916
     31          1           0        1.549469    4.041037   -1.106044
     32          1           0        3.990516   -2.889327    0.907156
     33          1           0        4.637709   -1.253654    0.659681
     34          1           0        4.620243   -2.406883   -0.693518
     35          1           0        2.443841   -3.151545   -1.636783
     36          1           0        0.937206   -2.378232   -1.123916
     37          1           0        1.767222   -3.491003   -0.020926
     38          1           0       -0.221612    0.243483    1.424488
     39          1           0        0.233391   -1.376254    0.994730
     40          1           0        0.701559   -0.350790   -1.434520
     41          1           0        0.789981    1.821987   -1.682985
 ---------------------------------------------------------------------
 Rotational constants (GHZ):      0.5707015      0.2984233      0.2168775
 Standard basis: 6-31G(d) (6D, 7F)
 There are   303 symmetry adapted basis functions of A   symmetry.
 Integral buffers will be    131072 words long.
 Raffenetti 2 integral format.
 Two-electron integral symmetry is turned on.
   303 basis functions,   572 primitive gaussians,   303 cartesian basis functions
    66 alpha electrons       66 beta electrons
       nuclear repulsion energy      1311.1611314693 Hartrees.
 NAtoms=   41 NActive=   41 NUniq=   41 SFac= 1.00D+00 NAtFMM=   60 NAOKFM=F Big=F
 One-electron integrals computed using PRISM.
 NBasis=   303 RedAO= T  NBF=   303
 NBsUse=   303 1.00D-06 NBFU=   303
 Harris functional with IExCor=  402 diagonalized for initial guess.
 ExpMin= 1.61D-01 ExpMax= 5.48D+03 ExpMxC= 8.25D+02 IAcc=3 IRadAn=         5 AccDes= 0.00D+00
 HarFok:  IExCor=  402 AccDes= 0.00D+00 IRadAn=         5 IDoV= 1
 ScaDFX=  1.000000  1.000000  1.000000  1.000000
 FoFCou: FMM=F IPFlag=           0 FMFlag=      100000 FMFlg1=           0
         NFxFlg=           0 DoJE=T BraDBF=F KetDBF=T FulRan=T
         Omega=  0.000000  0.000000  1.000000  0.000000  0.000000 ICntrl=     500 IOpCl=  0
         NMat0=    1 NMatS0=    1 NMatT0=    0 NMatD0=    1 NMtDS0=    0 NMtDT0=    0
         I1Cent=           4 NGrid=           0.
 Petite list used in FoFCou.
 Initial guess orbital symmetries:
       Occupied  (A) (A) (A) (A) (A) (A) (A) (A) (A) (A) (A) (A)
                 (A) (A) (A) (A) (A) (A) (A) (A) (A) (A) (A) (A)
                 (A) (A) (A) (A) (A) (A) (A) (A) (A) (A) (A) (A)
                 (A) (A) (A) (A) (A) (A) (A) (A) (A) (A) (A) (A)
                 (A) (A) (A) (A) (A) (A) (A) (A) (A) (A) (A) (A)
                 (A) (A) (A) (A) (A) (A)
       Virtual   (A) (A) (A) (A) (A) (A) (A) (A) (A) (A) (A) (A)
                 (A) (A) (A) (A) (A) (A) (A) (A) (A) (A) (A) (A)
                 (A) (A) (A) (A) (A) (A) (A) (A) (A) (A) (A) (A)
                 (A) (A) (A) (A) (A) (A) (A) (A) (A) (A) (A) (A)
                 (A) (A) (A) (A) (A) (A) (A) (A) (A) (A) (A) (A)
                 (A) (A) (A) (A) (A) (A) (A) (A) (A) (A) (A) (A)
                 (A) (A) (A) (A) (A) (A) (A) (A) (A) (A) (A) (A)
                 (A) (A) (A) (A) (A) (A) (A) (A) (A) (A) (A) (A)
                 (A) (A) (A) (A) (A) (A) (A) (A) (A) (A) (A) (A)
                 (A) (A) (A) (A) (A) (A) (A) (A) (A) (A) (A) (A)
                 (A) (A) (A) (A) (A) (A) (A) (A) (A) (A) (A) (A)
                 (A) (A) (A) (A) (A) (A) (A) (A) (A) (A) (A) (A)
                 (A) (A) (A) (A) (A) (A) (A) (A) (A) (A) (A) (A)
                 (A) (A) (A) (A) (A) (A) (A) (A) (A) (A) (A) (A)
                 (A) (A) (A) (A) (A) (A) (A) (A) (A) (A) (A) (A)
                 (A) (A) (A) (A) (A) (A) (A) (A) (A) (A) (A) (A)
                 (A) (A) (A) (A) (A) (A) (A) (A) (A) (A) (A) (A)
                 (A) (A) (A) (A) (A) (A) (A) (A) (A) (A) (A) (A)
                 (A) (A) (A) (A) (A) (A) (A) (A) (A) (A) (A) (A)
                 (A) (A) (A) (A) (A) (A) (A) (A) (A)
 The electronic state of the initial guess is 1-A.
 Requested convergence on RMS density matrix=1.00D-08 within 128 cycles.
 Requested convergence on MAX density matrix=1.00D-06.
 Requested convergence on             energy=1.00D-06.
 No special actions if energy rises.
 Integral accuracy reduced to 1.0D-05 until final iterations.
 Initial convergence to 1.0D-05 achieved.  Increase integral accuracy.
 SCF Done:  E(RB3LYP) =  -769.813424454     A.U. after   15 cycles
             Convg  =    0.6627D-08             -V/T =  2.0096
 Calling FoFJK, ICntrl=      2127 FMM=F ISym2X=0 I1Cent= 0 IOpClX= 0 NMat=1 NMatS=1 NMatT=0.
 ***** Axes restored to original set *****
 -------------------------------------------------------------------
 Center     Atomic                   Forces (Hartrees/Bohr)
 Number     Number              X              Y              Z
 -------------------------------------------------------------------
      1        6           0.000394034   -0.002066990   -0.015878343
      2        6           0.024501068   -0.008047692   -0.014676147
      3        6          -0.004790903    0.001132266    0.003399378
      4        6          -0.003778776   -0.001556592   -0.002729801
      5        6          -0.000742156   -0.002618951    0.002643974
      6        6           0.000043169    0.003831705   -0.000139267
      7        6          -0.000049827    0.003305683    0.004002940
      8        6           0.004088440   -0.006866141   -0.006704029
      9        6           0.004188668   -0.005645323    0.003440935
     10        6          -0.002393288    0.000780347    0.001645022
     11        6           0.008669328   -0.004132256   -0.005551445
     12        6          -0.009371034    0.001618392    0.000324571
     13        6           0.010433647   -0.000010200    0.002472362
     14        7          -0.004420034    0.005721604   -0.005132504
     15        7          -0.004766618   -0.018816710    0.014816601
     16        8          -0.003001578    0.005846976    0.007830955
     17        8          -0.018644571    0.013809486    0.007615953
     18        1          -0.001875069   -0.001504941    0.000670989
     19        1          -0.000189014   -0.001816482   -0.000541901
     20        1          -0.001531540    0.001480932   -0.001004596
     21        1          -0.000566357    0.001949493    0.000608211
     22        1          -0.000426556    0.001900576    0.001041468
     23        1           0.000511599    0.000459881    0.002169251
     24        1           0.001583947   -0.001351459   -0.000312971
     25        1           0.001826867   -0.000320005   -0.002033578
     26        1           0.002870194   -0.001748285   -0.001491327
     27        1           0.001389551   -0.000819952   -0.001587673
     28        1          -0.000761411    0.003137490    0.001607752
     29        1           0.000909617   -0.000752061    0.003870232
     30        1          -0.001417042    0.001941863   -0.000257084
     31        1           0.000849225   -0.000416791    0.003733758
     32        1           0.000554418    0.002815208   -0.002831573
     33        1          -0.005114085   -0.001745277    0.005916542
     34        1           0.002403500    0.003494907   -0.002716568
     35        1          -0.001914553    0.004466469   -0.000019016
     36        1           0.001090032   -0.002420869    0.000000110
     37        1          -0.003867728    0.004221180   -0.000406393
     38        1           0.006143916    0.000469176    0.002784157
     39        1           0.001696091    0.001587226    0.000393782
     40        1          -0.004253099    0.000780653   -0.000715901
     41        1          -0.000272073   -0.002094535   -0.006258828
 -------------------------------------------------------------------
 Cartesian Forces:  Max     0.024501068 RMS     0.005357674

 GradGradGradGradGradGradGradGradGradGradGradGradGradGradGradGradGradGrad
 Berny optimization.
 Internal  Forces:  Max     0.024248786 RMS     0.003257605
 Search for a local minimum.
 Step number   1 out of a maximum of  239
 All quantities printed in internal units (Hartrees-Bohrs-Radians)
 Mixed Optimization -- RFO/linear search
 Second derivative matrix not updated -- first step.
 ITU=  0
     Eigenvalues ---    0.00230   0.00230   0.00230   0.00499   0.00568
     Eigenvalues ---    0.00690   0.00701   0.00763   0.00833   0.00889
     Eigenvalues ---    0.00918   0.01140   0.01257   0.01291   0.01750
     Eigenvalues ---    0.01896   0.01958   0.02045   0.03184   0.03540
     Eigenvalues ---    0.03696   0.03748   0.03943   0.04226   0.04469
     Eigenvalues ---    0.04661   0.04782   0.04843   0.04901   0.04943
     Eigenvalues ---    0.05474   0.05578   0.05946   0.06486   0.06817
     Eigenvalues ---    0.07176   0.07310   0.07414   0.07466   0.07725
     Eigenvalues ---    0.07736   0.08143   0.08168   0.08230   0.08241
     Eigenvalues ---    0.08244   0.08409   0.08637   0.08653   0.12086
     Eigenvalues ---    0.12145   0.12441   0.14162   0.15926   0.15973
     Eigenvalues ---    0.16000   0.16000   0.16000   0.16000   0.16000
     Eigenvalues ---    0.16000   0.16000   0.16000   0.16000   0.17355
     Eigenvalues ---    0.18392   0.18986   0.20750   0.21878   0.22007
     Eigenvalues ---    0.24983   0.24991   0.24998   0.24999   0.25000
     Eigenvalues ---    0.25000   0.26950   0.27410   0.27713   0.27958
     Eigenvalues ---    0.28321   0.28326   0.29530   0.29602   0.29718
     Eigenvalues ---    0.31868   0.33846   0.33937   0.33987   0.33988
     Eigenvalues ---    0.34005   0.34025   0.34026   0.34048   0.34137
     Eigenvalues ---    0.34143   0.34147   0.34155   0.34282   0.34287
     Eigenvalues ---    0.34323   0.34339   0.34340   0.34345   0.34391
     Eigenvalues ---    0.34411   0.34421   0.34519   0.35042   0.35714
     Eigenvalues ---    0.36874   0.37154   0.44950   0.46353   0.50351
     Eigenvalues ---    0.87480   0.91941
 RFO step:  Lambda=-1.08077822D-02 EMin= 2.30000000D-03
 Linear search not attempted -- first point.
 Iteration  1 RMS(Cart)=  0.08173487 RMS(Int)=  0.00366886
 Iteration  2 RMS(Cart)=  0.00494079 RMS(Int)=  0.00022138
 Iteration  3 RMS(Cart)=  0.00002514 RMS(Int)=  0.00022091
 Iteration  4 RMS(Cart)=  0.00000001 RMS(Int)=  0.00022091
 Variable       Old X    -DE/DX   Delta X   Delta X   Delta X     New X
                                 (Linear)    (Quad)   (Total)
    R1        2.84386   0.01252   0.00000   0.03799   0.03799   2.88185
    R2        2.59513   0.00077   0.00000   0.00150   0.00150   2.59663
    R3        2.32051  -0.00882   0.00000  -0.00949  -0.00949   2.31103
    R4        2.94492  -0.00369   0.00000  -0.01316  -0.01316   2.93176
    R5        2.63735  -0.01450   0.00000  -0.03057  -0.03057   2.60678
    R6        2.34117  -0.02425   0.00000  -0.02738  -0.02738   2.31379
    R7        2.87911   0.00632   0.00000   0.02144   0.02143   2.90054
    R8        2.87900   0.00653   0.00000   0.02167   0.02167   2.90068
    R9        2.07069   0.00162   0.00000   0.00460   0.00460   2.07529
   R10        2.07286   0.00190   0.00000   0.00541   0.00541   2.07828
   R11        2.88329   0.00706   0.00000   0.02296   0.02296   2.90625
   R12        2.07083   0.00145   0.00000   0.00412   0.00412   2.07495
   R13        2.07289   0.00208   0.00000   0.00593   0.00593   2.07882
   R14        2.88755   0.00742   0.00000   0.02408   0.02408   2.91163
   R15        2.07322   0.00216   0.00000   0.00616   0.00616   2.07938
   R16        2.07100   0.00142   0.00000   0.00403   0.00403   2.07503
   R17        2.91102   0.00190   0.00000   0.00572   0.00572   2.91673
   R18        2.07436   0.00140   0.00000   0.00401   0.00401   2.07837
   R19        2.07249   0.00138   0.00000   0.00392   0.00392   2.07641
   R20        2.90426   0.00321   0.00000   0.00957   0.00958   2.91384
   R21        2.06848   0.00089   0.00000   0.00251   0.00251   2.07099
   R22        2.07350   0.00131   0.00000   0.00375   0.00375   2.07725
   R23        2.92229   0.00149   0.00000   0.00513   0.00513   2.92742
   R24        2.07590   0.00346   0.00000   0.00991   0.00991   2.08581
   R25        2.06642   0.00226   0.00000   0.00636   0.00636   2.07278
   R26        2.06625  -0.00206   0.00000  -0.00581  -0.00581   2.06043
   R27        2.06676   0.00181   0.00000   0.00509   0.00509   2.07185
   R28        2.75614  -0.00305   0.00000  -0.00797  -0.00797   2.74817
   R29        2.06763   0.00269   0.00000   0.00761   0.00761   2.07523
   R30        2.06463  -0.00322   0.00000  -0.00905  -0.00905   2.05558
   R31        2.06752   0.00320   0.00000   0.00903   0.00903   2.07654
   R32        2.76037  -0.00245   0.00000  -0.00645  -0.00645   2.75392
   R33        2.06788   0.00302   0.00000   0.00853   0.00853   2.07641
   R34        2.05607  -0.00005   0.00000  -0.00014  -0.00014   2.05593
   R35        2.06760   0.00293   0.00000   0.00827   0.00827   2.07586
   R36        2.91431   0.00147   0.00000   0.00500   0.00500   2.91931
   R37        2.06856  -0.00121   0.00000  -0.00341  -0.00341   2.06516
   R38        2.07352   0.00031   0.00000   0.00089   0.00089   2.07441
   R39        2.77832  -0.00818   0.00000  -0.02224  -0.02224   2.75608
   R40        2.07090   0.00081   0.00000   0.00231   0.00231   2.07321
   R41        1.92034  -0.00642   0.00000  -0.01396  -0.01396   1.90638
    A1        1.97429   0.00338   0.00000   0.01271   0.01203   1.98632
    A2        2.13344   0.00229   0.00000   0.00855   0.00782   2.14126
    A3        2.17537  -0.00569   0.00000  -0.02212  -0.02276   2.15261
    A4        2.07378  -0.00754   0.00000  -0.02883  -0.02898   2.04480
    A5        2.11022   0.00130   0.00000   0.00506   0.00492   2.11514
    A6        2.09914   0.00624   0.00000   0.02403   0.02388   2.12302
    A7        1.94181  -0.00096   0.00000  -0.00200  -0.00201   1.93980
    A8        1.91494   0.00086   0.00000   0.01037   0.01032   1.92525
    A9        1.91198  -0.00009   0.00000  -0.00614  -0.00618   1.90579
   A10        1.91489   0.00098   0.00000   0.01053   0.01046   1.92535
   A11        1.91146  -0.00010   0.00000  -0.00505  -0.00509   1.90637
   A12        1.86727  -0.00068   0.00000  -0.00797  -0.00791   1.85936
   A13        1.94532  -0.00025   0.00000   0.00297   0.00293   1.94825
   A14        1.91372   0.00067   0.00000   0.01004   0.00998   1.92371
   A15        1.91231  -0.00016   0.00000  -0.00622  -0.00620   1.90612
   A16        1.91349   0.00038   0.00000   0.00494   0.00486   1.91834
   A17        1.91067  -0.00006   0.00000  -0.00322  -0.00322   1.90746
   A18        1.86665  -0.00060   0.00000  -0.00903  -0.00900   1.85765
   A19        1.95379  -0.00019   0.00000   0.00449   0.00449   1.95828
   A20        1.90950  -0.00008   0.00000  -0.00543  -0.00541   1.90409
   A21        1.91338   0.00057   0.00000   0.00861   0.00855   1.92193
   A22        1.90769   0.00018   0.00000  -0.00161  -0.00162   1.90607
   A23        1.91219   0.00006   0.00000   0.00201   0.00194   1.91414
   A24        1.86514  -0.00056   0.00000  -0.00873  -0.00871   1.85644
   A25        1.95850   0.00202   0.00000   0.01280   0.01280   1.97130
   A26        1.90438   0.00019   0.00000   0.00293   0.00301   1.90739
   A27        1.90167   0.00076   0.00000   0.01563   0.01561   1.91728
   A28        1.91550  -0.00157   0.00000  -0.01753  -0.01758   1.89792
   A29        1.91755  -0.00145   0.00000  -0.00722  -0.00747   1.91008
   A30        1.86375  -0.00003   0.00000  -0.00735  -0.00752   1.85622
   A31        1.95809   0.00131   0.00000   0.00773   0.00771   1.96580
   A32        1.88224   0.00175   0.00000   0.02386   0.02382   1.90605
   A33        1.90669   0.00026   0.00000   0.00537   0.00542   1.91210
   A34        1.92725  -0.00142   0.00000  -0.00521  -0.00553   1.92172
   A35        1.91658  -0.00133   0.00000  -0.01798  -0.01803   1.89855
   A36        1.87061  -0.00060   0.00000  -0.01400  -0.01423   1.85638
   A37        1.92636  -0.00024   0.00000  -0.00097  -0.00109   1.92527
   A38        1.90714  -0.00031   0.00000   0.00403   0.00393   1.91106
   A39        1.87950  -0.00023   0.00000  -0.00906  -0.00910   1.87040
   A40        1.97340   0.00176   0.00000   0.01812   0.01809   1.99149
   A41        1.88693  -0.00077   0.00000  -0.00984  -0.00986   1.87708
   A42        1.88773  -0.00032   0.00000  -0.00382  -0.00375   1.88398
   A43        1.91211   0.00395   0.00000   0.02237   0.02229   1.93439
   A44        1.91496  -0.00285   0.00000  -0.01666  -0.01657   1.89839
   A45        1.92093   0.00396   0.00000   0.02391   0.02382   1.94475
   A46        1.90527  -0.00088   0.00000  -0.00663  -0.00654   1.89873
   A47        1.91142  -0.00404   0.00000  -0.02366  -0.02391   1.88751
   A48        1.89902  -0.00023   0.00000   0.00018   0.00027   1.89929
   A49        1.89817   0.00467   0.00000   0.02885   0.02853   1.92670
   A50        1.96366  -0.01254   0.00000  -0.07674  -0.07632   1.88734
   A51        1.89589   0.00664   0.00000   0.04055   0.04037   1.93626
   A52        1.89637   0.00306   0.00000   0.01453   0.01480   1.91117
   A53        1.91030  -0.00384   0.00000  -0.01543  -0.01630   1.89400
   A54        1.89903   0.00203   0.00000   0.00868   0.00924   1.90827
   A55        1.89398   0.00515   0.00000   0.03124   0.03092   1.92490
   A56        1.98124  -0.00619   0.00000  -0.03859  -0.03826   1.94299
   A57        1.89285   0.00714   0.00000   0.04296   0.04270   1.93555
   A58        1.89111  -0.00025   0.00000  -0.00385  -0.00360   1.88751
   A59        1.90678  -0.00466   0.00000  -0.02217  -0.02306   1.88373
   A60        1.89696  -0.00133   0.00000  -0.01004  -0.00967   1.88730
   A61        1.99717   0.00800   0.00000   0.03405   0.03427   2.03144
   A62        1.90440   0.00122   0.00000   0.02204   0.02256   1.92695
   A63        1.87695  -0.00205   0.00000   0.00133   0.00152   1.87846
   A64        1.94328  -0.00713   0.00000  -0.05338  -0.05377   1.88951
   A65        1.90446  -0.00291   0.00000  -0.01978  -0.02018   1.88428
   A66        1.82886   0.00255   0.00000   0.01578   0.01487   1.84373
   A67        1.95520   0.00266   0.00000   0.00241   0.00203   1.95724
   A68        1.93217  -0.00388   0.00000  -0.02716  -0.02725   1.90491
   A69        1.85591   0.00082   0.00000   0.01484   0.01507   1.87098
   A70        1.99513  -0.00021   0.00000  -0.00884  -0.00910   1.98603
   A71        1.91180  -0.00245   0.00000  -0.01370  -0.01367   1.89813
   A72        1.80215   0.00313   0.00000   0.03705   0.03723   1.83939
   A73        2.19527  -0.00035   0.00000  -0.00182  -0.00188   2.19339
   A74        2.05274  -0.00001   0.00000  -0.00084  -0.00091   2.05183
   A75        2.03275   0.00033   0.00000   0.00127   0.00120   2.03396
   A76        2.08355  -0.00288   0.00000  -0.01102  -0.01102   2.07253
   A77        2.19264   0.00455   0.00000   0.01746   0.01746   2.21010
   A78        2.00649  -0.00167   0.00000  -0.00640  -0.00640   2.00009
    D1        1.16600  -0.00071   0.00000  -0.03443  -0.03456   1.13145
    D2       -3.02581  -0.00110   0.00000  -0.03901  -0.03928  -3.06508
    D3       -0.93665  -0.00070   0.00000  -0.03435  -0.03474  -0.97139
    D4       -1.96199   0.00087   0.00000   0.03199   0.03239  -1.92960
    D5        0.12939   0.00048   0.00000   0.02741   0.02767   0.15706
    D6        2.21854   0.00088   0.00000   0.03208   0.03221   2.25075
    D7        3.12333  -0.00130   0.00000  -0.03524  -0.03565   3.08768
    D8        0.05928  -0.00078   0.00000  -0.01304  -0.01347   0.04582
    D9       -0.03225  -0.00285   0.00000  -0.10324  -0.10281  -0.13506
   D10       -3.09629  -0.00233   0.00000  -0.08104  -0.08063   3.10626
   D11        1.24762  -0.00044   0.00000  -0.04154  -0.04165   1.20597
   D12       -2.78618  -0.00176   0.00000  -0.07391  -0.07390  -2.86009
   D13       -0.84044   0.00052   0.00000  -0.03559  -0.03569  -0.87613
   D14       -1.88473  -0.00105   0.00000  -0.07311  -0.07308  -1.95781
   D15        0.36465  -0.00237   0.00000  -0.10548  -0.10533   0.25932
   D16        2.31040  -0.00010   0.00000  -0.06716  -0.06712   2.24328
   D17       -3.09373  -0.00040   0.00000  -0.01869  -0.01880  -3.11252
   D18        0.08373  -0.00038   0.00000  -0.01958  -0.01968   0.06405
   D19        0.03868   0.00019   0.00000   0.01257   0.01268   0.05136
   D20       -3.06704   0.00020   0.00000   0.01169   0.01179  -3.05525
   D21        0.96187  -0.00118   0.00000  -0.01694  -0.01695   0.94492
   D22        3.08387  -0.00041   0.00000  -0.00191  -0.00189   3.08198
   D23       -1.15563  -0.00084   0.00000  -0.01063  -0.01064  -1.16627
   D24        3.08415   0.00001   0.00000   0.00202   0.00203   3.08618
   D25       -1.07704   0.00078   0.00000   0.01705   0.01709  -1.05995
   D26        0.96665   0.00035   0.00000   0.00833   0.00835   0.97499
   D27       -1.15409  -0.00037   0.00000  -0.00518  -0.00521  -1.15930
   D28        0.96791   0.00040   0.00000   0.00984   0.00985   0.97776
   D29        3.01160  -0.00003   0.00000   0.00113   0.00110   3.01270
   D30       -0.95518   0.00076   0.00000   0.01282   0.01285  -0.94232
   D31        1.16221   0.00081   0.00000   0.01001   0.01003   1.17224
   D32       -3.08094   0.00041   0.00000   0.00129   0.00128  -3.07966
   D33       -3.07748  -0.00036   0.00000  -0.00605  -0.00604  -3.08352
   D34       -0.96009  -0.00032   0.00000  -0.00885  -0.00886  -0.96896
   D35        1.07994  -0.00071   0.00000  -0.01758  -0.01762   1.06232
   D36        1.16109  -0.00005   0.00000   0.00043   0.00047   1.16155
   D37       -3.00471   0.00000   0.00000  -0.00238  -0.00235  -3.00706
   D38       -0.96468  -0.00039   0.00000  -0.01110  -0.01111  -0.97578
   D39       -0.96593   0.00044   0.00000   0.01087   0.01091  -0.95502
   D40        1.16089  -0.00008   0.00000  -0.00082  -0.00081   1.16008
   D41       -3.09347   0.00041   0.00000   0.00071   0.00064  -3.09282
   D42       -3.08807  -0.00050   0.00000  -0.00711  -0.00708  -3.09515
   D43       -0.96125  -0.00102   0.00000  -0.01880  -0.01880  -0.98005
   D44        1.06758  -0.00053   0.00000  -0.01728  -0.01735   1.05024
   D45        1.15252   0.00004   0.00000   0.00282   0.00286   1.15538
   D46       -3.00384  -0.00047   0.00000  -0.00887  -0.00886  -3.01270
   D47       -0.97501   0.00002   0.00000  -0.00734  -0.00740  -0.98241
   D48        0.94888  -0.00022   0.00000  -0.00685  -0.00689   0.94199
   D49        3.07501   0.00002   0.00000   0.00774   0.00782   3.08283
   D50       -1.18065   0.00041   0.00000   0.00706   0.00708  -1.17357
   D51       -1.16955  -0.00012   0.00000  -0.00184  -0.00190  -1.17144
   D52        0.95658   0.00012   0.00000   0.01275   0.01282   0.96939
   D53        2.98411   0.00051   0.00000   0.01207   0.01207   2.99618
   D54        3.07533   0.00042   0.00000   0.00846   0.00841   3.08374
   D55       -1.08173   0.00066   0.00000   0.02305   0.02313  -1.05861
   D56        0.94580   0.00105   0.00000   0.02237   0.02238   0.96818
   D57        0.94053  -0.00111   0.00000  -0.01208  -0.01205   0.92847
   D58        3.12099   0.00074   0.00000   0.01304   0.01303   3.13402
   D59       -1.11562   0.00008   0.00000   0.00562   0.00562  -1.11000
   D60       -1.17994  -0.00161   0.00000  -0.01215  -0.01205  -1.19199
   D61        1.00053   0.00024   0.00000   0.01297   0.01303   1.01356
   D62        3.04710  -0.00042   0.00000   0.00555   0.00562   3.05272
   D63        3.05897   0.00020   0.00000   0.01137   0.01132   3.07029
   D64       -1.04375   0.00206   0.00000   0.03650   0.03640  -1.00735
   D65        1.00283   0.00139   0.00000   0.02908   0.02899   1.03181
   D66       -0.92888   0.00114   0.00000   0.01168   0.01167  -0.91722
   D67       -3.07106   0.00046   0.00000  -0.00581  -0.00585  -3.07690
   D68        1.12269   0.00028   0.00000  -0.00560  -0.00558   1.11710
   D69       -3.02909  -0.00099   0.00000  -0.02024  -0.02015  -3.04924
   D70        1.11192  -0.00167   0.00000  -0.03772  -0.03766   1.07426
   D71       -0.97752  -0.00185   0.00000  -0.03751  -0.03740  -1.01491
   D72        1.19500   0.00142   0.00000   0.01112   0.01105   1.20606
   D73       -0.94717   0.00074   0.00000  -0.00636  -0.00646  -0.95363
   D74       -3.03661   0.00056   0.00000  -0.00615  -0.00620  -3.04281
   D75        3.01254   0.00020   0.00000  -0.01411  -0.01425   2.99829
   D76       -1.08056  -0.00230   0.00000  -0.04182  -0.04175  -1.12231
   D77        0.89392   0.00023   0.00000  -0.01189  -0.01200   0.88193
   D78       -1.11782   0.00090   0.00000   0.00029   0.00025  -1.11757
   D79        1.07227  -0.00160   0.00000  -0.02743  -0.02725   1.04502
   D80        3.04675   0.00092   0.00000   0.00250   0.00250   3.04925
   D81        0.97117   0.00082   0.00000  -0.00337  -0.00345   0.96772
   D82       -3.12194  -0.00168   0.00000  -0.03109  -0.03095   3.13030
   D83       -1.14745   0.00084   0.00000  -0.00116  -0.00120  -1.14865
   D84        2.18653  -0.00105   0.00000  -0.01331  -0.01376   2.17277
   D85       -0.98722  -0.00093   0.00000  -0.01202  -0.01248  -0.99970
   D86        0.08476  -0.00008   0.00000  -0.00228  -0.00239   0.08236
   D87       -3.08899   0.00004   0.00000  -0.00099  -0.00111  -3.09010
   D88       -2.01881   0.00083   0.00000   0.00805   0.00863  -2.01018
   D89        1.09063   0.00095   0.00000   0.00934   0.00991   1.10054
   D90        2.12013  -0.00071   0.00000  -0.00791  -0.00836   2.11177
   D91       -0.98699  -0.00067   0.00000  -0.00865  -0.00910  -0.99610
   D92        0.01660  -0.00002   0.00000  -0.00008  -0.00012   0.01648
   D93       -3.09052   0.00002   0.00000  -0.00082  -0.00087  -3.09138
   D94       -2.09354   0.00063   0.00000   0.00735   0.00786  -2.08568
   D95        1.08253   0.00068   0.00000   0.00662   0.00712   1.08964
   D96       -2.64063  -0.00078   0.00000  -0.00523  -0.00539  -2.64601
   D97        1.42668   0.00246   0.00000   0.03779   0.03767   1.46435
   D98       -0.58563   0.00029   0.00000   0.00585   0.00572  -0.57992
   D99        1.47302  -0.00287   0.00000  -0.01803  -0.01758   1.45544
   D100      -0.74286   0.00036   0.00000   0.02499   0.02548  -0.71739
   D101      -2.75517  -0.00180   0.00000  -0.00695  -0.00648  -2.76165
   D102      -0.53721  -0.00019   0.00000   0.00483   0.00447  -0.53273
   D103      -2.75309   0.00305   0.00000   0.04785   0.04753  -2.70556
   D104       1.51779   0.00089   0.00000   0.01590   0.01558   1.53336
   D105      -1.28232  -0.00112   0.00000  -0.06069  -0.06091  -1.34323
   D106       1.78251  -0.00165   0.00000  -0.08274  -0.08297   1.69954
   D107       0.94539  -0.00098   0.00000  -0.08809  -0.08794   0.85745
   D108      -2.27297  -0.00151   0.00000  -0.11014  -0.11000  -2.38297
   D109       3.02078  -0.00204   0.00000  -0.08536  -0.08527   2.93551
   D110      -0.19758  -0.00256   0.00000  -0.10741  -0.10733  -0.30491
         Item               Value     Threshold  Converged?
 Maximum Force            0.024249     0.000450     NO 
 RMS     Force            0.003258     0.000300     NO 
 Maximum Displacement     0.422528     0.001800     NO 
 RMS     Displacement     0.083430     0.001200     NO 
 Predicted change in Energy=-6.275875D-03
 GradGradGradGradGradGradGradGradGradGradGradGradGradGradGradGradGradGrad

                          Input orientation:                          
 ---------------------------------------------------------------------
 Center     Atomic      Atomic             Coordinates (Angstroms)
 Number     Number       Type             X           Y           Z
 ---------------------------------------------------------------------
      1          6           0        5.579382   -5.272291   -1.148679
      2          6           0        5.937251   -2.514010   -2.756273
      3          6           0       -0.362975   -3.998996   -0.351485
      4          6           0       -0.314066   -3.143391   -1.624850
      5          6           0        0.862936   -3.741855    0.535735
      6          6           0        1.004378   -3.342451   -2.391187
      7          6           0        2.186180   -3.931298   -0.230493
      8          6           0        2.251871   -3.086874   -1.518984
      9          6           0        6.257823   -6.092065   -0.056278
     10          6           0        6.689413   -0.942331   -4.462583
     11          6           0        4.641632   -0.388885   -3.236541
     12          6           0        3.529598   -3.319545   -2.363413
     13          6           0        4.869245   -2.919200   -1.706467
     14          7           0        5.424552   -3.944562   -0.830478
     15          7           0        5.728840   -1.336784   -3.444444
     16          8           0        5.136630   -5.774133   -2.172258
     17          8           0        6.933063   -3.200870   -2.945333
     18          1           0       -1.286848   -3.798350    0.207295
     19          1           0       -0.391023   -5.062250   -0.631156
     20          1           0       -1.165006   -3.383111   -2.276065
     21          1           0       -0.419577   -2.082784   -1.352605
     22          1           0        0.815022   -2.714533    0.927020
     23          1           0        0.843144   -4.406890    1.409275
     24          1           0        1.048121   -4.371201   -2.777681
     25          1           0        1.029675   -2.681095   -3.268288
     26          1           0        3.024107   -3.678198    0.428945
     27          1           0        2.309590   -4.991012   -0.495227
     28          1           0        2.229464   -2.024085   -1.221880
     29          1           0        5.635095   -6.130973    0.845840
     30          1           0        6.409060   -7.107795   -0.422678
     31          1           0        7.230283   -5.666586    0.218179
     32          1           0        6.183291   -0.779126   -5.423403
     33          1           0        7.419049   -1.742209   -4.567749
     34          1           0        7.204994   -0.014692   -4.177704
     35          1           0        5.043087    0.600120   -2.975699
     36          1           0        3.984491   -0.710914   -2.431493
     37          1           0        4.037794   -0.279201   -4.147611
     38          1           0        3.598060   -4.366112   -2.670487
     39          1           0        3.423178   -2.744878   -3.292633
     40          1           0        4.699753   -2.047039   -1.062863
     41          1           0        5.798519   -3.629339    0.051841
 ---------------------------------------------------------------------
                    Distance matrix (angstroms):
                    1          2          3          4          5
     1  C    0.000000
     2  C    3.212560   0.000000
     3  C    6.129308   6.905146   0.000000
     4  C    6.284241   6.383981   1.534898   0.000000
     5  C    5.236826   6.172000   1.534972   2.532118   0.000000
     6  C    5.118473   5.015260   2.541868   1.537919   2.957431
     7  C    3.762333   4.739072   2.552923   2.969219   1.540769
     8  C    3.998188   3.929515   3.005402   2.568742   2.565153
     9  C    1.525009   4.493909   6.950040   7.371895   5.914285
    10  C    5.564412   2.438733   8.716680   7.870586   8.171190
    11  C    5.393161   2.534845   6.811941   5.894386   6.304840
    12  C    3.080651   2.569051   4.434144   3.917941   3.961627
    13  C    2.520408   1.551421   5.511630   5.188800   4.664198
    14  N    1.374077   2.453167   5.807571   5.848474   4.766127
    15  N    4.558628   1.379448   7.332393   6.564410   6.730766
    16  O    1.222942   3.407414   6.059041   6.077051   5.452324
    17  O    3.057973   1.224403   7.784422   7.366673   7.018329
    18  H    7.152362   7.913272   1.098196   2.175323   2.175462
    19  H    5.996473   7.145397   1.099778   2.162261   2.162750
    20  H    7.094136   7.171331   2.174069   1.098018   3.485321
    21  H    6.797209   6.524224   2.162710   1.100062   2.821912
    22  H    5.792218   6.312218   2.161504   2.823260   1.100360
    23  H    5.451973   6.847242   2.172873   3.484463   1.098060
    24  H    4.898769   5.230030   2.831282   2.166124   3.377735
    25  H    5.648617   4.937042   3.490570   2.172613   3.952671
    26  H    3.399921   4.470722   3.490603   3.955692   2.164744
    27  H    3.346290   4.940424   2.854359   3.401959   2.171654
    28  H    4.666706   4.042533   3.373219   2.807985   2.812000
    29  H    2.172221   5.113603   6.477327   7.100879   5.345797
    30  H    2.141149   5.174083   7.451857   7.896971   6.558018
    31  H    2.179276   4.523056   7.795059   8.165812   6.659470
    32  H    6.231091   3.191228   8.885129   7.888879   8.520285
    33  H    5.247465   2.464315   9.133996   8.391963   8.545569
    34  H    6.281715   3.142328   9.369567   8.534757   8.736701
    35  H    6.173397   3.247381   7.567291   6.673662   6.975427
    36  H    4.999545   2.677669   5.834242   5.004519   5.266417
    37  H    6.025034   3.246249   6.900306   5.788488   6.633508
    38  H    2.657573   2.984872   4.604601   4.230028   4.260335
    39  H    3.953930   2.580997   4.955615   4.111850   4.712239
    40  H    3.344153   2.148743   5.472424   5.162965   4.488773
    41  H    2.046597   3.024683   6.185736   6.356975   4.960523
                    6          7          8          9         10
     6  C    0.000000
     7  C    2.532192   0.000000
     8  C    1.543469   1.541939   0.000000
     9  C    6.372665   4.612759   5.217119   0.000000
    10  C    6.509292   6.864664   5.740699   6.791285   0.000000
    11  C    4.761069   5.254926   3.992506   6.726991   2.450080
    12  C    2.525476   2.593908   1.549123   4.522494   4.476840
    13  C    3.947807   3.225163   2.629432   3.836449   3.849312
    14  N    4.726128   3.293511   3.357913   2.430122   4.879083
    15  N    5.239522   5.441638   4.342756   5.862780   1.454270
    16  O    4.799636   3.983923   3.996243   2.415683   5.568037
    17  O    5.956209   5.516954   4.895000   4.142656   2.731741
    18  H    3.494234   3.503035   4.001096   7.890035   9.673952
    19  H    2.828880   2.842808   3.416904   6.752641   9.043569
    20  H    2.172817   3.964255   3.512260   8.207574   8.510591
    21  H    2.166347   3.386164   2.858760   7.895725   7.842852
    22  H    3.382401   2.168047   2.861138   6.480640   8.166823
    23  H    3.950005   2.172274   3.507372   5.857168   8.981133
    24  H    1.099827   2.824334   2.163985   6.124411   6.813239
    25  H    1.098789   3.482630   2.172208   7.020346   6.040056
    26  H    3.484993   1.095920   2.177255   4.064372   6.696752
    27  H    2.831253   1.099231   2.162672   4.122322   7.163420
    28  H    2.146207   2.149926   1.103763   5.842497   5.618140
    29  H    6.300614   4.229903   5.128853   1.096868   7.497529
    30  H    6.874841   5.287702   5.886588   1.090334   7.376474
    31  H    7.139488   5.353084   5.870029   1.096375   6.672380
    32  H    6.525803   7.271822   6.002187   7.552410   1.098166
    33  H    6.960330   7.140505   6.148400   6.373623   1.087765
    34  H    7.260389   7.490578   6.406288   7.403901   1.098860
    35  H    5.674213   6.019288   4.848385   7.401618   2.701920
    36  H    3.975887   4.295252   3.078933   6.306066   3.390500
    37  H    4.655120   5.666577   4.240546   7.446941   2.751369
    38  H    2.802334   2.852374   2.185094   4.109420   4.948773
[...]
 0001843,-0.00010957,0.00037588,-0.00067175,-0.00013640,-0.00011782,0.0
 0011131,0.00027691,-0.00001000,-0.00051201,-0.01628138,0.00141897,-0.0
 2518685,0.00364716,-0.00013399,0.00627301,-0.00945370,0.05668607,-0.00
 019979,-0.00039687,-0.00020259,0.00028368,-0.00200582,0.00058283,-0.00
 002422,0.00001981,-0.00001780,0.00004716,-0.00002975,0.00005009,-0.000
 00049,-0.00002736,0.00001719,0.00002751,0.00016248,-0.00021144,-0.0000
 4264,0.00004397,0.00000739,0.00004185,-0.00009967,0.00007943,-0.000004
 14,0.00005101,0.00001855,0.00069261,-0.00015048,0.00160722,-0.11520961
 ,0.00212660,-0.22693771,0.00001584,0.00017589,-0.00083580,-0.00028416,
 -0.00051553,-0.00012097,0.00009962,0.00059251,0.00013025,0.00274619,0.
 00548522,0.00853108,0.00019531,0.00009849,0.00014212,-0.00051810,0.000
 19717,-0.00016481,0.00000059,-0.00000818,0.00002047,0.00000358,-0.0000
 0644,0.00000486,0.00001049,0.00000160,-0.00000090,-0.00000058,-0.00000
 460,-0.00001484,-0.00000144,0.00000719,-0.00000027,-0.00000281,-0.0000
 0359,0.00001564,0.00000513,-0.00003713,0.00003659,0.00005529,-0.000050
 90,0.00012206,0.00000869,-0.00001173,0.00005478,-0.00000522,0.00000407
 ,-0.00000555,-0.00004029,0.00004661,-0.00001348,0.00000158,-0.00000375
 ,0.00000262,-0.00000798,0.00001709,-0.00001039,0.00001121,-0.00001016,
 0.00000588,-0.00119933,0.00010860,0.00010380,-0.00007077,0.00007417,0.
 00018819,-0.00015442,-0.00020926,-0.00029535,-0.00136919,-0.00053333,-
 0.00320019,-0.01476074,-0.00115637,-0.01994400,0.12963627,-0.00404575,
 0.23930422,-0.00295329,-0.00452763,-0.00521252,0.00232380,-0.00093362,
 -0.00195041,0.00005517,0.00001774,0.00000110,-0.00016949,-0.00018775,0
 .00009450,-0.00014817,0.00007766,-0.00015111,0.00145917,0.00120814,0.0
 0061381,0.00119863,0.00079756,-0.00103363,-0.00314578,0.02580529,0.008
 75986,0.00024027,0.00048026,0.00035336,0.00006184,-0.00001295,-0.00016
 781,0.00005466,0.00019100,-0.00015732,-0.05006765,0.01907056,0.0088881
 1,-0.00027003,-0.03009342,-0.00925596,0.00129038,0.00375940,0.00185446
 ,-0.00010937,0.00002007,0.00040980,0.00055385,0.00304175,0.00296292,-0
 .00081249,0.00108542,0.00053892,-0.00000009,0.00000163,-0.00002167,-0.
 00003229,-0.00003619,0.00000913,-0.00002589,-0.00007274,-0.00002841,0.
 00012086,-0.00019230,-0.00016656,0.00009093,-0.00013445,-0.00010873,0.
 00002665,-0.00007069,-0.00005125,-0.00039953,-0.00063892,-0.00037071,-
 0.00009185,-0.00004308,0.00000004,0.00001619,-0.00015963,-0.00002933,0
 .00003440,-0.00069458,0.00016018,-0.00415848,0.00050801,0.00277391,0.0
 0016479,-0.00003403,0.00018269,-0.00007124,0.00009089,-0.00004208,0.00
 008707,-0.00001356,0.00009862,-0.00000802,-0.00001510,0.00003789,-0.00
 003088,-0.00000966,0.00001184,-0.00003967,-0.00000959,0.00003852,-0.00
 003770,0.00002243,0.00001892,-0.00019507,0.00010790,-0.00008878,-0.000
 02993,0.00002074,0.00006530,0.06004522,0.00087489,0.00303338,0.0017124
 4,0.00015725,-0.00025830,-0.00037814,0.00001033,0.00002626,-0.00004324
 ,0.00012550,0.00035383,0.00006632,0.00001905,0.00010514,0.00016265,-0.
 00017575,0.00011647,0.00033287,-0.00040969,0.00121217,0.00044001,0.001
 62502,-0.00109564,-0.00134488,-0.00011064,-0.00027474,-0.00026761,-0.0
 0001721,-0.00002863,-0.00008222,-0.00002256,-0.00004648,-0.00014886,0.
 01471094,-0.29545740,-0.08357878,-0.00098793,-0.00649194,-0.00262109,0
 .00037165,-0.00039001,-0.00031525,-0.00010449,-0.00017409,0.00026025,0
 .00276316,-0.00709537,0.00047650,-0.00019212,0.00011382,0.00024639,-0.
 00000387,-0.00001289,0.00002935,0.00000768,-0.00001325,-0.00001214,-0.
 00000464,-0.00002318,-0.00001543,-0.00017588,-0.00001491,0.00008088,-0
 .00006811,-0.00006983,0.00004519,-0.00001482,-0.00002529,0.00003662,0.
 00054121,0.00031348,0.00019974,0.00003646,-0.00003847,-0.00005653,0.00
 003779,-0.00001170,0.00010342,-0.00007599,0.00021315,-0.00038865,-0.00
 017008,0.00130981,0.00055692,-0.00012178,0.00008945,-0.00006387,0.0000
 1697,-0.00003226,0.00001355,-0.00005675,0.00002001,-0.00006290,0.00000
 121,-0.00002443,0.00003192,-0.00002436,-0.00000157,-0.00000448,-0.0000
 1423,0.00001030,0.00003328,-0.00005445,0.00002056,0.00003403,-0.000046
 54,0.00003246,0.00010504,0.00001505,0.00001919,-0.00002152,-0.01883094
 ,0.31967378,-0.00271244,-0.00205233,-0.00307482,0.00055744,0.00062985,
 -0.00084462,-0.00003176,-0.00004241,0.00007497,0.00001421,0.00009164,-
 0.00001337,0.00011986,0.00015392,0.00001182,-0.00095195,0.00029859,0.0
 0003551,-0.00090224,-0.00147296,0.00078513,0.00236667,-0.01940175,-0.0
 0732855,0.00007358,0.00018114,0.00039316,0.00007246,-0.00000395,0.0000
 8326,-0.00006232,0.00044116,0.00012938,0.00817870,-0.07949745,-0.07686
 245,-0.00196926,-0.01678387,-0.00654669,0.00063175,0.00134105,0.001252
 73,0.00007783,0.00002947,0.00007033,0.00235758,0.00020708,0.00131745,-
 0.00029192,0.00007514,0.00001987,-0.00002365,0.00001559,-0.00003118,0.
 00002679,0.00002294,-0.00000104,0.00004089,0.00007222,-0.00000475,-0.0
 0012135,0.00006457,0.00003199,-0.00016374,0.00015798,0.00013796,0.0000
 0331,0.00006829,-0.00000631,0.00011500,0.00018353,0.00052667,0.0000233
 5,0.00011504,0.00007267,0.00003670,0.00002704,-0.00018090,0.00033153,0
 .00075300,-0.00023866,0.00346815,-0.00076526,-0.00177136,0.00011435,-0
 .00003699,0.00014190,-0.00003289,0.00002916,-0.00001952,0.00004908,-0.
 00000397,0.00002688,-0.00002424,0.00001953,0.00000708,0.00002336,0.000
 00762,-0.00000342,0.00000036,-0.00001486,-0.00002889,0.00021129,-0.000
 00890,-0.00007373,0.00001668,-0.00000030,-0.00033355,-0.00000211,-0.00
 010324,0.00019996,-0.00738799,0.08875560,0.08298978,0.00029917,-0.0014
 8060,-0.00046359,-0.00077033,0.00237975,-0.00218316,0.00037273,-0.0001
 0494,0.00020427,0.00014347,0.00018237,-0.00011252,0.00029370,-0.001203
 53,0.00120348,0.00065049,-0.00127096,0.00197997,-0.00485895,0.00206214
 ,0.00172136,-0.00039595,-0.01713681,0.02255491,0.00003887,0.00025371,0
 .00000104,-0.00015170,-0.00012388,0.00038185,-0.00001271,-0.00137198,-
 0.00005448,-0.04837787,0.01230781,-0.01839649,-0.00443547,0.01823433,-
 0.02100547,-0.00493232,-0.00291626,-0.00347286,-0.00022016,-0.00039155
 ,0.00093130,0.00009342,0.00082898,0.00045669,-0.00003897,-0.00066419,0
 .00029031,-0.00004870,0.00006289,-0.00011390,-0.00001697,-0.00001201,-
 0.00002087,0.00003464,0.00001893,-0.00005227,0.00004120,-0.00002267,-0
 .00001356,-0.00001070,0.00006473,0.00000719,-0.00057068,0.00001497,0.0
 0031836,-0.00000247,-0.00004446,-0.00015514,-0.00053383,0.00059189,-0.
 00048791,0.00005217,0.00017853,0.00005987,-0.00004671,0.00006212,-0.00
 027012,0.00087074,0.00029756,-0.00066982,0.00000302,-0.00004549,0.0000
 3984,-0.00005080,0.00008213,-0.00000564,-0.00001247,0.00000943,-0.0000
 2450,-0.00003924,-0.00002832,-0.00002721,0.00002274,0.00002036,-0.0000
 5533,0.00007184,0.00005618,-0.00006042,0.00002432,0.00002137,-0.000067
 69,0.00003152,-0.00037457,-0.00016062,-0.00004504,-0.00020357,-0.00003
 465,-0.00052597,0.00105501,-0.00163225,0.06357817,-0.00116528,-0.00117
 851,-0.00132629,-0.00013096,0.00060742,0.00106910,0.00012301,-0.000025
 42,-0.00004546,-0.00029526,0.00006297,-0.00033211,0.00032644,0.0003067
 9,0.00001428,0.00022331,0.00025675,0.00012727,0.00024260,0.00055941,-0
 .00012518,0.00006867,0.00233672,-0.00455445,0.00008197,0.00010178,0.00
 016643,0.00005695,-0.00000380,0.00006489,-0.00127921,-0.00165974,-0.00
 054697,0.01435882,-0.13644733,0.12039493,-0.00083455,0.00422246,-0.007
 46869,-0.00161580,0.00067440,-0.00091443,-0.00051452,-0.00029186,-0.00
 075004,0.00222793,-0.00118687,0.00089023,0.00011467,-0.00008236,-0.000
 36430,-0.00002929,0.00003071,-0.00004812,0.00000095,0.00000103,-0.0000
 0726,-0.00008757,0.00000226,0.00002899,0.00005992,-0.00003400,-0.00004
 040,-0.00010594,0.00002025,0.00006619,0.00000514,0.00000760,-0.0000158
 1,-0.00005233,-0.00019900,0.00015349,-0.00037412,0.00031136,-0.0001930
 5,0.00004242,-0.00009805,0.00008995,0.00013894,0.00040742,-0.00022669,
 -0.00060018,0.00056604,0.00006927,0.00004105,0.00000756,0.00009257,-0.
 00002935,0.00001241,-0.00001368,0.00003086,-0.00000232,0.00001734,0.00
 002575,0.00006560,-0.00002029,0.00004207,-0.00000916,0.00001412,-0.000
 00045,0.00001098,-0.00001126,-0.00021344,-0.00014293,0.00008599,-0.000
 76864,-0.00140155,0.00005505,0.00002401,-0.00012382,0.00008665,0.00211
 583,-0.01576032,0.02749933,-0.01237430,0.14772756,0.00005636,-0.001196
 65,-0.00080865,0.00065243,0.00165737,-0.00112924,-0.00028406,-0.000016
 15,-0.00003217,0.00009737,-0.00043524,0.00005406,-0.00062470,0.0011780
 2,-0.00074361,-0.00205560,0.00023225,0.00071157,0.00390643,-0.00252468
 ,-0.00040656,0.00060888,0.01329848,-0.01781881,0.00006430,0.00014091,0
 .00002741,-0.00004277,-0.00022219,0.00030622,0.00023024,0.00059127,0.0
 0087603,-0.02081783,0.11912069,-0.21575478,-0.00204674,0.00972658,-0.0
 1199655,-0.00259847,-0.00178022,-0.00067932,0.00053371,0.00025681,0.00
 091462,0.00061741,0.00001208,0.00057515,-0.00010503,-0.00047687,0.0004
 8613,0.00009077,-0.00004492,0.00012204,0.00001448,0.00000117,0.0000366
 9,-0.00001851,-0.00002965,0.00005762,0.00001147,0.00000007,-0.00003566
 ,0.00000105,-0.00007338,-0.00000630,0.00050516,-0.00003873,-0.00028074
 ,0.00009139,-0.00007421,0.00004839,0.00063917,-0.00031828,0.00103411,-
 0.00013270,-0.00016868,0.00017830,-0.00002299,0.00010048,0.00017771,-0
 .00053827,-0.00047013,0.00030839,0.00001566,-0.00000910,0.00003353,-0.
 00002895,0.00003968,-0.00002214,-0.00000971,0.00000835,-0.00000723,-0.
 00002758,-0.00000965,-0.00002832,0.00006121,0.00002605,-0.00007823,0.0
 0001709,0.00000464,-0.00005916,0.00056938,0.00002344,-0.00019150,-0.00
 004506,-0.00031230,-0.00075952,-0.00008429,-0.00016818,0.00029811,0.00
 082033,-0.00473922,0.01008178,0.02012416,-0.13386631,0.23464839,-0.001
 74514,-0.00058988,-0.00155964,-0.00377036,0.02144391,0.01500195,0.0000
 0052,-0.00002225,-0.00002490,0.00006088,0.00008564,0.00015654,-0.00000
 714,0.00001526,0.00010485,0.00013410,-0.00006751,-0.00033546,-0.000157
 93,0.00003857,0.00011735,0.00181169,-0.00197794,-0.00078460,0.00017189
 ,0.00052832,0.00006854,-0.00034267,-0.00034241,-0.00038508,0.00011696,
 0.00018544,-0.00031169,0.00137862,-0.02518077,-0.01684796,-0.05150994,
 0.03403066,0.02650611,-0.00186170,0.01367413,0.00302010,-0.00040200,-0
 .00104108,-0.00045661,0.00070295,0.00015287,0.00056023,-0.00495390,-0.
 00229155,0.00145568,0.00002153,0.00000281,0.00000513,0.00000425,0.0000
 1213,0.00000149,0.00006154,0.00000025,-0.00002077,-0.00005230,0.000015
 66,0.00002349,-0.00002300,0.00000631,0.00002630,0.00000810,0.00001662,
 -0.00000724,0.00003663,0.00023968,0.00015312,0.00002629,-0.00002791,0.
 00001529,0.00006257,-0.00004601,0.00016186,0.00008575,0.00018651,-0.00
 011617,-0.00007493,0.00097631,0.00033259,0.00001832,-0.00000427,-0.000
 04481,-0.00011088,0.00010496,-0.00011481,0.00001870,-0.00001204,0.0000
 3848,0.00017415,-0.00002965,-0.00007268,0.00002363,0.00009916,-0.00015
 878,-0.00015917,-0.00003348,0.00014186,0.00009935,-0.00014578,-0.00000
 780,0.00073727,0.00050456,-0.00051543,0.00008470,-0.00005754,-0.000040
 55,-0.00488622,-0.00065175,-0.00293559,0.00031330,0.00036766,0.0001468
 7,0.06374220,0.00395413,0.00219844,0.00444574,0.00154514,0.00637407,0.
 00282887,0.00000138,0.00000029,-0.00001667,-0.00000277,0.00001837,0.00
 000240,0.00002031,-0.00001647,0.00005032,-0.00000468,0.00044068,0.0001
 0285,-0.00031590,-0.00002754,0.00001912,0.00155874,0.00063112,-0.00008
 437,-0.00025688,-0.00146260,-0.00022212,-0.00020222,0.00007958,-0.0003
 3006,0.00077029,-0.00137540,0.00132728,-0.00162873,-0.00843647,-0.0070
 9864,0.03442564,-0.20464724,-0.11111900,0.00563293,-0.03135172,-0.0085
 6285,0.00056049,-0.00022556,-0.00053122,-0.00051233,0.00015786,-0.0009
 2562,-0.00223765,0.00020017,-0.00030213,0.00000982,-0.00000437,0.00000
 807,0.00000994,0.00001207,0.00001012,0.00000224,-0.00000930,0.00000045
 ,-0.00002710,0.00001224,0.00000340,-0.00004557,0.00004112,0.00003007,-
 0.00000175,0.00000497,-0.00000254,0.00023577,0.00005791,0.00009942,0.0
 0001946,-0.00004023,0.00002094,0.00007574,-0.00030258,0.00018304,0.000
 19588,0.00015279,0.00000770,-0.00088886,0.00056171,0.00048244,0.000022
 17,0.00003010,0.00007529,0.00032763,-0.00024980,0.00027289,0.00005166,
 -0.00000509,0.00001531,0.00000042,0.00000561,-0.00006362,-0.00000395,-
 0.00005674,0.00003616,-0.00005270,-0.00004902,0.00000248,-0.00027438,-
 0.00022976,0.00039737,-0.00018755,-0.00145080,0.00255612,-0.00002510,0
 .00003173,0.00008683,-0.00173816,0.00100453,-0.00111908,-0.00038595,0.
 00004299,-0.00025304,-0.04084982,0.23732538,-0.00317229,0.00009100,-0.
 00306571,0.00165216,-0.02122416,-0.00886782,-0.00000258,0.00001107,0.0
 0002857,0.00002310,0.00002223,0.00000626,0.00000721,-0.00009792,-0.000
 00800,0.00004502,0.00030777,-0.00000910,-0.00015796,0.00011306,0.00030
 707,0.00179090,0.00043206,0.00054248,0.00020582,0.00107866,0.00011143,
 0.00009505,0.00057541,0.00013304,0.00124793,0.00034906,-0.00123482,-0.
 00043690,-0.01400263,-0.00780679,0.02761936,-0.12140589,-0.13522135,-0
 .00603599,0.02865388,0.01000918,0.00064040,0.00193452,-0.00015102,0.00
 091576,0.00034260,0.00113181,0.00434331,0.00219580,-0.00160281,-0.0000
 1589,-0.00000105,-0.00000040,0.00000297,0.00000269,-0.00000454,-0.0000
 1058,-0.00000875,-0.00000994,-0.00002531,0.00001209,0.00001436,0.00000
 038,0.00000662,0.00000919,-0.00003456,-0.00000554,0.00002375,0.0001955
 8,0.00008059,0.00007269,-0.00001246,-0.00002420,-0.00003872,-0.0000924
 6,-0.00000453,-0.00004541,0.00001011,0.00005665,-0.00008416,-0.0007464
 2,0.00053464,0.00059440,0.00001795,-0.00006309,-0.00003602,-0.00021990
 ,0.00018995,-0.00019969,-0.00002512,-0.00000662,-0.00000585,-0.0000832
 6,0.00001144,0.00000180,-0.00012740,-0.00012473,0.00024856,0.00016604,
 0.00006731,-0.00011583,-0.00024730,0.00017515,0.00013122,-0.00128026,0
 .00201952,-0.00114505,-0.00044902,-0.00002784,0.00039879,-0.00266395,0
 .00046202,-0.00110973,0.00005824,0.00021955,-0.00002524,-0.02365675,0.
 11734049,0.14600165,0.00144598,0.00573380,0.01019675,0.00203850,-0.000
 96509,0.00091669,-0.00000973,0.00000753,-0.00005292,-0.00000241,-0.000
 01347,-0.00006072,0.00003946,0.00000258,0.00013184,-0.00017602,0.00001
 519,0.00017329,-0.00048188,-0.00001363,-0.00024810,0.00030924,-0.00012
 200,-0.00029493,-0.00033442,0.00135111,-0.00029780,-0.00008065,-0.0000
 2952,0.00001913,0.00020794,-0.00006268,-0.00008070,0.00056994,0.003152
 26,-0.00171534,-0.00921028,-0.00616542,-0.00256804,-0.22715182,-0.1041
 3105,-0.20001978,-0.00031418,0.00033322,-0.00011780,0.00357898,0.00271
 210,-0.00187405,-0.00109602,0.00021463,-0.00028288,0.00002559,-0.00001
 712,0.00002764,0.00000800,0.00000541,0.00001250,-0.00002078,-0.0000040
 4,0.00002967,-0.00001026,0.00000543,0.00000465,-0.00003085,0.00002910,
 0.00000211,-0.00003444,-0.00001844,0.00002773,0.00002882,0.00001414,0.
 00000522,0.00006622,-0.00004143,0.00007873,-0.00017127,-0.00010953,0.0
 0015840,0.00016380,0.00009136,0.00009091,-0.00008857,0.00012041,0.0000
 4494,0.00058325,0.00053789,0.00045658,-0.00030989,-0.00002307,0.000314
 37,-0.00041399,0.00051385,0.00027634,-0.00000421,0.00000827,-0.0000305
 5,-0.00001662,-0.00002104,0.00004635,0.00000740,0.00000452,0.00000681,
 -0.00001349,0.00004509,0.00001749,-0.00008448,-0.00001347,-0.00002046,
 -0.00004794,0.00001955,0.00002322,0.00038520,-0.00003461,0.00033476,-0
 .00083751,-0.00024782,-0.00039204,0.00016139,0.00022228,0.00045906,0.2
 3132202,-0.03321552,-0.00716703,-0.02435627,0.00122924,-0.00010884,0.0
 0042503,0.00000727,-0.00003355,0.00000417,0.00000810,0.00004986,0.0000
 4621,-0.00000482,0.00009900,-0.00002692,0.00011999,-0.00007715,-0.0001
 3920,0.00004471,-0.00017867,-0.00000442,-0.00019138,0.00014651,0.00020
 589,0.00149401,-0.00016027,-0.00081683,0.00003148,-0.00003268,-0.00000
 052,0.00004035,0.00004491,0.00000199,-0.00009519,-0.00386908,0.0031874
 7,0.02033095,0.00945514,0.01817226,-0.09228628,-0.11930208,-0.08487141
 ,-0.00032958,-0.00028373,0.00008379,0.00357978,-0.00845226,-0.00228511
 ,-0.00035011,0.00007231,0.00024961,0.00000787,0.00000897,-0.00001403,-
 0.00000289,0.00000310,-0.00000205,0.00003478,-0.00000187,-0.00001007,0
 .00000439,-0.00001009,-0.00000790,-0.00000103,-0.00001390,0.00000363,0
 .00001621,-0.00000062,-0.00001749,-0.00001268,0.00000471,0.00000647,-0
 .00003137,0.00003560,-0.00003876,-0.00006064,0.00004243,-0.00002923,0.
 00004864,0.00003593,-0.00001254,0.00003398,-0.00005234,-0.00003308,0.0
 0037705,-0.00094178,0.00156343,-0.00021905,0.00076065,0.00034026,0.000
 42260,-0.00046806,0.00013548,-0.00001142,-0.00000126,-0.00000879,-0.00
 000207,0.00001397,0.00001096,-0.00002765,-0.00003451,0.00003337,-0.000
 02940,-0.00004867,0.00002452,0.00007054,0.00005473,0.00005664,-0.00000
 638,0.00001758,-0.00005775,0.00002672,-0.00032707,0.00006681,0.0013708
 5,0.00030459,0.00080944,0.00068424,0.00055697,-0.00028889,0.09689370,0
 .12985852,-0.00478736,-0.00712843,-0.01178537,-0.00425941,0.00276180,-
 0.00099042,0.00001239,0.00000998,0.00002023,-0.00000732,-0.00003085,-0
 .00001330,-0.00001222,-0.00005047,-0.00001605,-0.00000544,0.00004278,0
 .00004863,0.00033381,0.00008689,0.00012548,-0.00021774,0.00007127,-0.0
 0009864,0.00079475,0.00248478,0.00087040,0.00022195,0.00000421,-0.0000
 7984,-0.00045314,0.00014252,0.00015692,0.00088306,0.00277093,-0.001010
 48,-0.01394493,-0.00678825,-0.01342641,-0.17432182,-0.07761346,-0.1683
 2901,0.00049077,-0.00099792,0.00041594,-0.00121496,-0.00185882,0.00579
 856,0.00232818,-0.00167338,0.00172393,-0.00000786,0.00000374,-0.000004
 43,-0.00000832,-0.00000910,-0.00000985,-0.00001429,0.00000329,-0.00000
 770,0.00000622,-0.00000136,0.00000108,0.00003697,-0.00003248,-0.000011
 37,0.00001463,0.00001974,-0.00000778,-0.00000991,-0.00001993,-0.000012
 54,0.00000201,0.00000451,-0.00001185,0.00000348,0.00008933,0.00005518,
 -0.00014876,-0.00010482,-0.00007319,0.00002827,-0.00006277,0.00000854,
 -0.00033074,0.00082504,-0.00068928,-0.00016415,0.00033516,-0.00077316,
 0.00053843,-0.00044063,-0.00014220,-0.00000438,-0.00005682,0.00009783,
 0.00006932,0.00006061,-0.00011820,-0.00003618,-0.00005040,0.00001381,0
 .00008397,-0.00012142,-0.00001875,0.00003168,-0.00002700,-0.00004906,0
 .00010695,-0.00009292,0.00005396,0.00019400,-0.00004015,0.00008326,-0.
 00079237,-0.00033483,-0.00011254,0.00035949,0.00022580,0.00102170,0.19
 420096,0.08759382,0.18729596\\0.00001070,0.00000844,0.00001605,-0.0000
 1042,0.00001087,0.00000104,-0.00000134,0.00000006,-0.00000032,0.000001
 26,-0.00000068,0.00000006,0.00000243,-0.00000072,-0.00000088,-0.000002
 65,-0.00000093,-0.00000004,-0.00000100,-0.00000175,0.00000258,0.000002
 77,0.00000351,-0.00000173,-0.00000114,-0.00000080,-0.00000438,0.000000
 38,0.00000327,-0.00000202,0.00000162,0.00000344,0.00000423,-0.00000373
 ,-0.00000074,-0.00000133,0.00000783,0.00000073,0.00000621,-0.00000551,
 -0.00000320,-0.00000836,-0.00000031,-0.00000694,-0.00000307,-0.0000075
 8,-0.00000423,-0.00000835,0.00000732,-0.00000781,0.00000064,-0.0000000
 9,-0.00000019,0.00000009,0.00000016,0.00000012,0.00000002,-0.00000052,
 -0.00000014,-0.00000023,-0.00000026,-0.00000050,0.00000008,-0.00000037
 ,-0.00000033,0.00000019,-0.00000027,-0.00000041,0.00000023,0.00000023,
 0.00000056,0.00000008,0.00000053,0.00000039,0.00000005,0.00000040,0.00
 000002,-0.00000004,0.00000079,0.00000009,-0.00000084,-0.00000052,-0.00
 000145,-0.00000059,-0.00000021,-0.00000016,0.00000042,0.00000036,0.000
 00075,0.00000031,-0.00000046,0.00000074,-0.00000077,0.00000033,-0.0000
 0158,-0.00000004,-0.00000152,0.00000080,0.00000108,-0.00000155,0.00000
 009,0.00000048,-0.00000116,0.00000177,0.00000200,-0.00000079,-0.000002
 39,-0.00000274,0.00000172,0.00000060,-0.00000018,0.00000109,-0.0000005
 7,0.00000020,0.00000119,0.00000011,-0.00000123,0.00000047,-0.00000047,
 -0.00000048,-0.00000017,-0.00000037,0.00000161\\\@


 THE WISE MAN HAS THE POWER TO REASON AWAY
 WHAT A FOOL BELIEVES.
                     - DOOBIE BROTHERS
 Job cpu time:  0 days  4 hours 51 minutes  9.3 seconds.
 File lengths (MBytes):  RWF=    439 Int=      0 D2E=      0 Chk=      8 Scr=      1
 Normal termination of Gaussian 09 at Fri Feb 16 21:05:32 2018.
