 Entering Gaussian System, Link 0=g09
 Initial command:
 /home/fb_chem/chemsoft/lx24-amd64/Gaussian_09_C.01_NBO_3.1_64_istanbul-64/g09/l1.exe /local/2399996.1.parallel/Gau-21763.inp -scrdir=/local/2399996.1.parallel/
 Entering Link 1 = /home/fb_chem/chemsoft/lx24-amd64/Gaussian_09_C.01_NBO_3.1_64_istanbul-64/g09/l1.exe PID=     21765.
  
 Copyright (c) 1988,1990,1992,1993,1995,1998,2003,2009,2011,
            Gaussian, Inc.  All Rights Reserved.
  
 This is part of the Gaussian(R) 09 program.  It is based on
 the Gaussian(R) 03 system (copyright 2003, Gaussian, Inc.),
 the Gaussian(R) 98 system (copyright 1998, Gaussian, Inc.),
 the Gaussian(R) 94 system (copyright 1995, Gaussian, Inc.),
 the Gaussian 92(TM) system (copyright 1992, Gaussian, Inc.),
 the Gaussian 90(TM) system (copyright 1990, Gaussian, Inc.),
 the Gaussian 88(TM) system (copyright 1988, Gaussian, Inc.),
 the Gaussian 86(TM) system (copyright 1986, Carnegie Mellon
 University), and the Gaussian 82(TM) system (copyright 1983,
 Carnegie Mellon University). Gaussian is a federally registered
 trademark of Gaussian, Inc.
  
 This software contains proprietary and confidential information,
 including trade secrets, belonging to Gaussian, Inc.
  
 This software is provided under written license and may be
 used, copied, transmitted, or stored only in accord with that
 written license.
  
 The following legend is applicable only to US Government
 contracts under FAR:
  
                    RESTRICTED RIGHTS LEGEND
  
 Use, reproduction and disclosure by the US Government is
 subject to restrictions as set forth in subparagraphs (a)
 and (c) of the Commercial Computer Software - Restricted
 Rights clause in FAR 52.227-19.
  
 Gaussian, Inc.
 340 Quinnipiac St., Bldg. 40, Wallingford CT 06492
  
  
 ---------------------------------------------------------------
 Warning -- This program may not be used in any manner that
 competes with the business of Gaussian, Inc. or will provide
 assistance to any competitor of Gaussian, Inc.  The licensee
 of this program is prohibited from giving any competitor of
 Gaussian, Inc. access to this program.  By using this program,
 the user acknowledges that Gaussian, Inc. is engaged in the
 business of creating and licensing software in the field of
 computational chemistry and represents and warrants to the
 licensee that it is not a competitor of Gaussian, Inc. and that
 it will not use this program in any manner prohibited above.
 ---------------------------------------------------------------
  

 Cite this work as:
 Gaussian 09, Revision C.01,
 M. J. Frisch, G. W. Trucks, H. B. Schlegel, G. E. Scuseria, 
 M. A. Robb, J. R. Cheeseman, G. Scalmani, V. Barone, B. Mennucci, 
 G. A. Petersson, H. Nakatsuji, M. Caricato, X. Li, H. P. Hratchian, 
 A. F. Izmaylov, J. Bloino, G. Zheng, J. L. Sonnenberg, M. Hada, 
 M. Ehara, K. Toyota, R. Fukuda, J. Hasegawa, M. Ishida, T. Nakajima, 
 Y. Honda, O. Kitao, H. Nakai, T. Vreven, J. A. Montgomery, Jr., 
 J. E. Peralta, F. Ogliaro, M. Bearpark, J. J. Heyd, E. Brothers, 
 K. N. Kudin, V. N. Staroverov, T. Keith, R. Kobayashi, J. Normand, 
 K. Raghavachari, A. Rendell, J. C. Burant, S. S. Iyengar, J. Tomasi, 
 M. Cossi, N. Rega, J. M. Millam, M. Klene, J. E. Knox, J. B. Cross, 
 V. Bakken, C. Adamo, J. Jaramillo, R. Gomperts, R. E. Stratmann, 
 O. Yazyev, A. J. Austin, R. Cammi, C. Pomelli, J. W. Ochterski, 
 R. L. Martin, K. Morokuma, V. G. Zakrzewski, G. A. Voth, 
 P. Salvador, J. J. Dannenberg, S. Dapprich, A. D. Daniels, 
 O. Farkas, J. B. Foresman, J. V. Ortiz, J. Cioslowski, 
 and D. J. Fox, Gaussian, Inc., Wallingford CT, 2010.
 
 ******************************************
 Gaussian 09:  AM64L-G09RevC.01 23-Sep-2011
                17-Feb-2018 
 ******************************************
 %nprocs=2
 Will use up to    2 processors via shared memory.
 %chk=frag13-conf1.chk
 ----------------------------------------------------------------------
 #HF/6-31G* Geom=AllCheck Guess=Read Pop=(MK,ReadRadii) Integral=(Grid=
 UltraFine) iop(6/33=2)
 ----------------------------------------------------------------------
 1/29=7,38=1/1;
 2/12=2,40=1/2;
 3/5=1,6=6,7=1,11=9,14=-4,16=1,25=1,30=1,75=-5,116=-2/1,2,3;
 4/5=1/1;
 5/5=2,38=6/2;
 6/7=2,8=2,9=2,10=2,15=8,20=101,28=1,33=2/1,2;
 99/5=1,9=1/99;
 Structure from the checkpoint file:  frag13-conf1.chk
 -----------------------------
 Optimization for frag13-conf1
 -----------------------------
 Charge =  1 Multiplicity = 1
 Redundant internal coordinates found in file.
 C,0,-5.9552376997,2.6101021752,-0.1848710943
 C,0,-0.1471001101,0.6829041183,0.399150583
 C,0,-1.2133021606,0.0112969805,-0.4800809625
 C,0,-0.6979358417,1.9391970849,1.0907985905
 C,0,-2.4891389524,-0.3088312078,0.3199444058
 C,0,-1.9744778271,1.6289160661,1.8936843105
 C,0,-3.0493390893,0.9116886982,1.0628666898
 C,0,-8.1866292107,3.554719918,-0.2666968294
 C,0,-7.698484436,1.502780336,-1.5683384841
 C,0,-4.9265020657,1.5249164308,-0.6106232687
 N,0,-7.2049869199,2.5361009203,-0.6596408285
 N,0,-3.6492546927,1.9124263356,0.0721214044
 O,0,-5.5401202949,3.4869781181,0.5860148197
 H,0,0.191605837,-0.0311071642,1.1622446286
 H,0,0.7320590476,0.9370498985,-0.202253352
 H,0,-1.4482501202,0.6624636676,-1.3386374695
 H,0,-0.8264607402,-0.9147215122,-0.9179849701
 H,0,0.0505026521,2.3677460826,1.7651878282
 H,0,-0.8948403639,2.7207816061,0.3393960076
 H,0,-3.2547306207,-0.7633382371,-0.321775702
 H,0,-2.2568245484,-1.0582995079,1.0864588759
 H,0,-1.7256236976,0.9567471364,2.7241218377
 H,0,-2.3905317588,2.5359223702,2.3509978098
 H,0,-3.8953507202,0.6317629176,1.698861791
 H,0,-8.5559120876,4.0715009229,-1.1585379797
 H,0,-7.7116270793,4.2693684891,0.4024027765
 H,0,-9.0293889562,3.0752058208,0.2418260679
 H,0,-8.544061796,0.9793390523,-1.1093633052
 H,0,-6.9284386223,0.7683642558,-1.8045658572
 H,0,-8.0394003665,1.9603089841,-2.5034988213
 H,0,-5.2227237665,0.5300318461,-0.2726498778
 H,0,-4.7722641495,1.4958951959,-1.6907849655
 H,0,-3.9419156677,2.7904593721,0.5803956503
 H,0,-2.9353471485,2.1731856797,-0.6130476566
 Recover connectivity data from disk.
                          Input orientation:                          
 ---------------------------------------------------------------------
 Center     Atomic      Atomic             Coordinates (Angstroms)
 Number     Number       Type             X           Y           Z
 ---------------------------------------------------------------------
      1          6           0       -5.955238    2.610102   -0.184871
      2          6           0       -0.147100    0.682904    0.399151
      3          6           0       -1.213302    0.011297   -0.480081
      4          6           0       -0.697936    1.939197    1.090799
      5          6           0       -2.489139   -0.308831    0.319944
      6          6           0       -1.974478    1.628916    1.893684
      7          6           0       -3.049339    0.911689    1.062867
      8          6           0       -8.186629    3.554720   -0.266697
      9          6           0       -7.698484    1.502780   -1.568338
     10          6           0       -4.926502    1.524916   -0.610623
     11          7           0       -7.204987    2.536101   -0.659641
     12          7           0       -3.649255    1.912426    0.072121
     13          8           0       -5.540120    3.486978    0.586015
     14          1           0        0.191606   -0.031107    1.162245
     15          1           0        0.732059    0.937050   -0.202253
     16          1           0       -1.448250    0.662464   -1.338637
     17          1           0       -0.826461   -0.914722   -0.917985
     18          1           0        0.050503    2.367746    1.765188
     19          1           0       -0.894840    2.720782    0.339396
     20          1           0       -3.254731   -0.763338   -0.321776
     21          1           0       -2.256825   -1.058300    1.086459
     22          1           0       -1.725624    0.956747    2.724122
     23          1           0       -2.390532    2.535922    2.350998
     24          1           0       -3.895351    0.631763    1.698862
     25          1           0       -8.555912    4.071501   -1.158538
     26          1           0       -7.711627    4.269368    0.402403
     27          1           0       -9.029389    3.075206    0.241826
     28          1           0       -8.544062    0.979339   -1.109363
     29          1           0       -6.928439    0.768364   -1.804566
     30          1           0       -8.039400    1.960309   -2.503499
     31          1           0       -5.222724    0.530032   -0.272650
     32          1           0       -4.772264    1.495895   -1.690785
     33          1           0       -3.941916    2.790459    0.580396
     34          1           0       -2.935347    2.173186   -0.613048
 ---------------------------------------------------------------------
                    Distance matrix (angstroms):
                    1          2          3          4          5
     1  C    0.000000
     2  C    6.147328   0.000000
     3  C    5.415431   1.536519   0.000000
     4  C    5.451300   1.536252   2.539698   0.000000
     5  C    4.559479   2.544594   1.539572   2.975946   0.000000
     6  C    4.596691   2.543203   2.971673   1.539630   2.548803
     7  C    3.589666   2.985942   2.561723   2.566252   1.534740
     8  C    2.424481   8.562985   7.824875   7.780311   6.908876
     9  C    2.485770   7.846440   6.742879   7.501277   5.829651
    10  C    1.554731   4.956946   4.011974   4.576815   3.188938
    11  N    1.338938   7.373544   6.504396   6.764765   5.593965
    12  N    2.422881   3.726092   3.138962   3.122291   2.518188
    13  O    1.239153   6.081317   5.651396   5.108540   4.877238
    14  H    6.824543   1.098566   2.161666   2.162981   2.823649
    15  H    6.893428   1.095079   2.172242   2.172825   3.492997
    16  H    5.043551   2.171017   1.102877   2.845203   2.185808
    17  H    6.266274   2.179171   1.094950   3.492360   2.159646
    18  H    6.319049   2.178026   3.491602   1.094813   3.962647
    19  H    5.088686   2.171550   2.848555   1.101931   3.423554
    20  H    4.323376   3.502673   2.189189   3.979480   1.097503
    21  H    5.362062   2.820482   2.164953   3.378630   1.096913
    22  H    5.393093   2.823512   3.379832   2.165432   2.822182
    23  H    4.375301   3.503765   3.971726   2.192958   3.496788
    24  H    3.421317   3.967524   3.510862   3.507504   2.182559
    25  H    3.138028   9.198755   8.417807   8.447131   7.627513
    26  H    2.486556   8.371667   7.819091   7.422631   6.945581
    27  H    3.138279   9.200158   8.426144   8.451295   7.364284
    28  H    3.196261   8.536536   7.421128   8.205104   6.353298
    29  H    2.638661   7.130934   5.915251   6.969444   5.037983
    30  H    3.184651   8.505618   7.381632   8.174137   6.627687
    31  H    2.207028   5.122172   4.048157   4.931373   2.920162
    32  H    2.215550   5.140129   4.041788   4.953168   3.537334
    33  H    2.161395   4.344567   4.036544   3.392427   3.432783
    34  H    3.081229   3.319609   2.767107   2.822030   2.688863
                    6          7          8          9         10
     6  C    0.000000
     7  C    1.536229   0.000000
     8  C    6.853232   5.928331   0.000000
     9  C    6.690722   5.374680   2.478510   0.000000
    10  C    3.872573   2.588505   3.855751   2.932848   0.000000
    11  N    5.890728   4.782798   1.468200   1.461856   2.493269
    12  N    2.490652   1.530670   4.837323   4.388072   1.499221
    13  O    4.228026   3.614346   2.781315   3.638243   2.378688
    14  H    2.825349   3.376753   9.224687   8.488959   5.635539
    15  H    3.492417   3.987498   9.295125   8.559223   5.703654
    16  H    3.414506   2.897037   7.410800   6.310652   3.656784
    17  H    3.961505   3.492955   8.635518   7.313821   4.780862
    18  H    2.159381   3.496052   8.566668   8.479821   5.579016
    19  H    2.184857   2.904839   7.364305   7.170255   4.311256
    20  H    3.502883   2.182919   6.555325   5.141611   2.848572
    21  H    2.820011   2.123556   7.633712   6.574096   4.084149
    22  H    1.096980   2.124623   7.578856   7.375529   4.657141
    23  H    1.097678   2.175188   6.440887   6.678543   4.027962
    24  H    2.173022   1.094799   5.551772   5.088919   2.682297
    25  H    7.654904   6.726173   1.094903   2.738876   4.467429
    26  H    6.489283   5.783352   1.088138   3.396764   4.039203
    27  H    7.388651   6.412169   1.094885   2.742357   4.468081
    28  H    7.252564   5.908903   2.733209   1.095285   3.692308
    29  H    6.241741   4.825984   3.422260   1.090019   2.450637
    30  H    7.498555   6.222482   2.750837   1.095482   3.669153
    31  H    4.056064   2.579315   4.234797   2.958790   1.091682
    32  H    4.549035   3.300358   4.233754   2.928789   1.091504
    33  H    2.635284   2.135240   4.395367   4.515195   1.997382
    34  H    2.739198   2.100728   5.441007   4.904029   2.094029
                   11         12         13         14         15
    11  N    0.000000
    12  N    3.683433   0.000000
    13  O    2.286396   2.513697   0.000000
    14  H    8.038620   4.440484   6.749937   0.000000
    15  H    8.109431   4.496949   6.816431   1.758201   0.000000
    16  H    6.091927   2.897770   5.331564   3.069948   2.473967
    17  H    7.256756   4.115974   6.622353   2.478828   2.523948
    18  H    7.651815   4.094141   5.822216   2.477488   2.526309
    19  H    6.391411   2.882997   4.714499   3.070885   2.474244
    20  H    5.158001   2.733225   4.910426   3.823050   4.335908
    21  H    6.360259   3.434087   5.629389   2.656253   3.817804
    22  H    6.630809   3.412739   5.052124   2.662909   3.821553
    23  H    5.678285   2.677015   3.733575   3.830171   4.338901
    24  H    4.488065   2.084933   3.477923   4.174993   5.012022
    25  H    2.105077   5.500128   3.532723   9.936624   9.849146
    26  H    2.094955   4.708198   2.315446   9.029537   9.097571
    27  H    2.105165   5.506968   3.530300   9.773592  10.002739
    28  H    2.102113   5.121103   4.264531   9.082571   9.320464
    29  H    2.124200   3.947642   3.877263   7.754750   7.828096
    30  H    2.104185   5.090137   4.257019   9.227832   9.125858
    31  H    2.846655   2.122660   3.095412   5.629277   5.969092
    32  H    2.839617   2.131311   3.120550   5.925497   5.729364
    33  H    3.500003   1.055905   1.743396   5.038431   5.088586
    34  H    4.285289   1.023287   3.154147   4.217630   3.891870
                   16         17         18         19         20
    16  H    0.000000
    17  H    1.746735   0.000000
    18  H    3.845514   4.329327   0.000000
    19  H    2.712698   3.847410   1.746766   0.000000
    20  H    2.516007   2.504970   5.008360   4.259733   0.000000
    21  H    3.081544   2.466648   4.185955   4.085897   1.750984
    22  H    4.082836   4.192354   2.462742   3.080412   3.817637
    23  H    4.243955   5.003949   2.515970   2.513525   4.333091
    24  H    3.900724   4.319443   4.311357   3.900668   2.537652
    25  H    7.884975   9.201342   9.247774   7.922138   7.223459
    26  H    7.434438   8.719159   8.107035   6.990756   6.761398
    27  H    8.111280   9.195255   9.233935   8.142851   6.956921
    28  H    7.106583   7.948928   9.168274   7.977601   5.624433
    29  H    5.500979   6.391630   8.000424   6.694237   4.247459
    30  H    6.817959   7.925033   9.156103   7.726908   5.922097
    31  H    3.924350   4.672355   5.944484   4.889229   2.355465
    32  H    3.444951   4.688033   5.996912   4.544931   3.046511
    33  H    3.798608   5.067501   4.185908   3.057385   3.730364
    34  H    2.240585   3.751741   3.822193   2.317472   2.968167
                   21         22         23         24         25
    21  H    0.000000
    22  H    2.650382   0.000000
    23  H    3.812528   1.753602   0.000000
    24  H    2.432307   2.421671   2.513083   0.000000
    25  H    8.428130   8.451602   7.258564   6.458898   0.000000
    26  H    7.655511   7.224685   5.925868   5.429267   1.785638
    27  H    7.979154   7.999665   6.986691   5.869558   1.782640
    28  H    6.964407   7.822226   7.229314   5.442192   3.092576
    29  H    5.789534   6.900274   6.401997   4.635978   3.738547
    30  H    7.445668   8.258264   7.470421   6.049629   2.555941
    31  H    3.628572   4.625196   4.350682   2.378892   4.943374
    32  H    4.534802   5.391113   4.805238   3.606301   4.607930
    33  H    4.231853   3.587480   2.367829   2.431688   5.094499
    34  H    3.713652   3.752313   3.035452   2.939816   5.957509
                   26         27         28         29         30
    26  H    0.000000
    27  H    1.785583   0.000000
    28  H    3.715196   2.540455   0.000000
    29  H    4.212022   3.731384   1.771456   0.000000
    30  H    3.726051   3.124081   1.777807   1.772985   0.000000
    31  H    4.542353   4.607960   3.454454   2.305002   3.867305
    32  H    4.551202   4.934807   3.851148   2.278450   3.398583
    33  H    4.053342   5.106672   5.226394   4.323914   5.195088
    34  H    5.313941   6.219469   5.755804   4.397501   5.447062
                   31         32         33         34
    31  H    0.000000
    32  H    1.773954   0.000000
    33  H    2.734536   2.742925   0.000000
    34  H    2.836885   2.234839   1.678843   0.000000
 Stoichiometry    C10H21N2O(1+)
 Framework group  C1[X(C10H21N2O)]
 Deg. of freedom    96
 Full point group                 C1      NOp   1
 Largest Abelian subgroup         C1      NOp   1
 Largest concise Abelian subgroup C1      NOp   1
                         Standard orientation:                         
 ---------------------------------------------------------------------
 Center     Atomic      Atomic             Coordinates (Angstroms)
 Number     Number       Type             X           Y           Z
 ---------------------------------------------------------------------
      1          6           0        2.083766   -0.341980   -0.129851
      2          6           0       -4.031104    0.178235   -0.486748
      3          6           0       -3.048154    1.358444   -0.444241
      4          6           0       -3.293289   -1.169199   -0.475761
      5          6           0       -2.092376    1.257856    0.758527
      6          6           0       -2.334632   -1.279173    0.723964
      7          6           0       -1.365669   -0.091948    0.831702
      8          6           0        4.462951   -0.789046    0.003247
      9          6           0        3.677896    1.561786   -0.013756
     10          6           0        0.893527    0.656698   -0.186099
     11          7           0        3.329382    0.142533   -0.049585
     12          7           0       -0.329875   -0.203659   -0.289726
     13          8           0        1.791508   -1.545816   -0.159253
     14          1           0       -4.696953    0.233224    0.385300
     15          1           0       -4.670650    0.251969   -1.372604
     16          1           0       -2.479156    1.399849   -1.388097
     17          1           0       -3.587798    2.309689   -0.391008
     18          1           0       -4.006341   -1.999104   -0.437936
     19          1           0       -2.744035   -1.299672   -1.422095
     20          1           0       -1.376772    2.089945    0.765692
     21          1           0       -2.668809    1.350078    1.687202
     22          1           0       -2.917197   -1.288424    1.653426
     23          1           0       -1.776596   -2.224242    0.705590
     24          1           0       -0.771187   -0.170280    1.747693
     25          1           0        5.126907   -0.607428   -0.848217
     26          1           0        4.088391   -1.810025   -0.033509
     27          1           0        5.022825   -0.633382    0.931193
     28          1           0        4.237609    1.782496    0.901480
     29          1           0        2.792977    2.197845   -0.035844
     30          1           0        4.306867    1.813247   -0.874711
     31          1           0        0.827539    1.260968    0.720693
     32          1           0        0.948133    1.324136   -1.048030
     33          1           0        0.094198   -1.170659   -0.292762
     34          1           0       -0.796071   -0.065848   -1.190162
 ---------------------------------------------------------------------
 Rotational constants (GHZ):      1.9409068      0.3310890      0.3010926
 Standard basis: 6-31G(d) (6D, 7F)
 There are   237 symmetry adapted basis functions of A   symmetry.
 Integral buffers will be    131072 words long.
 Raffenetti 1 integral format.
 Two-electron integral symmetry is turned on.
   237 basis functions,   448 primitive gaussians,   237 cartesian basis functions
    51 alpha electrons       51 beta electrons
       nuclear repulsion energy       864.6968635295 Hartrees.
 NAtoms=   34 NActive=   34 NUniq=   34 SFac= 1.00D+00 NAtFMM=   60 NAOKFM=F Big=F
 One-electron integrals computed using PRISM.
 NBasis=   237 RedAO= T  NBF=   237
 NBsUse=   237 1.00D-06 NBFU=   237
 Initial guess read from the checkpoint file:  frag13-conf1.chk
 B after Tr=     0.000000    0.000000    0.000000
         Rot=    1.000000    0.000000    0.000000    0.000000 Ang=   0.00 deg.
 Initial guess orbital symmetries:
       Occupied  (A) (A) (A) (A) (A) (A) (A) (A) (A) (A) (A) (A)
                 (A) (A) (A) (A) (A) (A) (A) (A) (A) (A) (A) (A)
                 (A) (A) (A) (A) (A) (A) (A) (A) (A) (A) (A) (A)
                 (A) (A) (A) (A) (A) (A) (A) (A) (A) (A) (A) (A)
                 (A) (A) (A)
       Virtual   (A) (A) (A) (A) (A) (A) (A) (A) (A) (A) (A) (A)
                 (A) (A) (A) (A) (A) (A) (A) (A) (A) (A) (A) (A)
                 (A) (A) (A) (A) (A) (A) (A) (A) (A) (A) (A) (A)
                 (A) (A) (A) (A) (A) (A) (A) (A) (A) (A) (A) (A)
                 (A) (A) (A) (A) (A) (A) (A) (A) (A) (A) (A) (A)
                 (A) (A) (A) (A) (A) (A) (A) (A) (A) (A) (A) (A)
                 (A) (A) (A) (A) (A) (A) (A) (A) (A) (A) (A) (A)
                 (A) (A) (A) (A) (A) (A) (A) (A) (A) (A) (A) (A)
                 (A) (A) (A) (A) (A) (A) (A) (A) (A) (A) (A) (A)
                 (A) (A) (A) (A) (A) (A) (A) (A) (A) (A) (A) (A)
                 (A) (A) (A) (A) (A) (A) (A) (A) (A) (A) (A) (A)
                 (A) (A) (A) (A) (A) (A) (A) (A) (A) (A) (A) (A)
                 (A) (A) (A) (A) (A) (A) (A) (A) (A) (A) (A) (A)
                 (A) (A) (A) (A) (A) (A) (A) (A) (A) (A) (A) (A)
                 (A) (A) (A) (A) (A) (A) (A) (A) (A) (A) (A) (A)
                 (A) (A) (A) (A) (A) (A)
 Requested convergence on RMS density matrix=1.00D-08 within 128 cycles.
 Requested convergence on MAX density matrix=1.00D-06.
 Requested convergence on             energy=1.00D-06.
 No special actions if energy rises.
 SCF Done:  E(RHF) =  -574.482895392     A.U. after   13 cycles
             Convg  =    0.6558D-08             -V/T =  2.0022

 **********************************************************************

            Population analysis using the SCF density.

 **********************************************************************

 Orbital symmetries:
 BldTbl:  Degeneracy threshold= 1.00D-02
       Occupied  (A) (A) (A) (A) (A) (A) (A) (A) (A) (A) (A) (A)
                 (A) (A) (A) (A) (A) (A) (A) (A) (A) (A) (A) (A)
                 (A) (A) (A) (A) (A) (A) (A) (A) (A) (A) (A) (A)
                 (A) (A) (A) (A) (A) (A) (A) (A) (A) (A) (A) (A)
                 (A) (A) (A)
       Virtual   (A) (A) (A) (A) (A) (A) (A) (A) (A) (A) (A) (A)
                 (A) (A) (A) (A) (A) (A) (A) (A) (A) (A) (A) (A)
                 (A) (A) (A) (A) (A) (A) (A) (A) (A) (A) (A) (A)
                 (A) (A) (A) (A) (A) (A) (A) (A) (A) (A) (A) (A)
                 (A) (A) (A) (A) (A) (A) (A) (A) (A) (A) (A) (A)
                 (A) (A) (A) (A) (A) (A) (A) (A) (A) (A) (A) (A)
                 (A) (A) (A) (A) (A) (A) (A) (A) (A) (A) (A) (A)
                 (A) (A) (A) (A) (A) (A) (A) (A) (A) (A) (A) (A)
                 (A) (A) (A) (A) (A) (A) (A) (A) (A) (A) (A) (A)
                 (A) (A) (A) (A) (A) (A) (A) (A) (A) (A) (A) (A)
                 (A) (A) (A) (A) (A) (A) (A) (A) (A) (A) (A) (A)
                 (A) (A) (A) (A) (A) (A) (A) (A) (A) (A) (A) (A)
                 (A) (A) (A) (A) (A) (A) (A) (A) (A) (A) (A) (A)
                 (A) (A) (A) (A) (A) (A) (A) (A) (A) (A) (A) (A)
                 (A) (A) (A) (A) (A) (A) (A) (A) (A) (A) (A) (A)
                 (A) (A) (A) (A) (A) (A)
 The electronic state is 1-A.
 Alpha  occ. eigenvalues --  -20.68723 -15.83572 -15.74699 -11.51994 -11.46665
 Alpha  occ. eigenvalues --  -11.44422 -11.40410 -11.37836 -11.37632 -11.37128
 Alpha  occ. eigenvalues --  -11.35908 -11.35474 -11.34451  -1.54486  -1.46010
 Alpha  occ. eigenvalues --   -1.39588  -1.25943  -1.17497  -1.15109  -1.13646
 Alpha  occ. eigenvalues --   -1.10645  -1.06551  -0.99203  -0.98406  -0.93813
 Alpha  occ. eigenvalues --   -0.90366  -0.89000  -0.84457  -0.82853  -0.81136
 Alpha  occ. eigenvalues --   -0.78802  -0.78555  -0.77487  -0.74697  -0.74527
 Alpha  occ. eigenvalues --   -0.73125  -0.71321  -0.69082  -0.68852  -0.67706
 Alpha  occ. eigenvalues --   -0.67263  -0.66940  -0.66522  -0.66150  -0.65951
 Alpha  occ. eigenvalues --   -0.62717  -0.59180  -0.58895  -0.57646  -0.57514
 Alpha  occ. eigenvalues --   -0.51753
 Alpha virt. eigenvalues --    0.02453   0.03861   0.07814   0.08356   0.10788
 Alpha virt. eigenvalues --    0.12092   0.13246   0.14076   0.14813   0.15152
 Alpha virt. eigenvalues --    0.16208   0.17608   0.17941   0.18620   0.18988
 Alpha virt. eigenvalues --    0.19273   0.19750   0.19916   0.21132   0.21519
 Alpha virt. eigenvalues --    0.22072   0.22545   0.23729   0.24412   0.25046
 Alpha virt. eigenvalues --    0.26230   0.26743   0.28405   0.29409   0.30466
 Alpha virt. eigenvalues --    0.32638   0.33048   0.34485   0.38007   0.43367
 Alpha virt. eigenvalues --    0.53795   0.54452   0.56277   0.57100   0.59336
 Alpha virt. eigenvalues --    0.59713   0.61265   0.61915   0.62176   0.64010
 Alpha virt. eigenvalues --    0.64743   0.67937   0.69584   0.71533   0.75354
 Alpha virt. eigenvalues --    0.76281   0.76678   0.77799   0.78553   0.79115
 Alpha virt. eigenvalues --    0.81274   0.83355   0.84617   0.84884   0.86124
 Alpha virt. eigenvalues --    0.88318   0.88584   0.90598   0.91143   0.93168
 Alpha virt. eigenvalues --    0.93599   0.95464   0.95625   0.96665   0.98840
 Alpha virt. eigenvalues --    0.99451   1.00231   1.00586   1.00996   1.01877
 Alpha virt. eigenvalues --    1.02226   1.03871   1.04141   1.05164   1.07075
 Alpha virt. eigenvalues --    1.07740   1.08348   1.08488   1.09697   1.11291
 Alpha virt. eigenvalues --    1.11757   1.11881   1.12983   1.13668   1.14279
 Alpha virt. eigenvalues --    1.16593   1.22444   1.23624   1.27217   1.28981
 Alpha virt. eigenvalues --    1.29996   1.37613   1.40195   1.43181   1.46022
 Alpha virt. eigenvalues --    1.47495   1.48523   1.54008   1.55984   1.56718
 Alpha virt. eigenvalues --    1.61898   1.62432   1.64480   1.69511   1.72570
 Alpha virt. eigenvalues --    1.73442   1.79801   1.82994   1.85187   1.86423
 Alpha virt. eigenvalues --    1.88621   1.89549   1.92553   1.94561   1.95573
 Alpha virt. eigenvalues --    2.01094   2.01810   2.03113   2.04313   2.05843
 Alpha virt. eigenvalues --    2.07914   2.08845   2.11264   2.12181   2.14112
 Alpha virt. eigenvalues --    2.14407   2.16108   2.19371   2.21494   2.22564
 Alpha virt. eigenvalues --    2.25510   2.25904   2.27999   2.29841   2.31665
 Alpha virt. eigenvalues --    2.32898   2.36405   2.39031   2.40019   2.44648
 Alpha virt. eigenvalues --    2.46108   2.46847   2.48837   2.51516   2.53077
 Alpha virt. eigenvalues --    2.54379   2.56246   2.58086   2.58441   2.60849
 Alpha virt. eigenvalues --    2.61530   2.67046   2.69268   2.73650   2.77417
 Alpha virt. eigenvalues --    2.80486   2.83011   2.84645   2.87824   2.88850
 Alpha virt. eigenvalues --    2.90846   2.91460   2.91671   2.97725   3.01836
 Alpha virt. eigenvalues --    3.15726   3.23746   3.41638   4.18695   4.30590
 Alpha virt. eigenvalues --    4.36304   4.43511   4.48195   4.55124   4.59739
 Alpha virt. eigenvalues --    4.61507   4.64263   4.80293   4.84541   4.84841
 Alpha virt. eigenvalues --    4.90120
          Condensed to atoms (all electrons):
              1          2          3          4          5          6
     1  C    4.110036   0.000000  -0.000008  -0.000001   0.000220  -0.000155
     2  C    0.000000   5.125034   0.327088   0.326506  -0.055736  -0.056510
     3  C   -0.000008   0.327088   5.156272  -0.057294   0.313710  -0.004811
     4  C   -0.000001   0.326506  -0.057294   5.154656  -0.005155   0.313681
     5  C    0.000220  -0.055736   0.313710  -0.005155   5.197403  -0.053045
     6  C   -0.000155  -0.056510  -0.004811   0.313681  -0.053045   5.190576
     7  C    0.000390  -0.001553  -0.052476  -0.052841   0.321873   0.332369
     8  C   -0.031973   0.000000   0.000000   0.000000   0.000000   0.000000
     9  C   -0.034267   0.000000   0.000000   0.000000   0.000001   0.000000
    10  C    0.345241  -0.000001   0.000108  -0.000088  -0.003655   0.003250
    11  N    0.371576   0.000000   0.000000   0.000000  -0.000003   0.000000
    12  N   -0.037847   0.000178  -0.000562  -0.000005  -0.062759  -0.064149
    13  O    0.532593   0.000000   0.000000   0.000005  -0.000025  -0.000243
    14  H    0.000000   0.399206  -0.042740  -0.042071  -0.002565  -0.002413
    15  H    0.000000   0.406326  -0.035463  -0.035147   0.004075   0.004068
    16  H    0.000009  -0.044511   0.391482  -0.002777  -0.045237   0.000904
    17  H    0.000000  -0.031027   0.407601   0.003774  -0.034587  -0.000343
    18  H    0.000000  -0.031537   0.003839   0.407508  -0.000347  -0.034307
    19  H    0.000001  -0.044653  -0.002827   0.394357   0.000982  -0.044353
    20  H    0.000120   0.003754  -0.035999  -0.000334   0.399282   0.003447
    21  H    0.000001  -0.002126  -0.034270   0.000309   0.400605  -0.001640
    22  H    0.000002  -0.002151   0.000276  -0.034269  -0.001454   0.400461
    23  H   -0.000003   0.003687  -0.000322  -0.034881   0.003559   0.400707
    24  H   -0.000099  -0.000401   0.003319   0.003276  -0.034464  -0.033430
    25  H    0.001044   0.000000   0.000000   0.000000   0.000000   0.000000
    26  H   -0.003938   0.000000   0.000000   0.000000   0.000000   0.000000
    27  H    0.001102   0.000000   0.000000   0.000000   0.000000   0.000000
    28  H    0.001137   0.000000   0.000000   0.000000   0.000000   0.000000
    29  H   -0.005152   0.000000   0.000000   0.000000   0.000001   0.000000
    30  H    0.001069   0.000000   0.000000   0.000000   0.000000   0.000000
    31  H   -0.024953   0.000004  -0.000018  -0.000007  -0.000606   0.000120
    32  H   -0.024162  -0.000002   0.000082   0.000009  -0.000071  -0.000090
    33  H   -0.012336   0.000032  -0.000160  -0.000005   0.002089  -0.000855
    34  H    0.001408  -0.001169   0.005302   0.003813  -0.003659  -0.002517
              7          8          9         10         11         12
     1  C    0.000390  -0.031973  -0.034267   0.345241   0.371576  -0.037847
     2  C   -0.001553   0.000000   0.000000  -0.000001   0.000000   0.000178
     3  C   -0.052476   0.000000   0.000000   0.000108   0.000000  -0.000562
     4  C   -0.052841   0.000000   0.000000  -0.000088   0.000000  -0.000005
     5  C    0.321873   0.000000   0.000001  -0.003655  -0.000003  -0.062759
     6  C    0.332369   0.000000   0.000000   0.003250   0.000000  -0.064149
     7  C    5.176676   0.000001  -0.000005  -0.022834   0.000003   0.108598
     8  C    0.000001   5.016565  -0.043614   0.003335   0.183395  -0.000054
     9  C   -0.000005  -0.043614   4.987026   0.002116   0.205852   0.000418
    10  C   -0.022834   0.003335   0.002116   5.224429  -0.098766   0.160487
    11  N    0.000003   0.183395   0.205852  -0.098766   7.309596   0.000513
    12  N    0.108598  -0.000054   0.000418   0.160487   0.000513   7.319318
    13  O    0.000908  -0.005265   0.001421  -0.083538  -0.079558  -0.046585
    14  H    0.000077   0.000000   0.000000   0.000001   0.000000   0.000028
    15  H   -0.000278   0.000000   0.000000   0.000000   0.000000  -0.000015
    16  H   -0.005343   0.000000   0.000000   0.000109   0.000000   0.000175
    17  H    0.004069   0.000000   0.000000  -0.000008   0.000000  -0.000032
    18  H    0.004199   0.000000   0.000000   0.000002   0.000000  -0.000055
    19  H   -0.005499   0.000000   0.000000   0.000069   0.000000   0.000646
    20  H   -0.039458   0.000000   0.000002   0.001054  -0.000001  -0.002515
    21  H   -0.040211   0.000000   0.000000  -0.000038   0.000000   0.003691
    22  H   -0.040865   0.000000   0.000000  -0.000055   0.000000   0.003838
    23  H   -0.039741   0.000000   0.000000  -0.000153   0.000000  -0.002370
    24  H    0.419726   0.000000   0.000000  -0.001542  -0.000031  -0.045045
    25  H    0.000000   0.398514  -0.001776  -0.000075  -0.043457   0.000001
    26  H    0.000000   0.395473   0.002596   0.000442  -0.028277  -0.000003
    27  H    0.000000   0.398512  -0.001958  -0.000069  -0.043384   0.000001
    28  H    0.000000  -0.001342   0.398834  -0.000253  -0.044607  -0.000005
    29  H   -0.000003   0.003069   0.395405   0.001730  -0.034835   0.000303
    30  H    0.000000  -0.001168   0.398790  -0.000287  -0.045039  -0.000004
    31  H    0.000864  -0.000102  -0.001413   0.391338   0.000764  -0.034604
    32  H    0.000907  -0.000098  -0.001536   0.389299   0.001056  -0.029094
    33  H   -0.014789  -0.000025  -0.000076  -0.036623   0.002202   0.250134
    34  H   -0.016698   0.000001  -0.000003  -0.018996  -0.000003   0.300892
             13         14         15         16         17         18
     1  C    0.532593   0.000000   0.000000   0.000009   0.000000   0.000000
     2  C    0.000000   0.399206   0.406326  -0.044511  -0.031027  -0.031537
     3  C    0.000000  -0.042740  -0.035463   0.391482   0.407601   0.003839
     4  C    0.000005  -0.042071  -0.035147  -0.002777   0.003774   0.407508
     5  C   -0.000025  -0.002565   0.004075  -0.045237  -0.034587  -0.000347
     6  C   -0.000243  -0.002413   0.004068   0.000904  -0.000343  -0.034307
     7  C    0.000908   0.000077  -0.000278  -0.005343   0.004069   0.004199
     8  C   -0.005265   0.000000   0.000000   0.000000   0.000000   0.000000
     9  C    0.001421   0.000000   0.000000   0.000000   0.000000   0.000000
    10  C   -0.083538   0.000001   0.000000   0.000109  -0.000008   0.000002
    11  N   -0.079558   0.000000   0.000000   0.000000   0.000000   0.000000
    12  N   -0.046585   0.000028  -0.000015   0.000175  -0.000032  -0.000055
    13  O    8.266981   0.000000   0.000000   0.000000   0.000000   0.000000
    14  H    0.000000   0.520783  -0.022811   0.004331  -0.002788  -0.002813
    15  H    0.000000  -0.022811   0.484195  -0.003106  -0.002025  -0.001995
    16  H    0.000000   0.004331  -0.003106   0.580898  -0.025091  -0.000080
    17  H    0.000000  -0.002788  -0.002025  -0.025091   0.468166  -0.000061
    18  H    0.000000  -0.002813  -0.001995  -0.000080  -0.000061   0.465905
    19  H   -0.000006   0.004246  -0.003052   0.002101  -0.000076  -0.024213
    20  H    0.000001  -0.000067  -0.000068  -0.002163  -0.002247   0.000009
    21  H    0.000000   0.002526  -0.000059   0.003894  -0.003106  -0.000034
    22  H   -0.000002   0.002496  -0.000062   0.000052  -0.000031  -0.003208
    23  H   -0.000001  -0.000068  -0.000064  -0.000031   0.000009  -0.002148
    24  H    0.000671  -0.000064   0.000009  -0.000140  -0.000050  -0.000050
    25  H    0.000382   0.000000   0.000000   0.000000   0.000000   0.000000
    26  H    0.005483   0.000000   0.000000   0.000000   0.000000   0.000000
    27  H    0.000366   0.000000   0.000000   0.000000   0.000000   0.000000
    28  H   -0.000008   0.000000   0.000000   0.000000   0.000000   0.000000
    29  H    0.000063   0.000000   0.000000   0.000000   0.000000   0.000000
    30  H   -0.000006   0.000000   0.000000   0.000000   0.000000   0.000000
    31  H    0.000878   0.000000   0.000000  -0.000022   0.000002   0.000000
    32  H    0.001069   0.000000   0.000000   0.000087  -0.000002   0.000000
    33  H    0.064263   0.000001  -0.000001   0.000022   0.000003  -0.000025
    34  H    0.000690   0.000036   0.000003   0.003891  -0.000110  -0.000066
             19         20         21         22         23         24
     1  C    0.000001   0.000120   0.000001   0.000002  -0.000003  -0.000099
     2  C   -0.044653   0.003754  -0.002126  -0.002151   0.003687  -0.000401
     3  C   -0.002827  -0.035999  -0.034270   0.000276  -0.000322   0.003319
     4  C    0.394357  -0.000334   0.000309  -0.034269  -0.034881   0.003276
     5  C    0.000982   0.399282   0.400605  -0.001454   0.003559  -0.034464
     6  C   -0.044353   0.003447  -0.001640   0.400461   0.400707  -0.033430
     7  C   -0.005499  -0.039458  -0.040211  -0.040865  -0.039741   0.419726
     8  C    0.000000   0.000000   0.000000   0.000000   0.000000   0.000000
     9  C    0.000000   0.000002   0.000000   0.000000   0.000000   0.000000
    10  C    0.000069   0.001054  -0.000038  -0.000055  -0.000153  -0.001542
    11  N    0.000000  -0.000001   0.000000   0.000000   0.000000  -0.000031
    12  N    0.000646  -0.002515   0.003691   0.003838  -0.002370  -0.045045
    13  O   -0.000006   0.000001   0.000000  -0.000002  -0.000001   0.000671
    14  H    0.004246  -0.000067   0.002526   0.002496  -0.000068  -0.000064
    15  H   -0.003052  -0.000068  -0.000059  -0.000062  -0.000064   0.000009
    16  H    0.002101  -0.002163   0.003894   0.000052  -0.000031  -0.000140
    17  H   -0.000076  -0.002247  -0.003106  -0.000031   0.000009  -0.000050
    18  H   -0.024213   0.000009  -0.000034  -0.003208  -0.002148  -0.000050
    19  H    0.569405  -0.000029   0.000048   0.003805  -0.002147  -0.000146
    20  H   -0.000029   0.509912  -0.020651  -0.000060  -0.000077  -0.001616
    21  H    0.000048  -0.020651   0.473483   0.001484  -0.000056  -0.002934
    22  H    0.003805  -0.000060   0.001484   0.474735  -0.018946  -0.003200
    23  H   -0.002147  -0.000077  -0.000056  -0.018946   0.483446  -0.001560
    24  H   -0.000146  -0.001616  -0.002934  -0.003200  -0.001560   0.459764
    25  H    0.000000   0.000000   0.000000   0.000000   0.000000   0.000000
    26  H    0.000000   0.000000   0.000000   0.000000   0.000000   0.000000
    27  H    0.000000   0.000000   0.000000   0.000000   0.000000   0.000000
    28  H    0.000000   0.000000   0.000000   0.000000   0.000000   0.000000
    29  H    0.000000   0.000006   0.000000   0.000000   0.000000   0.000000
    30  H    0.000000   0.000000   0.000000   0.000000   0.000000   0.000000
    31  H   -0.000002   0.001172  -0.000069  -0.000007   0.000003  -0.000031
    32  H   -0.000003  -0.000346   0.000005   0.000001   0.000000   0.000187
    33  H    0.000180  -0.000127  -0.000026   0.000016   0.003747  -0.001209
    34  H    0.002414  -0.000022   0.000067   0.000005  -0.000023   0.002670
             25         26         27         28         29         30
     1  C    0.001044  -0.003938   0.001102   0.001137  -0.005152   0.001069
     2  C    0.000000   0.000000   0.000000   0.000000   0.000000   0.000000
     3  C    0.000000   0.000000   0.000000   0.000000   0.000000   0.000000
     4  C    0.000000   0.000000   0.000000   0.000000   0.000000   0.000000
     5  C    0.000000   0.000000   0.000000   0.000000   0.000001   0.000000
     6  C    0.000000   0.000000   0.000000   0.000000   0.000000   0.000000
     7  C    0.000000   0.000000   0.000000   0.000000  -0.000003   0.000000
     8  C    0.398514   0.395473   0.398512  -0.001342   0.003069  -0.001168
     9  C   -0.001776   0.002596  -0.001958   0.398834   0.395405   0.398790
    10  C   -0.000075   0.000442  -0.000069  -0.000253   0.001730  -0.000287
    11  N   -0.043457  -0.028277  -0.043384  -0.044607  -0.034835  -0.045039
    12  N    0.000001  -0.000003   0.000001  -0.000005   0.000303  -0.000004
    13  O    0.000382   0.005483   0.000366  -0.000008   0.000063  -0.000006
    14  H    0.000000   0.000000   0.000000   0.000000   0.000000   0.000000
    15  H    0.000000   0.000000   0.000000   0.000000   0.000000   0.000000
    16  H    0.000000   0.000000   0.000000   0.000000   0.000000   0.000000
    17  H    0.000000   0.000000   0.000000   0.000000   0.000000   0.000000
    18  H    0.000000   0.000000   0.000000   0.000000   0.000000   0.000000
    19  H    0.000000   0.000000   0.000000   0.000000   0.000000   0.000000
    20  H    0.000000   0.000000   0.000000   0.000000   0.000006   0.000000
    21  H    0.000000   0.000000   0.000000   0.000000   0.000000   0.000000
    22  H    0.000000   0.000000   0.000000   0.000000   0.000000   0.000000
    23  H    0.000000   0.000000   0.000000   0.000000   0.000000   0.000000
    24  H    0.000000   0.000000   0.000000   0.000000   0.000000   0.000000
    25  H    0.492155  -0.019657  -0.032090  -0.000758  -0.000032   0.003154
    26  H   -0.019657   0.414822  -0.019694  -0.000026  -0.000080  -0.000035
    27  H   -0.032090  -0.019694   0.492466   0.003218  -0.000031  -0.000697
    28  H   -0.000758  -0.000026   0.003218   0.481031  -0.023760  -0.031751
    29  H   -0.000032  -0.000080  -0.000031  -0.023760   0.506905  -0.024031
    30  H    0.003154  -0.000035  -0.000697  -0.031751  -0.024031   0.481882
    31  H   -0.000002  -0.000008   0.000008   0.000147  -0.001537   0.000006
    32  H    0.000008  -0.000007  -0.000002   0.000010  -0.001746   0.000173
    33  H    0.000000  -0.000010   0.000000   0.000002  -0.000014   0.000002
    34  H    0.000000   0.000000   0.000000   0.000000   0.000002   0.000000
             31         32         33         34
     1  C   -0.024953  -0.024162  -0.012336   0.001408
     2  C    0.000004  -0.000002   0.000032  -0.001169
     3  C   -0.000018   0.000082  -0.000160   0.005302
     4  C   -0.000007   0.000009  -0.000005   0.003813
     5  C   -0.000606  -0.000071   0.002089  -0.003659
     6  C    0.000120  -0.000090  -0.000855  -0.002517
     7  C    0.000864   0.000907  -0.014789  -0.016698
     8  C   -0.000102  -0.000098  -0.000025   0.000001
     9  C   -0.001413  -0.001536  -0.000076  -0.000003
    10  C    0.391338   0.389299  -0.036623  -0.018996
    11  N    0.000764   0.001056   0.002202  -0.000003
    12  N   -0.034604  -0.029094   0.250134   0.300892
    13  O    0.000878   0.001069   0.064263   0.000690
    14  H    0.000000   0.000000   0.000001   0.000036
    15  H    0.000000   0.000000  -0.000001   0.000003
    16  H   -0.000022   0.000087   0.000022   0.003891
    17  H    0.000002  -0.000002   0.000003  -0.000110
    18  H    0.000000   0.000000  -0.000025  -0.000066
    19  H   -0.000002  -0.000003   0.000180   0.002414
    20  H    0.001172  -0.000346  -0.000127  -0.000022
    21  H   -0.000069   0.000005  -0.000026   0.000067
    22  H   -0.000007   0.000001   0.000016   0.000005
    23  H    0.000003   0.000000   0.003747  -0.000023
    24  H   -0.000031   0.000187  -0.001209   0.002670
    25  H   -0.000002   0.000008   0.000000   0.000000
    26  H   -0.000008  -0.000007  -0.000010   0.000000
    27  H    0.000008  -0.000002   0.000000   0.000000
    28  H    0.000147   0.000010   0.000002   0.000000
    29  H   -0.001537  -0.001746  -0.000014   0.000002
    30  H    0.000006   0.000173   0.000002   0.000000
    31  H    0.420737  -0.017693   0.002000   0.001349
    32  H   -0.017693   0.420601   0.001988  -0.002264
    33  H    0.002000   0.001988   0.236182  -0.006856
    34  H    0.001349  -0.002264  -0.006856   0.278994
 Mulliken atomic charges:
              1
     1  C    0.808945
     2  C   -0.320436
     3  C   -0.342132
     4  C   -0.343020
     5  C   -0.340431
     6  C   -0.350724
     7  C   -0.038065
     8  C   -0.315223
     9  C   -0.307813
    10  C   -0.256031
    11  N   -0.656995
    12  N   -0.823518
    13  O   -0.660538
    14  H    0.184668
    15  H    0.205470
    16  H    0.140546
    17  H    0.217964
    18  H    0.219476
    19  H    0.148754
    20  H    0.187021
    21  H    0.219107
    22  H    0.217137
    23  H    0.207432
    24  H    0.236389
    25  H    0.202588
    26  H    0.252921
    27  H    0.202252
    28  H    0.218131
    29  H    0.183738
    30  H    0.217943
    31  H    0.261682
    32  H    0.261635
    33  H    0.510275
    34  H    0.450851
 Sum of Mulliken atomic charges =   1.00000
 Mulliken charges with hydrogens summed into heavy atoms:
              1
     1  C    0.808945
     2  C    0.069702
     3  C    0.016377
     4  C    0.025209
     5  C    0.065697
     6  C    0.073845
     7  C    0.198325
     8  C    0.342539
     9  C    0.311999
    10  C    0.267287
    11  N   -0.656995
    12  N    0.137608
    13  O   -0.660538
 Sum of Mulliken charges with hydrogens summed into heavy atoms =   1.00000
 DipInt: DoE/N= T F RetVal/Mat= T F Init=T NMatP=  1 IDeriv=0 Min/MaxMlt=  0  4
 Entering OneElI...
 OneElI was handed    33407737 working-precision words.
 Multipole integrals L=0 to 4 MinM= 0 MaxM= 0.
 Requested accuracy = 0.1000D-12
 PrsmSu:  NPrtUS=   1 ThrOK=F IAlg=1 NPAlg=1 LenDen=           0.
 Prism:   IPart=     0 DynPar=F LinDyn=F Incr=          38.
 PRISM was handed    33102989 working-precision words and  3813 shell-pairs
 IPart=  0 NShTot=        3813 NBatch=          61 AvBLen=        62.5
 PrSmSu:  NxtVal=             39.
 Electronic moments (au):
       -102.00000000          0.35026430          1.28382937         -0.07189573
      -3052.21356001       -506.95536409       -192.18968864          5.75658540
         -0.59470528         -0.37637963      -2403.90821086       -115.72586418
        -76.60233801         28.67207119       -189.36984655        585.23280455
        399.00973543        -27.35035340        -24.66699698        -48.94110397
    -156896.74073022      -5669.24832240      -1268.00777199        -87.30092645
      -4402.95900150       -696.29679194         11.93037014        134.47257757
         20.50036635     -15603.81980481      -5479.05442015      -1006.83384073
        182.25811222        131.86742549        -93.25925457
 Electronic spatial extent (au):  <R**2>=           3751.3586
 DipInt: DoE/N= F T RetVal/Mat= T F Init=T NMatP=  1 IDeriv=0 Min/MaxMlt=  0  4
 Nuclear    moments (au):
        103.00000000          0.00000000          0.00000000          0.00000000
       3023.05786989        450.02588228        136.27543238          0.00000000
          0.00000000          0.00000000       2528.95491188        125.17027464
         75.84301876        -24.92836057        204.45100321       -582.10201639
       -398.38245728         27.78726312         26.24417909         47.65672195
     148098.22961002       3968.12496303        642.53109993        132.85578774
       4400.39599799        751.51160300        -14.10643156       -150.82776295
        -20.67753042      13705.28498290       3656.51316537        608.04459869
       -189.76026963       -139.17134362        100.59304827
 Total      moments (au):
          1.00000000          0.35026430          1.28382937         -0.07189573
        -29.15569013        -56.92948181        -55.91425626          5.75658540
         -0.59470528         -0.37637963        125.04670101          9.44441046
         -0.75931925          3.74371061         15.08115666          3.13078815
          0.62727815          0.43690972          1.57718211         -1.28438202
      -8798.51112020      -1701.12335937       -625.47667206         45.55486129
         -2.56300351         55.21481105         -2.17606142        -16.35518538
         -0.17716407      -1898.53482191      -1822.54125478       -398.78924203
         -7.50215741         -7.30391813          7.33379371
 Traceless Quadrup. (au):
         18.17745260         -9.59633908         -8.58111353          5.75658540
         -0.59470528         -0.37637963
 Charge=              1.0000 electrons
 Dipole moment (field-independent basis, Debye):
    X=              0.8903    Y=              3.2632    Z=             -0.1827  Tot=              3.3874
 Quadrupole moment (field-independent basis, Debye-Ang):
   XX=            -39.2154   YY=            -76.5721   ZZ=            -75.2066
   XY=              7.7428   XZ=             -0.7999   YZ=             -0.5062
 Traceless Quadrupole moment (field-independent basis, Debye-Ang):
   XX=             24.4493   YY=            -12.9074   ZZ=            -11.5419
   XY=              7.7428   XZ=             -0.7999   YZ=             -0.5062
 Octapole moment (field-independent basis, Debye-Ang**2):
  XXX=             89.0034  YYY=              6.7222  ZZZ=             -0.5405  XYY=              2.6646
  XXY=             10.7342  XXZ=              2.2284  XZZ=              0.4465  YZZ=              0.3110
  YYZ=              1.1226  XYZ=             -0.9142
 Hexadecapole moment (field-independent basis, Debye-Ang**3):
 XXXX=          -3313.9410 YYYY=           -640.7246 ZZZZ=           -235.5845 XXXY=             17.1581
 XXXZ=             -0.9653 YYYX=             20.7965 YYYZ=             -0.8196 ZZZX=             -6.1601
 ZZZY=             -0.0667 XXYY=           -715.0792 XXZZ=           -686.4564 YYZZ=           -150.2031
 XXYZ=             -2.8257 YYXZ=             -2.7510 ZZXY=              2.7623
 N-N= 8.646968635295D+02 E-N=-3.053723813653D+03  KE= 5.732104891178D+02
 Entering OneElI...
 OneElI was handed    33294312 working-precision words.
 Calculate electrostatic properties
    NBasis =   237  MinDer = 0  MaxDer = 0
    NGrid  =    34  NMatD  =   1
 Requested accuracy = 0.1000D-12
 PrsmSu:  NPrtUS=   2 ThrOK=T IAlg=1 NPAlg=1 LenDen=           0.
 Prism:   IPart=     0 DynPar=F LinDyn=F Incr=         512.
 PRISM was handed    16460370 working-precision words and  3449 shell-pairs
 PRISM was handed    16460370 working-precision words and  3449 shell-pairs
 IPart=  0 NShTot=       59024 NBatch=        1736 AvBLen=        34.0
 IPart=  1 NShTot=       58242 NBatch=        1713 AvBLen=        34.0
 PrSmSu:  NxtVal=           1025.
 --------------------------------------------------------
       Center         ----      EFG at Nuclei      ----
                      3XX-RR        3YY-RR        3ZZ-RR
 --------------------------------------------------------
     1   Atom        0.209414      0.304249     -0.513663
     2   Atom       -0.008104     -0.046904      0.055007
     3   Atom       -0.014938      0.065110     -0.050172
     4   Atom       -0.008850      0.052818     -0.043969
     5   Atom        0.011051     -0.073225      0.062174
     6   Atom       -0.005050     -0.054132      0.059182
     7   Atom       -0.072765      0.275241     -0.202476
     8   Atom       -0.155683      0.002425      0.153257
     9   Atom        0.114804     -0.297854      0.183049
    10   Atom       -0.242143      0.026374      0.215769
    11   Atom       -0.480356     -0.424758      0.905115
    12   Atom       -0.112227      0.139872     -0.027645
    13   Atom        1.203901     -0.845165     -0.358736
    14   Atom       -0.009947      0.137917     -0.127969
    15   Atom        0.000983      0.138892     -0.139876
    16   Atom        0.018924      0.145826     -0.164750
    17   Atom        0.038695     -0.182455      0.143760
    18   Atom       -0.040329     -0.104191      0.144520
    19   Atom        0.026437      0.141397     -0.167835
    20   Atom       -0.049727     -0.101289      0.151016
    21   Atom        0.025212      0.137497     -0.162709
    22   Atom        0.020974      0.142361     -0.163335
    23   Atom        0.022721     -0.171306      0.148585
    24   Atom        0.005909      0.150641     -0.156549
    25   Atom       -0.015373      0.128764     -0.113391
    26   Atom        0.089279     -0.244671      0.155392
    27   Atom        0.030794      0.132356     -0.163150
    28   Atom        0.039239      0.113948     -0.153187
    29   Atom       -0.158014     -0.007649      0.165663
    30   Atom        0.009256      0.109136     -0.118392
    31   Atom        0.129827      0.017716     -0.147543
    32   Atom        0.131866     -0.010904     -0.120962
    33   Atom        0.082331     -0.199441      0.117111
    34   Atom        0.061336      0.167722     -0.229058
 --------------------------------------------------------
                        XY            XZ            YZ
 --------------------------------------------------------
     1   Atom        0.018403      0.043454      0.009132
     2   Atom       -0.009814      0.007884     -0.002002
     3   Atom       -0.003129     -0.019793      0.010440
     4   Atom        0.022988     -0.025377     -0.003082
     5   Atom        0.049084     -0.004210      0.000273
     6   Atom       -0.078320     -0.005874     -0.002420
     7   Atom        0.035851      0.365494     -0.029891
     8   Atom        0.291510     -0.014052      0.014838
     9   Atom       -0.097430     -0.004160     -0.012213
    10   Atom       -0.232324     -0.045172     -0.020743
    11   Atom       -0.064195     -0.081126     -0.019817
    12   Atom       -0.178623     -0.056478      0.000298
    13   Atom       -0.686360      0.092393     -0.046036
    14   Atom        0.012027      0.205930     -0.017275
    15   Atom        0.016174     -0.206530      0.023976
    16   Atom       -0.003147      0.189602      0.009549
    17   Atom        0.185498      0.007833     -0.020936
    18   Atom       -0.213759      0.007738      0.014502
    19   Atom        0.022687      0.184429     -0.038879
    20   Atom       -0.210860     -0.001292      0.000681
    21   Atom        0.022815      0.190216     -0.026705
    22   Atom       -0.006378      0.191849     -0.001417
    23   Atom        0.184866      0.005094     -0.008793
    24   Atom        0.016101     -0.182903      0.023699
    25   Atom       -0.033663      0.204494      0.063544
    26   Atom       -0.128475     -0.005810     -0.013339
    27   Atom       -0.020784     -0.188215     -0.058882
    28   Atom       -0.044300     -0.186294     -0.069070
    29   Atom        0.200702     -0.009013      0.004415
    30   Atom       -0.056454      0.196756      0.073694
    31   Atom        0.005147      0.025293     -0.200112
    32   Atom       -0.022829      0.009646      0.209286
    33   Atom        0.092607      0.002449     -0.003077
    34   Atom        0.027049     -0.203063      0.067408
 --------------------------------------------------------


 ---------------------------------------------------------------------------------
              Nuclear Quadrupole in Principal Axis System
 ---------------------------------------------------------------------------------

       Atom             a.u.   MegaHertz   Gauss  10(-4) cm-1        Axes

              Baa    -0.5163   -69.288   -24.724   -23.112 -0.0595 -0.0098  0.9982
     1 C(13)  Bbb     0.2083    27.951     9.973     9.323  0.9795 -0.1932  0.0565
              Bcc     0.3081    41.338    14.750    13.789  0.1923  0.9811  0.0211
 
              Baa    -0.0492    -6.608    -2.358    -2.204  0.2318  0.9728  0.0011
     2 C(13)  Bbb    -0.0068    -0.917    -0.327    -0.306  0.9645 -0.2297 -0.1304
              Bcc     0.0561     7.525     2.685     2.510  0.1266 -0.0313  0.9915
 
              Baa    -0.0596    -7.998    -2.854    -2.668  0.4004 -0.0665  0.9139
     3 C(13)  Bbb    -0.0068    -0.906    -0.323    -0.302  0.9142  0.0970 -0.3934
              Bcc     0.0664     8.904     3.177     2.970 -0.0625  0.9931  0.0996
 
              Baa    -0.0579    -7.767    -2.771    -2.591  0.4865 -0.0768  0.8703
     4 C(13)  Bbb    -0.0038    -0.506    -0.181    -0.169  0.8033 -0.3525 -0.4801
              Bcc     0.0617     8.273     2.952     2.760  0.3436  0.9327 -0.1098
 
              Baa    -0.0958   -12.856    -4.587    -4.288 -0.4178  0.9085 -0.0127
     5 C(13)  Bbb     0.0331     4.446     1.586     1.483  0.9005  0.4159  0.1266
              Bcc     0.0627     8.410     3.001     2.805 -0.1203 -0.0415  0.9919
 
              Baa    -0.1118   -15.008    -5.355    -5.006  0.5922  0.8051  0.0317
     6 C(13)  Bbb     0.0512     6.865     2.449     2.290  0.7403 -0.5592  0.3732
              Bcc     0.0607     8.143     2.906     2.716 -0.3182  0.1975  0.9272
 
              Baa    -0.5115   -68.639   -24.492   -22.896 -0.6418  0.0583  0.7647
     7 C(13)  Bbb     0.2321    31.145    11.113    10.389  0.7472 -0.1771  0.6406
              Bcc     0.2794    37.494    13.379    12.507  0.1727  0.9825  0.0701
 
              Baa    -0.3794   -50.916   -18.168   -16.984  0.7936 -0.6073  0.0378
     8 C(13)  Bbb     0.1539    20.648     7.368     6.888 -0.0576 -0.0130  0.9983
              Bcc     0.2256    30.268    10.800    10.096  0.6057  0.7944  0.0453
 
              Baa    -0.3200   -42.945   -15.324   -14.325  0.2188  0.9754  0.0255
     9 C(13)  Bbb     0.1366    18.332     6.541     6.115  0.9752 -0.2195  0.0296
              Bcc     0.1834    24.613     8.782     8.210 -0.0345 -0.0184  0.9992
 
              Baa    -0.3803   -51.035   -18.211   -17.024  0.8635  0.4975  0.0827
    10 C(13)  Bbb     0.1601    21.483     7.666     7.166 -0.4923  0.8671 -0.0763
              Bcc     0.2202    29.553    10.545     9.858 -0.1097  0.0252  0.9936
 
              Baa    -0.5269   -20.320    -7.251    -6.778  0.8404  0.5391  0.0551
    11 N(14)  Bbb    -0.3832   -14.779    -5.273    -4.930 -0.5389  0.8421 -0.0210
              Bcc     0.9100    35.098    12.524    11.708 -0.0577 -0.0120  0.9983
 
              Baa    -0.2180    -8.409    -3.001    -2.805  0.8650  0.4315  0.2559
    12 N(14)  Bbb    -0.0171    -0.659    -0.235    -0.220 -0.1808 -0.2076  0.9613
              Bcc     0.2351     9.068     3.236     3.025 -0.4680  0.8779  0.1016
 
              Baa    -1.0542    76.285    27.220    25.446  0.2898  0.9568  0.0248
    13 O(17)  Bbb    -0.3641    26.349     9.402     8.789 -0.0619 -0.0071  0.9981
              Bcc     1.4184  -102.634   -36.622   -34.235  0.9551 -0.2908  0.0572
 
              Baa    -0.2842  -151.649   -54.112   -50.585 -0.6011  0.0498  0.7976
    14 H(1)   Bbb     0.1389    74.093    26.438    24.715  0.1278  0.9912  0.0345
              Bcc     0.1454    77.556    27.674    25.870  0.7889 -0.1227  0.6021
 
              Baa    -0.2896  -154.519   -55.136   -51.542  0.5805 -0.0673  0.8115
    15 H(1)   Bbb     0.1408    75.105    26.799    25.052  0.1196  0.9928 -0.0032
              Bcc     0.1488    79.415    28.337    26.490  0.8054 -0.0989 -0.5844
 
              Baa    -0.2838  -151.426   -54.033   -50.510 -0.5308 -0.0227  0.8472
    16 H(1)   Bbb     0.1371    73.157    26.104    24.403  0.8214 -0.2597  0.5077
              Bcc     0.1467    78.269    27.928    26.108  0.2085  0.9654  0.1565
 
              Baa    -0.2890  -154.176   -55.014   -51.427 -0.4929  0.8686  0.0509
    17 H(1)   Bbb     0.1409    75.194    26.831    25.082  0.6659  0.3390  0.6646
              Bcc     0.1480    78.982    28.183    26.345 -0.5599 -0.3615  0.7455
 
              Baa    -0.2890  -154.188   -55.018   -51.432  0.6521  0.7572 -0.0370
    18 H(1)   Bbb     0.1408    75.144    26.813    25.065  0.5951 -0.4810  0.6438
              Bcc     0.1481    79.045    28.205    26.366 -0.4697  0.4418  0.7643
 
              Baa    -0.2839  -151.479   -54.052   -50.528 -0.5137  0.1052  0.8515
    19 H(1)   Bbb     0.1377    73.467    26.215    24.506  0.8579  0.0776  0.5080
              Bcc     0.1462    78.012    27.837    26.022 -0.0126  0.9914 -0.1302
 
              Baa    -0.2879  -153.630   -54.819   -51.246  0.6628  0.7488  0.0008
    20 H(1)   Bbb     0.1368    72.980    26.041    24.344  0.7450 -0.6596  0.0991
              Bcc     0.1512    80.650    28.778    26.902 -0.0748  0.0651  0.9951
 
              Baa    -0.2838  -151.405   -54.025   -50.503 -0.5269  0.0822  0.8460
    21 H(1)   Bbb     0.1364    72.778    25.969    24.276 -0.4753  0.7967 -0.3734
              Bcc     0.1474    78.628    28.056    26.227  0.7047  0.5988  0.3807
 
              Baa    -0.2840  -151.543   -54.074   -50.549 -0.5325 -0.0052  0.8464
    22 H(1)   Bbb     0.1359    72.483    25.864    24.178  0.6138  0.6862  0.3903
              Bcc     0.1482    79.060    28.211    26.372 -0.5828  0.7274 -0.3623
 
              Baa    -0.2833  -151.159   -53.937   -50.421 -0.5172  0.8555  0.0235
    23 H(1)   Bbb     0.1345    71.752    25.603    23.934  0.8559  0.5170  0.0132
              Bcc     0.1488    79.407    28.334    26.487  0.0009 -0.0269  0.9996
 
              Baa    -0.2774  -147.990   -52.806   -49.364  0.5439 -0.0668  0.8365
    24 H(1)   Bbb     0.1248    66.586    23.759    22.211  0.8374 -0.0209 -0.5462
              Bcc     0.1526    81.404    29.047    27.153  0.0539  0.9975  0.0446
 
              Baa    -0.2867  -152.981   -54.588   -51.029 -0.6065 -0.1680  0.7771
    25 H(1)   Bbb     0.1304    69.561    24.821    23.203 -0.5801  0.7620 -0.2880
              Bcc     0.1563    83.420    29.766    27.826  0.5438  0.6255  0.5596
 
              Baa    -0.2889  -154.117   -54.993   -51.408  0.3220  0.9462  0.0326
    26 H(1)   Bbb     0.1329    70.921    25.306    23.657  0.9448 -0.3233  0.0524
              Bcc     0.1559    83.196    29.686    27.751 -0.0601 -0.0140  0.9981
 
              Baa    -0.2868  -153.032   -54.606   -51.046  0.5114  0.1444  0.8471
    27 H(1)   Bbb     0.1305    69.606    24.837    23.218 -0.6102  0.7551  0.2397
              Bcc     0.1564    83.426    29.768    27.828  0.6050  0.6395 -0.4743
 
              Baa    -0.2836  -151.302   -53.988   -50.469  0.5102  0.2021  0.8360
    28 H(1)   Bbb     0.1307    69.745    24.887    23.264 -0.0324  0.9758 -0.2161
              Bcc     0.1529    81.557    29.102    27.205  0.8595 -0.0832 -0.5044
 
              Baa    -0.2974  -158.660   -56.614   -52.923  0.8217 -0.5695  0.0214
    29 H(1)   Bbb     0.1314    70.122    25.021    23.390  0.5684  0.8216  0.0437
              Bcc     0.1659    88.539    31.593    29.533 -0.0425 -0.0237  0.9988
 
              Baa    -0.2834  -151.187   -53.947   -50.431 -0.5732 -0.2301  0.7864
    30 H(1)   Bbb     0.1308    69.809    24.910    23.286 -0.0494  0.9677  0.2471
              Bcc     0.1525    81.378    29.038    27.145  0.8179 -0.1028  0.5661
 
              Baa    -0.2828  -150.887   -53.840   -50.331 -0.0578  0.5540  0.8305
    31 H(1)   Bbb     0.1273    67.912    24.233    22.653  0.9263  0.3401 -0.1624
              Bcc     0.1555    82.975    29.608    27.678 -0.3724  0.7599 -0.5328
 
              Baa    -0.2835  -151.238   -53.965   -50.448 -0.0519 -0.6109  0.7900
    32 H(1)   Bbb     0.1267    67.624    24.130    22.557  0.8885  0.3329  0.3159
              Bcc     0.1567    83.614    29.836    27.891 -0.4559  0.7183  0.5255
 
              Baa    -0.2272  -121.218   -43.254   -40.434 -0.2867  0.9580  0.0106
    33 H(1)   Bbb     0.1098    58.558    20.895    19.533  0.9392  0.2832 -0.1941
              Bcc     0.1174    62.660    22.359    20.901  0.1890  0.0457  0.9809
 
              Baa    -0.3437  -183.393   -65.439   -61.173  0.4512 -0.1400  0.8814
    34 H(1)   Bbb     0.1628    86.863    30.995    28.975  0.8398  0.4008 -0.3662
              Bcc     0.1809    96.530    34.444    32.199 -0.3020  0.9054  0.2984
 

 ---------------------------------------------------------------------------------

 No NMR shielding tensors so no spin-rotation constants.
 Leave Link  601 at Sat Feb 17 20:57:58 2018, MaxMem=   33554432 cpu:       0.7
 Merz-Kollman atomic radii used.
 Read replacement radii for each type of atom:
 Atom Element Radius
    1     6    1.50
    2     6    1.50
    3     6    1.50
    4     6    1.50
    5     6    1.50
    6     6    1.50
    7     6    1.50
    8     6    1.50
    9     6    1.50
   10     6    1.50
   11     7    1.50
   12     7    1.50
   13     8    1.40
   14     1    1.20
   15     1    1.20
   16     1    1.20
   17     1    1.20
   18     1    1.20
   19     1    1.20
   20     1    1.20
   21     1    1.20
   22     1    1.20
   23     1    1.20
   24     1    1.20
   25     1    1.20
   26     1    1.20
   27     1    1.20
   28     1    1.20
   29     1    1.20
   30     1    1.20
   31     1    1.20
   32     1    1.20
   33     1    1.20
   34     1    1.20
 Generate VDW surfaces: Layer= 4 Dens= 1 Start= 1.400 Inc= 0.200

 **********************************************************************

            Electrostatic Properties Using The SCF Density

 **********************************************************************

       Atomic Center    1 is at   2.083766 -0.341980 -0.129851
       Atomic Center    2 is at  -4.031104  0.178235 -0.486748
       Atomic Center    3 is at  -3.048154  1.358444 -0.444241
       Atomic Center    4 is at  -3.293289 -1.169199 -0.475761
       Atomic Center    5 is at  -2.092376  1.257856  0.758527
       Atomic Center    6 is at  -2.334632 -1.279173  0.723964
       Atomic Center    7 is at  -1.365669 -0.091948  0.831702
       Atomic Center    8 is at   4.462951 -0.789046  0.003247
       Atomic Center    9 is at   3.677896  1.561786 -0.013756
       Atomic Center   10 is at   0.893527  0.656698 -0.186099
       Atomic Center   11 is at   3.329382  0.142533 -0.049585
       Atomic Center   12 is at  -0.329875 -0.203659 -0.289726
       Atomic Center   13 is at   1.791508 -1.545816 -0.159253
       Atomic Center   14 is at  -4.696953  0.233224  0.385300
       Atomic Center   15 is at  -4.670650  0.251969 -1.372604
       Atomic Center   16 is at  -2.479156  1.399849 -1.388097
       Atomic Center   17 is at  -3.587798  2.309689 -0.391008
       Atomic Center   18 is at  -4.006341 -1.999104 -0.437936
       Atomic Center   19 is at  -2.744035 -1.299672 -1.422095
       Atomic Center   20 is at  -1.376772  2.089945  0.765692
       Atomic Center   21 is at  -2.668809  1.350078  1.687202
       Atomic Center   22 is at  -2.917197 -1.288424  1.653426
       Atomic Center   23 is at  -1.776596 -2.224242  0.705590
       Atomic Center   24 is at  -0.771187 -0.170280  1.747693
       Atomic Center   25 is at   5.126907 -0.607428 -0.848217
       Atomic Center   26 is at   4.088391 -1.810025 -0.033509
       Atomic Center   27 is at   5.022825 -0.633382  0.931193
       Atomic Center   28 is at   4.237609  1.782496  0.901480
       Atomic Center   29 is at   2.792977  2.197845 -0.035844
       Atomic Center   30 is at   4.306867  1.813247 -0.874711
       Atomic Center   31 is at   0.827539  1.260968  0.720693
       Atomic Center   32 is at   0.948133  1.324136 -1.048030
       Atomic Center   33 is at   0.094198 -1.170659 -0.292762
       Atomic Center   34 is at  -0.796071 -0.065848 -1.190162
      ESP Fit Center   35 is at   2.083766 -0.341980  1.970149
      ESP Fit Center   36 is at   1.033766 -0.341980  1.688802
      ESP Fit Center   37 is at   2.608766 -1.251307  1.688802
      ESP Fit Center   38 is at   2.608766 -1.251307 -1.948504
      ESP Fit Center   39 is at   2.083766 -0.341980 -2.229851
      ESP Fit Center   40 is at  -5.602977  1.570792 -0.486748
      ESP Fit Center   41 is at  -6.070082  0.680797 -0.486748
      ESP Fit Center   42 is at  -6.070082 -0.324328 -0.486748
      ESP Fit Center   43 is at  -5.602977 -1.214323 -0.486748
      ESP Fit Center   44 is at  -4.343289 -1.169199 -2.294414
      ESP Fit Center   45 is at  -2.351197  3.057998  1.808527
      ESP Fit Center   46 is at  -1.809632 -2.188500  2.542618
      ESP Fit Center   47 is at   3.937951 -1.698373  1.821900
      ESP Fit Center   48 is at   5.218447 -2.443352  1.053247
      ESP Fit Center   49 is at   5.655887 -2.517313  0.003247
      ESP Fit Center   50 is at   6.322409 -1.764965  0.003247
      ESP Fit Center   51 is at   3.937951 -1.698373 -1.815406
      ESP Fit Center   52 is at   2.627896  1.561786  1.804897
      ESP Fit Center   53 is at   3.419075  3.361928  1.036244
      ESP Fit Center   54 is at   5.777896  1.561786 -0.013756
      ESP Fit Center   55 is at   4.870832  3.290052 -0.013756
      ESP Fit Center   56 is at   3.931023  3.646474 -0.013756
      ESP Fit Center   57 is at   2.627896  1.561786 -1.832410
      ESP Fit Center   58 is at   0.148857  2.620232 -0.186099
      ESP Fit Center   59 is at   3.329382  0.142533  2.050415
      ESP Fit Center   60 is at   2.804382  1.051860 -1.868239
      ESP Fit Center   61 is at   3.329382  0.142533 -2.149585
      ESP Fit Center   62 is at   0.720125 -0.203659 -2.108379
      ESP Fit Center   63 is at   0.195125 -1.112986 -2.108379
      ESP Fit Center   64 is at   1.791508 -1.545816  1.800747
      ESP Fit Center   65 is at   2.771508 -1.545816  1.538157
      ESP Fit Center   66 is at   0.811508 -1.545816  1.538157
      ESP Fit Center   67 is at   1.301508 -2.394521  1.538157
      ESP Fit Center   68 is at   2.281508 -2.394521  1.538157
      ESP Fit Center   69 is at   0.418275 -2.543528  0.820747
      ESP Fit Center   70 is at   1.266980 -3.160148  0.820747
      ESP Fit Center   71 is at   2.316037 -3.160148  0.820747
      ESP Fit Center   72 is at   0.811508 -3.243226 -0.159253
      ESP Fit Center   73 is at   1.791508 -3.505816 -0.159253
      ESP Fit Center   74 is at   2.771508 -3.243226 -0.159253
      ESP Fit Center   75 is at   1.266980 -3.160148 -1.139253
      ESP Fit Center   76 is at   2.316037 -3.160148 -1.139253
      ESP Fit Center   77 is at   2.771508 -1.545816 -1.856663
      ESP Fit Center   78 is at   0.811508 -1.545816 -1.856663
      ESP Fit Center   79 is at   1.301508 -2.394521 -1.856663
      ESP Fit Center   80 is at   2.281508 -2.394521 -1.856663
      ESP Fit Center   81 is at   1.791508 -1.545816 -2.119253
      ESP Fit Center   82 is at  -4.696953  0.233224  2.065300
      ESP Fit Center   83 is at  -4.391805  1.172372  1.744449
      ESP Fit Center   84 is at  -5.495841  0.813649  1.744449
      ESP Fit Center   85 is at  -5.495841 -0.347202  1.744449
      ESP Fit Center   86 is at  -5.495841  1.616937  0.904449
      ESP Fit Center   87 is at  -6.198370  0.779695  0.904449
      ESP Fit Center   88 is at  -6.198370 -0.313248  0.904449
      ESP Fit Center   89 is at  -5.495841 -1.150490  0.904449
      ESP Fit Center   90 is at  -6.198370  0.779695 -0.133848
      ESP Fit Center   91 is at  -6.198370 -0.313248 -0.133848
      ESP Fit Center   92 is at  -6.172067  0.798440 -0.853456
      ESP Fit Center   93 is at  -6.172067 -0.294503 -0.853456
      ESP Fit Center   94 is at  -5.469537  1.635682 -1.891753
      ESP Fit Center   95 is at  -6.172067  0.798440 -1.891753
      ESP Fit Center   96 is at  -6.172067 -0.294503 -1.891753
      ESP Fit Center   97 is at  -5.469537 -1.131745 -1.891753
      ESP Fit Center   98 is at  -3.683171  0.251969 -2.731753
      ESP Fit Center   99 is at  -4.365502  1.191117 -2.731753
      ESP Fit Center  100 is at  -5.469537  0.832394 -2.731753
      ESP Fit Center  101 is at  -5.469537 -0.328457 -2.731753
      ESP Fit Center  102 is at  -4.365502 -0.687180 -2.731753
      ESP Fit Center  103 is at  -4.670650  0.251969 -3.052604
      ESP Fit Center  104 is at  -1.255189  2.426879 -1.907246
      ESP Fit Center  105 is at  -2.201705  2.973350 -1.907246
      ESP Fit Center  106 is at  -1.491677  1.399849 -2.747246
      ESP Fit Center  107 is at  -2.174008  2.338997 -2.747246
      ESP Fit Center  108 is at  -3.278043  1.980275 -2.747246
      ESP Fit Center  109 is at  -3.278043  0.819423 -2.747246
      ESP Fit Center  110 is at  -2.174008  0.460700 -2.747246
      ESP Fit Center  111 is at  -2.479156  1.399849 -3.068097
      ESP Fit Center  112 is at  -3.282650  3.248838  0.968141
      ESP Fit Center  113 is at  -4.386685  2.890115  0.968141
      ESP Fit Center  114 is at  -2.363831  3.336719  0.128141
      ESP Fit Center  115 is at  -3.310347  3.883190  0.128141
      ESP Fit Center  116 is at  -4.386685  3.693403  0.128141
      ESP Fit Center  117 is at  -5.089215  2.856160  0.128141
      ESP Fit Center  118 is at  -2.363831  3.336719 -0.910157
      ESP Fit Center  119 is at  -3.310347  3.883190 -0.910157
      ESP Fit Center  120 is at  -4.386685  3.693403 -0.910157
      ESP Fit Center  121 is at  -5.089215  2.856160 -0.910157
      ESP Fit Center  122 is at  -3.282650  3.248838 -1.750157
      ESP Fit Center  123 is at  -4.386685  2.890115 -1.750157
      ESP Fit Center  124 is at  -4.805229 -2.579529  0.921212
      ESP Fit Center  125 is at  -3.701194 -2.938252  0.921212
      ESP Fit Center  126 is at  -5.507759 -1.452632  0.081212
      ESP Fit Center  127 is at  -5.507759 -2.545575  0.081212
      ESP Fit Center  128 is at  -4.805229 -3.382817  0.081212
      ESP Fit Center  129 is at  -3.728891 -3.572605  0.081212
      ESP Fit Center  130 is at  -5.507759 -1.452632 -0.957085
      ESP Fit Center  131 is at  -5.507759 -2.545575 -0.957085
      ESP Fit Center  132 is at  -4.805229 -3.382817 -0.957085
      ESP Fit Center  133 is at  -3.728891 -3.572605 -0.957085
      ESP Fit Center  134 is at  -4.805229 -2.579529 -1.797085
      ESP Fit Center  135 is at  -3.701194 -2.938252 -1.797085
      ESP Fit Center  136 is at  -3.542922 -2.683386 -1.941243
      ESP Fit Center  137 is at  -2.466584 -2.873174 -1.941243
      ESP Fit Center  138 is at  -1.520068 -2.326702 -1.941243
      ESP Fit Center  139 is at  -1.756555 -1.299672 -2.781243
      ESP Fit Center  140 is at  -2.438887 -0.360524 -2.781243
      ESP Fit Center  141 is at  -3.542922 -0.719247 -2.781243
      ESP Fit Center  142 is at  -3.542922 -1.880098 -2.781243
      ESP Fit Center  143 is at  -2.438887 -2.238821 -2.781243
      ESP Fit Center  144 is at  -2.744035 -1.299672 -3.102095
      ESP Fit Center  145 is at  -0.389293  2.089945  2.124840
      ESP Fit Center  146 is at  -1.071624  3.029093  2.124840
      ESP Fit Center  147 is at  -0.152805  3.116975  1.284840
      ESP Fit Center  148 is at  -1.099321  3.663446  1.284840
      ESP Fit Center  149 is at  -2.175660  3.473659  1.284840
      ESP Fit Center  150 is at  -0.152805  3.116975  0.246543
      ESP Fit Center  151 is at  -1.099321  3.663446  0.246543
      ESP Fit Center  152 is at  -2.175660  3.473659  0.246543
      ESP Fit Center  153 is at  -1.071624  3.029093 -0.593457
      ESP Fit Center  154 is at  -2.668809  1.350078  3.367202
      ESP Fit Center  155 is at  -1.681330  1.350078  3.046350
      ESP Fit Center  156 is at  -2.363661  2.289226  3.046350
      ESP Fit Center  157 is at  -3.467696  1.930503  3.046350
      ESP Fit Center  158 is at  -3.467696  0.769652  3.046350
      ESP Fit Center  159 is at  -2.363661  0.410929  3.046350
      ESP Fit Center  160 is at  -2.391358  2.923579  2.206350
      ESP Fit Center  161 is at  -3.467696  2.733791  2.206350
      ESP Fit Center  162 is at  -4.170226  1.896549  2.206350
      ESP Fit Center  163 is at  -4.170226  0.803606  2.206350
      ESP Fit Center  164 is at  -2.917197 -1.288424  3.333426
      ESP Fit Center  165 is at  -1.929717 -1.288424  3.012574
      ESP Fit Center  166 is at  -2.612049 -0.349275  3.012574
      ESP Fit Center  167 is at  -3.716084 -0.707998  3.012574
      ESP Fit Center  168 is at  -3.716084 -1.868850  3.012574
      ESP Fit Center  169 is at  -2.612049 -2.227572  3.012574
      ESP Fit Center  170 is at  -3.716084  0.095290  2.172574
      ESP Fit Center  171 is at  -4.418614 -0.741953  2.172574
      ESP Fit Center  172 is at  -4.418614 -1.834895  2.172574
      ESP Fit Center  173 is at  -3.716084 -2.672137  2.172574
      ESP Fit Center  174 is at  -2.639746 -2.861925  2.172574
      ESP Fit Center  175 is at  -0.789116 -2.224242  2.064738
      ESP Fit Center  176 is at  -1.471448 -3.163390  2.064738
      ESP Fit Center  177 is at  -0.178821 -2.224242  1.224738
      ESP Fit Center  178 is at  -2.575483 -3.607956  1.224738
      ESP Fit Center  179 is at  -1.499145 -3.797743  1.224738
      ESP Fit Center  180 is at  -0.552629 -3.251272  1.224738
      ESP Fit Center  181 is at  -2.575483 -3.607956  0.186441
      ESP Fit Center  182 is at  -1.499145 -3.797743  0.186441
      ESP Fit Center  183 is at  -0.552629 -3.251272  0.186441
      ESP Fit Center  184 is at  -1.471448 -3.163390 -0.653559
      ESP Fit Center  185 is at  -0.771187 -0.170280  3.427693
      ESP Fit Center  186 is at   0.216292 -0.170280  3.106842
      ESP Fit Center  187 is at  -0.466039  0.768868  3.106842
      ESP Fit Center  188 is at  -1.570074  0.410146  3.106842
      ESP Fit Center  189 is at  -1.570074 -0.750706  3.106842
      ESP Fit Center  190 is at  -0.466039 -1.109429  3.106842
      ESP Fit Center  191 is at   0.826588 -0.170280  2.266842
      ESP Fit Center  192 is at  -0.493736  1.403221  2.266842
      ESP Fit Center  193 is at  -0.493736 -1.743781  2.266842
      ESP Fit Center  194 is at   0.452780 -1.197310  2.266842
      ESP Fit Center  195 is at   6.724682 -0.607428 -0.329068
      ESP Fit Center  196 is at   6.350874  0.419602 -0.329068
      ESP Fit Center  197 is at   6.724682 -0.607428 -1.367365
      ESP Fit Center  198 is at   6.350874  0.419602 -1.367365
      ESP Fit Center  199 is at   5.404358 -2.180929 -1.367365
      ESP Fit Center  200 is at   6.350874 -1.634458 -1.367365
      ESP Fit Center  201 is at   6.114387 -0.607428 -2.207365
      ESP Fit Center  202 is at   5.432055  0.331721 -2.207365
      ESP Fit Center  203 is at   4.328020 -0.027002 -2.207365
      ESP Fit Center  204 is at   4.328020 -1.187853 -2.207365
      ESP Fit Center  205 is at   5.432055 -1.546576 -2.207365
      ESP Fit Center  206 is at   5.126907 -0.607428 -2.528217
      ESP Fit Center  207 is at   3.289504 -2.390451  1.325639
      ESP Fit Center  208 is at   4.393539 -2.749174  1.325639
      ESP Fit Center  209 is at   3.289504 -3.193739  0.485639
      ESP Fit Center  210 is at   4.365842 -3.383526  0.485639
      ESP Fit Center  211 is at   5.312358 -2.837055  0.485639
      ESP Fit Center  212 is at   3.289504 -3.193739 -0.552658
      ESP Fit Center  213 is at   4.365842 -3.383526 -0.552658
      ESP Fit Center  214 is at   5.312358 -2.837055 -0.552658
      ESP Fit Center  215 is at   3.289504 -2.390451 -1.392658
      ESP Fit Center  216 is at   4.393539 -2.749174 -1.392658
      ESP Fit Center  217 is at   5.022825 -0.633382  2.611193
      ESP Fit Center  218 is at   6.010305 -0.633382  2.290341
      ESP Fit Center  219 is at   5.327973  0.305767  2.290341
      ESP Fit Center  220 is at   4.223938 -0.052956  2.290341
      ESP Fit Center  221 is at   4.223938 -1.213808  2.290341
      ESP Fit Center  222 is at   5.327973 -1.572531  2.290341
      ESP Fit Center  223 is at   6.620600 -0.633382  1.450341
      ESP Fit Center  224 is at   6.246792  0.393648  1.450341
      ESP Fit Center  225 is at   5.300276 -2.206883  1.450341
      ESP Fit Center  226 is at   6.246792 -1.660412  1.450341
      ESP Fit Center  227 is at   6.620600 -0.633382  0.412044
      ESP Fit Center  228 is at   6.246792  0.393648  0.412044
      ESP Fit Center  229 is at   4.237609  1.782496  2.581480
      ESP Fit Center  230 is at   5.225089  1.782496  2.260629
      ESP Fit Center  231 is at   4.542757  2.721644  2.260629
      ESP Fit Center  232 is at   3.438722  2.362922  2.260629
      ESP Fit Center  233 is at   3.438722  1.202070  2.260629
      ESP Fit Center  234 is at   4.542757  0.843347  2.260629
      ESP Fit Center  235 is at   5.835384  1.782496  1.420629
      ESP Fit Center  236 is at   5.461576  2.809526  1.420629
      ESP Fit Center  237 is at   4.515060  3.355997  1.420629
      ESP Fit Center  238 is at   3.438722  3.166210  1.420629
      ESP Fit Center  239 is at   5.835384  1.782496  0.382332
      ESP Fit Center  240 is at   5.461576  2.809526  0.382332
[...]
  568 Fit       0.103621
  569 Fit       0.106733
  570 Fit       0.115628
  571 Fit       0.107637
  572 Fit       0.107531
  573 Fit       0.115366
  574 Fit       0.125524
  575 Fit       0.121393
  576 Fit       0.114250
  577 Fit       0.112998
  578 Fit       0.148605
  579 Fit       0.146616
  580 Fit       0.144205
  581 Fit       0.147291
  582 Fit       0.152790
  583 Fit       0.146463
  584 Fit       0.148061
  585 Fit       0.151868
  586 Fit       0.149201
  587 Fit       0.152354
  588 Fit       0.166970
  589 Fit       0.147479
  590 Fit       0.143921
  591 Fit       0.145356
  592 Fit       0.157233
  593 Fit       0.145170
  594 Fit       0.142730
  595 Fit       0.147241
  596 Fit       0.163781
  597 Fit       0.168913
  598 Fit       0.152914
  599 Fit       0.148725
  600 Fit       0.113984
  601 Fit       0.133019
  602 Fit       0.149691
  603 Fit       0.164555
  604 Fit       0.167218
  605 Fit       0.160777
  606 Fit       0.156146
  607 Fit       0.154674
  608 Fit       0.155892
  609 Fit       0.157535
  610 Fit       0.126323
  611 Fit       0.117946
  612 Fit       0.107607
  613 Fit       0.133506
  614 Fit       0.107113
  615 Fit       0.128188
  616 Fit       0.092042
  617 Fit       0.086715
  618 Fit       0.085410
  619 Fit       0.087497
  620 Fit       0.116138
  621 Fit       0.100988
  622 Fit       0.104254
  623 Fit       0.100775
  624 Fit       0.094412
  625 Fit       0.095669
  626 Fit       0.100537
  627 Fit       0.107623
  628 Fit       0.117229
  629 Fit       0.099922
  630 Fit       0.101289
  631 Fit       0.108490
  632 Fit       0.096688
  633 Fit       0.091010
  634 Fit       0.087060
  635 Fit       0.091181
  636 Fit       0.096471
  637 Fit       0.106594
  638 Fit       0.086474
  639 Fit       0.088036
  640 Fit       0.087018
  641 Fit       0.088662
  642 Fit       0.096191
  643 Fit       0.130183
  644 Fit       0.107448
  645 Fit       0.104760
  646 Fit       0.101901
  647 Fit       0.102025
  648 Fit       0.104556
  649 Fit       0.110849
  650 Fit       0.108029
  651 Fit       0.136396
  652 Fit       0.148861
  653 Fit       0.115595
  654 Fit       0.113448
  655 Fit       0.133377
  656 Fit       0.117069
  657 Fit       0.140492
  658 Fit       0.156030
  659 Fit       0.107439
  660 Fit       0.094882
  661 Fit       0.085819
  662 Fit       0.099153
  663 Fit       0.077826
  664 Fit       0.074700
  665 Fit       0.098984
  666 Fit       0.075758
  667 Fit       0.068920
  668 Fit       0.099033
  669 Fit       0.075783
  670 Fit       0.068645
  671 Fit       0.100626
  672 Fit       0.077955
  673 Fit       0.073659
  674 Fit       0.099888
  675 Fit       0.131848
  676 Fit       0.096088
  677 Fit       0.085073
  678 Fit       0.107952
  679 Fit       0.108939
  680 Fit       0.100696
  681 Fit       0.094702
  682 Fit       0.101845
  683 Fit       0.104713
  684 Fit       0.092814
  685 Fit       0.087851
  686 Fit       0.088190
  687 Fit       0.094094
  688 Fit       0.088982
  689 Fit       0.084951
  690 Fit       0.085331
  691 Fit       0.090469
  692 Fit       0.087291
  693 Fit       0.083695
  694 Fit       0.083995
  695 Fit       0.088502
  696 Fit       0.095804
  697 Fit       0.087820
  698 Fit       0.084114
  699 Fit       0.084248
  700 Fit       0.088328
  701 Fit       0.109927
  702 Fit       0.101400
  703 Fit       0.091010
  704 Fit       0.087291
  705 Fit       0.091153
  706 Fit       0.101901
  707 Fit       0.094894
  708 Fit       0.130428
  709 Fit       0.138441
  710 Fit       0.116343
  711 Fit       0.104588
  712 Fit       0.133710
  713 Fit       0.114939
  714 Fit       0.104034
  715 Fit       0.105856
  716 Fit       0.117134
  717 Fit       0.135300
  718 Fit       0.114067
  719 Fit       0.103873
  720 Fit       0.108194
  721 Fit       0.098325
  722 Fit       0.094480
  723 Fit       0.095477
  724 Fit       0.109892
  725 Fit       0.098583
  726 Fit       0.092884
  727 Fit       0.090811
  728 Fit       0.092058
  729 Fit       0.102773
  730 Fit       0.094487
  731 Fit       0.091209
  732 Fit       0.092304
  733 Fit       0.095687
  734 Fit       0.102460
  735 Fit       0.099876
  736 Fit       0.091225
  737 Fit       0.090330
  738 Fit       0.093789
  739 Fit       0.087909
  740 Fit       0.086665
  741 Fit       0.088192
  742 Fit       0.093161
  743 Fit       0.087806
  744 Fit       0.086693
  745 Fit       0.089235
  746 Fit       0.096661
  747 Fit       0.090696
  748 Fit       0.119722
  749 Fit       0.097598
  750 Fit       0.107107
  751 Fit       0.126644
  752 Fit       0.126705
  753 Fit       0.129285
  754 Fit       0.112358
  755 Fit       0.100907
  756 Fit       0.098315
  757 Fit       0.107685
  758 Fit       0.108624
  759 Fit       0.136876
  760 Fit       0.119166
  761 Fit       0.136798
  762 Fit       0.118362
  763 Fit       0.109895
  764 Fit       0.128101
  765 Fit       0.115024
  766 Fit       0.110653
  767 Fit       0.128728
  768 Fit       0.117762
  769 Fit       0.141514
  770 Fit       0.108773
  771 Fit       0.119728
  772 Fit       0.108698
  773 Fit       0.102735
  774 Fit       0.104669
  775 Fit       0.113423
  776 Fit       0.122381
  777 Fit       0.111360
  778 Fit       0.103818
  779 Fit       0.101464
  780 Fit       0.103096
  781 Fit       0.108888
  782 Fit       0.106320
  783 Fit       0.105541
  784 Fit       0.116357
  785 Fit       0.120791
  786 Fit       0.110980
  787 Fit       0.101247
  788 Fit       0.098235
  789 Fit       0.103376
  790 Fit       0.116069
  791 Fit       0.105084
  792 Fit       0.098914
  793 Fit       0.096484
  794 Fit       0.097601
  795 Fit       0.103904
  796 Fit       0.101225
  797 Fit       0.104057
  798 Fit       0.124684
  799 Fit       0.096647
  800 Fit       0.099036
  801 Fit       0.106130
  802 Fit       0.097685
  803 Fit       0.097737
  804 Fit       0.101056
  805 Fit       0.102406
  806 Fit       0.105840
  807 Fit       0.121306
  808 Fit       0.118083
  809 Fit       0.122468
  810 Fit       0.124991
  811 Fit       0.123506
  812 Fit       0.122295
  813 Fit       0.117749
  814 Fit       0.116841
  815 Fit       0.135991
  816 Fit       0.140932
  817 Fit       0.118593
  818 Fit       0.123707
  819 Fit       0.089130
  820 Fit       0.094566
  821 Fit       0.087508
  822 Fit       0.088687
  823 Fit       0.094967
  824 Fit       0.087196
  825 Fit       0.086432
  826 Fit       0.091235
  827 Fit       0.100152
  828 Fit       0.109811
  829 Fit       0.105963
  830 Fit       0.094482
  831 Fit       0.089407
  832 Fit       0.096677
  833 Fit       0.086853
  834 Fit       0.081055
  835 Fit       0.084030
  836 Fit       0.075922
  837 Fit       0.080911
  838 Fit       0.083848
  839 Fit       0.080036
  840 Fit       0.083531
  841 Fit       0.084681
  842 Fit       0.087867
  843 Fit       0.096104
  844 Fit       0.091069
  845 Fit       0.099662
  846 Fit       0.108586
  847 Fit       0.104635
  848 Fit       0.094088
  849 Fit       0.089283
  850 Fit       0.088842
  851 Fit       0.095058
  852 Fit       0.087263
  853 Fit       0.086618
  854 Fit       0.089872
  855 Fit       0.095347
  856 Fit       0.088249
  857 Fit       0.106588
  858 Fit       0.101449
  859 Fit       0.101230
  860 Fit       0.109042
  861 Fit       0.118797
  862 Fit       0.115375
  863 Fit       0.108573
  864 Fit       0.100034
  865 Fit       0.097694
  866 Fit       0.099978
  867 Fit       0.106916
  868 Fit       0.101681
  869 Fit       0.098952
  870 Fit       0.100710
  871 Fit       0.128921
  872 Fit       0.118709
  873 Fit       0.133968
  874 Fit       0.113915
  875 Fit       0.122428
  876 Fit       0.140566
  877 Fit       0.119708
  878 Fit       0.135902
  879 Fit       0.132398
  880 Fit       0.101106
  881 Fit       0.098327
  882 Fit       0.100069
  883 Fit       0.100002
  884 Fit       0.097689
  885 Fit       0.100116
  886 Fit       0.107545
  887 Fit       0.101841
  888 Fit       0.101890
  889 Fit       0.110745
  890 Fit       0.122330
  891 Fit       0.117443
  892 Fit       0.109016
  893 Fit       0.107901
  894 Fit       0.140026
  895 Fit       0.138088
  896 Fit       0.135506
  897 Fit       0.138665
  898 Fit       0.143878
  899 Fit       0.138479
  900 Fit       0.137927
  901 Fit       0.144308
  902 Fit       0.141569
  903 Fit       0.142155
  904 Fit       0.135657
  905 Fit       0.135377
  906 Fit       0.142644
  907 Fit       0.136440
  908 Fit       0.133833
  909 Fit       0.138251
  910 Fit       0.154805
  911 Fit       0.143656
  912 Fit       0.139713
  913 Fit       0.117374
  914 Fit       0.152755
  915 Fit       0.155445
  916 Fit       0.144345
  917 Fit       0.142771
  918 Fit       0.143854
  919 Fit       0.145491
  920 Fit       0.120233
  921 Fit       0.114636
  922 Fit       0.105149
  923 Fit       0.126047
  924 Fit       0.116051
  925 Fit       0.104754
  926 Fit       0.121539
  927 Fit       0.085398
  928 Fit       0.086479
  929 Fit       0.084326
  930 Fit       0.085166
  931 Fit       0.112951
  932 Fit       0.105430
  933 Fit       0.097344
  934 Fit       0.093361
  935 Fit       0.098153
  936 Fit       0.090471
  937 Fit       0.089012
  938 Fit       0.096613
  939 Fit       0.123376
  940 Fit       0.110728
  941 Fit       0.103179
  942 Fit       0.103106
  943 Fit       0.100401
  944 Fit       0.110693
  945 Fit       0.093786
  946 Fit       0.104644
  947 Fit       0.093722
  948 Fit       0.090448
  949 Fit       0.086166
  950 Fit       0.082779
  951 Fit       0.082859
  952 Fit       0.086203
  953 Fit       0.091198
  954 Fit       0.100067
  955 Fit       0.081789
  956 Fit       0.081588
  957 Fit       0.083171
  958 Fit       0.081624
  959 Fit       0.083381
  960 Fit       0.082826
  961 Fit       0.085513
  962 Fit       0.085022
  963 Fit       0.093558
  964 Fit       0.122961
  965 Fit       0.121482
  966 Fit       0.107168
  967 Fit       0.099058
  968 Fit       0.096006
  969 Fit       0.097883
  970 Fit       0.102682
  971 Fit       0.098156
  972 Fit       0.102965
  973 Fit       0.108222
  974 Fit       0.125618
  975 Fit       0.128448
  976 Fit       0.111129
  977 Fit       0.109485
  978 Fit       0.126103
  979 Fit       0.112529
  980 Fit       0.130179
  981 Fit       0.143612
  982 Fit       0.106386
  983 Fit       0.096149
  984 Fit       0.088067
  985 Fit       0.091030
  986 Fit       0.078545
  987 Fit       0.078409
  988 Fit       0.089531
  989 Fit       0.074764
  990 Fit       0.071749
  991 Fit       0.096977
  992 Fit       0.077921
  993 Fit       0.070070
  994 Fit       0.072142
  995 Fit       0.089363
  996 Fit       0.074600
  997 Fit       0.071111
  998 Fit       0.091540
  999 Fit       0.078281
 1000 Fit       0.077131
 1001 Fit       0.096859
 1002 Fit       0.087308
 1003 Fit       0.106619
 1004 Fit       0.105609
 1005 Fit       0.098091
 1006 Fit       0.092422
 1007 Fit       0.099110
 1008 Fit       0.101760
 1009 Fit       0.090425
 1010 Fit       0.085632
 1011 Fit       0.085937
 1012 Fit       0.091558
 1013 Fit       0.088627
 1014 Fit       0.083190
 1015 Fit       0.081728
 1016 Fit       0.083833
 1017 Fit       0.090327
 1018 Fit       0.081793
 1019 Fit       0.081520
 1020 Fit       0.085357
 1021 Fit       0.080848
 1022 Fit       0.079575
 1023 Fit       0.081278
 1024 Fit       0.086500
 1025 Fit       0.091805
 1026 Fit       0.084492
 1027 Fit       0.081027
 1028 Fit       0.081125
 1029 Fit       0.084833
 1030 Fit       0.104861
 1031 Fit       0.097451
 1032 Fit       0.087864
 1033 Fit       0.084342
 1034 Fit       0.087982
 1035 Fit       0.097819
 1036 Fit       0.091563
 1037 Fit       0.126432
 1038 Fit       0.129700
 1039 Fit       0.111187
 1040 Fit       0.100694
 1041 Fit       0.125120
 1042 Fit       0.110168
 1043 Fit       0.100807
 1044 Fit       0.102180
 1045 Fit       0.111824
 1046 Fit       0.125982
 1047 Fit       0.109435
 1048 Fit       0.096092
 1049 Fit       0.092256
 1050 Fit       0.093592
 1051 Fit       0.098031
 1052 Fit       0.091049
 1053 Fit       0.087948
 1054 Fit       0.087977
 1055 Fit       0.096149
 1056 Fit       0.089595
 1057 Fit       0.086670
 1058 Fit       0.086746
 1059 Fit       0.099680
 1060 Fit       0.091316
 1061 Fit       0.088072
 1062 Fit       0.089437
 1063 Fit       0.093442
 1064 Fit       0.089263
 1065 Fit       0.088161
 1066 Fit       0.091744
 1067 Fit       0.087032
 1068 Fit       0.083941
 1069 Fit       0.083773
 1070 Fit       0.086352
 1071 Fit       0.092777
 1072 Fit       0.085673
 1073 Fit       0.082605
 1074 Fit       0.082343
 1075 Fit       0.084636
 1076 Fit       0.090322
 1077 Fit       0.084790
 1078 Fit       0.083512
 1079 Fit       0.086115
 1080 Fit       0.088479
 1081 Fit       0.100609
 1082 Fit       0.113357
 1083 Fit       0.093813
 1084 Fit       0.102072
 1085 Fit       0.118223
 1086 Fit       0.118546
 1087 Fit       0.120862
 1088 Fit       0.107453
 1089 Fit       0.097475
 1090 Fit       0.095236
 1091 Fit       0.103195
 1092 Fit       0.104246
 1093 Fit       0.114803
 1094 Fit       0.128529
 1095 Fit       0.112979
 1096 Fit       0.105695
 1097 Fit       0.123325
 1098 Fit       0.110532
 1099 Fit       0.105059
 1100 Fit       0.129029
 1101 Fit       0.114415
 1102 Fit       0.108428
 1103 Fit       0.126711
 1104 Fit       0.103907
 1105 Fit       0.113247
 1106 Fit       0.104030
 1107 Fit       0.098428
 1108 Fit       0.099877
 1109 Fit       0.107351
 1110 Fit       0.114936
 1111 Fit       0.105947
 1112 Fit       0.098947
 1113 Fit       0.096452
 1114 Fit       0.097687
 1115 Fit       0.102658
 1116 Fit       0.098802
 1117 Fit       0.099421
 1118 Fit       0.100838
 1119 Fit       0.109921
 1120 Fit       0.113401
 1121 Fit       0.105157
 1122 Fit       0.096690
 1123 Fit       0.094216
 1124 Fit       0.099079
 1125 Fit       0.108920
 1126 Fit       0.099281
 1127 Fit       0.093827
 1128 Fit       0.091789
 1129 Fit       0.093095
 1130 Fit       0.099229
 1131 Fit       0.094967
 1132 Fit       0.093560
 1133 Fit       0.100923
 1134 Fit       0.092998
 1135 Fit       0.095117
 1136 Fit       0.102096
 1137 Fit       0.091888
 1138 Fit       0.092564
 1139 Fit       0.095595
 1140 Fit       0.094216
 1141 Fit       0.094927
 1142 Fit       0.098072
 1143 Fit       0.100278
 1144 Fit       0.103721
 1145 Fit       0.111956
 1146 Fit       0.115181
 1147 Fit       0.117443
 1148 Fit       0.116376
 1149 Fit       0.115005
 1150 Fit       0.111357
 1151 Fit       0.110646
 1152 Fit       0.124854
 1153 Fit       0.130700
 1154 Fit       0.129041
 1155 Fit       0.111347
 1156 Fit       0.115724
 1157 Fit       0.086540
 1158 Fit       0.091479
 1159 Fit       0.084219
 1160 Fit       0.089123
 1161 Fit       0.099051
 1162 Fit       0.082914
 1163 Fit       0.082366
 1164 Fit       0.084788
 1165 Fit       0.090633
 1166 Fit       0.083482
 1167 Fit       0.082680
 1168 Fit       0.087646
 1169 Fit       0.095587
 1170 Fit       0.104435
 1171 Fit       0.101896
 1172 Fit       0.091525
 1173 Fit       0.086278
 1174 Fit       0.093049
 1175 Fit       0.086284
 1176 Fit       0.079441
 1177 Fit       0.081355
 1178 Fit       0.075849
 1179 Fit       0.078183
 1180 Fit       0.080732
 1181 Fit       0.075334
 1182 Fit       0.077947
 1183 Fit       0.080547
 1184 Fit       0.078328
 1185 Fit       0.080753
 1186 Fit       0.084507
 1187 Fit       0.092339
 1188 Fit       0.087379
 1189 Fit       0.094978
 1190 Fit       0.103070
 1191 Fit       0.100435
 1192 Fit       0.090968
 1193 Fit       0.086026
 1194 Fit       0.084848
 1195 Fit       0.090598
 1196 Fit       0.083460
 1197 Fit       0.082755
 1198 Fit       0.084690
 1199 Fit       0.089611
 1200 Fit       0.083247
 1201 Fit       0.082817
 1202 Fit       0.102056
 1203 Fit       0.096956
 1204 Fit       0.096962
 1205 Fit       0.104246
 1206 Fit       0.112871
 1207 Fit       0.110022
 1208 Fit       0.103155
 1209 Fit       0.095131
 1210 Fit       0.093074
 1211 Fit       0.095239
 1212 Fit       0.101702
 1213 Fit       0.095657
 1214 Fit       0.093016
 1215 Fit       0.093993
 1216 Fit       0.098369
 1217 Fit       0.114306
 1218 Fit       0.128360
 1219 Fit       0.113628
 1220 Fit       0.127098
 1221 Fit       0.114035
 1222 Fit       0.127688
 1223 Fit       0.115580
 1224 Fit       0.130859
 1225 Fit       0.127577
 1226 Fit       0.095454
 1227 Fit       0.095344
 1228 Fit       0.092670
 1229 Fit       0.093682
 1230 Fit       0.098200
 1231 Fit       0.095201
 1232 Fit       0.093201
 1233 Fit       0.095559
 1234 Fit       0.102570
 1235 Fit       0.097475
 1236 Fit       0.097750
 1237 Fit       0.106037
 1238 Fit       0.116210
 1239 Fit       0.112197
 1240 Fit       0.103832
 1241 Fit       0.103470
 1242 Fit       0.132513
 1243 Fit       0.130333
 1244 Fit       0.128131
 1245 Fit       0.131181
 1246 Fit       0.135351
 1247 Fit       0.129409
 1248 Fit       0.129492
 1249 Fit       0.138320
 1250 Fit       0.130824
 1251 Fit       0.130645
 1252 Fit       0.136917
 1253 Fit       0.126869
 1254 Fit       0.127283
 1255 Fit       0.134148
 1256 Fit       0.128672
 1257 Fit       0.126470
 1258 Fit       0.130522
 1259 Fit       0.143595
 1260 Fit       0.146946
 1261 Fit       0.134730
 1262 Fit       0.131825
 1263 Fit       0.112992
 1264 Fit       0.141219
 1265 Fit       0.143461
 1266 Fit       0.134408
 1267 Fit       0.132815
 1268 Fit       0.133981
 1269 Fit       0.135494
 -----------------------------------------------------------------
 Leave Link  602 at Sat Feb 17 20:57:58 2018, MaxMem=   33554432 cpu:       0.7

 Test job not archived.
 1\1\GINC-NODE008\SP\RHF\6-31G(d)\C10H21N2O1(1+)\WULSDORT\17-Feb-2018\0
 \\#HF/6-31G* Geom=AllCheck Guess=Read Pop=(MK,ReadRadii) Integral=(Gri
 d=UltraFine) iop(6/33=2)\\Optimization for frag13-conf1\\1,1\C,0,-5.95
 52376997,2.6101021752,-0.1848710943\C,0,-0.1471001101,0.6829041183,0.3
 99150583\C,0,-1.2133021606,0.0112969805,-0.4800809625\C,0,-0.697935841
 7,1.9391970849,1.0907985905\C,0,-2.4891389524,-0.3088312078,0.31994440
 58\C,0,-1.9744778271,1.6289160661,1.8936843105\C,0,-3.0493390893,0.911
 6886982,1.0628666898\C,0,-8.1866292107,3.554719918,-0.2666968294\C,0,-
 7.698484436,1.502780336,-1.5683384841\C,0,-4.9265020657,1.5249164308,-
 0.6106232687\N,0,-7.2049869199,2.5361009203,-0.6596408285\N,0,-3.64925
 46927,1.9124263356,0.0721214044\O,0,-5.5401202949,3.4869781181,0.58601
 48197\H,0,0.191605837,-0.0311071642,1.1622446286\H,0,0.7320590476,0.93
 70498985,-0.202253352\H,0,-1.4482501202,0.6624636676,-1.3386374695\H,0
 ,-0.8264607402,-0.9147215122,-0.9179849701\H,0,0.0505026521,2.36774608
 26,1.7651878282\H,0,-0.8948403639,2.7207816061,0.3393960076\H,0,-3.254
 7306207,-0.7633382371,-0.321775702\H,0,-2.2568245484,-1.0582995079,1.0
 864588759\H,0,-1.7256236976,0.9567471364,2.7241218377\H,0,-2.390531758
 8,2.5359223702,2.3509978098\H,0,-3.8953507202,0.6317629176,1.698861791
 \H,0,-8.5559120876,4.0715009229,-1.1585379797\H,0,-7.7116270793,4.2693
 684891,0.4024027765\H,0,-9.0293889562,3.0752058208,0.2418260679\H,0,-8
 .544061796,0.9793390523,-1.1093633052\H,0,-6.9284386223,0.7683642558,-
 1.8045658572\H,0,-8.0394003665,1.9603089841,-2.5034988213\H,0,-5.22272
 37665,0.5300318461,-0.2726498778\H,0,-4.7722641495,1.4958951959,-1.690
 7849655\H,0,-3.9419156677,2.7904593721,0.5803956503\H,0,-2.9353471485,
 2.1731856797,-0.6130476566\\Version=AM64L-G09RevC.01\State=1-A\HF=-574
 .4828954\RMSD=6.558e-09\Dipole=-0.4456661,-0.86701,-0.9087064\Quadrupo
 le=15.8526659,-9.7661266,-6.0865393,-3.4662117,8.5560174,-2.149642\PG=
 C01 [X(C10H21N2O1)]\\@


 THE PROBLEM WITH THE LADDER OF SUCCESS IS YOU CAN'T
 CLIMB IT WHILE YOU'RE TWIDDLING YOUR THUMBS.
 Job cpu time:  0 days  0 hours  3 minutes 31.1 seconds.
 File lengths (MBytes):  RWF=     34 Int=      0 D2E=      0 Chk=      6 Scr=      1
 Normal termination of Gaussian 09 at Sat Feb 17 20:57:58 2018.
