 Entering Gaussian System, Link 0=g09
 Initial command:
 /home/fb_chem/chemsoft/lx24-amd64/Gaussian_09_C.01_NBO_3.1_64_istanbul-64/g09/l1.exe /local/2399975.1.parallel/Gau-23633.inp -scrdir=/local/2399975.1.parallel/
 Entering Link 1 = /home/fb_chem/chemsoft/lx24-amd64/Gaussian_09_C.01_NBO_3.1_64_istanbul-64/g09/l1.exe PID=     23634.
  
 Copyright (c) 1988,1990,1992,1993,1995,1998,2003,2009,2011,
            Gaussian, Inc.  All Rights Reserved.
  
 This is part of the Gaussian(R) 09 program.  It is based on
 the Gaussian(R) 03 system (copyright 2003, Gaussian, Inc.),
 the Gaussian(R) 98 system (copyright 1998, Gaussian, Inc.),
 the Gaussian(R) 94 system (copyright 1995, Gaussian, Inc.),
 the Gaussian 92(TM) system (copyright 1992, Gaussian, Inc.),
 the Gaussian 90(TM) system (copyright 1990, Gaussian, Inc.),
 the Gaussian 88(TM) system (copyright 1988, Gaussian, Inc.),
 the Gaussian 86(TM) system (copyright 1986, Carnegie Mellon
 University), and the Gaussian 82(TM) system (copyright 1983,
 Carnegie Mellon University). Gaussian is a federally registered
 trademark of Gaussian, Inc.
  
 This software contains proprietary and confidential information,
 including trade secrets, belonging to Gaussian, Inc.
  
 This software is provided under written license and may be
 used, copied, transmitted, or stored only in accord with that
 written license.
  
 The following legend is applicable only to US Government
 contracts under FAR:
  
                    RESTRICTED RIGHTS LEGEND
  
 Use, reproduction and disclosure by the US Government is
 subject to restrictions as set forth in subparagraphs (a)
 and (c) of the Commercial Computer Software - Restricted
 Rights clause in FAR 52.227-19.
  
 Gaussian, Inc.
 340 Quinnipiac St., Bldg. 40, Wallingford CT 06492
  
  
 ---------------------------------------------------------------
 Warning -- This program may not be used in any manner that
 competes with the business of Gaussian, Inc. or will provide
 assistance to any competitor of Gaussian, Inc.  The licensee
 of this program is prohibited from giving any competitor of
 Gaussian, Inc. access to this program.  By using this program,
 the user acknowledges that Gaussian, Inc. is engaged in the
 business of creating and licensing software in the field of
 computational chemistry and represents and warrants to the
 licensee that it is not a competitor of Gaussian, Inc. and that
 it will not use this program in any manner prohibited above.
 ---------------------------------------------------------------
  

 Cite this work as:
 Gaussian 09, Revision C.01,
 M. J. Frisch, G. W. Trucks, H. B. Schlegel, G. E. Scuseria, 
 M. A. Robb, J. R. Cheeseman, G. Scalmani, V. Barone, B. Mennucci, 
 G. A. Petersson, H. Nakatsuji, M. Caricato, X. Li, H. P. Hratchian, 
 A. F. Izmaylov, J. Bloino, G. Zheng, J. L. Sonnenberg, M. Hada, 
 M. Ehara, K. Toyota, R. Fukuda, J. Hasegawa, M. Ishida, T. Nakajima, 
 Y. Honda, O. Kitao, H. Nakai, T. Vreven, J. A. Montgomery, Jr., 
 J. E. Peralta, F. Ogliaro, M. Bearpark, J. J. Heyd, E. Brothers, 
 K. N. Kudin, V. N. Staroverov, T. Keith, R. Kobayashi, J. Normand, 
 K. Raghavachari, A. Rendell, J. C. Burant, S. S. Iyengar, J. Tomasi, 
 M. Cossi, N. Rega, J. M. Millam, M. Klene, J. E. Knox, J. B. Cross, 
 V. Bakken, C. Adamo, J. Jaramillo, R. Gomperts, R. E. Stratmann, 
 O. Yazyev, A. J. Austin, R. Cammi, C. Pomelli, J. W. Ochterski, 
 R. L. Martin, K. Morokuma, V. G. Zakrzewski, G. A. Voth, 
 P. Salvador, J. J. Dannenberg, S. Dapprich, A. D. Daniels, 
 O. Farkas, J. B. Foresman, J. V. Ortiz, J. Cioslowski, 
 and D. J. Fox, Gaussian, Inc., Wallingford CT, 2010.
 
 ******************************************
 Gaussian 09:  AM64L-G09RevC.01 23-Sep-2011
                17-Feb-2018 
 ******************************************
 %nprocs=2
 Will use up to    2 processors via shared memory.
 %chk=frag5-conf1.chk
 ----------------------------------------------------------------------
 #HF/6-31G* Geom=AllCheck Guess=Read Pop=(MK,ReadRadii) Integral=(Grid=
 UltraFine) iop(6/33=2)
 ----------------------------------------------------------------------
 1/29=7,38=1/1;
 2/12=2,40=1/2;
 3/5=1,6=6,7=1,11=9,14=-4,16=1,25=1,30=1,75=-5,116=-2/1,2,3;
 4/5=1/1;
 5/5=2,38=6/2;
 6/7=2,8=2,9=2,10=2,15=8,20=101,28=1,33=2/1,2;
 99/5=1,9=1/99;
 Structure from the checkpoint file:  frag5-conf1.chk
 ----------------------------
 Optimization for frag5-conf1
 ----------------------------
 Charge =  0 Multiplicity = 1
 Redundant internal coordinates found in file.
 C,0,1.7824021785,-1.854175473,0.5230459507
 C,0,0.7662313219,-1.2765260683,1.2810443914
 C,0,3.1250895483,-1.5970940425,0.8136305177
 C,0,2.421776386,-0.1637383119,2.6461622545
 C,0,1.0807227144,-0.426466309,2.3515969947
 C,0,3.426704973,-0.7500531803,1.8763119428
 C,0,-1.9084331828,-1.3601939967,3.6095244556
 C,0,-2.4886263392,-2.3950944545,4.5617319331
 C,0,-0.0262300494,0.1921503339,3.1876485325
 N,0,-0.742004727,-0.771311984,4.0193898993
 O,0,-2.4603216513,-1.0705094299,2.5534784736
 Cl,0,5.1115435476,-0.4089282381,2.261851439
 H,0,1.5337803726,-2.5084061469,-0.3081099285
 H,0,-0.2767644311,-1.4737840396,1.0509155122
 H,0,3.9214117573,-2.0414245299,0.2262101847
 H,0,2.6882502388,0.4964213881,3.4664494654
 H,0,-3.5251667525,-2.1242499903,4.7823455159
 H,0,-2.5057295636,-3.3677571348,4.0594895817
 H,0,-1.9370949051,-2.4905813562,5.5022775931
 H,0,0.3825525984,0.9748294245,3.8359152682
 H,0,-0.7806985656,0.6461881565,2.54030085
 H,0,-0.2657735255,-1.1466168208,4.8274806288
 Recover connectivity data from disk.
                          Input orientation:                          
 ---------------------------------------------------------------------
 Center     Atomic      Atomic             Coordinates (Angstroms)
 Number     Number       Type             X           Y           Z
 ---------------------------------------------------------------------
      1          6           0        1.782402   -1.854175    0.523046
      2          6           0        0.766231   -1.276526    1.281044
      3          6           0        3.125090   -1.597094    0.813631
      4          6           0        2.421776   -0.163738    2.646162
      5          6           0        1.080723   -0.426466    2.351597
      6          6           0        3.426705   -0.750053    1.876312
      7          6           0       -1.908433   -1.360194    3.609524
      8          6           0       -2.488626   -2.395094    4.561732
      9          6           0       -0.026230    0.192150    3.187649
     10          7           0       -0.742005   -0.771312    4.019390
     11          8           0       -2.460322   -1.070509    2.553478
     12         17           0        5.111544   -0.408928    2.261851
     13          1           0        1.533780   -2.508406   -0.308110
     14          1           0       -0.276764   -1.473784    1.050916
     15          1           0        3.921412   -2.041425    0.226210
     16          1           0        2.688250    0.496421    3.466449
     17          1           0       -3.525167   -2.124250    4.782346
     18          1           0       -2.505730   -3.367757    4.059490
     19          1           0       -1.937095   -2.490581    5.502278
     20          1           0        0.382553    0.974829    3.835915
     21          1           0       -0.780699    0.646188    2.540301
     22          1           0       -0.265774   -1.146617    4.827481
 ---------------------------------------------------------------------
                    Distance matrix (angstroms):
                    1          2          3          4          5
     1  C    0.000000
     2  C    1.393142   0.000000
     3  C    1.397619   2.425995   0.000000
     4  C    2.788189   2.417162   2.430500   0.000000
     5  C    2.423697   1.402708   2.813387   1.397934   0.000000
     6  C    2.398780   2.776623   1.392028   1.395104   2.415417
     7  C    4.836593   3.547203   5.762768   4.594593   3.374801
     8  C    5.902988   4.754809   6.796975   5.723671   4.636857
     9  C    3.815587   2.533800   4.332225   2.532311   1.518885
    10  N    4.446307   3.166789   5.090504   3.502058   2.494551
    11  O    4.768385   3.474504   5.873771   4.966458   3.604794
    12  Cl   4.024347   4.538331   2.730399   2.728124   4.031858
    13  H    1.086578   2.152225   2.149664   3.874755   3.407899
    14  H    2.159516   1.086145   3.412348   3.397522   2.152073
    15  H    2.167611   3.413636   1.084722   3.410393   3.898060
    16  H    3.874208   3.407858   3.407504   1.086135   2.163045
    17  H    6.810643   5.603021   7.762377   6.616118   5.477703
    18  H    5.760680   4.774802   6.736243   6.045126   4.942745
    19  H    6.247593   5.157588   6.957546   5.707132   4.826446
    20  H    4.575801   3.426832   4.823951   2.621122   2.157376
    21  H    4.109820   2.770478   4.823783   3.305001   2.156638
    22  H    4.819110   3.695825   5.273697   3.598211   2.908895
                    6          7          8          9         10
     6  C    0.000000
     7  C    5.642694   0.000000
     8  C    6.701402   1.521296   0.000000
     9  C    3.811838   2.475973   3.826923   0.000000
    10  N    4.687363   1.369426   2.445709   1.460269   0.000000
    11  O    5.934503   1.226267   2.405911   2.814477   2.278383
    12  Cl   1.761729   7.211186   8.185163   5.255008   6.122442
    13  H    3.383292   5.339952   6.317274   4.684759   5.188829
    14  H    3.862739   3.036729   4.250527   2.720980   3.085734
    15  H    2.152954   6.774805   7.746639   5.416904   6.144009
    16  H    2.151174   4.959535   6.029972   2.745672   3.698586
    17  H    7.659110   2.138485   1.093820   4.489023   3.187245
    18  H    6.841960   2.142321   1.094812   4.425039   3.139086
    19  H    6.704283   2.204793   1.094500   4.025663   2.565752
    20  H    4.010253   3.279055   4.486298   1.095418   2.085018
    21  H    4.482479   2.537833   4.031451   1.092901   2.049026
    22  H    4.743528   2.056055   2.563278   2.130429   1.010277
                   11         12         13         14         15
    11  O    0.000000
    12  Cl   7.606305   0.000000
    13  H    5.119481   4.879846   0.000000
    14  H    2.681091   5.624424   2.489069   0.000000
    15  H    6.861878   2.867977   2.490854   4.315905   0.000000
    16  H    5.458624   2.853606   4.960755   4.302072   4.296568
    17  H    2.685538   9.159038   7.187020   4.989869   8.730221
    18  H    2.747267   8.367139   6.010994   4.196062   7.600088
    19  H    3.314481   8.032244   6.768153   4.858518   7.896881
    20  H    3.729610   5.172603   5.534546   3.766514   5.886534
    21  H    2.401741   5.992439   4.839599   2.639413   5.889662
    22  H    3.161158   6.003514   5.609559   3.790726   6.285292
                   16         17         18         19         20
    16  H    0.000000
    17  H    6.870666   0.000000
    18  H    6.500846   1.762976   0.000000
    19  H    5.870315   1.781705   1.781690   0.000000
    20  H    2.383615   5.076445   5.220174   4.490724   0.000000
    21  H    3.593576   4.498244   4.625519   4.466529   1.771941
    22  H    3.643932   3.403153   3.246641   2.248312   2.429828
                   21         22
    21  H    0.000000
    22  H    2.951354   0.000000
 Stoichiometry    C9H10ClNO
 Framework group  C1[X(C9H10ClNO)]
 Deg. of freedom    60
 Full point group                 C1      NOp   1
 Largest Abelian subgroup         C1      NOp   1
 Largest concise Abelian subgroup C1      NOp   1
                         Standard orientation:                         
 ---------------------------------------------------------------------
 Center     Atomic      Atomic             Coordinates (Angstroms)
 Number     Number       Type             X           Y           Z
 ---------------------------------------------------------------------
      1          6           0        1.063655    2.012935   -0.142887
      2          6           0       -0.052178    1.303531    0.295870
      3          6           0        2.290398    1.370327   -0.331288
      4          6           0        1.267544   -0.720236    0.369174
      5          6           0        0.042835   -0.071985    0.553779
      6          6           0        2.375015    0.005655   -0.070036
      7          6           0       -3.265583   -0.143254   -0.108471
      8          6           0       -4.204234   -0.396371   -1.278602
      9          6           0       -1.176804   -0.849066    1.018149
     10          7           0       -2.202591   -1.000970   -0.009992
     11          8           0       -3.461144    0.762833    0.694333
     12         17           0        3.910588   -0.827167   -0.298316
     13          1           0        0.986296    3.079227   -0.337020
     14          1           0       -1.003591    1.805467    0.446149
     15          1           0        3.163916    1.916804   -0.670330
     16          1           0        1.365647   -1.783330    0.568916
     17          1           0       -5.223111   -0.496640   -0.893531
     18          1           0       -4.189846    0.476694   -1.939029
     19          1           0       -3.954395   -1.287714   -1.862569
     20          1           0       -0.880739   -1.845539    1.363586
     21          1           0       -1.661729   -0.330984    1.849335
     22          1           0       -2.019056   -1.637230   -0.772979
 ---------------------------------------------------------------------
 Rotational constants (GHZ):      2.0246335      0.3457039      0.3198969
 Standard basis: 6-31G(d) (6D, 7F)
 There are   204 symmetry adapted basis functions of A   symmetry.
 Integral buffers will be    131072 words long.
 Raffenetti 1 integral format.
 Two-electron integral symmetry is turned on.
   204 basis functions,   400 primitive gaussians,   204 cartesian basis functions
    48 alpha electrons       48 beta electrons
       nuclear repulsion energy       727.9753318975 Hartrees.
 NAtoms=   22 NActive=   22 NUniq=   22 SFac= 1.00D+00 NAtFMM=   60 NAOKFM=F Big=F
 One-electron integrals computed using PRISM.
 NBasis=   204 RedAO= T  NBF=   204
 NBsUse=   204 1.00D-06 NBFU=   204
 Initial guess read from the checkpoint file:  frag5-conf1.chk
 B after Tr=     0.000000    0.000000    0.000000
         Rot=    1.000000    0.000000    0.000000    0.000000 Ang=   0.00 deg.
 Initial guess orbital symmetries:
       Occupied  (A) (A) (A) (A) (A) (A) (A) (A) (A) (A) (A) (A)
                 (A) (A) (A) (A) (A) (A) (A) (A) (A) (A) (A) (A)
                 (A) (A) (A) (A) (A) (A) (A) (A) (A) (A) (A) (A)
                 (A) (A) (A) (A) (A) (A) (A) (A) (A) (A) (A) (A)
       Virtual   (A) (A) (A) (A) (A) (A) (A) (A) (A) (A) (A) (A)
                 (A) (A) (A) (A) (A) (A) (A) (A) (A) (A) (A) (A)
                 (A) (A) (A) (A) (A) (A) (A) (A) (A) (A) (A) (A)
                 (A) (A) (A) (A) (A) (A) (A) (A) (A) (A) (A) (A)
                 (A) (A) (A) (A) (A) (A) (A) (A) (A) (A) (A) (A)
                 (A) (A) (A) (A) (A) (A) (A) (A) (A) (A) (A) (A)
                 (A) (A) (A) (A) (A) (A) (A) (A) (A) (A) (A) (A)
                 (A) (A) (A) (A) (A) (A) (A) (A) (A) (A) (A) (A)
                 (A) (A) (A) (A) (A) (A) (A) (A) (A) (A) (A) (A)
                 (A) (A) (A) (A) (A) (A) (A) (A) (A) (A) (A) (A)
                 (A) (A) (A) (A) (A) (A) (A) (A) (A) (A) (A) (A)
                 (A) (A) (A) (A) (A) (A) (A) (A) (A) (A) (A) (A)
                 (A) (A) (A) (A) (A) (A) (A) (A) (A) (A) (A) (A)
 Requested convergence on RMS density matrix=1.00D-08 within 128 cycles.
 Requested convergence on MAX density matrix=1.00D-06.
 Requested convergence on             energy=1.00D-06.
 No special actions if energy rises.
 SCF Done:  E(RHF) =  -935.451360057     A.U. after   14 cycles
             Convg  =    0.3291D-08             -V/T =  2.0015

 **********************************************************************

            Population analysis using the SCF density.

 **********************************************************************

 Orbital symmetries:
 BldTbl:  Degeneracy threshold= 1.00D-02
       Occupied  (A) (A) (A) (A) (A) (A) (A) (A) (A) (A) (A) (A)
                 (A) (A) (A) (A) (A) (A) (A) (A) (A) (A) (A) (A)
                 (A) (A) (A) (A) (A) (A) (A) (A) (A) (A) (A) (A)
                 (A) (A) (A) (A) (A) (A) (A) (A) (A) (A) (A) (A)
       Virtual   (A) (A) (A) (A) (A) (A) (A) (A) (A) (A) (A) (A)
                 (A) (A) (A) (A) (A) (A) (A) (A) (A) (A) (A) (A)
                 (A) (A) (A) (A) (A) (A) (A) (A) (A) (A) (A) (A)
                 (A) (A) (A) (A) (A) (A) (A) (A) (A) (A) (A) (A)
                 (A) (A) (A) (A) (A) (A) (A) (A) (A) (A) (A) (A)
                 (A) (A) (A) (A) (A) (A) (A) (A) (A) (A) (A) (A)
                 (A) (A) (A) (A) (A) (A) (A) (A) (A) (A) (A) (A)
                 (A) (A) (A) (A) (A) (A) (A) (A) (A) (A) (A) (A)
                 (A) (A) (A) (A) (A) (A) (A) (A) (A) (A) (A) (A)
                 (A) (A) (A) (A) (A) (A) (A) (A) (A) (A) (A) (A)
                 (A) (A) (A) (A) (A) (A) (A) (A) (A) (A) (A) (A)
                 (A) (A) (A) (A) (A) (A) (A) (A) (A) (A) (A) (A)
                 (A) (A) (A) (A) (A) (A) (A) (A) (A) (A) (A) (A)
 The electronic state is 1-A.
 Alpha  occ. eigenvalues -- -104.82620 -20.52737 -15.59775 -11.36135 -11.30772
 Alpha  occ. eigenvalues --  -11.27934 -11.25648 -11.25346 -11.25263 -11.25029
 Alpha  occ. eigenvalues --  -11.24454 -11.24214 -10.55925  -8.02861  -8.02533
 Alpha  occ. eigenvalues --   -8.02529  -1.37915  -1.23607  -1.18526  -1.11719
 Alpha  occ. eigenvalues --   -1.05192  -1.01173  -0.99464  -0.93388  -0.83594
 Alpha  occ. eigenvalues --   -0.80768  -0.79098  -0.70413  -0.69286  -0.65822
 Alpha  occ. eigenvalues --   -0.65349  -0.63948  -0.61709  -0.59262  -0.58322
 Alpha  occ. eigenvalues --   -0.58119  -0.56576  -0.55128  -0.53486  -0.52911
 Alpha  occ. eigenvalues --   -0.50345  -0.50051  -0.46276  -0.45301  -0.42481
 Alpha  occ. eigenvalues --   -0.39608  -0.34552  -0.33105
 Alpha virt. eigenvalues --    0.12242   0.12871   0.18543   0.19876   0.21166
 Alpha virt. eigenvalues --    0.25559   0.26803   0.27473   0.30390   0.30826
 Alpha virt. eigenvalues --    0.31320   0.32318   0.33239   0.34026   0.34262
 Alpha virt. eigenvalues --    0.38988   0.40649   0.42833   0.43903   0.46649
 Alpha virt. eigenvalues --    0.47289   0.50943   0.52599   0.59112   0.59168
 Alpha virt. eigenvalues --    0.60398   0.62093   0.63806   0.68430   0.71226
 Alpha virt. eigenvalues --    0.72799   0.73079   0.74513   0.75512   0.76526
 Alpha virt. eigenvalues --    0.77962   0.79843   0.81460   0.82382   0.82600
 Alpha virt. eigenvalues --    0.83304   0.84680   0.85693   0.87326   0.88548
 Alpha virt. eigenvalues --    0.91295   0.94344   0.94820   0.96788   0.99621
 Alpha virt. eigenvalues --    1.00217   1.01639   1.06492   1.06969   1.08139
 Alpha virt. eigenvalues --    1.08535   1.10566   1.11249   1.12812   1.14426
 Alpha virt. eigenvalues --    1.15126   1.15999   1.16846   1.17469   1.18780
 Alpha virt. eigenvalues --    1.19255   1.19565   1.20395   1.20892   1.22119
 Alpha virt. eigenvalues --    1.24729   1.28459   1.33384   1.34590   1.37922
 Alpha virt. eigenvalues --    1.38958   1.41012   1.44326   1.45389   1.48105
 Alpha virt. eigenvalues --    1.49205   1.52900   1.57525   1.59623   1.62120
 Alpha virt. eigenvalues --    1.65116   1.67648   1.71405   1.72160   1.74330
 Alpha virt. eigenvalues --    1.75064   1.77104   1.79876   1.82848   1.83737
 Alpha virt. eigenvalues --    1.93836   2.01761   2.03342   2.07360   2.10220
 Alpha virt. eigenvalues --    2.11357   2.12246   2.13082   2.15634   2.19732
 Alpha virt. eigenvalues --    2.22517   2.24021   2.26052   2.28595   2.30819
 Alpha virt. eigenvalues --    2.35383   2.37447   2.38459   2.40649   2.44581
 Alpha virt. eigenvalues --    2.45927   2.48767   2.53605   2.54141   2.55062
 Alpha virt. eigenvalues --    2.59343   2.61498   2.64082   2.65234   2.68879
 Alpha virt. eigenvalues --    2.72257   2.74306   2.78290   2.87749   2.90708
 Alpha virt. eigenvalues --    2.92249   2.97512   3.02146   3.03199   3.04476
 Alpha virt. eigenvalues --    3.09601   3.09957   3.14363   3.20502   3.25024
 Alpha virt. eigenvalues --    3.35761   3.41863   3.49717   3.74546   4.36781
 Alpha virt. eigenvalues --    4.46911   4.47706   4.52190   4.55650   4.60624
 Alpha virt. eigenvalues --    4.68608   4.74615   4.77944   4.83703   4.92028
 Alpha virt. eigenvalues --    5.11810
          Condensed to atoms (all electrons):
              1          2          3          4          5          6
     1  C    4.902850   0.538160   0.532880  -0.034611  -0.040870  -0.040184
     2  C    0.538160   4.953130  -0.044391  -0.044165   0.548509  -0.034425
     3  C    0.532880  -0.044391   4.944469  -0.048275  -0.028985   0.537417
     4  C   -0.034611  -0.044165  -0.048275   4.982240   0.554512   0.518338
     5  C   -0.040870   0.548509  -0.028985   0.554512   4.877489  -0.038871
     6  C   -0.040184  -0.034425   0.537417   0.518338  -0.038871   5.024696
     7  C    0.000059   0.001917  -0.000001  -0.000057  -0.002104  -0.000001
     8  C    0.000002   0.000007   0.000000  -0.000006  -0.000402   0.000000
     9  C    0.002158  -0.041289   0.000232  -0.035706   0.325701   0.002700
    10  N   -0.000008  -0.000121   0.000001  -0.000973  -0.073004  -0.000011
    11  O    0.000096  -0.001943   0.000000  -0.000031  -0.002682   0.000000
    12  Cl   0.002659   0.000134  -0.063587  -0.064846   0.002639   0.215134
    13  H    0.381545  -0.026626  -0.030229   0.000276   0.002012   0.002419
    14  H   -0.024745   0.369960   0.002216   0.002470  -0.026733   0.000081
    15  H   -0.025512   0.002147   0.381776   0.002104   0.000162  -0.029473
    16  H    0.000054   0.002634   0.002092   0.379347  -0.028700  -0.028603
    17  H    0.000000   0.000001   0.000000   0.000000  -0.000004   0.000000
    18  H    0.000000   0.000011   0.000000   0.000000   0.000042   0.000000
    19  H    0.000000  -0.000005   0.000000   0.000001   0.000011   0.000000
    20  H   -0.000027   0.003106  -0.000021  -0.000400  -0.059431   0.000268
    21  H    0.000050  -0.002643   0.000001   0.001501  -0.040510  -0.000061
    22  H   -0.000005   0.000316  -0.000005   0.000721   0.001390   0.000000
              7          8          9         10         11         12
     1  C    0.000059   0.000002   0.002158  -0.000008   0.000096   0.002659
     2  C    0.001917   0.000007  -0.041289  -0.000121  -0.001943   0.000134
     3  C   -0.000001   0.000000   0.000232   0.000001   0.000000  -0.063587
     4  C   -0.000057  -0.000006  -0.035706  -0.000973  -0.000031  -0.064846
     5  C   -0.002104  -0.000402   0.325701  -0.073004  -0.002682   0.002639
     6  C   -0.000001   0.000000   0.002700  -0.000011   0.000000   0.215134
     7  C    4.160613   0.360224  -0.025633   0.279250   0.568616   0.000000
     8  C    0.360224   5.244153   0.004558  -0.101549  -0.067425   0.000000
     9  C   -0.025633   0.004558   4.937356   0.193356   0.003188  -0.000095
    10  N    0.279250  -0.101549   0.193356   7.348713  -0.095506   0.000002
    11  O    0.568616  -0.067425   0.003188  -0.095506   8.204457   0.000000
    12  Cl   0.000000   0.000000  -0.000095   0.000002   0.000000  16.919800
    13  H    0.000001   0.000000  -0.000110   0.000005  -0.000002  -0.000087
    14  H    0.001155   0.000140  -0.000177  -0.002125   0.008860   0.000005
    15  H    0.000000   0.000000   0.000004   0.000000   0.000000   0.000389
    16  H    0.000000   0.000000  -0.002744   0.000105   0.000000   0.000347
    17  H   -0.027502   0.381114  -0.000117   0.001857   0.000910   0.000000
    18  H   -0.027594   0.379774  -0.000107   0.001243   0.000368   0.000000
    19  H   -0.039016   0.374794   0.000030   0.005340   0.002492   0.000000
    20  H    0.002399  -0.000030   0.416245  -0.041555   0.000386  -0.000008
    21  H   -0.000694   0.000370   0.408526  -0.041518   0.007682   0.000002
    22  H   -0.015161   0.000369  -0.021863   0.317395   0.002156   0.000000
             13         14         15         16         17         18
     1  C    0.381545  -0.024745  -0.025512   0.000054   0.000000   0.000000
     2  C   -0.026626   0.369960   0.002147   0.002634   0.000001   0.000011
     3  C   -0.030229   0.002216   0.381776   0.002092   0.000000   0.000000
     4  C    0.000276   0.002470   0.002104   0.379347   0.000000   0.000000
     5  C    0.002012  -0.026733   0.000162  -0.028700  -0.000004   0.000042
     6  C    0.002419   0.000081  -0.029473  -0.028603   0.000000   0.000000
     7  C    0.000001   0.001155   0.000000   0.000000  -0.027502  -0.027594
     8  C    0.000000   0.000140   0.000000   0.000000   0.381114   0.379774
     9  C   -0.000110  -0.000177   0.000004  -0.002744  -0.000117  -0.000107
    10  N    0.000005  -0.002125   0.000000   0.000105   0.001857   0.001243
    11  O   -0.000002   0.008860   0.000000   0.000000   0.000910   0.000368
    12  Cl  -0.000087   0.000005   0.000389   0.000347   0.000000   0.000000
    13  H    0.457899  -0.001108  -0.001551   0.000009   0.000000   0.000000
    14  H   -0.001108   0.415535  -0.000076  -0.000090   0.000000  -0.000012
    15  H   -0.001551  -0.000076   0.439449  -0.000098   0.000000   0.000000
    16  H    0.000009  -0.000090  -0.000098   0.448718   0.000000   0.000000
    17  H    0.000000   0.000000   0.000000   0.000000   0.473125  -0.019441
    18  H    0.000000  -0.000012   0.000000   0.000000  -0.019441   0.480847
    19  H    0.000000  -0.000007   0.000000   0.000000  -0.022622  -0.022985
    20  H    0.000002  -0.000053   0.000000   0.002572   0.000006  -0.000001
    21  H    0.000000   0.000434   0.000000   0.000038   0.000004  -0.000009
    22  H    0.000000  -0.000042   0.000000   0.000027   0.000068  -0.000078
             19         20         21         22
     1  C    0.000000  -0.000027   0.000050  -0.000005
     2  C   -0.000005   0.003106  -0.002643   0.000316
     3  C    0.000000  -0.000021   0.000001  -0.000005
     4  C    0.000001  -0.000400   0.001501   0.000721
     5  C    0.000011  -0.059431  -0.040510   0.001390
     6  C    0.000000   0.000268  -0.000061   0.000000
     7  C   -0.039016   0.002399  -0.000694  -0.015161
     8  C    0.374794  -0.000030   0.000370   0.000369
     9  C    0.000030   0.416245   0.408526  -0.021863
    10  N    0.005340  -0.041555  -0.041518   0.317395
    11  O    0.002492   0.000386   0.007682   0.002156
    12  Cl   0.000000  -0.000008   0.000002   0.000000
    13  H    0.000000   0.000002   0.000000   0.000000
    14  H   -0.000007  -0.000053   0.000434  -0.000042
    15  H    0.000000   0.000000   0.000000   0.000000
    16  H    0.000000   0.002572   0.000038   0.000027
    17  H   -0.022622   0.000006   0.000004   0.000068
    18  H   -0.022985  -0.000001  -0.000009  -0.000078
    19  H    0.531348  -0.000024  -0.000022   0.001211
    20  H   -0.000024   0.507886  -0.019541  -0.001768
    21  H   -0.000022  -0.019541   0.443402   0.002874
    22  H    0.001211  -0.001768   0.002874   0.326944
 Mulliken atomic charges:
              1
     1  C   -0.194551
     2  C   -0.224423
     3  C   -0.185588
     4  C   -0.212440
     5  C    0.029828
     6  C   -0.129425
     7  C    0.763528
     8  C   -0.576094
     9  C   -0.166213
    10  N   -0.790895
    11  O   -0.631621
    12  Cl  -0.012488
    13  H    0.215546
    14  H    0.254311
    15  H    0.230680
    16  H    0.224293
    17  H    0.212601
    18  H    0.207943
    19  H    0.169456
    20  H    0.189988
    21  H    0.240115
    22  H    0.385451
 Sum of Mulliken atomic charges =   0.00000
 Mulliken charges with hydrogens summed into heavy atoms:
              1
     1  C    0.020995
     2  C    0.029887
     3  C    0.045092
     4  C    0.011853
     5  C    0.029828
     6  C   -0.129425
     7  C    0.763528
     8  C    0.013906
     9  C    0.263890
    10  N   -0.405444
    11  O   -0.631621
    12  Cl  -0.012488
 Sum of Mulliken charges with hydrogens summed into heavy atoms =   0.00000
 DipInt: DoE/N= T F RetVal/Mat= T F Init=T NMatP=  1 IDeriv=0 Min/MaxMlt=  0  4
 Entering OneElI...
 OneElI was handed    33445144 working-precision words.
 Multipole integrals L=0 to 4 MinM= 0 MaxM= 0.
 Requested accuracy = 0.1000D-12
 PrsmSu:  NPrtUS=   1 ThrOK=F IAlg=1 NPAlg=1 LenDen=           0.
 Prism:   IPart=     0 DynPar=F LinDyn=F Incr=          21.
 PRISM was handed    33248837 working-precision words and  2116 shell-pairs
 IPart=  0 NShTot=        2116 NBatch=          62 AvBLen=        34.1
 PrSmSu:  NxtVal=             22.
 Electronic moments (au):
        -96.00000000         -0.37458278         -0.65906308         -0.83055253
      -2678.24307162       -430.15685874       -202.75790736          8.31647162
          6.25869794         -1.74626593        908.57404674       -550.20283019
         59.33919240       -424.05877044       1311.54750861       1606.23475642
        619.86535158         85.59029349         15.43946684        201.29030501
    -132621.74750000      -5286.36524316      -1582.58475575       6803.27332468
      -4635.68235159      -1469.95781193        284.96107624      -1048.50406236
          5.33328285      -8038.60019390      -7012.41488505       -779.97601680
      -2148.95791686        396.40061964       -384.35601626
 Electronic spatial extent (au):  <R**2>=           3311.1578
 DipInt: DoE/N= F T RetVal/Mat= T F Init=T NMatP=  1 IDeriv=0 Min/MaxMlt=  0  4
 Nuclear    moments (au):
         96.00000000          0.00000000          0.00000000          0.00000000
       2613.43338241        376.86409925        144.46041058          0.00000000
          0.00000000          0.00000000       -943.04232647        552.42062930
        -59.96034861        433.28103077      -1334.70580443      -1657.97358947
       -633.12725944        -94.45488288        -23.72185966       -203.57938224
     123234.77695975       3894.19281992        866.58238242      -6507.38515298
       4915.09762879       1477.89632064       -298.26423509       1037.37877914
         -1.15971080       6236.13626187       5329.67442302        406.61299794
       2090.74012137       -390.02593897        383.68071047
 Total      moments (au):
          0.00000000         -0.37458278         -0.65906308         -0.83055253
        -64.80968922        -53.29275949        -58.29749677          8.31647162
          6.25869794         -1.74626593        -34.46827973          2.21779911
         -0.62115622          9.22226033        -23.15829582        -51.73883306
        -13.26190786         -8.86458939         -8.28239282         -2.28907723
      -9386.97054025      -1392.17242324       -716.00237333        295.88817170
        279.41527720          7.93850871        -13.30315885        -11.12528322
          4.17357205      -1802.46393203      -1682.74046204       -373.36301886
        -58.21779549          6.37468067         -0.67530579
 Traceless Quadrup. (au):
         -6.00970739          5.50722234          0.50248505          8.31647162
          6.25869794         -1.74626593
 Charge=              0.0000 electrons
 Dipole moment (field-independent basis, Debye):
    X=             -0.9521    Y=             -1.6752    Z=             -2.1111  Tot=              2.8582
 Quadrupole moment (field-independent basis, Debye-Ang):
   XX=            -87.1712   YY=            -71.6806   ZZ=            -78.4121
   XY=             11.1859   XZ=              8.4182   YZ=             -2.3488
 Traceless Quadrupole moment (field-independent basis, Debye-Ang):
   XX=             -8.0833   YY=              7.4074   ZZ=              0.6759
   XY=             11.1859   XZ=              8.4182   YZ=             -2.3488
 Octapole moment (field-independent basis, Debye-Ang**2):
  XXX=            -24.5332  YYY=              1.5785  ZZZ=             -0.4421  XYY=              6.5640
  XXY=            -16.4832  XXZ=            -36.8257  XZZ=             -9.4393  YZZ=             -6.3095
  YYZ=             -5.8951  XYZ=             -1.6293
 Hexadecapole moment (field-independent basis, Debye-Ang**3):
 XXXX=          -3535.5830 YYYY=           -524.3589 ZZZZ=           -269.6808 XXXY=            111.4457
 XXXZ=            105.2412 YYYX=              2.9900 YYYZ=             -5.0106 ZZZX=             -4.1903
 ZZZY=              1.5720 XXYY=           -678.8943 XXZZ=           -633.8007 YYZZ=           -140.6264
 XXYZ=            -21.9276 YYXZ=              2.4010 ZZXY=             -0.2544
 N-N= 7.279753318975D+02 E-N=-3.661535704439D+03  KE= 9.340877085395D+02
 Entering OneElI...
 OneElI was handed    33361158 working-precision words.
 Calculate electrostatic properties
    NBasis =   204  MinDer = 0  MaxDer = 0
    NGrid  =    22  NMatD  =   1
 Requested accuracy = 0.1000D-12
 PrsmSu:  NPrtUS=   2 ThrOK=T IAlg=1 NPAlg=1 LenDen=           0.
 Prism:   IPart=     0 DynPar=F LinDyn=F Incr=         213.
 PRISM was handed    16558233 working-precision words and  1938 shell-pairs
 PRISM was handed    16558233 working-precision words and  1938 shell-pairs
 IPart=  0 NShTot=       21604 NBatch=         982 AvBLen=        22.0
 IPart=  1 NShTot=       21032 NBatch=         956 AvBLen=        22.0
 PrSmSu:  NxtVal=            427.
 --------------------------------------------------------
       Center         ----      EFG at Nuclei      ----
                      3XX-RR        3YY-RR        3ZZ-RR
 --------------------------------------------------------
     1   Atom        0.161907      0.131628     -0.293534
     2   Atom        0.141973      0.144705     -0.286678
     3   Atom        0.148907      0.103576     -0.252482
     4   Atom        0.135391      0.103990     -0.239381
     5   Atom        0.121472      0.175245     -0.296716
     6   Atom       -0.163850      0.225856     -0.062006
     7   Atom       -0.019017     -0.062108      0.081125
     8   Atom        0.006344      0.020317     -0.026661
     9   Atom       -0.067363      0.129500     -0.062137
    10   Atom       -0.113004      0.207763     -0.094758
    11   Atom        0.945833     -0.718144     -0.227689
    12   Atom       -2.305371      0.634844      1.670526
    13   Atom        0.141757     -0.289588      0.147831
    14   Atom       -0.190705      0.040808      0.149897
    15   Atom       -0.146894      0.026893      0.120001
    16   Atom        0.137783     -0.286932      0.149149
    17   Atom       -0.239024      0.149613      0.089411
    18   Atom        0.148281     -0.132374     -0.015907
    19   Atom        0.119032     -0.143855      0.024824
    20   Atom        0.107203     -0.212973      0.105770
    21   Atom        0.059719      0.054833     -0.114552
    22   Atom        0.160585     -0.021495     -0.139090
 --------------------------------------------------------
                        XY            XZ            YZ
 --------------------------------------------------------
     1   Atom       -0.007969     -0.130671     -0.094994
     2   Atom       -0.018186     -0.124043     -0.095663
     3   Atom       -0.039965     -0.107616     -0.071718
     4   Atom       -0.047415     -0.093945     -0.069907
     5   Atom       -0.048168     -0.098108     -0.089712
     6   Atom        0.259420     -0.038195     -0.135495
     7   Atom       -0.217820      0.269723      0.358663
     8   Atom       -0.010648     -0.048188     -0.025694
     9   Atom       -0.080298     -0.213627      0.026313
    10   Atom        0.518419     -0.412515     -0.536894
    11   Atom       -0.436258      0.970699     -0.430129
    12   Atom        2.256688      0.592208     -0.360038
    13   Atom        0.032261     -0.000545      0.083077
    14   Atom        0.181303      0.056352     -0.024036
    15   Atom       -0.182331      0.118933      0.076080
    16   Atom        0.037500     -0.000483      0.085796
    17   Atom       -0.040780      0.142666      0.013798
    18   Atom       -0.008663     -0.001089      0.213434
    19   Atom        0.089853      0.047668     -0.193919
    20   Atom        0.104861     -0.043488      0.122818
    21   Atom        0.079975      0.136981     -0.157581
    22   Atom        0.092879      0.053818     -0.293748
 --------------------------------------------------------


 ---------------------------------------------------------------------------------
              Nuclear Quadrupole in Principal Axis System
 ---------------------------------------------------------------------------------

       Atom             a.u.   MegaHertz   Gauss  10(-4) cm-1        Axes

              Baa    -0.3468   -46.536   -16.605   -15.523  0.2470  0.1927  0.9497
     1 C(13)  Bbb     0.1448    19.434     6.935     6.482 -0.3396  0.9351 -0.1014
              Bcc     0.2020    27.102     9.671     9.040  0.9076  0.2974 -0.2964
 
              Baa    -0.3395   -45.553   -16.254   -15.195  0.2516  0.1967  0.9476
     2 C(13)  Bbb     0.1607    21.567     7.696     7.194 -0.4694  0.8810 -0.0582
              Bcc     0.1787    23.986     8.559     8.001  0.8464  0.4302 -0.3140
 
              Baa    -0.2953   -39.628   -14.140   -13.219  0.2475  0.1954  0.9490
     3 C(13)  Bbb     0.1125    15.093     5.386     5.034  0.2570  0.9311 -0.2588
              Bcc     0.1828    24.535     8.755     8.184  0.9342 -0.3080 -0.1802
 
              Baa    -0.2780   -37.307   -13.312   -12.444  0.2391  0.2034  0.9494
     4 C(13)  Bbb     0.1042    13.976     4.987     4.662  0.4259  0.8568 -0.2908
              Bcc     0.1739    23.331     8.325     7.782  0.8726 -0.4739 -0.1182
 
              Baa    -0.3374   -45.275   -16.155   -15.102  0.2242  0.1884  0.9562
     5 C(13)  Bbb     0.1317    17.672     6.306     5.895  0.8771  0.3887 -0.2822
              Bcc     0.2057    27.603     9.849     9.207 -0.4248  0.9019 -0.0781
 
              Baa    -0.2968   -39.832   -14.213   -13.287  0.8749 -0.4672 -0.1273
     6 C(13)  Bbb    -0.1004   -13.466    -4.805    -4.492  0.2446  0.1996  0.9489
              Bcc     0.3972    53.298    19.018    17.778  0.4179  0.8613 -0.2889
 
              Baa    -0.5681   -76.237   -27.203   -25.430  0.5291  0.6304 -0.5680
     7 C(13)  Bbb     0.1738    23.319     8.321     7.778  0.8078 -0.5792  0.1097
              Bcc     0.3943    52.918    18.882    17.651  0.2598  0.5169  0.8157
 
              Baa    -0.0693    -9.302    -3.319    -3.103  0.5428  0.2904  0.7881
     8 C(13)  Bbb     0.0261     3.498     1.248     1.167 -0.4667  0.8844 -0.0044
              Bcc     0.0433     5.804     2.071     1.936  0.6983  0.3654 -0.6156
 
              Baa    -0.2821   -37.860   -13.509   -12.629  0.7198  0.0965  0.6874
     9 C(13)  Bbb     0.0658     8.835     3.152     2.947  0.4109  0.7390 -0.5340
              Bcc     0.2163    29.025    10.357     9.682 -0.5595  0.6668  0.4923
 
              Baa    -0.5170   -19.938    -7.114    -6.651  0.6488  0.0952  0.7550
    10 N(14)  Bbb    -0.4893   -18.872    -6.734    -6.295 -0.5654  0.7244  0.3946
              Bcc     1.0063    38.810    13.848    12.946  0.5093  0.6828 -0.5238
 
              Baa    -0.9830    71.130    25.381    23.726 -0.1330  0.7780  0.6140
    11 O(17)  Bbb    -0.6591    47.693    17.018    15.909 -0.5314 -0.5789  0.6184
              Bcc     1.6421  -118.824   -42.399   -39.635  0.8366 -0.2440  0.4905
 
              Baa    -3.6191  -189.418   -67.589   -63.183  0.8713 -0.4732 -0.1298
    12 Cl(35) Bbb     1.7504    91.609    32.688    30.558  0.2526  0.2059  0.9454
              Bcc     1.8688    97.808    34.900    32.625  0.4207  0.8566 -0.2989
 
              Baa    -0.3071  -163.850   -58.466   -54.654 -0.0707  0.9813 -0.1793
    13 H(1)   Bbb     0.1427    76.113    27.159    25.388  0.9658  0.0224 -0.2583
              Bcc     0.1644    87.737    31.307    29.266  0.2494  0.1914  0.9493
 
              Baa    -0.2983  -159.185   -56.801   -53.098  0.8698 -0.4745 -0.1348
    14 H(1)   Bbb     0.1384    73.830    26.344    24.627  0.4248  0.8594 -0.2846
              Bcc     0.1600    85.355    30.457    28.471  0.2509  0.1903  0.9491
 
              Baa    -0.3085  -164.599   -58.733   -54.904  0.8028  0.5074 -0.3129
    15 H(1)   Bbb     0.1420    75.738    27.025    25.264 -0.5427  0.8394 -0.0312
              Bcc     0.1665    88.861    31.708    29.641  0.2468  0.1949  0.9493
 
              Baa    -0.3063  -163.415   -58.310   -54.509 -0.0829  0.9793 -0.1846
    16 H(1)   Bbb     0.1392    74.295    26.510    24.782  0.9672  0.0345 -0.2515
              Bcc     0.1670    89.120    31.800    29.727  0.2399  0.1994  0.9501
 
              Baa    -0.2965  -158.194   -56.447   -52.768  0.9325  0.0960 -0.3482
    17 H(1)   Bbb     0.1426    76.067    27.142    25.373  0.3366  0.1187  0.9342
              Bcc     0.1539    82.127    29.305    27.395 -0.1310  0.9883 -0.0783
 
              Baa    -0.2955  -157.645   -56.252   -52.585  0.0140  0.7948 -0.6067
    18 H(1)   Bbb     0.1416    75.538    26.954    25.197  0.6695  0.4432  0.5961
              Bcc     0.1539    82.107    29.298    27.388  0.7427 -0.4146 -0.5259
 
              Baa    -0.2957  -157.784   -56.301   -52.631 -0.2373  0.8151  0.5284
    19 H(1)   Bbb     0.1379    73.553    26.246    24.535  0.8149 -0.1291  0.5651
              Bcc     0.1579    84.231    30.056    28.097 -0.5288 -0.5647  0.6336
 
              Baa    -0.2873  -153.313   -54.706   -51.140 -0.2760  0.9083 -0.3143
    20 H(1)   Bbb     0.1356    72.337    25.812    24.129  0.8281  0.3908  0.4019
              Bcc     0.1518    80.975    28.894    27.010 -0.4879  0.1493  0.8600
 
              Baa    -0.2823  -150.628   -53.748   -50.244 -0.4207  0.4641  0.7795
    21 H(1)   Bbb     0.1331    71.033    25.346    23.694  0.9032  0.2951  0.3117
              Bcc     0.1492    79.595    28.402    26.550 -0.0854  0.8352 -0.5433
 
              Baa    -0.3980  -212.367   -75.778   -70.838 -0.1778  0.6322  0.7541
    22 H(1)   Bbb     0.1567    83.600    29.831    27.886  0.8457 -0.2937  0.4455
              Bcc     0.2413   128.766    45.947    42.952  0.5031  0.7170 -0.4825
 

 ---------------------------------------------------------------------------------

 No NMR shielding tensors so no spin-rotation constants.
 Leave Link  601 at Sat Feb 17 20:56:43 2018, MaxMem=   33554432 cpu:       0.5
 Merz-Kollman atomic radii used.
 Read replacement radii for each type of atom:
 Atom Element Radius
    1     6    1.50
    2     6    1.50
    3     6    1.50
    4     6    1.50
    5     6    1.50
    6     6    1.50
    7     6    1.50
    8     6    1.50
    9     6    1.50
   10     7    1.50
   11     8    1.40
   12    17    1.70
   13     1    1.20
   14     1    1.20
   15     1    1.20
   16     1    1.20
   17     1    1.20
   18     1    1.20
   19     1    1.20
   20     1    1.20
   21     1    1.20
   22     1    1.20
 Generate VDW surfaces: Layer= 4 Dens= 1 Start= 1.400 Inc= 0.200

 **********************************************************************

            Electrostatic Properties Using The SCF Density

 **********************************************************************

       Atomic Center    1 is at   1.063655  2.012935 -0.142887
       Atomic Center    2 is at  -0.052178  1.303531  0.295870
       Atomic Center    3 is at   2.290398  1.370327 -0.331288
       Atomic Center    4 is at   1.267544 -0.720236  0.369174
       Atomic Center    5 is at   0.042835 -0.071985  0.553779
       Atomic Center    6 is at   2.375015  0.005655 -0.070036
       Atomic Center    7 is at  -3.265583 -0.143254 -0.108471
       Atomic Center    8 is at  -4.204234 -0.396371 -1.278602
       Atomic Center    9 is at  -1.176804 -0.849066  1.018149
       Atomic Center   10 is at  -2.202591 -1.000970 -0.009992
       Atomic Center   11 is at  -3.461144  0.762833  0.694333
       Atomic Center   12 is at   3.910588 -0.827167 -0.298316
       Atomic Center   13 is at   0.986296  3.079227 -0.337020
       Atomic Center   14 is at  -1.003591  1.805467  0.446149
       Atomic Center   15 is at   3.163916  1.916804 -0.670330
       Atomic Center   16 is at   1.365647 -1.783330  0.568916
       Atomic Center   17 is at  -5.223111 -0.496640 -0.893531
       Atomic Center   18 is at  -4.189846  0.476694 -1.939029
       Atomic Center   19 is at  -3.954395 -1.287714 -1.862569
       Atomic Center   20 is at  -0.880739 -1.845539  1.363586
       Atomic Center   21 is at  -1.661729 -0.330984  1.849335
       Atomic Center   22 is at  -2.019056 -1.637230 -0.772979
      ESP Fit Center   23 is at   1.063655  2.012935  1.957113
      ESP Fit Center   24 is at   2.113655  2.012935  1.675767
      ESP Fit Center   25 is at   1.588655  2.922262  1.675767
      ESP Fit Center   26 is at   0.538655  2.922262  1.675767
      ESP Fit Center   27 is at   1.588655  1.103608  1.675767
      ESP Fit Center   28 is at  -0.127310  3.387381  0.907113
      ESP Fit Center   29 is at   1.588655  2.922262 -1.961540
      ESP Fit Center   30 is at   0.538655  2.922262 -1.961540
      ESP Fit Center   31 is at   0.013655  2.012935 -1.961540
      ESP Fit Center   32 is at   0.538655  1.103608 -1.961540
      ESP Fit Center   33 is at   1.063655  2.012935 -2.242887
      ESP Fit Center   34 is at  -0.052178  1.303531  2.395870
      ESP Fit Center   35 is at   0.997822  1.303531  2.114524
      ESP Fit Center   36 is at   0.472822  2.212858  2.114524
      ESP Fit Center   37 is at  -0.577178  2.212858  2.114524
      ESP Fit Center   38 is at  -1.102178  1.303531  2.114524
      ESP Fit Center   39 is at  -0.310999  3.103673  1.345870
      ESP Fit Center   40 is at  -0.577178  2.212858 -1.522783
      ESP Fit Center   41 is at  -1.102178  1.303531 -1.522783
      ESP Fit Center   42 is at  -0.577178  0.394205 -1.522783
      ESP Fit Center   43 is at   0.472822  0.394205 -1.522783
      ESP Fit Center   44 is at  -0.052178  1.303531 -1.804130
      ESP Fit Center   45 is at   2.290398  1.370327  1.768712
      ESP Fit Center   46 is at   3.340398  1.370327  1.487365
      ESP Fit Center   47 is at   2.815398  2.279653  1.487365
      ESP Fit Center   48 is at   4.109052  1.370327  0.718712
      ESP Fit Center   49 is at   3.045894  3.024632  0.718712
      ESP Fit Center   50 is at   1.765398  2.279653 -2.149942
      ESP Fit Center   51 is at   1.240398  1.370327 -2.149942
      ESP Fit Center   52 is at   1.765398  0.461000 -2.149942
      ESP Fit Center   53 is at   2.815398  0.461000 -2.149942
      ESP Fit Center   54 is at   2.290398  1.370327 -2.431288
      ESP Fit Center   55 is at   1.267544 -0.720236  2.469174
      ESP Fit Center   56 is at   2.317544 -0.720236  2.187827
      ESP Fit Center   57 is at   1.792544  0.189091  2.187827
      ESP Fit Center   58 is at   0.742544 -1.629563  2.187827
      ESP Fit Center   59 is at   1.792544 -1.629563  2.187827
      ESP Fit Center   60 is at   0.076579 -2.094683 -0.680826
      ESP Fit Center   61 is at   0.742544  0.189091 -1.449479
      ESP Fit Center   62 is at   0.217544 -0.720236 -1.449479
      ESP Fit Center   63 is at   0.742544 -1.629563 -1.449479
      ESP Fit Center   64 is at   1.792544 -1.629563 -1.449479
      ESP Fit Center   65 is at   1.267544 -0.720236 -1.730826
      ESP Fit Center   66 is at   0.042835 -0.071985  2.653779
      ESP Fit Center   67 is at   1.092835 -0.071985  2.372432
      ESP Fit Center   68 is at   0.567835  0.837342  2.372432
      ESP Fit Center   69 is at  -0.482165  0.837342  2.372432
      ESP Fit Center   70 is at   0.567835 -0.981312  2.372432
      ESP Fit Center   71 is at  -0.482165 -0.981312 -1.264875
      ESP Fit Center   72 is at   0.042835 -0.071985 -1.546221
      ESP Fit Center   73 is at   2.375015  0.005655  2.029964
      ESP Fit Center   74 is at   2.900015  0.914981  1.748618
      ESP Fit Center   75 is at   1.850015  0.914981  1.748618
      ESP Fit Center   76 is at   1.325015  0.005655 -1.888689
      ESP Fit Center   77 is at   1.850015 -0.903672 -1.888689
      ESP Fit Center   78 is at   2.375015  0.005655 -2.170036
      ESP Fit Center   79 is at  -3.790583 -1.052581  1.710182
      ESP Fit Center   80 is at  -5.010568 -0.655628  0.941529
      ESP Fit Center   81 is at  -4.456547 -1.517700  0.941529
      ESP Fit Center   82 is at  -1.735634  0.839984 -1.158471
      ESP Fit Center   83 is at  -2.510087  1.511051 -1.158471
      ESP Fit Center   84 is at  -2.215583 -0.143254 -1.927124
      ESP Fit Center   85 is at  -4.463056 -2.196513 -0.228602
      ESP Fit Center   86 is at  -2.385581 -0.396371 -2.328602
      ESP Fit Center   87 is at  -5.949220  0.116003 -2.328602
      ESP Fit Center   88 is at  -3.154234 -0.396371 -3.097255
      ESP Fit Center   89 is at  -5.254234 -0.396371 -3.097255
      ESP Fit Center   90 is at  -4.204234 -0.396371 -3.378602
      ESP Fit Center   91 is at  -0.126804 -0.849066  2.836802
      ESP Fit Center   92 is at  -1.701804 -1.758393  2.836802
      ESP Fit Center   93 is at  -2.367768 -2.223512  2.068149
      ESP Fit Center   94 is at  -3.252591 -1.000970  1.808662
      ESP Fit Center   95 is at  -3.393555 -2.375416  1.040008
      ESP Fit Center   96 is at  -2.461412 -2.801112  1.040008
      ESP Fit Center   97 is at  -3.774463 -2.393528 -0.009992
      ESP Fit Center   98 is at  -2.947261 -2.964504 -0.009992
      ESP Fit Center   99 is at  -1.677591 -0.091643 -1.828645
      ESP Fit Center  100 is at  -3.461144  0.762833  2.654333
      ESP Fit Center  101 is at  -2.971144  1.611538  2.391743
      ESP Fit Center  102 is at  -3.951144  1.611538  2.391743
      ESP Fit Center  103 is at  -4.441144  0.762833  2.391743
      ESP Fit Center  104 is at  -3.951144 -0.085872  2.391743
      ESP Fit Center  105 is at  -2.936615  2.377165  1.674333
      ESP Fit Center  106 is at  -3.985672  2.377165  1.674333
      ESP Fit Center  107 is at  -4.834377  1.760545  1.674333
      ESP Fit Center  108 is at  -5.158553  0.762833  1.674333
      ESP Fit Center  109 is at  -4.834377 -0.234880  1.674333
      ESP Fit Center  110 is at  -3.461144  2.722833  0.694333
      ESP Fit Center  111 is at  -4.441144  2.460243  0.694333
      ESP Fit Center  112 is at  -5.158553  1.742833  0.694333
      ESP Fit Center  113 is at  -5.421144  0.762833  0.694333
      ESP Fit Center  114 is at  -2.936615  2.377165 -0.285667
      ESP Fit Center  115 is at  -3.985672  2.377165 -0.285667
      ESP Fit Center  116 is at  -4.834377  1.760545 -0.285667
      ESP Fit Center  117 is at   3.910588 -0.827167  2.081684
      ESP Fit Center  118 is at   4.943231 -0.827167  1.845990
      ESP Fit Center  119 is at   4.426910  0.067128  1.845990
      ESP Fit Center  120 is at   3.394266  0.067128  1.845990
      ESP Fit Center  121 is at   2.877945 -0.827167  1.845990
      ESP Fit Center  122 is at   3.394266 -1.721463  1.845990
      ESP Fit Center  123 is at   4.426910 -1.721463  1.845990
      ESP Fit Center  124 is at   5.771347 -0.827167  1.185589
      ESP Fit Center  125 is at   5.415974  0.266559  1.185589
      ESP Fit Center  126 is at   4.485594  0.942520  1.185589
      ESP Fit Center  127 is at   3.335582 -2.596854  1.185589
      ESP Fit Center  128 is at   4.485594 -2.596854  1.185589
      ESP Fit Center  129 is at   5.415974 -1.920894  1.185589
      ESP Fit Center  130 is at   6.230916 -0.827167  0.231283
      ESP Fit Center  131 is at   5.965137  0.251143  0.231283
      ESP Fit Center  132 is at   5.228685  1.082425  0.231283
      ESP Fit Center  133 is at   3.087788 -2.996712  0.231283
      ESP Fit Center  134 is at   4.190273 -3.130578  0.231283
      ESP Fit Center  135 is at   5.228685 -2.736760  0.231283
      ESP Fit Center  136 is at   5.965137 -1.905478  0.231283
      ESP Fit Center  137 is at   6.230916 -0.827167 -0.827916
      ESP Fit Center  138 is at   5.965137  0.251143 -0.827916
      ESP Fit Center  139 is at   5.228685  1.082425 -0.827916
      ESP Fit Center  140 is at   2.173797 -2.365830 -0.827916
      ESP Fit Center  141 is at   3.087788 -2.996712 -0.827916
      ESP Fit Center  142 is at   4.190273 -3.130578 -0.827916
      ESP Fit Center  143 is at   5.228685 -2.736760 -0.827916
      ESP Fit Center  144 is at   5.965137 -1.905478 -0.827916
      ESP Fit Center  145 is at   5.771347 -0.827167 -1.782222
      ESP Fit Center  146 is at   5.415974  0.266559 -1.782222
      ESP Fit Center  147 is at   4.485594  0.942520 -1.782222
      ESP Fit Center  148 is at   2.405202 -1.920894 -1.782222
      ESP Fit Center  149 is at   3.335582 -2.596854 -1.782222
      ESP Fit Center  150 is at   4.485594 -2.596854 -1.782222
      ESP Fit Center  151 is at   5.415974 -1.920894 -1.782222
      ESP Fit Center  152 is at   4.943231 -0.827167 -2.442622
      ESP Fit Center  153 is at   4.426910  0.067128 -2.442622
      ESP Fit Center  154 is at   3.394266  0.067128 -2.442622
      ESP Fit Center  155 is at   2.877945 -0.827167 -2.442622
      ESP Fit Center  156 is at   3.394266 -1.721463 -2.442622
      ESP Fit Center  157 is at   4.426910 -1.721463 -2.442622
      ESP Fit Center  158 is at   3.910588 -0.827167 -2.678316
      ESP Fit Center  159 is at   1.291444  4.018375  1.022128
      ESP Fit Center  160 is at   0.187408  3.659652  1.022128
      ESP Fit Center  161 is at   2.210262  4.106257  0.182128
      ESP Fit Center  162 is at   1.263746  4.652728  0.182128
      ESP Fit Center  163 is at   0.187408  4.462940  0.182128
      ESP Fit Center  164 is at  -0.515122  3.625698  0.182128
      ESP Fit Center  165 is at   2.210262  4.106257 -0.856169
      ESP Fit Center  166 is at   1.263746  4.652728 -0.856169
      ESP Fit Center  167 is at   0.187408  4.462940 -0.856169
      ESP Fit Center  168 is at  -0.515122  3.625698 -0.856169
      ESP Fit Center  169 is at   1.291444  4.018375 -1.696169
      ESP Fit Center  170 is at   0.187408  3.659652 -1.696169
      ESP Fit Center  171 is at   0.986296  3.079227 -2.017020
      ESP Fit Center  172 is at  -1.003591  1.805467  2.126149
      ESP Fit Center  173 is at  -0.698443  2.744616  1.805298
      ESP Fit Center  174 is at  -1.802478  2.385893  1.805298
      ESP Fit Center  175 is at  -0.726140  3.378968  0.965298
      ESP Fit Center  176 is at  -1.802478  3.189181  0.965298
      ESP Fit Center  177 is at  -0.726140  3.378968 -0.072999
      ESP Fit Center  178 is at  -1.802478  3.189181 -0.072999
      ESP Fit Center  179 is at  -2.505008  2.351939 -0.072999
      ESP Fit Center  180 is at  -1.802478  2.385893 -0.912999
      ESP Fit Center  181 is at  -1.802478  1.225042 -0.912999
      ESP Fit Center  182 is at   4.151396  1.916804  0.688818
      ESP Fit Center  183 is at   3.469064  2.855953  0.688818
      ESP Fit Center  184 is at   4.761691  1.916804 -0.151182
      ESP Fit Center  185 is at   4.387883  2.943834 -0.151182
      ESP Fit Center  186 is at   3.441367  3.490305 -0.151182
      ESP Fit Center  187 is at   4.761691  1.916804 -1.189479
      ESP Fit Center  188 is at   4.387883  2.943834 -1.189479
      ESP Fit Center  189 is at   3.441367  3.490305 -1.189479
      ESP Fit Center  190 is at   4.151396  1.916804 -2.029479
      ESP Fit Center  191 is at   3.469064  2.855953 -2.029479
      ESP Fit Center  192 is at   3.469064  0.977656 -2.029479
      ESP Fit Center  193 is at   3.163916  1.916804 -2.350330
      ESP Fit Center  194 is at   1.365647 -1.783330  2.248916
      ESP Fit Center  195 is at   2.353126 -1.783330  1.928065
      ESP Fit Center  196 is at   1.670795 -2.722479  1.928065
      ESP Fit Center  197 is at   0.566759 -3.167044  1.088065
      ESP Fit Center  198 is at   1.643098 -3.356831  1.088065
      ESP Fit Center  199 is at   2.589613 -2.810360  1.088065
      ESP Fit Center  200 is at   0.566759 -3.167044  0.049768
      ESP Fit Center  201 is at   1.643098 -3.356831  0.049768
      ESP Fit Center  202 is at   2.589613 -2.810360  0.049768
      ESP Fit Center  203 is at   0.566759 -2.363756 -0.790232
      ESP Fit Center  204 is at   1.670795 -2.722479 -0.790232
      ESP Fit Center  205 is at  -5.223111 -0.496640  0.786469
      ESP Fit Center  206 is at  -6.021998  0.083785  0.465618
      ESP Fit Center  207 is at  -6.021998 -1.077066  0.465618
      ESP Fit Center  208 is at  -4.917963 -1.435789  0.465618
      ESP Fit Center  209 is at  -6.021998  0.887073 -0.374382
      ESP Fit Center  210 is at  -6.724528  0.049831 -0.374382
      ESP Fit Center  211 is at  -6.724528 -1.043111 -0.374382
      ESP Fit Center  212 is at  -6.021998 -1.880354 -0.374382
      ESP Fit Center  213 is at  -6.021998  0.887073 -1.412679
      ESP Fit Center  214 is at  -6.724528  0.049831 -1.412679
      ESP Fit Center  215 is at  -6.724528 -1.043111 -1.412679
      ESP Fit Center  216 is at  -6.021998 -1.880354 -1.412679
      ESP Fit Center  217 is at  -6.021998  0.083785 -2.252679
      ESP Fit Center  218 is at  -6.021998 -1.077066 -2.252679
      ESP Fit Center  219 is at  -2.965879  1.503724 -1.419881
      ESP Fit Center  220 is at  -3.912395  2.050195 -1.419881
      ESP Fit Center  221 is at  -4.988733  1.860408 -1.419881
      ESP Fit Center  222 is at  -2.592071  0.476694 -2.458178
      ESP Fit Center  223 is at  -2.965879  1.503724 -2.458178
      ESP Fit Center  224 is at  -3.912395  2.050195 -2.458178
      ESP Fit Center  225 is at  -4.988733  1.860408 -2.458178
      ESP Fit Center  226 is at  -5.691263  1.023165 -2.458178
      ESP Fit Center  227 is at  -3.202367  0.476694 -3.298178
      ESP Fit Center  228 is at  -3.884698  1.415842 -3.298178
      ESP Fit Center  229 is at  -4.988733  1.057120 -3.298178
      ESP Fit Center  230 is at  -4.988733 -0.103732 -3.298178
      ESP Fit Center  231 is at  -4.189846  0.476694 -3.619029
      ESP Fit Center  232 is at  -4.753282 -2.671428 -1.343420
      ESP Fit Center  233 is at  -3.676944 -2.861216 -1.343420
      ESP Fit Center  234 is at  -2.356620 -1.287714 -2.381717
      ESP Fit Center  235 is at  -5.455812 -1.834186 -2.381717
      ESP Fit Center  236 is at  -4.753282 -2.671428 -2.381717
      ESP Fit Center  237 is at  -3.676944 -2.861216 -2.381717
      ESP Fit Center  238 is at  -2.730428 -2.314744 -2.381717
      ESP Fit Center  239 is at  -2.966916 -1.287714 -3.221717
      ESP Fit Center  240 is at  -4.753282 -1.868140 -3.221717
      ESP Fit Center  241 is at  -3.649247 -2.226863 -3.221717
      ESP Fit Center  242 is at  -3.954395 -1.287714 -3.542569
      ESP Fit Center  243 is at  -0.880739 -1.845539  3.043586
      ESP Fit Center  244 is at   0.106740 -1.845539  2.722734
      ESP Fit Center  245 is at  -1.679627 -2.425965  2.722734
      ESP Fit Center  246 is at  -0.575592 -2.784688  2.722734
      ESP Fit Center  247 is at  -2.382157 -2.392010  1.882734
      ESP Fit Center  248 is at  -1.679627 -3.229253  1.882734
      ESP Fit Center  249 is at  -0.603289 -3.419040  1.882734
      ESP Fit Center  250 is at   0.343227 -2.872569  1.882734
      ESP Fit Center  251 is at  -1.679627 -3.229253  0.844437
      ESP Fit Center  252 is at  -0.603289 -3.419040  0.844437
      ESP Fit Center  253 is at  -0.575592 -2.784688  0.004437
      ESP Fit Center  254 is at  -1.661729 -0.330984  3.529335
      ESP Fit Center  255 is at  -0.674250 -0.330984  3.208484
      ESP Fit Center  256 is at  -1.356581  0.608165  3.208484
      ESP Fit Center  257 is at  -2.460617  0.249442  3.208484
      ESP Fit Center  258 is at  -2.460617 -0.911410  3.208484
      ESP Fit Center  259 is at  -1.356581 -1.270132  3.208484
      ESP Fit Center  260 is at  -1.384278  1.242517  2.368484
      ESP Fit Center  261 is at  -2.460617  1.052730  2.368484
      ESP Fit Center  262 is at  -3.163146 -0.877455  2.368484
      ESP Fit Center  263 is at  -2.817943 -3.020943 -0.253830
      ESP Fit Center  264 is at  -1.741605 -3.210731 -0.253830
      ESP Fit Center  265 is at  -0.795089 -2.664259 -0.253830
      ESP Fit Center  266 is at  -0.421281 -1.637230 -1.292127
      ESP Fit Center  267 is at  -2.817943 -3.020943 -1.292127
      ESP Fit Center  268 is at  -1.741605 -3.210731 -1.292127
      ESP Fit Center  269 is at  -0.795089 -2.664259 -1.292127
      ESP Fit Center  270 is at  -1.031576 -1.637230 -2.132127
      ESP Fit Center  271 is at  -1.713908 -0.698081 -2.132127
      ESP Fit Center  272 is at  -1.713908 -2.576378 -2.132127
      ESP Fit Center  273 is at  -2.019056 -1.637230 -2.452979
      ESP Fit Center  274 is at   2.104976  2.012935  2.019439
      ESP Fit Center  275 is at   1.584316  2.914745  2.019439
      ESP Fit Center  276 is at   0.542995  2.914745  2.019439
      ESP Fit Center  277 is at   1.843138  3.719764  1.353489
      ESP Fit Center  278 is at   1.584316  2.914745 -2.305212
      ESP Fit Center  279 is at   0.542995  2.914745 -2.305212
      ESP Fit Center  280 is at   0.022334  2.012935 -2.305212
      ESP Fit Center  281 is at   0.542995  1.111124 -2.305212
      ESP Fit Center  282 is at   1.063655  2.012935 -2.542887
      ESP Fit Center  283 is at  -0.052178  1.303531  2.695870
      ESP Fit Center  284 is at   0.989143  1.303531  2.458195
      ESP Fit Center  285 is at   0.468483  2.205342  2.458195
      ESP Fit Center  286 is at  -0.572838  2.205342  2.458195
      ESP Fit Center  287 is at  -0.319217  3.160828  1.792246
      ESP Fit Center  288 is at  -1.093499  1.303531 -1.866455
      ESP Fit Center  289 is at  -0.572838  0.401721 -1.866455
      ESP Fit Center  290 is at   0.468483  0.401721 -1.866455
      ESP Fit Center  291 is at   2.290398  1.370327  2.068712
      ESP Fit Center  292 is at   3.331719  1.370327  1.831037
      ESP Fit Center  293 is at   2.811059  2.272137  1.831037
      ESP Fit Center  294 is at   3.868923  2.384783  1.165087
      ESP Fit Center  295 is at   3.069881  3.077156  1.165087
      ESP Fit Center  296 is at   2.811059  3.651489  0.202762
      ESP Fit Center  297 is at   1.769738  2.272137 -2.493614
      ESP Fit Center  298 is at   1.249077  1.370327 -2.493614
      ESP Fit Center  299 is at   1.769738  0.468516 -2.493614
      ESP Fit Center  300 is at   2.811059  0.468516 -2.493614
      ESP Fit Center  301 is at   2.290398  1.370327 -2.731288
      ESP Fit Center  302 is at   1.267544 -0.720236  2.769174
      ESP Fit Center  303 is at   2.308865 -0.720236  2.531499
      ESP Fit Center  304 is at   1.788204  0.181574  2.531499
      ESP Fit Center  305 is at   0.746883 -1.622046  2.531499
      ESP Fit Center  306 is at   1.788204 -1.622046  2.531499
      ESP Fit Center  307 is at   0.038766 -2.138321 -1.127201
      ESP Fit Center  308 is at   0.226223 -0.720236 -1.793151
      ESP Fit Center  309 is at   0.746883 -1.622046 -1.793151
      ESP Fit Center  310 is at   0.042835 -0.071985  2.953779
      ESP Fit Center  311 is at   1.084156 -0.071985  2.716104
      ESP Fit Center  312 is at   0.563496  0.829826  2.716104
      ESP Fit Center  313 is at   0.563496 -0.973795  2.716104
      ESP Fit Center  314 is at   0.042835 -0.071985 -1.846221
      ESP Fit Center  315 is at   2.895676  0.907465  2.092290
      ESP Fit Center  316 is at   1.854355  0.907465  2.092290
      ESP Fit Center  317 is at   1.333694  0.005655 -2.232361
      ESP Fit Center  318 is at   1.854355 -0.896156 -2.232361
      ESP Fit Center  319 is at   2.375015  0.005655 -2.470036
      ESP Fit Center  320 is at  -3.786243 -1.045064  2.053854
      ESP Fit Center  321 is at  -5.065971 -0.671896  1.387904
      ESP Fit Center  322 is at  -4.494360 -1.561339  1.387904
      ESP Fit Center  323 is at  -1.687058  0.871202 -1.604847
      ESP Fit Center  324 is at  -2.486100  1.563576 -1.604847
      ESP Fit Center  325 is at  -4.471273 -2.253667  0.217773
      ESP Fit Center  326 is at  -5.663093  1.432980 -0.744552
      ESP Fit Center  327 is at  -4.724895 -2.677533 -0.744552
      ESP Fit Center  328 is at  -5.663093 -2.225721 -1.812652
      ESP Fit Center  329 is at  -2.327839 -0.396371 -2.774978
      ESP Fit Center  330 is at  -6.004623  0.132271 -2.774978
      ESP Fit Center  331 is at  -6.004623 -0.925012 -2.774978
      ESP Fit Center  332 is at  -3.162913 -0.396371 -3.440927
      ESP Fit Center  333 is at  -5.245555 -0.396371 -3.440927
      ESP Fit Center  334 is at  -4.204234 -0.396371 -3.678602
      ESP Fit Center  335 is at  -0.135483 -0.849066  3.180474
      ESP Fit Center  336 is at  -1.697464 -1.750876  3.180474
      ESP Fit Center  337 is at  -2.405581 -2.267151  2.514524
      ESP Fit Center  338 is at  -3.431368 -2.419055  1.486384
      ESP Fit Center  339 is at  -3.661449 -2.830320  0.524059
      ESP Fit Center  340 is at  -2.723251 -3.282133  0.524059
      ESP Fit Center  341 is at  -3.661449 -2.830320 -0.544042
      ESP Fit Center  342 is at  -1.681930 -0.099160 -2.172317
      ESP Fit Center  343 is at  -3.461144  0.762833  2.934333
      ESP Fit Center  344 is at  -2.975194  1.604522  2.712503
      ESP Fit Center  345 is at  -3.947093  1.604522  2.712503
      ESP Fit Center  346 is at  -4.433043  0.762833  2.712503
      ESP Fit Center  347 is at  -3.947093 -0.078857  2.712503
      ESP Fit Center  348 is at  -2.044310  1.792223  2.090950
      ESP Fit Center  349 is at  -2.919961  2.428420  2.090950
      ESP Fit Center  350 is at  -4.002326  2.428420  2.090950
      ESP Fit Center  351 is at  -4.877977  1.792223  2.090950
      ESP Fit Center  352 is at  -5.212446  0.762833  2.090950
      ESP Fit Center  353 is at  -4.877977 -0.266557  2.090950
      ESP Fit Center  354 is at  -4.002326 -0.902755  2.090950
      ESP Fit Center  355 is at  -3.197911  2.930749  1.192780
      ESP Fit Center  356 is at  -4.235543  2.804757  1.192780
      ESP Fit Center  357 is at  -5.095770  2.210986  1.192780
      ESP Fit Center  358 is at  -5.581524  1.285460  1.192780
      ESP Fit Center  359 is at  -5.581524  0.240206  1.192780
      ESP Fit Center  360 is at  -3.197911  2.930749  0.195886
      ESP Fit Center  361 is at  -4.235543  2.804757  0.195886
      ESP Fit Center  362 is at  -5.095770  2.210986  0.195886
      ESP Fit Center  363 is at  -5.581524  1.285460  0.195886
      ESP Fit Center  364 is at  -2.919961  2.428420 -0.702284
      ESP Fit Center  365 is at  -4.002326  2.428420 -0.702284
      ESP Fit Center  366 is at   3.910588 -0.827167  2.421684
      ESP Fit Center  367 is at   4.951487 -0.827167  2.214636
      ESP Fit Center  368 is at   4.431037  0.074278  2.214636
      ESP Fit Center  369 is at   3.390138  0.074278  2.214636
      ESP Fit Center  370 is at   2.869689 -0.827167  2.214636
      ESP Fit Center  371 is at   3.390138 -1.728612  2.214636
      ESP Fit Center  372 is at   4.431037 -1.728612  2.214636
      ESP Fit Center  373 is at   5.833918 -0.827167  1.625014
      ESP Fit Center  374 is at   5.576241  0.134498  1.625014
      ESP Fit Center  375 is at   4.872253  0.838486  1.625014
      ESP Fit Center  376 is at   3.910588  1.096163  1.625014
      ESP Fit Center  377 is at   2.948923 -2.492820  1.625014
      ESP Fit Center  378 is at   3.910588 -2.750498  1.625014
      ESP Fit Center  379 is at   4.872253 -2.492820  1.625014
      ESP Fit Center  380 is at   5.576241 -1.788833  1.625014
      ESP Fit Center  381 is at   6.423540 -0.827167  0.742583
      ESP Fit Center  382 is at   6.206284  0.194942  0.742583
      ESP Fit Center  383 is at   5.592081  1.040320  0.742583
      ESP Fit Center  384 is at   4.687133  1.562792  0.742583
      ESP Fit Center  385 is at   3.647913 -3.326353  0.742583
      ESP Fit Center  386 is at   4.687133 -3.217127  0.742583
      ESP Fit Center  387 is at   5.592081 -2.694655  0.742583
      ESP Fit Center  388 is at   6.206284 -1.849277  0.742583
      ESP Fit Center  389 is at   6.630588 -0.827167 -0.298316
      ESP Fit Center  390 is at   6.446912  0.155410 -0.298316
      ESP Fit Center  391 is at   5.920692  1.005285 -0.298316
      ESP Fit Center  392 is at   5.122996  1.607677 -0.298316
      ESP Fit Center  393 is at   3.166225 -3.443333 -0.298316
      ESP Fit Center  394 is at   4.161558 -3.535564 -0.298316
      ESP Fit Center  395 is at   5.122996 -3.262012 -0.298316
      ESP Fit Center  396 is at   5.920692 -2.659620 -0.298316
      ESP Fit Center  397 is at   6.446912 -1.809745 -0.298316
      ESP Fit Center  398 is at   6.423540 -0.827167 -1.339215
      ESP Fit Center  399 is at   6.206284  0.194942 -1.339215
      ESP Fit Center  400 is at   5.592081  1.040320 -1.339215
      ESP Fit Center  401 is at   1.877567 -2.304244 -1.339215
      ESP Fit Center  402 is at   2.654112 -3.003448 -1.339215
      ESP Fit Center  403 is at   3.647913 -3.326353 -1.339215
      ESP Fit Center  404 is at   4.687133 -3.217127 -1.339215
      ESP Fit Center  405 is at   5.592081 -2.694655 -1.339215
      ESP Fit Center  406 is at   6.206284 -1.849277 -1.339215
      ESP Fit Center  407 is at   5.833918 -0.827167 -2.221647
      ESP Fit Center  408 is at   5.576241  0.134498 -2.221647
      ESP Fit Center  409 is at   4.872253  0.838486 -2.221647
      ESP Fit Center  410 is at   2.244935 -1.788833 -2.221647
      ESP Fit Center  411 is at   2.948923 -2.492820 -2.221647
      ESP Fit Center  412 is at   3.910588 -2.750498 -2.221647
      ESP Fit Center  413 is at   4.872253 -2.492820 -2.221647
      ESP Fit Center  414 is at   5.576241 -1.788833 -2.221647
      ESP Fit Center  415 is at   4.951487 -0.827167 -2.811269
      ESP Fit Center  416 is at   4.431037  0.074278 -2.811269
      ESP Fit Center  417 is at   3.390138  0.074278 -2.811269
      ESP Fit Center  418 is at   2.869689 -0.827167 -2.811269
      ESP Fit Center  419 is at   3.390138 -1.728612 -2.811269
      ESP Fit Center  420 is at   4.431037 -1.728612 -2.811269
      ESP Fit Center  421 is at   3.910588 -0.827167 -3.018316
      ESP Fit Center  422 is at   1.466296  3.910611  1.325748
      ESP Fit Center  423 is at   0.506296  3.910611  1.325748
      ESP Fit Center  424 is at   2.331504  4.056578  0.622980
      ESP Fit Center  425 is at   1.500119  4.660614  0.622980
      ESP Fit Center  426 is at   0.472472  4.660614  0.622980
      ESP Fit Center  427 is at  -0.358913  4.056578  0.622980
      ESP Fit Center  428 is at   2.649064  4.039227 -0.337020
      ESP Fit Center  429 is at   1.946296  4.741995 -0.337020
      ESP Fit Center  430 is at   0.986296  4.999227 -0.337020
      ESP Fit Center  431 is at   0.026296  4.741995 -0.337020
      ESP Fit Center  432 is at  -0.676473  4.039227 -0.337020
      ESP Fit Center  433 is at   2.331504  4.056578 -1.297020
      ESP Fit Center  434 is at   1.500119  4.660614 -1.297020
      ESP Fit Center  435 is at   0.472472  4.660614 -1.297020
      ESP Fit Center  436 is at  -0.358913  4.056578 -1.297020
      ESP Fit Center  437 is at   1.466296  3.910611 -1.999789
      ESP Fit Center  438 is at   0.506296  3.910611 -1.999789
      ESP Fit Center  439 is at  -1.483591  2.636852  2.108918
      ESP Fit Center  440 is at  -1.963591  1.805467  2.108918
      ESP Fit Center  441 is at  -0.489767  3.386854  1.406149
      ESP Fit Center  442 is at  -1.517415  3.386854  1.406149
      ESP Fit Center  443 is at  -2.348799  2.782818  1.406149
      ESP Fit Center  444 is at  -1.003591  3.725467  0.446149
      ESP Fit Center  445 is at  -1.963591  3.468236  0.446149
      ESP Fit Center  446 is at  -1.517415  3.386854 -0.513851
      ESP Fit Center  447 is at  -2.348799  2.782818 -0.513851
      ESP Fit Center  448 is at  -1.483591  2.636852 -1.216619
      ESP Fit Center  449 is at  -1.963591  1.805467 -1.216619
      ESP Fit Center  450 is at   4.826685  1.916804  0.289670
      ESP Fit Center  451 is at   4.509125  2.894155  0.289670
      ESP Fit Center  452 is at   3.677740  3.498191  0.289670
      ESP Fit Center  453 is at   5.083916  1.916804 -0.670330
      ESP Fit Center  454 is at   4.826685  2.876804 -0.670330
      ESP Fit Center  455 is at   4.123916  3.579573 -0.670330
      ESP Fit Center  456 is at   3.163916  3.836804 -0.670330
      ESP Fit Center  457 is at   4.826685  1.916804 -1.630330
      ESP Fit Center  458 is at   4.509125  2.894155 -1.630330
      ESP Fit Center  459 is at   3.677740  3.498191 -1.630330
      ESP Fit Center  460 is at   2.650093  3.498191 -1.630330
      ESP Fit Center  461 is at   4.123916  1.916804 -2.333099
      ESP Fit Center  462 is at   3.643916  2.748189 -2.333099
      ESP Fit Center  463 is at   2.683916  2.748189 -2.333099
      ESP Fit Center  464 is at   3.643916  1.085420 -2.333099
      ESP Fit Center  465 is at   3.163916  1.916804 -2.590330
      ESP Fit Center  466 is at   0.885647 -2.614715  2.231685
      ESP Fit Center  467 is at   1.845647 -2.614715  2.231685
      ESP Fit Center  468 is at   0.851823 -3.364717  1.528916
      ESP Fit Center  469 is at   1.879471 -3.364717  1.528916
      ESP Fit Center  470 is at   2.710855 -2.760681  1.528916
      ESP Fit Center  471 is at   0.405647 -3.446099  0.568916
      ESP Fit Center  472 is at   1.365647 -3.703330  0.568916
      ESP Fit Center  473 is at   2.325647 -3.446099  0.568916
      ESP Fit Center  474 is at   0.020439 -2.760681 -0.391084
      ESP Fit Center  475 is at   0.851823 -3.364717 -0.391084
      ESP Fit Center  476 is at   1.879471 -3.364717 -0.391084
      ESP Fit Center  477 is at   0.885647 -2.614715 -1.093853
      ESP Fit Center  478 is at   1.845647 -2.614715 -1.093853
      ESP Fit Center  479 is at  -5.703111  0.334744  0.769238
      ESP Fit Center  480 is at  -6.183111 -0.496640  0.769238
      ESP Fit Center  481 is at  -5.703111 -1.328025  0.769238
      ESP Fit Center  482 is at  -5.736935  1.084747  0.066469
      ESP Fit Center  483 is at  -6.568319  0.480711  0.066469
      ESP Fit Center  484 is at  -6.885880 -0.496640  0.066469
      ESP Fit Center  485 is at  -6.568319 -1.473991  0.066469
      ESP Fit Center  486 is at  -5.736935 -2.078027  0.066469
      ESP Fit Center  487 is at  -6.183111  1.166129 -0.893531
      ESP Fit Center  488 is at  -6.885880  0.463360 -0.893531
      ESP Fit Center  489 is at  -7.143111 -0.496640 -0.893531
      ESP Fit Center  490 is at  -6.885880 -1.456640 -0.893531
      ESP Fit Center  491 is at  -6.183111 -2.159409 -0.893531
      ESP Fit Center  492 is at  -6.568319  0.480711 -1.853531
      ESP Fit Center  493 is at  -6.885880 -0.496640 -1.853531
      ESP Fit Center  494 is at  -6.568319 -1.473991 -1.853531
      ESP Fit Center  495 is at  -4.703670  2.058081 -0.979029
      ESP Fit Center  496 is at  -2.527077  1.436694 -1.939029
      ESP Fit Center  497 is at  -3.229846  2.139463 -1.939029
      ESP Fit Center  498 is at  -4.189846  2.396694 -1.939029
      ESP Fit Center  499 is at  -5.149846  2.139463 -1.939029
      ESP Fit Center  500 is at  -5.852615  1.436694 -1.939029
      ESP Fit Center  501 is at  -2.527077  0.476694 -2.899029
      ESP Fit Center  502 is at  -2.844638  1.454045 -2.899029
      ESP Fit Center  503 is at  -3.676022  2.058081 -2.899029
      ESP Fit Center  504 is at  -4.703670  2.058081 -2.899029
      ESP Fit Center  505 is at  -5.535054  1.454045 -2.899029
      ESP Fit Center  506 is at  -5.852615  0.476694 -2.899029
      ESP Fit Center  507 is at  -3.229846  0.476694 -3.601798
      ESP Fit Center  508 is at  -3.709846  1.308078 -3.601798
      ESP Fit Center  509 is at  -4.669846  1.308078 -3.601798
      ESP Fit Center  510 is at  -5.149846  0.476694 -3.601798
      ESP Fit Center  511 is at  -4.189846  0.476694 -3.859029
      ESP Fit Center  512 is at  -4.468219 -2.869101 -0.902569
      ESP Fit Center  513 is at  -5.617164 -2.247714 -1.862569
      ESP Fit Center  514 is at  -4.914395 -2.950483 -1.862569
      ESP Fit Center  515 is at  -3.954395 -3.207714 -1.862569
      ESP Fit Center  516 is at  -2.994395 -2.950483 -1.862569
      ESP Fit Center  517 is at  -2.291626 -1.287714 -2.822569
      ESP Fit Center  518 is at  -5.299603 -2.265065 -2.822569
      ESP Fit Center  519 is at  -4.468219 -2.869101 -2.822569
      ESP Fit Center  520 is at  -3.440571 -2.869101 -2.822569
      ESP Fit Center  521 is at  -2.609187 -2.265065 -2.822569
      ESP Fit Center  522 is at  -2.994395 -1.287714 -3.525338
      ESP Fit Center  523 is at  -4.914395 -1.287714 -3.525338
      ESP Fit Center  524 is at  -4.434395 -2.119099 -3.525338
      ESP Fit Center  525 is at  -3.474395 -2.119099 -3.525338
      ESP Fit Center  526 is at  -3.954395 -1.287714 -3.782569
      ESP Fit Center  527 is at  -0.880739 -1.845539  3.283586
      ESP Fit Center  528 is at   0.079261 -1.845539  3.026354
      ESP Fit Center  529 is at  -1.360739 -2.676924  3.026354
      ESP Fit Center  530 is at  -0.400739 -2.676924  3.026354
      ESP Fit Center  531 is at  -2.225948 -2.822890  2.323586
      ESP Fit Center  532 is at  -1.394563 -3.426926  2.323586
      ESP Fit Center  533 is at  -0.366916 -3.426926  2.323586
      ESP Fit Center  534 is at   0.464469 -2.822890  2.323586
      ESP Fit Center  535 is at  -1.840739 -3.508308  1.363586
      ESP Fit Center  536 is at  -0.880739 -3.765539  1.363586
      ESP Fit Center  537 is at   0.079261 -3.508308  1.363586
      ESP Fit Center  538 is at  -1.394563 -3.426926  0.403586
      ESP Fit Center  539 is at  -0.366916 -3.426926  0.403586
      ESP Fit Center  540 is at  -1.661729 -0.330984  3.769335
      ESP Fit Center  541 is at  -0.701729 -0.330984  3.512104
      ESP Fit Center  542 is at  -1.181729  0.500400  3.512104
      ESP Fit Center  543 is at  -2.141729  0.500400  3.512104
      ESP Fit Center  544 is at  -2.621729 -0.330984  3.512104
      ESP Fit Center  545 is at  -2.141729 -1.162368  3.512104
      ESP Fit Center  546 is at  -1.181729 -1.162368  3.512104
      ESP Fit Center  547 is at  -1.147905  1.250403  2.809335
      ESP Fit Center  548 is at  -2.175553  1.250403  2.809335
      ESP Fit Center  549 is at  -3.324498 -0.330984  2.809335
      ESP Fit Center  550 is at  -3.006937 -1.308335  2.809335
      ESP Fit Center  551 is at  -2.979056 -3.299998 -0.772979
      ESP Fit Center  552 is at  -2.019056 -3.557230 -0.772979
      ESP Fit Center  553 is at  -1.059056 -3.299998 -0.772979
      ESP Fit Center  554 is at  -0.356287 -2.597230 -0.772979
      ESP Fit Center  555 is at  -0.356287 -1.637230 -1.732979
      ESP Fit Center  556 is at  -2.532879 -3.218617 -1.732979
      ESP Fit Center  557 is at  -1.505232 -3.218617 -1.732979
      ESP Fit Center  558 is at  -0.673847 -2.614581 -1.732979
      ESP Fit Center  559 is at  -1.059056 -1.637230 -2.435747
      ESP Fit Center  560 is at  -1.539056 -0.805845 -2.435747
      ESP Fit Center  561 is at  -2.499056 -2.468614 -2.435747
      ESP Fit Center  562 is at  -1.539056 -2.468614 -2.435747
      ESP Fit Center  563 is at  -2.019056 -1.637230 -2.692979
      ESP Fit Center  564 is at   2.096900  2.012935  2.351588
      ESP Fit Center  565 is at   1.580278  2.907752  2.351588
      ESP Fit Center  566 is at   2.669766  3.045120  1.766302
      ESP Fit Center  567 is at   1.856761  3.749594  1.766302
      ESP Fit Center  568 is at   0.791949  3.902690  1.766302
      ESP Fit Center  569 is at   2.618935  3.963194  0.890359
      ESP Fit Center  570 is at  -0.768198  2.550815 -2.052075
      ESP Fit Center  571 is at   1.580278  2.907752 -2.637361
      ESP Fit Center  572 is at   0.547032  2.907752 -2.637361
      ESP Fit Center  573 is at   0.030410  2.012935 -2.637361
      ESP Fit Center  574 is at   0.547032  1.118118 -2.637361
      ESP Fit Center  575 is at   1.063655  2.012935 -2.842887
      ESP Fit Center  576 is at  -0.052178  1.303531  2.995870
      ESP Fit Center  577 is at   0.981068  1.303531  2.790345
      ESP Fit Center  578 is at   0.464445  2.198348  2.790345
      ESP Fit Center  579 is at  -0.568800  2.198348  2.790345
      ESP Fit Center  580 is at  -0.323884  3.193287  2.205058
      ESP Fit Center  581 is at  -1.302430  2.746400 -1.613318
      ESP Fit Center  582 is at  -1.884031  1.841412 -1.613318
      ESP Fit Center  583 is at  -1.085423  1.303531 -2.198605
[...]
  466 Fit       0.017683
  467 Fit       0.009836
  468 Fit       0.021591
  469 Fit       0.013876
  470 Fit       0.003559
  471 Fit       0.025500
  472 Fit       0.018171
  473 Fit       0.009484
  474 Fit       0.029037
  475 Fit       0.019561
  476 Fit       0.010625
  477 Fit       0.013146
  478 Fit       0.004044
  479 Fit      -0.019984
  480 Fit      -0.000230
  481 Fit       0.005735
  482 Fit      -0.019904
  483 Fit      -0.001347
  484 Fit       0.007134
  485 Fit       0.010629
  486 Fit       0.011879
  487 Fit      -0.001497
  488 Fit       0.005939
  489 Fit       0.010691
  490 Fit       0.012948
  491 Fit       0.013742
  492 Fit       0.008467
  493 Fit       0.011810
  494 Fit       0.013677
  495 Fit      -0.014605
  496 Fit       0.011247
  497 Fit       0.005277
  498 Fit       0.002845
  499 Fit       0.003053
  500 Fit       0.004982
  501 Fit       0.016747
  502 Fit       0.013393
  503 Fit       0.011679
  504 Fit       0.010708
  505 Fit       0.010500
  506 Fit       0.011586
  507 Fit       0.016006
  508 Fit       0.014808
  509 Fit       0.013995
  510 Fit       0.013873
  511 Fit       0.015352
  512 Fit       0.018965
  513 Fit       0.015798
  514 Fit       0.018850
  515 Fit       0.025305
  516 Fit       0.038804
  517 Fit       0.031819
  518 Fit       0.017186
  519 Fit       0.021541
  520 Fit       0.027782
  521 Fit       0.034665
  522 Fit       0.022452
  523 Fit       0.016511
  524 Fit       0.019750
  525 Fit       0.023570
  526 Fit       0.018716
  527 Fit       0.009983
  528 Fit       0.011602
  529 Fit       0.011437
  530 Fit       0.013790
  531 Fit       0.009462
  532 Fit       0.015132
  533 Fit       0.018052
  534 Fit       0.018828
  535 Fit       0.016345
  536 Fit       0.020681
  537 Fit       0.023599
  538 Fit       0.025894
  539 Fit       0.027108
  540 Fit       0.002505
  541 Fit       0.004757
  542 Fit       0.000080
  543 Fit      -0.005963
  544 Fit      -0.004144
  545 Fit       0.003476
  546 Fit       0.007037
  547 Fit      -0.005767
  548 Fit      -0.019658
  549 Fit      -0.019034
  550 Fit      -0.002156
  551 Fit       0.028248
  552 Fit       0.032516
  553 Fit       0.035605
  554 Fit       0.034509
  555 Fit       0.023303
  556 Fit       0.038044
  557 Fit       0.037730
  558 Fit       0.034164
  559 Fit       0.030171
  560 Fit       0.025511
  561 Fit       0.041652
  562 Fit       0.037502
  563 Fit       0.036348
  564 Fit      -0.014081
  565 Fit      -0.009772
  566 Fit      -0.006621
  567 Fit      -0.002860
  568 Fit      -0.001786
  569 Fit       0.003985
  570 Fit      -0.000362
  571 Fit       0.002292
  572 Fit       0.000882
  573 Fit      -0.003567
  574 Fit      -0.007592
  575 Fit      -0.004171
  576 Fit      -0.008497
  577 Fit      -0.013285
  578 Fit      -0.011435
  579 Fit      -0.009668
  580 Fit      -0.006622
  581 Fit       0.001069
  582 Fit       0.001997
  583 Fit      -0.000209
  584 Fit      -0.001595
  585 Fit      -0.015178
  586 Fit      -0.012537
  587 Fit      -0.011071
  588 Fit      -0.005434
  589 Fit      -0.004243
  590 Fit      -0.001837
  591 Fit       0.002086
  592 Fit      -0.001602
  593 Fit      -0.007151
  594 Fit      -0.008356
  595 Fit      -0.004422
  596 Fit      -0.003567
  597 Fit      -0.007713
  598 Fit      -0.011355
  599 Fit       0.007430
  600 Fit       0.000490
  601 Fit       0.020325
  602 Fit       0.008972
  603 Fit       0.000091
  604 Fit       0.003108
  605 Fit      -0.007027
  606 Fit      -0.008989
  607 Fit      -0.015792
  608 Fit      -0.003895
  609 Fit      -0.013657
  610 Fit      -0.008699
  611 Fit      -0.004678
  612 Fit       0.006036
  613 Fit       0.007071
  614 Fit      -0.017923
  615 Fit       0.013349
  616 Fit      -0.001212
  617 Fit       0.007761
  618 Fit       0.018929
  619 Fit       0.010710
  620 Fit       0.012023
  621 Fit       0.016490
  622 Fit       0.012962
  623 Fit       0.014815
  624 Fit       0.004577
  625 Fit       0.005812
  626 Fit       0.008051
  627 Fit       0.004984
  628 Fit       0.005339
  629 Fit      -0.000065
  630 Fit       0.003983
  631 Fit       0.009250
  632 Fit       0.012529
  633 Fit       0.015008
  634 Fit       0.021612
  635 Fit       0.028486
  636 Fit       0.016314
  637 Fit      -0.028434
  638 Fit      -0.030509
  639 Fit      -0.035251
  640 Fit      -0.032489
  641 Fit      -0.024233
  642 Fit      -0.029832
  643 Fit      -0.035798
  644 Fit      -0.037490
  645 Fit      -0.034748
  646 Fit      -0.027728
  647 Fit      -0.018891
  648 Fit      -0.028127
  649 Fit      -0.034793
  650 Fit      -0.036578
  651 Fit      -0.033818
  652 Fit      -0.025738
  653 Fit      -0.013687
  654 Fit      -0.022171
  655 Fit      -0.029769
  656 Fit      -0.031056
  657 Fit      -0.026310
  658 Fit      -0.010631
  659 Fit      -0.018087
  660 Fit      -0.011633
  661 Fit      -0.013156
  662 Fit      -0.012886
  663 Fit      -0.012281
  664 Fit      -0.009369
  665 Fit      -0.007974
  666 Fit      -0.011508
  667 Fit      -0.012600
  668 Fit      -0.013164
  669 Fit      -0.012078
  670 Fit      -0.011762
  671 Fit      -0.001356
  672 Fit      -0.007836
  673 Fit      -0.010483
  674 Fit      -0.011488
  675 Fit      -0.010450
  676 Fit      -0.011819
  677 Fit      -0.011188
  678 Fit      -0.008019
  679 Fit       0.001426
  680 Fit      -0.006396
  681 Fit      -0.008467
  682 Fit      -0.008526
  683 Fit      -0.008970
  684 Fit      -0.008122
  685 Fit      -0.010010
  686 Fit      -0.009721
  687 Fit      -0.004883
  688 Fit      -0.003834
  689 Fit      -0.007006
  690 Fit      -0.006756
  691 Fit      -0.005931
  692 Fit      -0.006314
  693 Fit      -0.006997
  694 Fit      -0.008898
  695 Fit      -0.008355
  696 Fit      -0.001833
  697 Fit       0.001068
  698 Fit      -0.005342
  699 Fit      -0.007103
  700 Fit      -0.006172
  701 Fit      -0.004980
  702 Fit      -0.005205
  703 Fit      -0.007596
  704 Fit      -0.008935
  705 Fit      -0.007472
  706 Fit      -0.001330
  707 Fit      -0.005618
  708 Fit      -0.007992
  709 Fit      -0.007622
  710 Fit      -0.006389
  711 Fit      -0.006240
  712 Fit      -0.009286
  713 Fit      -0.009587
  714 Fit      -0.007014
  715 Fit      -0.003188
  716 Fit      -0.007483
  717 Fit      -0.005972
  718 Fit      -0.007851
  719 Fit      -0.009461
  720 Fit      -0.009155
  721 Fit      -0.008669
  722 Fit      -0.010694
  723 Fit      -0.009657
  724 Fit      -0.008620
  725 Fit      -0.008974
  726 Fit      -0.009979
  727 Fit      -0.010708
  728 Fit      -0.010615
  729 Fit       0.005565
  730 Fit       0.006842
  731 Fit       0.006785
  732 Fit       0.005358
  733 Fit       0.012741
  734 Fit       0.010809
  735 Fit       0.010364
  736 Fit       0.009302
  737 Fit       0.007443
  738 Fit       0.013162
  739 Fit       0.011402
  740 Fit       0.010402
  741 Fit       0.008428
  742 Fit       0.005509
  743 Fit       0.008865
  744 Fit       0.007258
  745 Fit      -0.012335
  746 Fit      -0.004026
  747 Fit      -0.016238
  748 Fit      -0.002529
  749 Fit      -0.018318
  750 Fit       0.004622
  751 Fit      -0.005013
  752 Fit       0.003665
  753 Fit       0.006211
  754 Fit      -0.000109
  755 Fit       0.006423
  756 Fit       0.009457
  757 Fit       0.011760
  758 Fit       0.002128
  759 Fit       0.007905
  760 Fit       0.010481
  761 Fit       0.012125
  762 Fit       0.002897
  763 Fit       0.007228
  764 Fit       0.001282
  765 Fit       0.015218
  766 Fit       0.007523
  767 Fit       0.016516
  768 Fit       0.009424
  769 Fit       0.020359
  770 Fit       0.013506
  771 Fit       0.004833
  772 Fit       0.024324
  773 Fit       0.015124
  774 Fit       0.005978
  775 Fit      -0.002828
  776 Fit       0.003241
  777 Fit      -0.008675
  778 Fit       0.001645
  779 Fit       0.006668
  780 Fit       0.008974
  781 Fit       0.010534
  782 Fit       0.001534
  783 Fit       0.006584
  784 Fit       0.009639
  785 Fit       0.011272
  786 Fit       0.012628
  787 Fit       0.008693
  788 Fit       0.010997
  789 Fit       0.012703
  790 Fit       0.003410
  791 Fit       0.000640
  792 Fit       0.000544
  793 Fit       0.002250
  794 Fit       0.014775
  795 Fit       0.011134
  796 Fit       0.009370
  797 Fit       0.008367
  798 Fit       0.008269
  799 Fit       0.009205
  800 Fit       0.014209
  801 Fit       0.012410
  802 Fit       0.011668
  803 Fit       0.012114
  804 Fit       0.013479
  805 Fit       0.018452
  806 Fit       0.014887
  807 Fit       0.018193
  808 Fit       0.024628
  809 Fit       0.028566
  810 Fit       0.016421
  811 Fit       0.020356
  812 Fit       0.025998
  813 Fit       0.031703
  814 Fit       0.020069
  815 Fit       0.014792
  816 Fit       0.017438
  817 Fit       0.020870
  818 Fit       0.016733
  819 Fit       0.007985
  820 Fit       0.009004
  821 Fit       0.009386
  822 Fit       0.011341
  823 Fit       0.009882
  824 Fit       0.013742
  825 Fit       0.015537
  826 Fit       0.015747
  827 Fit       0.015995
  828 Fit       0.018654
  829 Fit       0.021326
  830 Fit       0.024383
  831 Fit       0.024877
  832 Fit       0.000658
  833 Fit       0.002808
  834 Fit      -0.001918
  835 Fit      -0.007718
  836 Fit      -0.005738
  837 Fit       0.002073
  838 Fit       0.005612
  839 Fit      -0.006632
  840 Fit      -0.015933
  841 Fit      -0.010957
  842 Fit       0.000570
  843 Fit       0.025348
  844 Fit       0.028499
  845 Fit       0.030546
  846 Fit       0.017367
  847 Fit       0.032214
  848 Fit       0.031413
  849 Fit       0.027473
  850 Fit       0.024588
  851 Fit       0.021102
  852 Fit       0.031361
  853 Fit       0.030703
  854 Fit      -0.011957
  855 Fit      -0.008821
  856 Fit      -0.006694
  857 Fit      -0.003894
  858 Fit      -0.003393
  859 Fit       0.000575
  860 Fit       0.001137
  861 Fit       0.003562
  862 Fit       0.003421
  863 Fit       0.000405
  864 Fit       0.001765
  865 Fit       0.000950
  866 Fit      -0.001836
  867 Fit      -0.004793
  868 Fit      -0.002626
  869 Fit      -0.007319
  870 Fit      -0.010726
  871 Fit      -0.009736
  872 Fit      -0.009017
  873 Fit      -0.007276
  874 Fit      -0.002332
  875 Fit       0.002942
  876 Fit       0.001208
  877 Fit       0.003613
  878 Fit       0.001455
  879 Fit       0.000790
  880 Fit      -0.013043
  881 Fit      -0.011318
  882 Fit      -0.009952
  883 Fit      -0.006215
  884 Fit      -0.005080
  885 Fit      -0.002630
  886 Fit       0.000410
  887 Fit       0.001431
  888 Fit      -0.002189
  889 Fit       0.001150
  890 Fit      -0.000984
  891 Fit      -0.004705
  892 Fit      -0.006087
  893 Fit      -0.003356
  894 Fit      -0.002808
  895 Fit      -0.006436
  896 Fit      -0.009076
  897 Fit       0.005446
  898 Fit       0.000030
  899 Fit       0.024156
  900 Fit       0.007566
  901 Fit       0.001731
  902 Fit       0.003492
  903 Fit      -0.005390
  904 Fit      -0.007200
  905 Fit      -0.012686
  906 Fit      -0.001549
  907 Fit      -0.011863
  908 Fit      -0.006284
  909 Fit      -0.006313
  910 Fit       0.000214
  911 Fit       0.002437
  912 Fit      -0.000058
  913 Fit       0.007691
  914 Fit       0.009498
  915 Fit       0.010431
  916 Fit      -0.009465
  917 Fit       0.013725
  918 Fit       0.003699
  919 Fit       0.012763
  920 Fit       0.010913
  921 Fit       0.008442
  922 Fit       0.010245
  923 Fit       0.011867
  924 Fit       0.016230
  925 Fit       0.009925
  926 Fit       0.011050
  927 Fit       0.014694
  928 Fit       0.011843
  929 Fit       0.013351
  930 Fit       0.002948
  931 Fit       0.004228
  932 Fit       0.005876
  933 Fit       0.003858
  934 Fit       0.000827
  935 Fit       0.000463
  936 Fit       0.001904
  937 Fit       0.004585
  938 Fit       0.008807
  939 Fit       0.012101
  940 Fit       0.017833
  941 Fit       0.016866
  942 Fit       0.019997
  943 Fit       0.010453
  944 Fit      -0.022692
  945 Fit      -0.024491
  946 Fit      -0.028524
  947 Fit      -0.026299
  948 Fit      -0.019621
  949 Fit      -0.023775
  950 Fit      -0.028671
  951 Fit      -0.030755
  952 Fit      -0.029945
  953 Fit      -0.026263
  954 Fit      -0.020566
  955 Fit      -0.014420
  956 Fit      -0.022600
  957 Fit      -0.028369
  958 Fit      -0.030620
  959 Fit      -0.029881
  960 Fit      -0.025959
  961 Fit      -0.019140
  962 Fit      -0.011336
  963 Fit      -0.022356
  964 Fit      -0.026906
  965 Fit      -0.027949
  966 Fit      -0.025754
  967 Fit      -0.019637
  968 Fit      -0.019643
  969 Fit      -0.021529
  970 Fit      -0.018982
  971 Fit      -0.008798
  972 Fit      -0.009585
  973 Fit      -0.010656
  974 Fit      -0.010751
  975 Fit      -0.010592
  976 Fit      -0.008059
  977 Fit      -0.006556
  978 Fit      -0.009178
  979 Fit      -0.010534
  980 Fit      -0.010863
  981 Fit      -0.010319
  982 Fit      -0.010617
  983 Fit      -0.001279
  984 Fit      -0.005988
  985 Fit      -0.008500
  986 Fit      -0.009669
  987 Fit      -0.009352
  988 Fit      -0.010048
  989 Fit      -0.009480
  990 Fit      -0.007733
  991 Fit       0.001947
  992 Fit      -0.004552
  993 Fit      -0.007009
  994 Fit      -0.007759
  995 Fit      -0.008382
  996 Fit      -0.007764
  997 Fit      -0.008761
  998 Fit      -0.008427
  999 Fit      -0.005694
 1000 Fit      -0.002965
 1001 Fit      -0.005634
 1002 Fit      -0.006112
 1003 Fit      -0.006115
 1004 Fit      -0.006635
 1005 Fit      -0.006557
 1006 Fit      -0.007617
 1007 Fit      -0.007432
 1008 Fit      -0.004550
 1009 Fit      -0.001467
 1010 Fit      -0.004705
 1011 Fit      -0.005440
 1012 Fit      -0.005126
 1013 Fit      -0.004913
 1014 Fit      -0.005415
 1015 Fit      -0.006243
 1016 Fit      -0.007154
 1017 Fit      -0.006394
 1018 Fit      -0.001850
 1019 Fit       0.005197
 1020 Fit      -0.000729
 1021 Fit      -0.004498
 1022 Fit      -0.005653
 1023 Fit      -0.005335
 1024 Fit      -0.004892
 1025 Fit      -0.005193
 1026 Fit      -0.006820
 1027 Fit      -0.007265
 1028 Fit      -0.005700
 1029 Fit      -0.000510
 1030 Fit      -0.000612
 1031 Fit      -0.003924
 1032 Fit      -0.006103
 1033 Fit      -0.006455
 1034 Fit      -0.006058
 1035 Fit      -0.006096
 1036 Fit      -0.007781
 1037 Fit      -0.007571
 1038 Fit      -0.005561
 1039 Fit      -0.003254
 1040 Fit      -0.005457
 1041 Fit      -0.004286
 1042 Fit      -0.005692
 1043 Fit      -0.007218
 1044 Fit      -0.007541
 1045 Fit      -0.007496
 1046 Fit      -0.008384
 1047 Fit      -0.007455
 1048 Fit      -0.006756
 1049 Fit      -0.006827
 1050 Fit      -0.007454
 1051 Fit      -0.008308
 1052 Fit      -0.008066
 1053 Fit       0.003869
 1054 Fit       0.003805
 1055 Fit       0.002329
 1056 Fit       0.007673
 1057 Fit       0.007453
 1058 Fit       0.006730
 1059 Fit       0.005191
 1060 Fit       0.009907
 1061 Fit       0.009095
 1062 Fit       0.008188
 1063 Fit       0.006611
 1064 Fit       0.004659
 1065 Fit       0.010622
 1066 Fit       0.009219
 1067 Fit       0.008243
 1068 Fit       0.006546
 1069 Fit       0.006885
 1070 Fit       0.005619
 1071 Fit      -0.012523
 1072 Fit      -0.006358
 1073 Fit      -0.016902
 1074 Fit      -0.002909
 1075 Fit      -0.014079
 1076 Fit       0.001012
 1077 Fit      -0.009040
 1078 Fit      -0.003262
 1079 Fit       0.000833
 1080 Fit       0.003076
 1081 Fit       0.003164
 1082 Fit       0.006106
 1083 Fit       0.008145
 1084 Fit       0.004820
 1085 Fit       0.007701
 1086 Fit       0.009704
 1087 Fit       0.000824
 1088 Fit       0.005704
 1089 Fit       0.008045
 1090 Fit       0.009212
 1091 Fit       0.001426
 1092 Fit       0.005085
 1093 Fit       0.005679
 1094 Fit       0.013546
 1095 Fit       0.007355
 1096 Fit       0.016068
 1097 Fit       0.010128
 1098 Fit       0.015914
 1099 Fit       0.009223
 1100 Fit       0.022062
 1101 Fit       0.012531
 1102 Fit      -0.005958
 1103 Fit      -0.000035
 1104 Fit      -0.012777
 1105 Fit      -0.001838
 1106 Fit       0.003442
 1107 Fit       0.006083
 1108 Fit       0.007745
 1109 Fit      -0.005469
 1110 Fit       0.001271
 1111 Fit       0.005378
 1112 Fit       0.007824
 1113 Fit       0.009382
 1114 Fit       0.001327
 1115 Fit       0.004875
 1116 Fit       0.007631
 1117 Fit       0.009515
 1118 Fit       0.011025
 1119 Fit       0.008136
 1120 Fit       0.009975
 1121 Fit      -0.007229
 1122 Fit      -0.007125
 1123 Fit      -0.004474
 1124 Fit       0.007883
 1125 Fit       0.005513
 1126 Fit       0.003597
 1127 Fit       0.002920
 1128 Fit       0.003501
 1129 Fit       0.005221
 1130 Fit       0.010053
 1131 Fit       0.008655
 1132 Fit       0.007872
 1133 Fit       0.007862
 1134 Fit       0.008761
 1135 Fit       0.012710
 1136 Fit       0.010901
 1137 Fit       0.010305
 1138 Fit       0.011003
 1139 Fit       0.012053
 1140 Fit       0.017174
 1141 Fit       0.024273
 1142 Fit       0.014608
 1143 Fit       0.017818
 1144 Fit       0.023197
 1145 Fit       0.022419
 1146 Fit       0.014887
 1147 Fit       0.017900
 1148 Fit       0.021833
 1149 Fit       0.024899
 1150 Fit       0.017481
 1151 Fit       0.015562
 1152 Fit       0.018062
 1153 Fit       0.015121
 1154 Fit       0.006951
 1155 Fit       0.007575
 1156 Fit       0.008946
 1157 Fit       0.008044
 1158 Fit       0.010991
 1159 Fit       0.012190
 1160 Fit       0.011552
 1161 Fit       0.010034
 1162 Fit       0.013432
 1163 Fit       0.015147
 1164 Fit       0.016702
 1165 Fit       0.017578
 1166 Fit       0.018842
 1167 Fit       0.024184
 1168 Fit      -0.000533
 1169 Fit       0.001357
 1170 Fit      -0.002712
 1171 Fit      -0.007070
 1172 Fit      -0.005359
 1173 Fit       0.000956
 1174 Fit       0.003823
 1175 Fit      -0.006493
 1176 Fit      -0.013136
 1177 Fit      -0.008937
 1178 Fit       0.000081
 1179 Fit       0.023998
 1180 Fit       0.025365
 1181 Fit       0.026262
 1182 Fit       0.025966
 1183 Fit       0.015154
 1184 Fit       0.028550
 1185 Fit       0.026938
 1186 Fit       0.022998
 1187 Fit       0.021270
 1188 Fit       0.019227
 1189 Fit       0.026669
 -----------------------------------------------------------------
 Leave Link  602 at Sat Feb 17 20:56:44 2018, MaxMem=   33554432 cpu:       0.5

 Test job not archived.
 1\1\GINC-NODE016\SP\RHF\6-31G(d)\C9H10Cl1N1O1\WULSDORT\17-Feb-2018\0\\
 #HF/6-31G* Geom=AllCheck Guess=Read Pop=(MK,ReadRadii) Integral=(Grid=
 UltraFine) iop(6/33=2)\\Optimization for frag5-conf1\\0,1\C,0,1.782402
 1785,-1.854175473,0.5230459507\C,0,0.7662313219,-1.2765260683,1.281044
 3914\C,0,3.1250895483,-1.5970940425,0.8136305177\C,0,2.421776386,-0.16
 37383119,2.6461622545\C,0,1.0807227144,-0.426466309,2.3515969947\C,0,3
 .426704973,-0.7500531803,1.8763119428\C,0,-1.9084331828,-1.3601939967,
 3.6095244556\C,0,-2.4886263392,-2.3950944545,4.5617319331\C,0,-0.02623
 00494,0.1921503339,3.1876485325\N,0,-0.742004727,-0.771311984,4.019389
 8993\O,0,-2.4603216513,-1.0705094299,2.5534784736\Cl,0,5.1115435476,-0
 .4089282381,2.261851439\H,0,1.5337803726,-2.5084061469,-0.3081099285\H
 ,0,-0.2767644311,-1.4737840396,1.0509155122\H,0,3.9214117573,-2.041424
 5299,0.2262101847\H,0,2.6882502388,0.4964213881,3.4664494654\H,0,-3.52
 51667525,-2.1242499903,4.7823455159\H,0,-2.5057295636,-3.3677571348,4.
 0594895817\H,0,-1.9370949051,-2.4905813562,5.5022775931\H,0,0.38255259
 84,0.9748294245,3.8359152682\H,0,-0.7806985656,0.6461881565,2.54030085
 \H,0,-0.2657735255,-1.1466168208,4.8274806288\\Version=AM64L-G09RevC.0
 1\State=1-A\HF=-935.4513601\RMSD=3.291e-09\Dipole=-0.035717,-0.488786,
 1.0120803\Quadrupole=-11.2792681,3.2062638,8.0730043,1.327179,-6.26301
 48,1.5521806\PG=C01 [X(C9H10Cl1N1O1)]\\@


 LEARN FROM YESTERDAY,
 LIVE FOR TODAY,
 LOOK TO TOMORROW,
 REST THIS AFTERNOON.

           -- SNOOPY
 Job cpu time:  0 days  0 hours  2 minutes 15.6 seconds.
 File lengths (MBytes):  RWF=     27 Int=      0 D2E=      0 Chk=      4 Scr=      1
 Normal termination of Gaussian 09 at Sat Feb 17 20:56:44 2018.
