 Entering Gaussian System, Link 0=g09
 Initial command:
 /home/fb_chem/chemsoft/lx24-amd64/Gaussian_09_C.01_NBO_3.1_64_istanbul-64/g09/l1.exe /local/2401516.1.parallel_long/Gau-923.inp -scrdir=/local/2401516.1.parallel_long/
 Entering Link 1 = /home/fb_chem/chemsoft/lx24-amd64/Gaussian_09_C.01_NBO_3.1_64_istanbul-64/g09/l1.exe PID=       924.
  
 Copyright (c) 1988,1990,1992,1993,1995,1998,2003,2009,2011,
            Gaussian, Inc.  All Rights Reserved.
  
 This is part of the Gaussian(R) 09 program.  It is based on
 the Gaussian(R) 03 system (copyright 2003, Gaussian, Inc.),
 the Gaussian(R) 98 system (copyright 1998, Gaussian, Inc.),
 the Gaussian(R) 94 system (copyright 1995, Gaussian, Inc.),
 the Gaussian 92(TM) system (copyright 1992, Gaussian, Inc.),
 the Gaussian 90(TM) system (copyright 1990, Gaussian, Inc.),
 the Gaussian 88(TM) system (copyright 1988, Gaussian, Inc.),
 the Gaussian 86(TM) system (copyright 1986, Carnegie Mellon
 University), and the Gaussian 82(TM) system (copyright 1983,
 Carnegie Mellon University). Gaussian is a federally registered
 trademark of Gaussian, Inc.
  
 This software contains proprietary and confidential information,
 including trade secrets, belonging to Gaussian, Inc.
  
 This software is provided under written license and may be
 used, copied, transmitted, or stored only in accord with that
 written license.
  
 The following legend is applicable only to US Government
 contracts under FAR:
  
                    RESTRICTED RIGHTS LEGEND
  
 Use, reproduction and disclosure by the US Government is
 subject to restrictions as set forth in subparagraphs (a)
 and (c) of the Commercial Computer Software - Restricted
 Rights clause in FAR 52.227-19.
  
 Gaussian, Inc.
 340 Quinnipiac St., Bldg. 40, Wallingford CT 06492
  
  
 ---------------------------------------------------------------
 Warning -- This program may not be used in any manner that
 competes with the business of Gaussian, Inc. or will provide
 assistance to any competitor of Gaussian, Inc.  The licensee
 of this program is prohibited from giving any competitor of
 Gaussian, Inc. access to this program.  By using this program,
 the user acknowledges that Gaussian, Inc. is engaged in the
 business of creating and licensing software in the field of
 computational chemistry and represents and warrants to the
 licensee that it is not a competitor of Gaussian, Inc. and that
 it will not use this program in any manner prohibited above.
 ---------------------------------------------------------------
  

 Cite this work as:
 Gaussian 09, Revision C.01,
 M. J. Frisch, G. W. Trucks, H. B. Schlegel, G. E. Scuseria, 
 M. A. Robb, J. R. Cheeseman, G. Scalmani, V. Barone, B. Mennucci, 
 G. A. Petersson, H. Nakatsuji, M. Caricato, X. Li, H. P. Hratchian, 
 A. F. Izmaylov, J. Bloino, G. Zheng, J. L. Sonnenberg, M. Hada, 
 M. Ehara, K. Toyota, R. Fukuda, J. Hasegawa, M. Ishida, T. Nakajima, 
 Y. Honda, O. Kitao, H. Nakai, T. Vreven, J. A. Montgomery, Jr., 
 J. E. Peralta, F. Ogliaro, M. Bearpark, J. J. Heyd, E. Brothers, 
 K. N. Kudin, V. N. Staroverov, T. Keith, R. Kobayashi, J. Normand, 
 K. Raghavachari, A. Rendell, J. C. Burant, S. S. Iyengar, J. Tomasi, 
 M. Cossi, N. Rega, J. M. Millam, M. Klene, J. E. Knox, J. B. Cross, 
 V. Bakken, C. Adamo, J. Jaramillo, R. Gomperts, R. E. Stratmann, 
 O. Yazyev, A. J. Austin, R. Cammi, C. Pomelli, J. W. Ochterski, 
 R. L. Martin, K. Morokuma, V. G. Zakrzewski, G. A. Voth, 
 P. Salvador, J. J. Dannenberg, S. Dapprich, A. D. Daniels, 
 O. Farkas, J. B. Foresman, J. V. Ortiz, J. Cioslowski, 
 and D. J. Fox, Gaussian, Inc., Wallingford CT, 2010.
 
 ******************************************
 Gaussian 09:  AM64L-G09RevC.01 23-Sep-2011
                18-Feb-2018 
 ******************************************
 %nprocs=2
 Will use up to    2 processors via shared memory.
 %chk=frag2-conf2.chk
 ----------------------------------------------------------------------
 #HF/6-31G* Geom=AllCheck Guess=Read Pop=(MK,ReadRadii) Integral=(Grid=
 UltraFine) iop(6/33=2)
 ----------------------------------------------------------------------
 1/29=7,38=1/1;
 2/12=2,40=1/2;
 3/5=1,6=6,7=1,11=9,14=-4,16=1,25=1,30=1,75=-5,116=-2/1,2,3;
 4/5=1/1;
 5/5=2,38=6/2;
 6/7=2,8=2,9=2,10=2,15=8,20=101,28=1,33=2/1,2;
 99/5=1,9=1/99;
 Structure from the checkpoint file:  frag2-conf2.chk
 ----------------------------
 Optimization for frag2-conf2
 ----------------------------
 Charge =  0 Multiplicity = 1
 Redundant internal coordinates found in file.
 C,0,0.1154135353,-3.934600284,4.0318893208
 C,0,0.474218303,0.1872174282,2.2932707317
 C,0,2.4481488591,-6.0574194974,0.0247679574
 C,0,1.6832151597,-6.1740520695,1.3525920171
 C,0,2.9466948959,-4.6236228384,-0.2138321707
 C,0,2.5232094036,-5.6530483576,2.5307377117
 C,0,3.77891874,-4.1149386641,0.9754962961
 C,0,3.0283770337,-4.206190565,2.3245305898
 C,0,-1.1305911602,-5.5028177769,5.4045249687
 C,0,0.8702752611,-4.4849776517,6.3864114598
 C,0,-0.2216944616,-0.9951464854,3.0386028911
 C,0,1.9333894131,-3.1173976334,2.4118619768
 C,0,1.3033932006,-2.9716124273,3.8076515017
 N,0,-0.013408428,-4.574170224,5.2242567209
 N,0,0.7991920971,-1.5524262584,3.9998301987
 O,0,-0.2119358506,0.7932464668,1.4561840342
 O,0,-0.7002415287,-4.0698455353,3.111752912
 O,0,1.6798083824,0.3818425079,2.6483519959
 H,0,3.3124654574,-6.7380002296,0.0475152894
 H,0,1.8143679696,-6.383944198,-0.8097347662
 H,0,0.7430884354,-5.6102899869,1.2905590589
 H,0,1.4042502926,-7.2195877077,1.5366526268
 H,0,3.5496589589,-4.5793113383,-1.1298054033
 H,0,2.0860679544,-3.9608224724,-0.380874827
 H,0,1.9598480834,-5.7432370645,3.4678095558
 H,0,3.404683171,-6.2995209212,2.6482214359
 H,0,4.6915481639,-4.7230715479,1.0508785456
 H,0,4.1064160778,-3.0821127166,0.7980262809
 H,0,3.7546698251,-3.987647346,3.1209970333
 H,0,-0.7464359994,-6.4867622946,5.6953352273
 H,0,-1.6824318394,-5.5832337094,4.4709454928
 H,0,-1.7959829467,-5.139502183,6.1959498897
 H,0,0.2637971813,-4.3056351206,7.2801186086
 H,0,1.5886046271,-3.6733162158,6.3032191219
 H,0,1.4166738902,-5.4257139891,6.5217218816
 H,0,-0.5466405072,-1.7769167543,2.3550415833
 H,0,-1.0869019688,-0.6462760561,3.6036403797
 H,0,2.3942959879,-2.1555899324,2.1579806132
 H,0,1.1388463631,-3.2948913619,1.6832204
 H,0,2.0845801353,-3.0810269898,4.5587269274
 H,0,1.5875220345,-0.8596949325,3.8013701799
 H,0,0.4954746296,-1.4201097231,4.9672093856
 Recover connectivity data from disk.
                          Input orientation:                          
 ---------------------------------------------------------------------
 Center     Atomic      Atomic             Coordinates (Angstroms)
 Number     Number       Type             X           Y           Z
 ---------------------------------------------------------------------
      1          6           0        0.115414   -3.934600    4.031889
      2          6           0        0.474218    0.187217    2.293271
      3          6           0        2.448149   -6.057419    0.024768
      4          6           0        1.683215   -6.174052    1.352592
      5          6           0        2.946695   -4.623623   -0.213832
      6          6           0        2.523209   -5.653048    2.530738
      7          6           0        3.778919   -4.114939    0.975496
      8          6           0        3.028377   -4.206191    2.324531
      9          6           0       -1.130591   -5.502818    5.404525
     10          6           0        0.870275   -4.484978    6.386411
     11          6           0       -0.221694   -0.995146    3.038603
     12          6           0        1.933389   -3.117398    2.411862
     13          6           0        1.303393   -2.971612    3.807652
     14          7           0       -0.013408   -4.574170    5.224257
     15          7           0        0.799192   -1.552426    3.999830
     16          8           0       -0.211936    0.793246    1.456184
     17          8           0       -0.700242   -4.069846    3.111753
     18          8           0        1.679808    0.381843    2.648352
     19          1           0        3.312465   -6.738000    0.047515
     20          1           0        1.814368   -6.383944   -0.809735
     21          1           0        0.743088   -5.610290    1.290559
     22          1           0        1.404250   -7.219588    1.536653
     23          1           0        3.549659   -4.579311   -1.129805
     24          1           0        2.086068   -3.960822   -0.380875
     25          1           0        1.959848   -5.743237    3.467810
     26          1           0        3.404683   -6.299521    2.648221
     27          1           0        4.691548   -4.723072    1.050879
     28          1           0        4.106416   -3.082113    0.798026
     29          1           0        3.754670   -3.987647    3.120997
     30          1           0       -0.746436   -6.486762    5.695335
     31          1           0       -1.682432   -5.583234    4.470945
     32          1           0       -1.795983   -5.139502    6.195950
     33          1           0        0.263797   -4.305635    7.280119
     34          1           0        1.588605   -3.673316    6.303219
     35          1           0        1.416674   -5.425714    6.521722
     36          1           0       -0.546641   -1.776917    2.355042
     37          1           0       -1.086902   -0.646276    3.603640
     38          1           0        2.394296   -2.155590    2.157981
     39          1           0        1.138846   -3.294891    1.683220
     40          1           0        2.084580   -3.081027    4.558727
     41          1           0        1.587522   -0.859695    3.801370
     42          1           0        0.495475   -1.420110    4.967209
 ---------------------------------------------------------------------
                    Distance matrix (angstroms):
                    1          2          3          4          5
     1  C    0.000000
     2  C    4.487863   0.000000
     3  C    5.099513   6.930945   0.000000
     4  C    3.827764   6.543111   1.536829   0.000000
     5  C    5.149472   5.961786   1.536636   2.540452   0.000000
     6  C    3.317228   6.193824   2.539495   1.537876   2.961709
     7  C    4.774446   5.582663   2.539304   2.962115   1.538135
     8  C    3.387358   5.082001   3.008757   2.574219   2.573754
     9  C    2.428160   6.680705   6.485117   4.978576   6.997370
    10  C    2.533082   6.224152   6.740383   5.371516   6.920546
    11  C    3.121001   1.561345   6.468220   5.769955   5.812303
    12  C    2.568530   3.614378   3.821901   3.244654   3.192142
    13  C    1.545614   3.599873   5.014268   4.053048   4.647785
    14  N    1.359185   5.612421   5.940873   4.519728   6.191726
    15  N    2.478575   2.458519   6.230180   5.398962   5.639057
    16  O    5.393881   1.240481   7.487097   7.221189   6.489097
    17  O    1.237027   4.491309   4.836557   3.633621   4.966521
    18  O    4.795121   1.271774   6.995544   6.682721   5.903540
    19  H    5.827129   7.813943   1.100341   2.162341   2.161639
    20  H    5.685689   7.389507   1.097584   2.176445   2.176234
    21  H    3.273653   5.889721   2.170111   1.097959   2.844747
    22  H    4.321857   7.503212   2.173972   1.097654   3.490325
    23  H    6.233200   6.625374   2.175125   3.491290   1.097514
    24  H    4.832872   5.191854   2.165957   2.839997   1.099039
    25  H    2.644105   6.225506   3.491659   2.176298   3.972643
    26  H    4.280967   7.126808   2.802870   2.158205   3.348095
    27  H    5.518072   6.590929   2.804680   3.353572   2.157289
    28  H    5.206986   5.110493   3.492883   3.967308   2.178317
    29  H    3.751896   5.373638   3.946845   3.492642   3.489753
    30  H    3.165970   7.589865   6.522656   4.986022   7.213097
    31  H    2.478510   6.533874   6.087285   4.626097   6.655585
    32  H    3.128639   6.982740   7.545775   6.052539   7.990271
    33  H    3.272717   6.715553   7.776905   6.375053   7.966075
    34  H    2.719835   5.676730   6.770651   5.547192   6.724541
    35  H    3.180560   7.090347   6.608586   5.229814   6.953560
    36  H    2.811713   2.214451   5.720283   5.031099   5.187123
    37  H    3.527327   2.202016   7.388192   6.580051   6.830980
    38  H    3.445246   3.032119   4.447221   4.159606   3.467251
    39  H    2.640623   3.597078   3.477973   2.948766   2.938138
    40  H    2.209924   4.290335   5.435796   4.472941   5.089220
    41  H    3.416912   2.147053   6.482264   5.852185   5.668894
    42  H    2.709600   3.119920   7.053035   6.089019   6.566138
                    6          7          8          9         10
     6  C    0.000000
     7  C    2.522174   0.000000
     8  C    1.546322   1.546458   0.000000
     9  C    4.650966   6.756167   5.335225   0.000000
    10  C    4.354630   6.154278   4.608037   2.450218   0.000000
    11  C    5.430329   5.476716   4.624248   5.171342   4.957736
    12  C    2.606059   2.542482   1.546640   4.902473   4.335612
    13  C    3.210694   3.931479   2.588320   3.857627   3.021236
    14  N    3.854018   5.713546   4.218564   1.463892   1.462688
    15  N    4.684610   4.959016   3.849462   4.615498   3.781624
    16  O    7.084518   6.344152   6.020633   7.488241   7.303285
    17  O    3.637959   4.962711   3.813254   2.737775   3.655441
    18  O    6.094675   5.236960   4.793073   7.079835   6.189860
    19  H    2.822488   2.821202   3.416953   7.068520   7.156955
    20  H    3.492194   3.492119   4.005003   6.932979   7.502127
    21  H    2.169954   3.398765   2.874567   4.521829   5.220174
    22  H    2.166638   3.948771   3.512706   4.932865   5.593155
    23  H    3.950454   2.168063   3.513316   8.090431   7.980070
    24  H    3.395911   2.174681   2.875304   6.796727   6.895582
    25  H    1.097093   3.488839   2.193480   3.655063   3.359855
    26  H    1.099420   2.776772   2.151375   5.366624   4.867223
    27  H    2.785055   1.099273   2.157659   7.311604   6.567094
    28  H    3.481170   1.097943   2.180811   7.382810   6.608380
    29  H    2.153709   2.149410   1.099828   5.601430   4.385202
    30  H    4.626050   6.955664   5.550905   1.095579   2.664298
    31  H    4.632138   6.648339   5.356777   1.087458   3.375128
    32  H    5.687964   7.705997   6.255670   1.095946   2.752019
    33  H    5.429280   7.220852   5.675442   2.625913   1.094848
    34  H    4.361702   5.777295   4.264606   3.398346   1.087066
    35  H    4.147777   6.169194   4.658459   2.782559   1.096287
    36  H    4.947650   5.106854   4.322390   4.850019   5.058971
    37  H    6.265125   6.528014   5.589690   5.179874   5.129326
    38  H    3.519628   2.674789   2.152849   5.845410   5.062441
    39  H    2.862805   2.853653   2.193643   4.886041   4.858852
    40  H    3.304607   4.096254   2.673645   4.113122   2.605004
    41  H    5.046410   4.835741   3.931431   5.613986   4.509940
    42  H    5.288277   5.828969   4.600173   4.416315   3.398239
                   11         12         13         14         15
    11  C    0.000000
    12  C    3.088874   0.000000
    13  C    2.612230   1.538303   0.000000
    14  N    4.198795   3.717764   2.511758   0.000000
    15  N    1.508883   2.501436   1.518302   3.360130   0.000000
    16  O    2.387990   4.561675   4.690393   6.561017   3.604816
    17  O    3.112577   2.886696   2.388502   2.277884   3.061761
    18  O    2.379939   3.516378   3.568098   5.836466   2.518606
    19  H    7.376806   4.538805   5.688644   6.522442   6.987669
    20  H    6.927799   4.589464   5.764144   6.559352   6.892464
    21  H    5.028520   2.981384   3.689487   4.137609   4.879504
    22  H    6.606301   4.227759   4.817977   4.754620   6.208869
    23  H    6.666706   4.158476   5.657640   7.284887   6.560508
    24  H    5.080731   2.921311   4.374342   6.016768   5.162073
    25  H    5.242872   2.830328   2.868506   2.888869   4.380989
    26  H    6.437344   3.513756   4.103008   4.614774   5.581249
    27  H    6.479848   3.469568   4.706060   6.290936   5.822349
    28  H    5.301712   2.706983   4.114243   6.228218   4.850693
    29  H    4.977281   2.139455   2.740908   4.355011   3.929058
    30  H    6.123024   5.414359   4.485691   2.101726   5.441634
    31  H    5.023535   4.836769   4.021900   2.090772   4.756870
    32  H    5.442693   5.684756   4.473237   2.107453   4.942164
    33  H    5.402360   5.281985   3.862435   2.091775   4.315912
    34  H    4.594289   3.945958   2.607986   2.131231   3.229078
    35  H    5.869097   4.741969   3.660823   2.110374   4.663001
    36  H    1.088123   2.819693   2.638181   4.042445   2.137052
    37  H    1.090670   4.080311   3.341006   4.382595   2.129654
    38  H    2.994250   1.096341   2.139480   4.587878   2.510094
    39  H    2.996157   1.092576   2.155178   3.937408   2.918601
    40  H    3.461297   2.152489   1.089192   2.659692   2.073935
    41  H    1.968102   2.673496   2.130954   4.287763   1.068048
    42  H    2.101059   3.387947   2.098682   3.205173   1.022533
                   16         17         18         19         20
    16  O    0.000000
    17  O    5.160331   0.000000
    18  O    2.273591   5.069211   0.000000
    19  H    8.433589   5.710553   7.753843   0.000000
    20  H    7.794380   5.201575   7.599496   1.761967   0.000000
    21  H    6.476479   2.787995   6.215038   3.068972   2.481414
    22  H    8.174598   4.102524   7.687233   2.467943   2.524288
    23  H    7.049916   6.025946   6.510289   2.470280   2.523961
    24  H    5.590776   4.469212   5.310367   3.065988   2.475734
    25  H    7.175577   3.162767   6.185995   3.810189   4.327708
    26  H    8.050356   4.694329   6.900421   2.639023   3.807058
    27  H    7.391765   5.809071   6.138619   2.639800   3.807696
    28  H    5.839499   5.425210   4.616396   3.815644   4.329027
    29  H    6.431369   4.455679   4.860132   4.148045   4.995764
    30  H    8.441245   3.538152   7.896107   6.959574   6.991725
    31  H    7.204904   2.258859   7.085806   6.771205   6.383912
    32  H    7.757067   3.443412   7.426427   8.151975   7.978903
    33  H    7.755200   4.284885   6.740237   8.217136   8.495256
    34  H    6.832706   3.947342   5.459916   7.176198   7.615286
    35  H    8.184590   4.236461   6.985696   6.872516   7.404500
    36  H    2.743303   2.419448   3.115020   6.695500   6.067526
    37  H    2.729351   3.480271   3.102304   8.313216   7.798467
    38  H    3.997574   3.761678   2.681328   5.127922   5.198330
    39  H    4.311500   2.454283   3.839595   4.388069   4.026587
    40  H    5.468981   3.290399   3.975530   5.935671   6.308935
    41  H    3.386763   4.001812   1.696874   7.184799   7.199380
    42  H    4.210306   3.448703   3.166509   7.772952   7.729956
                   21         22         23         24         25
    21  H    0.000000
    22  H    1.757139   0.000000
    23  H    3.846806   4.322480   0.000000
    24  H    2.705185   3.842049   1.756566   0.000000
    25  H    2.497719   2.493525   5.002028   4.243266   0.000000
    26  H    3.066329   2.466544   4.153748   4.047676   1.751778
    27  H    4.054003   4.156308   2.465758   3.069115   3.787411
    28  H    4.236300   4.996596   2.503621   2.498749   4.337866
    29  H    3.879832   4.298844   4.296675   3.879183   2.534514
    30  H    4.731695   4.738895   8.287180   7.164062   3.583110
    31  H    3.999842   4.562383   7.729880   6.354051   3.781281
    32  H    5.543589   6.023064   9.086055   7.727498   4.681187
    33  H    6.148713   6.540578   9.033195   7.882283   4.413274
    34  H    5.439993   5.943920   7.740569   6.708744   3.530148
    35  H    5.277580   5.298023   7.988235   7.088007   3.118051
    36  H    4.182257   5.839384   6.064424   4.380164   4.822078
    37  H    5.774136   7.327121   7.705321   6.077032   5.939709
    38  H    3.926049   5.197145   4.244859   3.130440   3.843905
    39  H    2.381571   3.936390   3.921080   2.366682   3.138981
    40  H    4.344847   5.169474   6.062237   5.017341   2.879761
    41  H    5.439246   6.753575   6.480897   5.230365   4.909060
    42  H    5.580025   6.799157   7.515463   6.130841   4.804375
                   26         27         28         29         30
    26  H    0.000000
    27  H    2.587029   0.000000
    28  H    3.777217   1.760415   0.000000
    29  H    2.385533   2.388301   2.517918   0.000000
    30  H    5.152839   7.365681   7.689307   5.756105   0.000000
    31  H    5.451067   7.284529   7.297719   5.824975   1.786500
    32  H    6.401480   8.290551   8.258859   6.449174   1.779684
    33  H    5.940978   7.653931   7.634150   5.439265   2.879136
    34  H    4.853257   6.190099   6.082437   3.862277   3.706402
    35  H    4.440690   6.414720   6.744470   4.370262   2.547113
    36  H    6.012725   6.149739   5.077280   4.896457   5.777554
    37  H    7.283292   7.518467   6.385556   5.902417   6.213082
    38  H    4.293412   3.618702   2.374716   2.476783   6.413745
    39  H    3.884976   3.880882   3.104080   3.064253   5.462545
    40  H    3.968804   4.668789   4.269741   2.382903   4.572260
    41  H    5.850088   5.667968   4.506001   3.865685   6.379526
    42  H    6.135948   6.622253   5.760490   4.541267   5.267208
                   31         32         33         34         35
    31  H    0.000000
    32  H    1.784778   0.000000
    33  H    3.648495   2.472539   0.000000
    34  H    4.207694   3.690073   1.763314   0.000000
    35  H    3.719537   3.241791   1.777320   1.774317   0.000000
    36  H    4.500569   5.255513   5.595320   4.872752   5.876185
    37  H    5.047814   5.235642   5.360204   4.858913   6.134013
    38  H    5.806742   6.539676   5.949623   4.487275   5.540008
    39  H    4.579032   5.690390   5.754353   4.657239   5.294213
    40  H    4.523176   4.687919   3.495839   1.907892   3.130017
    41  H    5.783835   5.958093   5.072321   3.765065   5.317709
    42  H    4.724527   4.538112   3.705331   2.838449   4.394313
                   36         37         38         39         40
    36  H    0.000000
    37  H    1.768963   0.000000
    38  H    2.971756   4.060382   0.000000
    39  H    2.365683   3.956909   1.760556   0.000000
    40  H    3.671547   4.110779   2.591513   3.034582   0.000000
    41  H    2.736387   2.690202   2.242980   3.258535   2.398952
    42  H    2.834914   2.227567   3.469614   3.835794   2.334686
                   41         42
    41  H    0.000000
    42  H    1.692871   0.000000
 Stoichiometry    C13H24N2O3
 Framework group  C1[X(C13H24N2O3)]
 Deg. of freedom   120
 Full point group                 C1      NOp   1
 Largest Abelian subgroup         C1      NOp   1
 Largest concise Abelian subgroup C1      NOp   1
                         Standard orientation:                         
 ---------------------------------------------------------------------
 Center     Atomic      Atomic             Coordinates (Angstroms)
 Number     Number       Type             X           Y           Z
 ---------------------------------------------------------------------
      1          6           0        0.307619    1.604298   -0.364488
      2          6           0        3.248494   -1.783919   -0.254227
      3          6           0       -3.648687   -1.567962   -0.902498
      4          6           0       -3.058056   -0.149743   -0.861836
      5          6           0       -2.655179   -2.607456   -0.360608
      6          6           0       -2.560526    0.209773    0.548226
      7          6           0       -2.162091   -2.230337    1.046695
      8          6           0       -1.548232   -0.812575    1.114951
      9          6           0       -0.176394    3.908995   -0.956153
     10          6           0        0.258171    3.416740    1.404442
     11          6           0        2.703591   -0.375236   -0.649818
     12          6           0       -0.156305   -0.790115    0.441059
     13          6           0        0.633661    0.508793    0.675939
     14          7           0        0.159695    2.892682    0.042413
     15          7           0        2.123688    0.225397    0.607036
     16          8           0        3.782582   -2.443899   -1.158644
     17          8           0        0.216868    1.265672   -1.550798
     18          8           0        3.072133   -2.079381    0.970112
     19          1           0       -4.563045   -1.593616   -0.290909
     20          1           0       -3.949279   -1.826053   -1.926083
     21          1           0       -2.229247   -0.071756   -1.577732
     22          1           0       -3.811363    0.581913   -1.181295
     23          1           0       -3.122625   -3.600045   -0.332352
     24          1           0       -1.801685   -2.689905   -1.048094
     25          1           0       -2.141723    1.223754    0.555948
     26          1           0       -3.422685    0.237010    1.229890
     27          1           0       -3.015278   -2.266515    1.738912
     28          1           0       -1.436200   -2.970730    1.407777
     29          1           0       -1.388560   -0.573515    2.176542
     30          1           0       -1.093425    4.428310   -0.656723
     31          1           0       -0.322772    3.427779   -1.920295
     32          1           0        0.633242    4.643923   -1.030092
     33          1           0        0.915798    4.292073    1.400919
     34          1           0        0.671904    2.692374    2.101457
     35          1           0       -0.729585    3.727113    1.764791
     36          1           0        1.934259   -0.433278   -1.417132
     37          1           0        3.507043    0.267524   -1.011599
     38          1           0        0.433894   -1.613328    0.860524
     39          1           0       -0.233686   -0.966109   -0.634468
     40          1           0        0.471946    0.837591    1.701648
     41          1           0        2.371906   -0.565268    1.280804
     42          1           0        2.648421    1.057523    0.885958
 ---------------------------------------------------------------------
 Rotational constants (GHZ):      0.4023666      0.3264271      0.2150038
 Standard basis: 6-31G(d) (6D, 7F)
 There are   318 symmetry adapted basis functions of A   symmetry.
 Integral buffers will be    131072 words long.
 Raffenetti 1 integral format.
 Two-electron integral symmetry is turned on.
   318 basis functions,   600 primitive gaussians,   318 cartesian basis functions
    70 alpha electrons       70 beta electrons
       nuclear repulsion energy      1461.3458109978 Hartrees.
 NAtoms=   42 NActive=   42 NUniq=   42 SFac= 1.00D+00 NAtFMM=   60 NAOKFM=F Big=F
 One-electron integrals computed using PRISM.
 NBasis=   318 RedAO= T  NBF=   318
 NBsUse=   318 1.00D-06 NBFU=   318
 Initial guess read from the checkpoint file:  frag2-conf2.chk
 B after Tr=     0.000000    0.000000    0.000000
         Rot=    1.000000    0.000000    0.000000    0.000000 Ang=   0.00 deg.
 Initial guess orbital symmetries:
       Occupied  (A) (A) (A) (A) (A) (A) (A) (A) (A) (A) (A) (A)
                 (A) (A) (A) (A) (A) (A) (A) (A) (A) (A) (A) (A)
                 (A) (A) (A) (A) (A) (A) (A) (A) (A) (A) (A) (A)
                 (A) (A) (A) (A) (A) (A) (A) (A) (A) (A) (A) (A)
                 (A) (A) (A) (A) (A) (A) (A) (A) (A) (A) (A) (A)
                 (A) (A) (A) (A) (A) (A) (A) (A) (A) (A)
       Virtual   (A) (A) (A) (A) (A) (A) (A) (A) (A) (A) (A) (A)
                 (A) (A) (A) (A) (A) (A) (A) (A) (A) (A) (A) (A)
                 (A) (A) (A) (A) (A) (A) (A) (A) (A) (A) (A) (A)
                 (A) (A) (A) (A) (A) (A) (A) (A) (A) (A) (A) (A)
                 (A) (A) (A) (A) (A) (A) (A) (A) (A) (A) (A) (A)
                 (A) (A) (A) (A) (A) (A) (A) (A) (A) (A) (A) (A)
                 (A) (A) (A) (A) (A) (A) (A) (A) (A) (A) (A) (A)
                 (A) (A) (A) (A) (A) (A) (A) (A) (A) (A) (A) (A)
                 (A) (A) (A) (A) (A) (A) (A) (A) (A) (A) (A) (A)
                 (A) (A) (A) (A) (A) (A) (A) (A) (A) (A) (A) (A)
                 (A) (A) (A) (A) (A) (A) (A) (A) (A) (A) (A) (A)
                 (A) (A) (A) (A) (A) (A) (A) (A) (A) (A) (A) (A)
                 (A) (A) (A) (A) (A) (A) (A) (A) (A) (A) (A) (A)
                 (A) (A) (A) (A) (A) (A) (A) (A) (A) (A) (A) (A)
                 (A) (A) (A) (A) (A) (A) (A) (A) (A) (A) (A) (A)
                 (A) (A) (A) (A) (A) (A) (A) (A) (A) (A) (A) (A)
                 (A) (A) (A) (A) (A) (A) (A) (A) (A) (A) (A) (A)
                 (A) (A) (A) (A) (A) (A) (A) (A) (A) (A) (A) (A)
                 (A) (A) (A) (A) (A) (A) (A) (A) (A) (A) (A) (A)
                 (A) (A) (A) (A) (A) (A) (A) (A) (A) (A) (A) (A)
                 (A) (A) (A) (A) (A) (A) (A) (A)
 Requested convergence on RMS density matrix=1.00D-08 within 128 cycles.
 Requested convergence on MAX density matrix=1.00D-06.
 Requested convergence on             energy=1.00D-06.
 No special actions if energy rises.
 SCF Done:  E(RHF) =  -839.716881368     A.U. after   13 cycles
             Convg  =    0.7801D-08             -V/T =  2.0023

 **********************************************************************

            Population analysis using the SCF density.

 **********************************************************************

 Orbital symmetries:
 BldTbl:  Degeneracy threshold= 1.00D-02
       Occupied  (A) (A) (A) (A) (A) (A) (A) (A) (A) (A) (A) (A)
                 (A) (A) (A) (A) (A) (A) (A) (A) (A) (A) (A) (A)
                 (A) (A) (A) (A) (A) (A) (A) (A) (A) (A) (A) (A)
                 (A) (A) (A) (A) (A) (A) (A) (A) (A) (A) (A) (A)
                 (A) (A) (A) (A) (A) (A) (A) (A) (A) (A) (A) (A)
                 (A) (A) (A) (A) (A) (A) (A) (A) (A) (A)
       Virtual   (A) (A) (A) (A) (A) (A) (A) (A) (A) (A) (A) (A)
                 (A) (A) (A) (A) (A) (A) (A) (A) (A) (A) (A) (A)
                 (A) (A) (A) (A) (A) (A) (A) (A) (A) (A) (A) (A)
                 (A) (A) (A) (A) (A) (A) (A) (A) (A) (A) (A) (A)
                 (A) (A) (A) (A) (A) (A) (A) (A) (A) (A) (A) (A)
                 (A) (A) (A) (A) (A) (A) (A) (A) (A) (A) (A) (A)
                 (A) (A) (A) (A) (A) (A) (A) (A) (A) (A) (A) (A)
                 (A) (A) (A) (A) (A) (A) (A) (A) (A) (A) (A) (A)
                 (A) (A) (A) (A) (A) (A) (A) (A) (A) (A) (A) (A)
                 (A) (A) (A) (A) (A) (A) (A) (A) (A) (A) (A) (A)
                 (A) (A) (A) (A) (A) (A) (A) (A) (A) (A) (A) (A)
                 (A) (A) (A) (A) (A) (A) (A) (A) (A) (A) (A) (A)
                 (A) (A) (A) (A) (A) (A) (A) (A) (A) (A) (A) (A)
                 (A) (A) (A) (A) (A) (A) (A) (A) (A) (A) (A) (A)
                 (A) (A) (A) (A) (A) (A) (A) (A) (A) (A) (A) (A)
                 (A) (A) (A) (A) (A) (A) (A) (A) (A) (A) (A) (A)
                 (A) (A) (A) (A) (A) (A) (A) (A) (A) (A) (A) (A)
                 (A) (A) (A) (A) (A) (A) (A) (A) (A) (A) (A) (A)
                 (A) (A) (A) (A) (A) (A) (A) (A) (A) (A) (A) (A)
                 (A) (A) (A) (A) (A) (A) (A) (A) (A) (A) (A) (A)
                 (A) (A) (A) (A) (A) (A) (A) (A)
 The electronic state is 1-A.
 Alpha  occ. eigenvalues --  -20.56277 -20.47751 -20.45728 -15.69973 -15.64146
 Alpha  occ. eigenvalues --  -11.39884 -11.33981 -11.31470 -11.31372 -11.28850
 Alpha  occ. eigenvalues --  -11.28075 -11.25182 -11.25055 -11.23680 -11.22947
 Alpha  occ. eigenvalues --  -11.22508 -11.22390 -11.22333  -1.41529  -1.35241
 Alpha  occ. eigenvalues --   -1.31182  -1.28490  -1.23695  -1.13845  -1.08333
 Alpha  occ. eigenvalues --   -1.02477  -1.01249  -1.01062  -0.98092  -0.96705
 Alpha  occ. eigenvalues --   -0.89734  -0.84011  -0.82917  -0.79755  -0.77514
 Alpha  occ. eigenvalues --   -0.75865  -0.73156  -0.72827  -0.69658  -0.68736
 Alpha  occ. eigenvalues --   -0.68030  -0.66282  -0.64714  -0.62986  -0.61588
 Alpha  occ. eigenvalues --   -0.61269  -0.60228  -0.60001  -0.59743  -0.58840
 Alpha  occ. eigenvalues --   -0.57426  -0.57229  -0.55958  -0.55710  -0.55341
 Alpha  occ. eigenvalues --   -0.54445  -0.53422  -0.51746  -0.51199  -0.49786
 Alpha  occ. eigenvalues --   -0.48858  -0.48585  -0.45631  -0.45317  -0.43686
 Alpha  occ. eigenvalues --   -0.43498  -0.40973  -0.38698  -0.36040  -0.35499
 Alpha virt. eigenvalues --    0.12755   0.15548   0.19251   0.20689   0.21563
 Alpha virt. eigenvalues --    0.23594   0.24021   0.25591   0.25920   0.26175
 Alpha virt. eigenvalues --    0.26879   0.27483   0.28191   0.28516   0.29224
 Alpha virt. eigenvalues --    0.29649   0.30415   0.30492   0.30740   0.31126
 Alpha virt. eigenvalues --    0.31745   0.32947   0.33491   0.33743   0.34403
 Alpha virt. eigenvalues --    0.35102   0.35607   0.37014   0.37201   0.39195
 Alpha virt. eigenvalues --    0.40277   0.40453   0.41135   0.41827   0.42465
 Alpha virt. eigenvalues --    0.44155   0.45168   0.46900   0.47218   0.48961
 Alpha virt. eigenvalues --    0.50729   0.56311   0.59593   0.63932   0.65937
 Alpha virt. eigenvalues --    0.67179   0.69156   0.69974   0.70530   0.71656
 Alpha virt. eigenvalues --    0.72615   0.73640   0.75285   0.75373   0.76722
 Alpha virt. eigenvalues --    0.78091   0.78890   0.81789   0.82498   0.85589
 Alpha virt. eigenvalues --    0.87259   0.87638   0.88899   0.89283   0.89778
 Alpha virt. eigenvalues --    0.90918   0.91591   0.92272   0.92600   0.93624
 Alpha virt. eigenvalues --    0.96529   0.96633   0.97474   0.97707   0.99638
 Alpha virt. eigenvalues --    0.99769   1.00806   1.03456   1.03924   1.04538
 Alpha virt. eigenvalues --    1.06344   1.07401   1.08008   1.08663   1.09121
 Alpha virt. eigenvalues --    1.09333   1.09870   1.10774   1.12109   1.12456
 Alpha virt. eigenvalues --    1.12884   1.13559   1.14223   1.15030   1.15658
 Alpha virt. eigenvalues --    1.16161   1.16365   1.16839   1.17872   1.18578
 Alpha virt. eigenvalues --    1.19211   1.19615   1.21478   1.21978   1.22643
 Alpha virt. eigenvalues --    1.23034   1.24485   1.25745   1.25838   1.26305
 Alpha virt. eigenvalues --    1.28978   1.29639   1.31103   1.31583   1.34486
 Alpha virt. eigenvalues --    1.38362   1.38381   1.39682   1.40955   1.43096
 Alpha virt. eigenvalues --    1.43588   1.46810   1.48367   1.49183   1.49927
 Alpha virt. eigenvalues --    1.56128   1.58700   1.59915   1.60591   1.62871
 Alpha virt. eigenvalues --    1.64286   1.65331   1.68364   1.68549   1.71185
 Alpha virt. eigenvalues --    1.74107   1.77336   1.77966   1.80288   1.81807
 Alpha virt. eigenvalues --    1.84444   1.85600   1.86510   1.91547   1.92901
 Alpha virt. eigenvalues --    1.96052   1.98039   1.98906   2.00748   2.03650
 Alpha virt. eigenvalues --    2.03882   2.05174   2.07980   2.08461   2.09280
 Alpha virt. eigenvalues --    2.12365   2.13658   2.14498   2.15650   2.17766
 Alpha virt. eigenvalues --    2.18607   2.19126   2.19519   2.21229   2.22168
 Alpha virt. eigenvalues --    2.22836   2.23484   2.25043   2.26848   2.27645
 Alpha virt. eigenvalues --    2.28274   2.30100   2.30479   2.31247   2.32333
 Alpha virt. eigenvalues --    2.33841   2.34592   2.35531   2.36462   2.38297
 Alpha virt. eigenvalues --    2.39659   2.41485   2.43247   2.44616   2.45686
 Alpha virt. eigenvalues --    2.47943   2.48242   2.49503   2.49973   2.55306
 Alpha virt. eigenvalues --    2.55745   2.58023   2.60047   2.62556   2.63946
 Alpha virt. eigenvalues --    2.65511   2.65964   2.68148   2.68899   2.70608
 Alpha virt. eigenvalues --    2.71781   2.72521   2.74104   2.74659   2.78355
 Alpha virt. eigenvalues --    2.79710   2.83466   2.84168   2.87633   2.89599
 Alpha virt. eigenvalues --    2.90969   2.94652   2.96718   2.97779   3.00450
 Alpha virt. eigenvalues --    3.01945   3.03498   3.05624   3.06421   3.09817
 Alpha virt. eigenvalues --    3.12463   3.14449   3.19435   3.24883   3.29231
 Alpha virt. eigenvalues --    3.32296   3.36138   3.39694   3.51695   3.56372
 Alpha virt. eigenvalues --    4.29017   4.37922   4.40751   4.54878   4.59502
 Alpha virt. eigenvalues --    4.63121   4.63480   4.66904   4.68853   4.73856
 Alpha virt. eigenvalues --    4.77016   4.84151   4.89248   4.95696   4.98306
 Alpha virt. eigenvalues --    4.99536   5.07060   5.11476
          Condensed to atoms (all electrons):
              1          2          3          4          5          6
     1  C    4.231669   0.000133   0.000011   0.000094   0.000000   0.000601
     2  C    0.000133   4.007792   0.000000   0.000000   0.000000   0.000000
     3  C    0.000011   0.000000   5.110129   0.333594   0.335914  -0.055207
     4  C    0.000094   0.000000   0.333594   5.130426  -0.054214   0.327205
     5  C    0.000000   0.000000   0.335914  -0.054214   5.114717  -0.005571
     6  C    0.000601   0.000000  -0.055207   0.327205  -0.005571   5.162233
     7  C   -0.000073  -0.000001  -0.056334  -0.005446   0.330911  -0.056948
     8  C   -0.000969   0.000008  -0.002996  -0.048570  -0.050287   0.334049
     9  C   -0.030722   0.000000   0.000000  -0.000001   0.000000   0.000078
    10  C   -0.024034   0.000000   0.000000  -0.000001   0.000000   0.000164
    11  C   -0.004477   0.282705   0.000000   0.000000  -0.000001  -0.000003
    12  C   -0.039207   0.000420  -0.000076  -0.001370  -0.002354  -0.056721
    13  C    0.324108   0.000654   0.000002  -0.000025  -0.000016  -0.002043
    14  N    0.291816  -0.000002  -0.000001   0.000026   0.000000  -0.002490
    15  N   -0.054062  -0.032094   0.000000  -0.000006   0.000000   0.000003
    16  O   -0.000002   0.557123   0.000000   0.000000   0.000000   0.000000
    17  O    0.542530   0.000143   0.000037  -0.001718  -0.000005   0.000946
    18  O   -0.000051   0.430814   0.000000   0.000000   0.000000   0.000000
    19  H    0.000000   0.000000   0.394960  -0.044321  -0.044421  -0.002751
    20  H    0.000000   0.000000   0.403946  -0.037165  -0.036546   0.004312
    21  H    0.000374   0.000000  -0.038935   0.396171  -0.002472  -0.039127
    22  H    0.000003   0.000000  -0.037180   0.402881   0.004235  -0.038973
    23  H    0.000000   0.000000  -0.037013   0.004244   0.404296  -0.000333
    24  H   -0.000008   0.000001  -0.042235  -0.002680   0.398397   0.000758
    25  H   -0.001856   0.000000   0.004194  -0.038180  -0.000339   0.395469
    26  H    0.000060   0.000000  -0.002515  -0.041968   0.000211   0.400303
    27  H    0.000001   0.000000  -0.002791   0.000178  -0.042228  -0.002382
    28  H   -0.000002  -0.000002   0.004087  -0.000323  -0.035634   0.004239
    29  H    0.000355   0.000001  -0.000395   0.004388   0.004278  -0.044566
    30  H    0.001561   0.000000   0.000000  -0.000004   0.000000   0.000054
    31  H   -0.004296   0.000000   0.000000   0.000006   0.000000   0.000003
    32  H    0.001005   0.000000   0.000000   0.000000   0.000000  -0.000002
    33  H    0.000849   0.000000   0.000000   0.000000   0.000000  -0.000004
    34  H   -0.002723   0.000000   0.000000   0.000000   0.000000  -0.000002
    35  H    0.000569   0.000000   0.000000  -0.000002   0.000000   0.000238
    36  H   -0.002945  -0.015735   0.000000  -0.000005  -0.000001   0.000005
    37  H    0.000242  -0.018180   0.000000   0.000000   0.000000   0.000000
    38  H    0.003879  -0.000144   0.000011  -0.000113   0.000121   0.003318
    39  H   -0.004252  -0.000118  -0.000135   0.001616   0.001089  -0.002786
    40  H   -0.038807  -0.000154  -0.000001   0.000031   0.000001   0.000277
    41  H    0.001104  -0.011377   0.000000   0.000000   0.000000  -0.000003
    42  H   -0.002573   0.001707   0.000000   0.000000   0.000000   0.000004
              7          8          9         10         11         12
     1  C   -0.000073  -0.000969  -0.030722  -0.024034  -0.004477  -0.039207
     2  C   -0.000001   0.000008   0.000000   0.000000   0.282705   0.000420
     3  C   -0.056334  -0.002996   0.000000   0.000000   0.000000  -0.000076
     4  C   -0.005446  -0.048570  -0.000001  -0.000001   0.000000  -0.001370
     5  C    0.330911  -0.050287   0.000000   0.000000  -0.000001  -0.002354
     6  C   -0.056948   0.334049   0.000078   0.000164  -0.000003  -0.056721
     7  C    5.126715   0.353374   0.000000   0.000000   0.000001  -0.060336
     8  C    0.353374   5.119160  -0.000007  -0.000005   0.000052   0.313911
     9  C    0.000000  -0.000007   4.992082  -0.049168   0.000007  -0.000058
    10  C    0.000000  -0.000005  -0.049168   4.958565  -0.000014   0.000369
    11  C    0.000001   0.000052   0.000007  -0.000014   5.520516  -0.007289
    12  C   -0.060336   0.313911  -0.000058   0.000369  -0.007289   5.268852
    13  C    0.003986  -0.039904   0.003479  -0.004511  -0.013834   0.307972
    14  N   -0.000001   0.000214   0.203827   0.216463  -0.000308   0.000962
    15  N   -0.000054   0.002379  -0.000133   0.000098   0.044203  -0.050208
    16  O    0.000000   0.000000   0.000000   0.000000  -0.099039  -0.000009
    17  O    0.000007  -0.000389  -0.007017   0.001589  -0.002420  -0.002690
    18  O    0.000000   0.000080   0.000000   0.000000  -0.131858  -0.003024
    19  H   -0.002569   0.000167   0.000000   0.000000   0.000000   0.000063
    20  H    0.004266  -0.000315   0.000000   0.000000   0.000000  -0.000021
    21  H    0.000619  -0.003698   0.000016  -0.000002  -0.000003   0.001099
    22  H   -0.000327   0.004128   0.000002   0.000000   0.000000  -0.000068
    23  H   -0.037362   0.004309   0.000000   0.000000   0.000000  -0.000058
    24  H   -0.040864  -0.004384   0.000000   0.000000   0.000000   0.001748
    25  H    0.004260  -0.040124  -0.000257  -0.000402   0.000001  -0.005725
    26  H   -0.002749  -0.042344   0.000000  -0.000002   0.000000   0.005057
    27  H    0.400093  -0.044549   0.000000   0.000000   0.000000   0.005370
    28  H    0.402396  -0.038898   0.000000   0.000000   0.000000  -0.004581
    29  H   -0.039127   0.415209   0.000001   0.000012  -0.000009  -0.051976
    30  H    0.000000  -0.000002   0.398702  -0.001883   0.000000   0.000009
    31  H    0.000000  -0.000001   0.394557   0.002930   0.000001  -0.000006
    32  H    0.000000   0.000000   0.399810  -0.002741   0.000001  -0.000002
    33  H    0.000000   0.000001  -0.002577   0.401052   0.000005  -0.000015
    34  H    0.000000  -0.000022   0.003426   0.397302  -0.000011   0.000280
    35  H    0.000000  -0.000025  -0.000913   0.400108  -0.000001   0.000049
    36  H    0.000002  -0.000025   0.000002  -0.000007   0.384227  -0.002024
    37  H    0.000000   0.000001  -0.000001   0.000001   0.385341   0.000127
    38  H   -0.003655  -0.031989   0.000001  -0.000002  -0.000733   0.393893
    39  H   -0.002368  -0.025605  -0.000004  -0.000017   0.000273   0.390219
    40  H   -0.000055  -0.000767  -0.000105  -0.004950   0.002546  -0.038282
    41  H   -0.000011   0.000064   0.000001   0.000006  -0.045358  -0.000975
    42  H    0.000002  -0.000092  -0.000034   0.000279  -0.016548   0.003839
             13         14         15         16         17         18
     1  C    0.324108   0.291816  -0.054062  -0.000002   0.542530  -0.000051
     2  C    0.000654  -0.000002  -0.032094   0.557123   0.000143   0.430814
     3  C    0.000002  -0.000001   0.000000   0.000000   0.000037   0.000000
     4  C   -0.000025   0.000026  -0.000006   0.000000  -0.001718   0.000000
     5  C   -0.000016   0.000000   0.000000   0.000000  -0.000005   0.000000
     6  C   -0.002043  -0.002490   0.000003   0.000000   0.000946   0.000000
     7  C    0.003986  -0.000001  -0.000054   0.000000   0.000007   0.000000
     8  C   -0.039904   0.000214   0.002379   0.000000  -0.000389   0.000080
     9  C    0.003479   0.203827  -0.000133   0.000000  -0.007017   0.000000
    10  C   -0.004511   0.216463   0.000098   0.000000   0.001589   0.000000
    11  C   -0.013834  -0.000308   0.044203  -0.099039  -0.002420  -0.131858
    12  C    0.307972   0.000962  -0.050208  -0.000009  -0.002690  -0.003024
    13  C    5.221999  -0.090984   0.180543   0.000014  -0.079854  -0.001052
    14  N   -0.090984   7.385333   0.001711   0.000000  -0.090148   0.000000
    15  N    0.180543   0.001711   7.375309   0.001535   0.000407  -0.055169
    16  O    0.000014   0.000000   0.001535   8.280477   0.000000  -0.071067
    17  O   -0.079854  -0.090148   0.000407   0.000000   8.237320   0.000000
    18  O   -0.001052   0.000000  -0.055169  -0.071067   0.000000   8.472921
    19  H    0.000001   0.000000   0.000000   0.000000   0.000000   0.000000
    20  H    0.000000   0.000000   0.000000   0.000000   0.000000   0.000000
    21  H   -0.000211  -0.000110   0.000002   0.000000   0.004754   0.000000
    22  H   -0.000009  -0.000001   0.000000   0.000000   0.000020   0.000000
    23  H    0.000001   0.000000   0.000000   0.000000   0.000000   0.000000
    24  H    0.000058   0.000000  -0.000001   0.000000  -0.000011   0.000000
    25  H    0.002231   0.002781   0.000054   0.000000  -0.001131   0.000000
    26  H   -0.000148   0.000018   0.000001   0.000000   0.000005   0.000000
    27  H   -0.000084   0.000000   0.000001   0.000000   0.000000   0.000000
    28  H   -0.000079   0.000000  -0.000003   0.000000   0.000000  -0.000014
    29  H   -0.005691  -0.000013  -0.000106   0.000000  -0.000018   0.000002
    30  H   -0.000071  -0.047333  -0.000001   0.000000   0.000453   0.000000
    31  H    0.000501  -0.028634  -0.000010   0.000000   0.010044   0.000000
    32  H   -0.000093  -0.046450   0.000015   0.000000   0.000428   0.000000
    33  H   -0.000102  -0.046165   0.000041   0.000000  -0.000014   0.000000
    34  H   -0.002241  -0.034845   0.000141   0.000000   0.000013   0.000000
    35  H   -0.000183  -0.049144  -0.000016   0.000000  -0.000009   0.000000
    36  H    0.002742   0.000117  -0.033706   0.001504   0.007636   0.000836
    37  H    0.000494  -0.000024  -0.032678   0.001902  -0.000095   0.001707
    38  H   -0.049367  -0.000051  -0.001074  -0.000207   0.000163   0.012065
    39  H   -0.038504   0.000353  -0.000064   0.000000   0.005881  -0.000001
    40  H    0.407120   0.004250  -0.042879   0.000000   0.002289  -0.000024
    41  H   -0.011763  -0.000104   0.198902   0.002100  -0.000109   0.106306
    42  H   -0.024422   0.001678   0.311160  -0.000027  -0.000095   0.000888
             19         20         21         22         23         24
     1  C    0.000000   0.000000   0.000374   0.000003   0.000000  -0.000008
     2  C    0.000000   0.000000   0.000000   0.000000   0.000000   0.000001
     3  C    0.394960   0.403946  -0.038935  -0.037180  -0.037013  -0.042235
     4  C   -0.044321  -0.037165   0.396171   0.402881   0.004244  -0.002680
     5  C   -0.044421  -0.036546  -0.002472   0.004235   0.404296   0.398397
     6  C   -0.002751   0.004312  -0.039127  -0.038973  -0.000333   0.000758
     7  C   -0.002569   0.004266   0.000619  -0.000327  -0.037362  -0.040864
     8  C    0.000167  -0.000315  -0.003698   0.004128   0.004309  -0.004384
     9  C    0.000000   0.000000   0.000016   0.000002   0.000000   0.000000
    10  C    0.000000   0.000000  -0.000002   0.000000   0.000000   0.000000
    11  C    0.000000   0.000000  -0.000003   0.000000   0.000000   0.000000
    12  C    0.000063  -0.000021   0.001099  -0.000068  -0.000058   0.001748
    13  C    0.000001   0.000000  -0.000211  -0.000009   0.000001   0.000058
    14  N    0.000000   0.000000  -0.000110  -0.000001   0.000000   0.000000
    15  N    0.000000   0.000000   0.000002   0.000000   0.000000  -0.000001
    16  O    0.000000   0.000000   0.000000   0.000000   0.000000   0.000000
    17  O    0.000000   0.000000   0.004754   0.000020   0.000000  -0.000011
    18  O    0.000000   0.000000   0.000000   0.000000   0.000000   0.000000
    19  H    0.570676  -0.028337   0.004206  -0.003339  -0.003303   0.004492
    20  H   -0.028337   0.531330  -0.002910  -0.002123  -0.002080  -0.003050
    21  H    0.004206  -0.002910   0.517655  -0.026507  -0.000076   0.002060
    22  H   -0.003339  -0.002123  -0.026507   0.541830  -0.000085  -0.000078
    23  H   -0.003303  -0.002080  -0.000076  -0.000085   0.530246  -0.027496
    24  H    0.004492  -0.003050   0.002060  -0.000078  -0.027496   0.544779
    25  H   -0.000098  -0.000085  -0.002870  -0.002667   0.000011  -0.000040
    26  H    0.002963  -0.000078   0.004072  -0.003142  -0.000049   0.000064
    27  H    0.002940  -0.000077   0.000065  -0.000043  -0.003303   0.004181
    28  H   -0.000088  -0.000078  -0.000035   0.000011  -0.002433  -0.002475
    29  H   -0.000075   0.000011  -0.000131  -0.000080  -0.000073  -0.000122
    30  H    0.000000   0.000000   0.000004   0.000001   0.000000   0.000000
    31  H    0.000000   0.000000   0.000022   0.000000   0.000000   0.000000
    32  H    0.000000   0.000000   0.000000   0.000000   0.000000   0.000000
    33  H    0.000000   0.000000   0.000000   0.000000   0.000000   0.000000
    34  H    0.000000   0.000000   0.000000   0.000000   0.000000   0.000000
    35  H    0.000000   0.000000   0.000002   0.000000   0.000000   0.000000
    36  H    0.000000   0.000000   0.000007   0.000000   0.000000  -0.000004
    37  H    0.000000   0.000000   0.000000   0.000000   0.000000   0.000000
    38  H    0.000001   0.000000   0.000057   0.000002  -0.000034   0.000335
    39  H   -0.000015   0.000002  -0.000849  -0.000003   0.000009  -0.000504
    40  H    0.000000   0.000000  -0.000024   0.000001   0.000000  -0.000002
    41  H    0.000000   0.000000   0.000000   0.000000   0.000000   0.000000
    42  H    0.000000   0.000000   0.000000   0.000000   0.000000   0.000000
             25         26         27         28         29         30
     1  C   -0.001856   0.000060   0.000001  -0.000002   0.000355   0.001561
     2  C    0.000000   0.000000   0.000000  -0.000002   0.000001   0.000000
     3  C    0.004194  -0.002515  -0.002791   0.004087  -0.000395   0.000000
     4  C   -0.038180  -0.041968   0.000178  -0.000323   0.004388  -0.000004
     5  C   -0.000339   0.000211  -0.042228  -0.035634   0.004278   0.000000
     6  C    0.395469   0.400303  -0.002382   0.004239  -0.044566   0.000054
     7  C    0.004260  -0.002749   0.400093   0.402396  -0.039127   0.000000
     8  C   -0.040124  -0.042344  -0.044549  -0.038898   0.415209  -0.000002
     9  C   -0.000257   0.000000   0.000000   0.000000   0.000001   0.398702
    10  C   -0.000402  -0.000002   0.000000   0.000000   0.000012  -0.001883
    11  C    0.000001   0.000000   0.000000   0.000000  -0.000009   0.000000
    12  C   -0.005725   0.005057   0.005370  -0.004581  -0.051976   0.000009
    13  C    0.002231  -0.000148  -0.000084  -0.000079  -0.005691  -0.000071
    14  N    0.002781   0.000018   0.000000   0.000000  -0.000013  -0.047333
    15  N    0.000054   0.000001   0.000001  -0.000003  -0.000106  -0.000001
    16  O    0.000000   0.000000   0.000000   0.000000   0.000000   0.000000
    17  O   -0.001131   0.000005   0.000000   0.000000  -0.000018   0.000453
    18  O    0.000000   0.000000   0.000000  -0.000014   0.000002   0.000000
    19  H   -0.000098   0.002963   0.002940  -0.000088  -0.000075   0.000000
    20  H   -0.000085  -0.000078  -0.000077  -0.000078   0.000011   0.000000
    21  H   -0.002870   0.004072   0.000065  -0.000035  -0.000131   0.000004
    22  H   -0.002667  -0.003142  -0.000043   0.000011  -0.000080   0.000001
    23  H    0.000011  -0.000049  -0.003303  -0.002433  -0.000073   0.000000
    24  H   -0.000040   0.000064   0.004181  -0.002475  -0.000122   0.000000
    25  H    0.571048  -0.029219  -0.000102  -0.000089  -0.001364  -0.000046
    26  H   -0.029219   0.548666   0.002550  -0.000088  -0.004933  -0.000001
    27  H   -0.000102   0.002550   0.550713  -0.025872  -0.005103   0.000000
    28  H   -0.000089  -0.000088  -0.025872   0.518893  -0.001471   0.000000
    29  H   -0.001364  -0.004933  -0.005103  -0.001471   0.569178   0.000000
    30  H   -0.000046  -0.000001   0.000000   0.000000   0.000000   0.526346
    31  H   -0.000025   0.000000   0.000000   0.000000   0.000000  -0.019947
    32  H    0.000010   0.000000   0.000000   0.000000   0.000000  -0.037236
    33  H    0.000037   0.000000   0.000000   0.000000   0.000000  -0.001560
    34  H   -0.000054   0.000000   0.000000   0.000000  -0.000017   0.000013
    35  H   -0.000174  -0.000005   0.000000   0.000000   0.000000   0.003625
    36  H    0.000002   0.000000   0.000000   0.000000  -0.000001   0.000000
    37  H    0.000000   0.000000   0.000000   0.000000   0.000000   0.000000
    38  H   -0.000116  -0.000060   0.000077   0.002305  -0.001593   0.000000
    39  H    0.000291  -0.000072  -0.000078   0.000261   0.003447   0.000000
    40  H    0.000655  -0.000073  -0.000008   0.000017   0.003705  -0.000010
    41  H   -0.000001   0.000000   0.000000  -0.000005   0.000039   0.000000
    42  H    0.000001   0.000000   0.000000   0.000000  -0.000005   0.000002
             31         32         33         34         35         36
     1  C   -0.004296   0.001005   0.000849  -0.002723   0.000569  -0.002945
     2  C    0.000000   0.000000   0.000000   0.000000   0.000000  -0.015735
     3  C    0.000000   0.000000   0.000000   0.000000   0.000000   0.000000
     4  C    0.000006   0.000000   0.000000   0.000000  -0.000002  -0.000005
     5  C    0.000000   0.000000   0.000000   0.000000   0.000000  -0.000001
     6  C    0.000003  -0.000002  -0.000004  -0.000002   0.000238   0.000005
     7  C    0.000000   0.000000   0.000000   0.000000   0.000000   0.000002
     8  C   -0.000001   0.000000   0.000001  -0.000022  -0.000025  -0.000025
     9  C    0.394557   0.399810  -0.002577   0.003426  -0.000913   0.000002
    10  C    0.002930  -0.002741   0.401052   0.397302   0.400108  -0.000007
    11  C    0.000001   0.000001   0.000005  -0.000011  -0.000001   0.384227
    12  C   -0.000006  -0.000002  -0.000015   0.000280   0.000049  -0.002024
    13  C    0.000501  -0.000093  -0.000102  -0.002241  -0.000183   0.002742
    14  N   -0.028634  -0.046450  -0.046165  -0.034845  -0.049144   0.000117
    15  N   -0.000010   0.000015   0.000041   0.000141  -0.000016  -0.033706
    16  O    0.000000   0.000000   0.000000   0.000000   0.000000   0.001504
    17  O    0.010044   0.000428  -0.000014   0.000013  -0.000009   0.007636
    18  O    0.000000   0.000000   0.000000   0.000000   0.000000   0.000836
    19  H    0.000000   0.000000   0.000000   0.000000   0.000000   0.000000
    20  H    0.000000   0.000000   0.000000   0.000000   0.000000   0.000000
    21  H    0.000022   0.000000   0.000000   0.000000   0.000002   0.000007
    22  H    0.000000   0.000000   0.000000   0.000000   0.000000   0.000000
    23  H    0.000000   0.000000   0.000000   0.000000   0.000000   0.000000
    24  H    0.000000   0.000000   0.000000   0.000000   0.000000  -0.000004
    25  H   -0.000025   0.000010   0.000037  -0.000054  -0.000174   0.000002
    26  H    0.000000   0.000000   0.000000   0.000000  -0.000005   0.000000
    27  H    0.000000   0.000000   0.000000   0.000000   0.000000   0.000000
    28  H    0.000000   0.000000   0.000000   0.000000   0.000000   0.000000
    29  H    0.000000   0.000000   0.000000  -0.000017   0.000000  -0.000001
    30  H   -0.019947  -0.037236  -0.001560   0.000013   0.003625   0.000000
    31  H    0.415326  -0.020800   0.000004  -0.000087  -0.000046   0.000001
    32  H   -0.020800   0.525721   0.003842  -0.000049  -0.000650   0.000000
    33  H    0.000004   0.003842   0.512290  -0.025430  -0.036106   0.000001
    34  H   -0.000087  -0.000049  -0.025430   0.514202  -0.025879  -0.000001
    35  H   -0.000046  -0.000650  -0.036106  -0.025879   0.512365   0.000000
    36  H    0.000001   0.000000   0.000001  -0.000001   0.000000   0.396009
    37  H    0.000000   0.000000   0.000000   0.000000   0.000000  -0.016120
    38  H    0.000000   0.000000   0.000000   0.000002   0.000000  -0.000674
    39  H   -0.000003   0.000000   0.000000  -0.000007   0.000001   0.000797
    40  H   -0.000016   0.000000   0.000270  -0.002005  -0.000034   0.000129
    41  H    0.000000   0.000000  -0.000001   0.000004   0.000000   0.002339
    42  H   -0.000001  -0.000009  -0.000097   0.000497   0.000015   0.001247
             37         38         39         40         41         42
     1  C    0.000242   0.003879  -0.004252  -0.038807   0.001104  -0.002573
     2  C   -0.018180  -0.000144  -0.000118  -0.000154  -0.011377   0.001707
     3  C    0.000000   0.000011  -0.000135  -0.000001   0.000000   0.000000
     4  C    0.000000  -0.000113   0.001616   0.000031   0.000000   0.000000
     5  C    0.000000   0.000121   0.001089   0.000001   0.000000   0.000000
     6  C    0.000000   0.003318  -0.002786   0.000277  -0.000003   0.000004
     7  C    0.000000  -0.003655  -0.002368  -0.000055  -0.000011   0.000002
     8  C    0.000001  -0.031989  -0.025605  -0.000767   0.000064  -0.000092
     9  C   -0.000001   0.000001  -0.000004  -0.000105   0.000001  -0.000034
    10  C    0.000001  -0.000002  -0.000017  -0.004950   0.000006   0.000279
    11  C    0.385341  -0.000733   0.000273   0.002546  -0.045358  -0.016548
    12  C    0.000127   0.393893   0.390219  -0.038282  -0.000975   0.003839
    13  C    0.000494  -0.049367  -0.038504   0.407120  -0.011763  -0.024422
    14  N   -0.000024  -0.000051   0.000353   0.004250  -0.000104   0.001678
    15  N   -0.032678  -0.001074  -0.000064  -0.042879   0.198902   0.311160
    16  O    0.001902  -0.000207   0.000000   0.000000   0.002100  -0.000027
    17  O   -0.000095   0.000163   0.005881   0.002289  -0.000109  -0.000095
    18  O    0.001707   0.012065  -0.000001  -0.000024   0.106306   0.000888
    19  H    0.000000   0.000001  -0.000015   0.000000   0.000000   0.000000
    20  H    0.000000   0.000000   0.000002   0.000000   0.000000   0.000000
    21  H    0.000000   0.000057  -0.000849  -0.000024   0.000000   0.000000
    22  H    0.000000   0.000002  -0.000003   0.000001   0.000000   0.000000
    23  H    0.000000  -0.000034   0.000009   0.000000   0.000000   0.000000
    24  H    0.000000   0.000335  -0.000504  -0.000002   0.000000   0.000000
    25  H    0.000000  -0.000116   0.000291   0.000655  -0.000001   0.000001
    26  H    0.000000  -0.000060  -0.000072  -0.000073   0.000000   0.000000
    27  H    0.000000   0.000077  -0.000078  -0.000008   0.000000   0.000000
    28  H    0.000000   0.002305   0.000261   0.000017  -0.000005   0.000000
    29  H    0.000000  -0.001593   0.003447   0.003705   0.000039  -0.000005
    30  H    0.000000   0.000000   0.000000  -0.000010   0.000000   0.000002
    31  H    0.000000   0.000000  -0.000003  -0.000016   0.000000  -0.000001
    32  H    0.000000   0.000000   0.000000   0.000000   0.000000  -0.000009
    33  H    0.000000   0.000000   0.000000   0.000270  -0.000001  -0.000097
    34  H    0.000000   0.000002  -0.000007  -0.002005   0.000004   0.000497
    35  H    0.000000   0.000000   0.000001  -0.000034   0.000000   0.000015
    36  H   -0.016120  -0.000674   0.000797   0.000129   0.002339   0.001247
    37  H    0.459267   0.000064   0.000020  -0.000069   0.002238  -0.003976
    38  H    0.000064   0.460159  -0.020274  -0.000610   0.001404   0.000227
    39  H    0.000020  -0.020274   0.457872   0.003370  -0.000001  -0.000145
    40  H   -0.000069  -0.000610   0.003370   0.490016  -0.001912  -0.002794
    41  H    0.002238   0.001404  -0.000001  -0.001912   0.267594  -0.006208
    42  H   -0.003976   0.000227  -0.000145  -0.002794  -0.006208   0.317669
 Mulliken atomic charges:
              1
     1  C    0.810094
     2  C    0.796307
     3  C   -0.311072
     4  C   -0.324749
     5  C   -0.320081
     6  C   -0.324349
     7  C   -0.318355
     8  C   -0.171140
     9  C   -0.304993
    10  C   -0.291200
    11  C   -0.297975
    12  C   -0.367163
    13  C   -0.090716
    14  N   -0.672741
    15  N   -0.814241
    16  O   -0.674305
    17  O   -0.628943
    18  O   -0.763361
    19  H    0.148848
    20  H    0.168997
    21  H    0.186777
    22  H    0.161513
    23  H    0.170582
    24  H    0.167083
    25  H    0.143921
    26  H    0.163479
    27  H    0.160454
    28  H    0.179960
    29  H    0.156245
    30  H    0.177326
    31  H    0.250477
    32  H    0.177199
    33  H    0.193680
    34  H    0.177493
    35  H    0.196214
    36  H    0.273643
    37  H    0.219738
    38  H    0.232610
    39  H    0.230302
    40  H    0.218903
    41  H    0.495725
    42  H    0.417812
 Sum of Mulliken atomic charges =   0.00000
 Mulliken charges with hydrogens summed into heavy atoms:
              1
     1  C    0.810094
     2  C    0.796307
     3  C    0.006773
     4  C    0.023542
     5  C    0.017584
     6  C   -0.016949
     7  C    0.022058
     8  C   -0.014895
     9  C    0.300009
    10  C    0.276188
    11  C    0.195407
    12  C    0.095749
    13  C    0.128187
    14  N   -0.672741
    15  N    0.099296
    16  O   -0.674305
    17  O   -0.628943
    18  O   -0.763361
 Sum of Mulliken charges with hydrogens summed into heavy atoms =   0.00000
 DipInt: DoE/N= T F RetVal/Mat= T F Init=T NMatP=  1 IDeriv=0 Min/MaxMlt=  0  4
 Entering OneElI...
 OneElI was handed    33293311 working-precision words.
 Multipole integrals L=0 to 4 MinM= 0 MaxM= 0.
 Requested accuracy = 0.1000D-12
 PrsmSu:  NPrtUS=   1 ThrOK=F IAlg=1 NPAlg=1 LenDen=           0.
 Prism:   IPart=     0 DynPar=F LinDyn=F Incr=          60.
 PRISM was handed    32808167 working-precision words and  6094 shell-pairs
 IPart=  0 NShTot=        6094 NBatch=          82 AvBLen=        74.3
 PrSmSu:  NxtVal=             61.
 Electronic moments (au):
       -140.00000000         -2.47791993          4.59690244          1.78937071
      -2686.80798659      -2181.85907203       -570.35697518         25.94859184
          4.79557413          2.69122810       -379.41699359      -4184.66342569
        -24.19672565       -310.66744945       6655.23365332       1260.37036504
         87.75538416       -251.76794476        106.05235152       -348.37686866
    -103750.06505370     -79472.69636913      -5145.44791563       8747.14582167
       -513.57447075       -487.92545935       -340.50182913        267.13141552
       -256.90742179     -32524.84073718     -10138.50672628     -10034.91754162
      -4519.29746794        579.02086459         64.96370753
 Electronic spatial extent (au):  <R**2>=           5439.0240
 DipInt: DoE/N= F T RetVal/Mat= T F Init=T NMatP=  1 IDeriv=0 Min/MaxMlt=  0  4
 Nuclear    moments (au):
        140.00000000          0.00000000          0.00000000          0.00000000
       2585.43579280       2096.05372329        484.33753028          0.00000000
          0.00000000          0.00000000        262.10624210       4356.10704057
         38.47545755        211.86479671      -6482.81718199      -1230.09022214
        -98.36771783        280.35384129        -91.88578817        341.80113785
      93200.37901002      72167.15791439       3196.37550523      -7656.11327689
        742.24862757        962.00611728        289.04757526       -208.90567533
        280.34749999      28964.46466776       8081.57980571       8414.12590827
       4395.74385489       -470.27190105         53.48832639
 Total      moments (au):
          0.00000000         -2.47791993          4.59690244          1.78937071
       -101.37219379        -85.80534874        -86.01944490         25.94859184
          4.79557413          2.69122810       -117.31075149        171.44361488
         14.27873190        -98.80265274        172.41647134         30.28014291
        -10.61233367         28.58589654         14.16656336         -6.57573081
     -10549.68604368      -7305.53845474      -1949.07241040       1091.03254478
        228.67415682        474.08065794        -51.45425387         58.22574019
         23.44007819      -3560.37606942      -2056.92692056      -1620.79163335
       -123.55361305        108.74896354        118.45203393
 Traceless Quadrup. (au):
        -10.30653131          5.26031374          5.04621758         25.94859184
          4.79557413          2.69122810
 Charge=              0.0000 electrons
 Dipole moment (field-independent basis, Debye):
    X=             -6.2982    Y=             11.6842    Z=              4.5481  Tot=             14.0311
 Quadrupole moment (field-independent basis, Debye-Ang):
   XX=           -136.3491   YY=           -115.4111   ZZ=           -115.6991
   XY=             34.9017   XZ=              6.4502   YZ=              3.6198
 Traceless Quadrupole moment (field-independent basis, Debye-Ang):
   XX=            -13.8626   YY=              7.0753   ZZ=              6.7873
   XY=             34.9017   XZ=              6.4502   YZ=              3.6198
 Octapole moment (field-independent basis, Debye-Ang**2):
  XXX=            -83.4973  YYY=            122.0270  ZZZ=             10.1631  XYY=            -70.3239
  XXY=            122.7194  XXZ=             21.5522  XZZ=             -7.5534  YZZ=             20.3463
  YYZ=             10.0832  XYZ=             -4.6804
 Hexadecapole moment (field-independent basis, Debye-Ang**3):
 XXXX=          -3973.5174 YYYY=          -2751.6159 ZZZZ=           -734.1141 XXXY=            410.9351
 XXXZ=             86.1296 YYYX=            178.5615 YYYZ=            -19.3801 ZZZX=             21.9306
 ZZZY=              8.8287 XXYY=          -1341.0083 XXZZ=           -774.7373 YYZZ=           -610.4678
 XXYZ=            -46.5362 YYXZ=             40.9601 ZZXY=             44.6147
 N-N= 1.461345810998D+03 E-N=-4.886068089993D+03  KE= 8.377508033912D+02
 Entering OneElI...
 OneElI was handed    33089695 working-precision words.
 Calculate electrostatic properties
    NBasis =   318  MinDer = 0  MaxDer = 0
    NGrid  =    42  NMatD  =   1
 Requested accuracy = 0.1000D-12
 PrsmSu:  NPrtUS=   2 ThrOK=T IAlg=1 NPAlg=1 LenDen=           0.
 Prism:   IPart=     0 DynPar=F LinDyn=F Incr=         512.
 PRISM was handed    16252893 working-precision words and  5492 shell-pairs
 PRISM was handed    16252893 working-precision words and  5492 shell-pairs
 IPart=  1 NShTot=      114912 NBatch=        2736 AvBLen=        42.0
 IPart=  0 NShTot=      115752 NBatch=        2756 AvBLen=        42.0
 PrSmSu:  NxtVal=           1025.
 --------------------------------------------------------
       Center         ----      EFG at Nuclei      ----
                      3XX-RR        3YY-RR        3ZZ-RR
 --------------------------------------------------------
     1   Atom       -0.489934      0.157809      0.332126
     2   Atom       -0.338807      0.052268      0.286538
     3   Atom       -0.009581     -0.006366      0.015947
     4   Atom        0.019926     -0.000639     -0.019287
     5   Atom        0.006159      0.005516     -0.011676
     6   Atom       -0.004364     -0.021876      0.026240
     7   Atom        0.017602     -0.028963      0.011361
     8   Atom       -0.038442      0.043676     -0.005234
     9   Atom        0.090134     -0.079987     -0.010146
    10   Atom        0.145219      0.079741     -0.224960
    11   Atom        0.107427      0.133157     -0.240584
    12   Atom        0.001796     -0.111275      0.109479
    13   Atom       -0.333461      0.178087      0.155374
    14   Atom        0.919976     -0.457096     -0.462880
    15   Atom       -0.225761      0.043071      0.182690
    16   Atom       -0.535392      0.467264      0.068128
    17   Atom       -0.595071      1.404327     -0.809256
    18   Atom        0.171951      0.840209     -1.012159
    19   Atom       -0.152209      0.140791      0.011418
    20   Atom        0.115629      0.118374     -0.234003
    21   Atom       -0.099968      0.140811     -0.040843
    22   Atom       -0.059672     -0.050135      0.109807
    23   Atom        0.066261     -0.210087      0.143826
    24   Atom       -0.117530      0.143276     -0.025746
    25   Atom        0.074922     -0.226160      0.151238
    26   Atom       -0.121159      0.144538     -0.023378
    27   Atom       -0.115478      0.142072     -0.026593
    28   Atom       -0.046585     -0.053153      0.099738
    29   Atom        0.129162      0.124059     -0.253222
    30   Atom       -0.154484      0.048429      0.106055
    31   Atom        0.144390      0.063854     -0.208243
    32   Atom       -0.091790     -0.050185      0.141974
    33   Atom       -0.004517     -0.128117      0.132634
    34   Atom        0.097944     -0.061523     -0.036420
    35   Atom       -0.205170      0.116291      0.088880
    36   Atom       -0.078839      0.155192     -0.076353
    37   Atom       -0.085239     -0.011276      0.096514
    38   Atom        0.013617     -0.097540      0.083922
    39   Atom        0.136785      0.134326     -0.271111
    40   Atom        0.130075      0.104529     -0.234603
    41   Atom        0.083280     -0.011285     -0.071996
    42   Atom        0.032368     -0.178496      0.146129
 --------------------------------------------------------
                        XY            XZ            YZ
 --------------------------------------------------------
     1   Atom       -0.120250      0.112699     -0.009967
     2   Atom       -0.259502     -0.205178      0.003864
     3   Atom       -0.004116     -0.001278      0.002645
     4   Atom       -0.004226     -0.031702     -0.006200
     5   Atom        0.005903     -0.015500     -0.009320
     6   Atom        0.003278     -0.000229      0.001176
     7   Atom       -0.024940      0.006799      0.004840
     8   Atom        0.001806      0.032304     -0.000796
     9   Atom        0.079509     -0.061026      0.259123
    10   Atom       -0.007153     -0.035875     -0.148616
    11   Atom        0.086005      0.282268     -0.286502
    12   Atom       -0.105513     -0.005061     -0.040643
    13   Atom        0.159368      0.049817      0.049036
    14   Atom        0.241324     -0.206509     -0.075390
    15   Atom       -0.060558      0.016553     -0.207224
    16   Atom       -0.135458      0.410410     -1.201539
    17   Atom       -0.365052      0.077271     -0.729439
    18   Atom       -0.483210      0.116267      0.288812
    19   Atom       -0.007418      0.199595      0.006210
    20   Atom       -0.027235     -0.112018     -0.094882
    21   Atom       -0.021011      0.208266      0.016370
    22   Atom        0.199958     -0.089670      0.081401
    23   Atom       -0.168977      0.002078      0.012097
    24   Atom        0.023317      0.207521     -0.018964
    25   Atom       -0.158278     -0.004284     -0.002167
    26   Atom        0.009478      0.208358     -0.005312
    27   Atom       -0.012429      0.211022      0.005608
    28   Atom        0.189838     -0.096585      0.094307
    29   Atom       -0.016438     -0.059921     -0.091366
    30   Atom        0.177043      0.102376     -0.046865
    31   Atom       -0.024369     -0.058486     -0.158654
    32   Atom       -0.215255      0.013300      0.027617
    33   Atom       -0.211865      0.001077     -0.000551
    34   Atom        0.120827     -0.111924      0.186039
    35   Atom        0.110572      0.123741     -0.044325
    36   Atom       -0.016369     -0.207319     -0.028039
    37   Atom       -0.197917      0.112925      0.071732
    38   Atom        0.155379     -0.088931      0.123522
    39   Atom       -0.013318     -0.030038     -0.073947
    40   Atom        0.023273      0.058477     -0.129525
    41   Atom        0.025202     -0.034877      0.145017
    42   Atom       -0.217911     -0.068283     -0.124109
 --------------------------------------------------------


 ---------------------------------------------------------------------------------
              Nuclear Quadrupole in Principal Axis System
 ---------------------------------------------------------------------------------

       Atom             a.u.   MegaHertz   Gauss  10(-4) cm-1        Axes

              Baa    -0.5255   -70.511   -25.160   -23.520  0.9773  0.1701 -0.1265
     1 C(13)  Bbb     0.1744    23.398     8.349     7.805 -0.1481  0.9747  0.1673
              Bcc     0.3511    47.113    16.811    15.715  0.1517 -0.1448  0.9778
 
              Baa    -0.5104   -68.491   -24.439   -22.846  0.8852  0.4067  0.2259
     2 C(13)  Bbb     0.1374    18.433     6.577     6.149 -0.2885  0.8608 -0.4192
              Bcc     0.3730    50.058    17.862    16.698 -0.3650  0.3058  0.8794
 
              Baa    -0.0124    -1.664    -0.594    -0.555  0.8227  0.5682 -0.0159
     3 C(13)  Bbb    -0.0040    -0.534    -0.190    -0.178 -0.5643  0.8129 -0.1441
              Bcc     0.0164     2.198     0.784     0.733 -0.0689  0.1276  0.9894
 
              Baa    -0.0384    -5.157    -1.840    -1.720  0.4791  0.1940  0.8561
     4 C(13)  Bbb     0.0008     0.111     0.040     0.037 -0.0788  0.9808 -0.1782
              Bcc     0.0376     5.046     1.801     1.683  0.8742 -0.0179 -0.4852
 
              Baa    -0.0217    -2.912    -1.039    -0.971  0.4428  0.2030  0.8733
     5 C(13)  Bbb     0.0003     0.042     0.015     0.014 -0.5671  0.8178  0.0975
              Bcc     0.0214     2.870     1.024     0.957  0.6944  0.5385 -0.4773
 
              Baa    -0.0225    -3.019    -1.077    -1.007 -0.1781  0.9837 -0.0246
     6 C(13)  Bbb    -0.0038    -0.506    -0.181    -0.169  0.9840  0.1782  0.0005
              Bcc     0.0263     3.525     1.258     1.176 -0.0049  0.0241  0.9997
 
              Baa    -0.0408    -5.473    -1.953    -1.826  0.4025  0.9052 -0.1365
     7 C(13)  Bbb     0.0113     1.514     0.540     0.505 -0.1677  0.2195  0.9611
              Bcc     0.0295     3.959     1.413     1.321  0.8999 -0.3640  0.2401
 
              Baa    -0.0582    -7.809    -2.787    -2.605  0.8534 -0.0192 -0.5208
     8 C(13)  Bbb     0.0145     1.943     0.693     0.648  0.5208 -0.0089  0.8537
              Bcc     0.0437     5.866     2.093     1.957  0.0210  0.9998 -0.0024
 
              Baa    -0.3303   -44.327   -15.817   -14.786 -0.2315  0.7342 -0.6383
     9 C(13)  Bbb     0.1136    15.238     5.437     5.083  0.9710  0.1344 -0.1976
              Bcc     0.2168    29.090    10.380     9.703  0.0593  0.6655  0.7440
 
              Baa    -0.2884   -38.703   -13.810   -12.910  0.0826  0.3744  0.9236
    10 C(13)  Bbb     0.1363    18.285     6.525     6.099 -0.4974  0.8186 -0.2874
              Bcc     0.1522    20.418     7.286     6.811  0.8636  0.4356 -0.2538
 
              Baa    -0.5282   -70.879   -25.291   -23.643 -0.4162  0.4065  0.8134
    11 C(13)  Bbb     0.2051    27.517     9.819     9.179  0.7602  0.6463  0.0660
              Bcc     0.3231    43.363    15.473    14.464 -0.4988  0.6458 -0.5780
 
              Baa    -0.1793   -24.064    -8.587    -8.027  0.5018  0.8553  0.1292
    12 C(13)  Bbb     0.0600     8.056     2.875     2.687  0.8448 -0.4526 -0.2855
              Bcc     0.1193    16.008     5.712     5.340  0.1857 -0.2524  0.9496
 
              Baa    -0.3813   -51.164   -18.257   -17.066  0.9612 -0.2682 -0.0647
    13 C(13)  Bbb     0.1215    16.305     5.818     5.439 -0.0838 -0.5073  0.8577
              Bcc     0.2598    34.859    12.439    11.628  0.2628  0.8190  0.5101
 
              Baa    -0.5359   -20.667    -7.375    -6.894 -0.0234  0.7277  0.6855
    14 N(14)  Bbb    -0.4573   -17.637    -6.293    -5.883  0.2234 -0.6645  0.7131
              Bcc     0.9932    38.305    13.668    12.777  0.9745  0.1698 -0.1470
 
              Baa    -0.2414    -9.311    -3.323    -3.106  0.9569  0.2740  0.0965
    15 N(14)  Bbb    -0.0944    -3.640    -1.299    -1.214 -0.2771  0.7614  0.5860
              Bcc     0.3358    12.951     4.621     4.320  0.0871 -0.5875  0.8045
 
              Baa    -1.0586    76.596    27.331    25.550 -0.4319  0.5340  0.7268
    16 O(17)  Bbb    -0.4929    35.668    12.727    11.897  0.8847  0.4078  0.2261
              Bcc     1.5515  -112.264   -40.058   -37.447 -0.1756  0.7407 -0.6485
 
              Baa    -1.0305    74.566    26.607    24.872  0.0802  0.2971  0.9515
    17 O(17)  Bbb    -0.6533    47.271    16.867    15.768  0.9837  0.1307 -0.1237
              Bcc     1.6838  -121.836   -43.474   -40.640 -0.1611  0.9459 -0.2817
 
              Baa    -1.0867    78.636    28.059    26.230 -0.1608 -0.1856  0.9694
    18 O(17)  Bbb    -0.0264     1.911     0.682     0.637  0.8809  0.4159  0.2258
              Bcc     1.1132   -80.547   -28.741   -26.868 -0.4451  0.8902  0.0966
 
              Baa    -0.2863  -152.769   -54.512   -50.958  0.8302  0.0225 -0.5570
    19 H(1)   Bbb     0.1408    75.112    26.802    25.055 -0.1408  0.9753 -0.1704
              Bcc     0.1455    77.657    27.710    25.904  0.5394  0.2199  0.8128
 
              Baa    -0.2906  -155.070   -55.333   -51.726  0.2730  0.2346  0.9330
    20 H(1)   Bbb     0.1422    75.847    27.064    25.300 -0.1447  0.9688 -0.2013
              Bcc     0.1485    79.223    28.269    26.426  0.9511  0.0800 -0.2984
 
              Baa    -0.2824  -150.691   -53.770   -50.265  0.7538  0.0627 -0.6541
    21 H(1)   Bbb     0.1393    74.335    26.525    24.795  0.5794  0.4061  0.7067
              Bcc     0.1431    76.357    27.246    25.470 -0.3099  0.9117 -0.2698
 
              Baa    -0.2914  -155.492   -55.484   -51.867  0.6870 -0.6668  0.2888
    22 H(1)   Bbb     0.1415    75.474    26.931    25.175  0.3907  0.6741  0.6269
              Bcc     0.1500    80.019    28.553    26.691 -0.6127 -0.3179  0.7236
 
              Baa    -0.2905  -155.004   -55.309   -51.704  0.4280  0.9034 -0.0272
    23 H(1)   Bbb     0.1418    75.643    26.991    25.232  0.5371 -0.2300  0.8115
              Bcc     0.1487    79.361    28.318    26.472  0.7269 -0.3620 -0.5837
 
              Baa    -0.2863  -152.743   -54.502   -50.950  0.7778 -0.0698 -0.6246
    24 H(1)   Bbb     0.1409    75.172    26.823    25.075  0.6279  0.0415  0.7772
              Bcc     0.1454    77.571    27.679    25.875  0.0283  0.9967 -0.0761
 
              Baa    -0.2941  -156.910   -55.989   -52.340  0.3943  0.9190  0.0083
    25 H(1)   Bbb     0.1418    75.665    26.999    25.239  0.8727 -0.3772  0.3099
              Bcc     0.1523    81.246    28.990    27.101 -0.2879  0.1150  0.9507
 
              Baa    -0.2866  -152.891   -54.555   -50.999  0.7835 -0.0249 -0.6208
    26 H(1)   Bbb     0.1410    75.217    26.839    25.090  0.5584 -0.4101  0.7211
              Bcc     0.1456    77.675    27.716    25.909  0.2725  0.9117  0.3074
 
              Baa    -0.2871  -153.179   -54.658   -51.095  0.7763  0.0307 -0.6296
    27 H(1)   Bbb     0.1399    74.650    26.637    24.900  0.3550  0.8040  0.4770
              Bcc     0.1472    78.529    28.021    26.194  0.5208 -0.5938  0.6133
 
              Baa    -0.2869  -153.051   -54.613   -51.052 -0.6633  0.6718 -0.3296
    28 H(1)   Bbb     0.1391    74.223    26.485    24.758  0.6000  0.7407  0.3022
              Bcc     0.1477    78.829    28.128    26.294 -0.4472 -0.0027  0.8944
 
              Baa    -0.2835  -151.274   -53.978   -50.460  0.1488  0.2220  0.9636
    29 H(1)   Bbb     0.1376    73.414    26.196    24.488  0.9336  0.2898 -0.2109
              Bcc     0.1459    77.860    27.782    25.971 -0.3261  0.9310 -0.1641
 
              Baa    -0.2889  -154.146   -55.003   -51.417  0.8357 -0.4765 -0.2731
    30 H(1)   Bbb     0.1322    70.515    25.162    23.521 -0.0316 -0.5381  0.8423
              Bcc     0.1567    83.631    29.841    27.896  0.5484  0.6952  0.4647
 
              Baa    -0.2904  -154.951   -55.290   -51.686  0.1441  0.4127  0.8994
    31 H(1)   Bbb     0.1365    72.831    25.988    24.294 -0.1300  0.9089 -0.3962
              Bcc     0.1539    82.120    29.302    27.392  0.9810  0.0598 -0.1846
 
              Baa    -0.2891  -154.260   -55.044   -51.456  0.7376  0.6721 -0.0658
    32 H(1)   Bbb     0.1331    70.993    25.332    23.681  0.4968 -0.4740  0.7270
              Bcc     0.1561    83.267    29.712    27.775 -0.4574  0.5689  0.6834
 
              Baa    -0.2870  -153.136   -54.643   -51.081  0.6000  0.8000 -0.0005
[...]
  816 Fit      -0.019971
  817 Fit      -0.014214
  818 Fit      -0.012079
  819 Fit      -0.018686
  820 Fit      -0.022488
  821 Fit      -0.023373
  822 Fit      -0.021375
  823 Fit      -0.030880
  824 Fit      -0.040579
  825 Fit      -0.015557
  826 Fit      -0.019006
  827 Fit      -0.041809
  828 Fit      -0.049971
  829 Fit      -0.047747
  830 Fit      -0.024858
  831 Fit      -0.043825
  832 Fit      -0.057857
  833 Fit      -0.063477
  834 Fit      -0.060322
  835 Fit      -0.053152
  836 Fit      -0.028528
  837 Fit      -0.048800
  838 Fit      -0.064363
  839 Fit      -0.073271
  840 Fit      -0.075239
  841 Fit      -0.068733
  842 Fit      -0.052272
  843 Fit      -0.072482
  844 Fit      -0.087590
  845 Fit       0.011320
  846 Fit       0.011919
  847 Fit       0.009765
  848 Fit       0.008145
  849 Fit       0.006867
  850 Fit       0.008639
  851 Fit       0.007062
  852 Fit       0.005666
  853 Fit       0.004381
  854 Fit       0.003983
  855 Fit       0.004246
  856 Fit       0.002796
  857 Fit       0.001875
  858 Fit       0.001614
  859 Fit       0.001578
  860 Fit       0.004075
  861 Fit       0.003492
  862 Fit       0.002896
  863 Fit       0.002198
  864 Fit       0.000940
  865 Fit      -0.000938
  866 Fit      -0.000371
  867 Fit       0.000764
  868 Fit       0.002956
  869 Fit       0.003302
  870 Fit       0.002273
  871 Fit       0.000418
  872 Fit       0.001925
  873 Fit      -0.014606
  874 Fit      -0.012342
  875 Fit      -0.002775
  876 Fit      -0.004693
  877 Fit      -0.004831
  878 Fit       0.016932
  879 Fit       0.014116
  880 Fit       0.011800
  881 Fit       0.015619
  882 Fit       0.014092
  883 Fit       0.012127
  884 Fit       0.009929
  885 Fit       0.007342
  886 Fit       0.007126
  887 Fit       0.010310
  888 Fit       0.009978
  889 Fit       0.008278
  890 Fit       0.005763
  891 Fit       0.001656
  892 Fit       0.005840
  893 Fit       0.005012
  894 Fit       0.003524
  895 Fit       0.005151
  896 Fit       0.003625
  897 Fit       0.001328
  898 Fit      -0.001622
  899 Fit       0.003845
  900 Fit       0.003209
  901 Fit       0.001479
  902 Fit      -0.001599
  903 Fit      -0.005516
  904 Fit       0.002199
  905 Fit       0.001383
  906 Fit      -0.001102
  907 Fit      -0.005068
  908 Fit      -0.000907
  909 Fit      -0.012521
  910 Fit      -0.015385
  911 Fit      -0.008229
  912 Fit      -0.009945
  913 Fit      -0.012718
  914 Fit      -0.006204
  915 Fit      -0.002200
  916 Fit      -0.003569
  917 Fit      -0.006879
  918 Fit      -0.003009
  919 Fit       0.028827
  920 Fit       0.024334
  921 Fit       0.029287
  922 Fit       0.020028
  923 Fit       0.018656
  924 Fit       0.019528
  925 Fit       0.023931
  926 Fit       0.019373
  927 Fit       0.016992
  928 Fit       0.016873
  929 Fit       0.021231
  930 Fit       0.017600
  931 Fit       0.015822
  932 Fit       0.014949
  933 Fit       0.017946
  934 Fit       0.015359
  935 Fit       0.013981
  936 Fit       0.013487
  937 Fit       0.010165
  938 Fit       0.014469
  939 Fit       0.011013
  940 Fit       0.007180
  941 Fit       0.005033
  942 Fit       0.012817
  943 Fit       0.009752
  944 Fit       0.006598
  945 Fit       0.003309
  946 Fit       0.009488
  947 Fit       0.006728
  948 Fit       0.004163
  949 Fit       0.005123
  950 Fit       0.002714
  951 Fit       0.001742
  952 Fit      -0.000281
  953 Fit      -0.001300
  954 Fit      -0.004884
  955 Fit      -0.009186
  956 Fit      -0.000908
  957 Fit      -0.005018
  958 Fit      -0.010940
  959 Fit      -0.018397
  960 Fit      -0.009464
  961 Fit      -0.015227
  962 Fit       0.020971
  963 Fit       0.025535
  964 Fit       0.031766
  965 Fit       0.025177
  966 Fit       0.018598
  967 Fit       0.014494
  968 Fit       0.015509
  969 Fit       0.035235
  970 Fit       0.024808
  971 Fit       0.016515
  972 Fit       0.032900
  973 Fit       0.031777
  974 Fit       0.031461
  975 Fit       0.031594
  976 Fit       0.029775
  977 Fit       0.028088
  978 Fit       0.027215
  979 Fit       0.026178
  980 Fit       0.024677
  981 Fit       0.022952
  982 Fit       0.026301
  983 Fit       0.024559
  984 Fit       0.022807
  985 Fit       0.020163
  986 Fit       0.008174
  987 Fit       0.016346
  988 Fit       0.008244
  989 Fit       0.005672
  990 Fit       0.014573
  991 Fit       0.015612
  992 Fit       0.009956
  993 Fit      -0.003444
  994 Fit      -0.009082
  995 Fit       0.007313
  996 Fit       0.038325
  997 Fit       0.035474
  998 Fit       0.034092
  999 Fit       0.031744
 1000 Fit       0.030382
 1001 Fit       0.029471
 1002 Fit       0.028784
 1003 Fit       0.029080
 1004 Fit       0.033666
 1005 Fit       0.023382
 1006 Fit       0.024655
 1007 Fit       0.025073
 1008 Fit       0.025452
 1009 Fit       0.018462
 1010 Fit       0.021456
 1011 Fit       0.038430
 1012 Fit       0.043571
 1013 Fit       0.038228
 1014 Fit       0.036385
 1015 Fit       0.036197
 1016 Fit       0.044826
 1017 Fit       0.038874
 1018 Fit       0.036912
 1019 Fit       0.036273
 1020 Fit       0.036736
 1021 Fit       0.043942
 1022 Fit       0.039902
 1023 Fit       0.039283
 1024 Fit       0.042824
 1025 Fit       0.045560
 1026 Fit       0.042861
 1027 Fit       0.042400
 1028 Fit       0.046364
 1029 Fit       0.048637
 1030 Fit       0.052937
 1031 Fit       0.061177
 1032 Fit       0.039102
 1033 Fit       0.035566
 1034 Fit       0.035230
 1035 Fit       0.039353
 1036 Fit       0.035736
 1037 Fit       0.034263
 1038 Fit       0.033719
 1039 Fit       0.033872
 1040 Fit       0.037144
 1041 Fit       0.035973
 1042 Fit       0.034966
 1043 Fit       0.033865
 1044 Fit       0.032775
 1045 Fit      -0.010289
 1046 Fit      -0.010033
 1047 Fit      -0.018300
 1048 Fit      -0.032059
 1049 Fit      -0.016272
 1050 Fit       0.008224
 1051 Fit       0.029558
 1052 Fit      -0.002542
 1053 Fit       0.014968
 1054 Fit       0.027809
 1055 Fit       0.037875
 1056 Fit      -0.008253
 1057 Fit       0.008500
 1058 Fit       0.017352
 1059 Fit       0.018131
 1060 Fit      -0.010121
 1061 Fit       0.003775
 1062 Fit       0.000396
 1063 Fit      -0.008999
 1064 Fit       0.016071
 1065 Fit      -0.010755
 1066 Fit      -0.024608
 1067 Fit      -0.012577
 1068 Fit      -0.012499
 1069 Fit      -0.007536
 1070 Fit      -0.011893
 1071 Fit       0.045407
 1072 Fit       0.051145
 1073 Fit       0.039466
 1074 Fit       0.022081
 1075 Fit       0.006645
 1076 Fit       0.037316
 1077 Fit       0.000709
 1078 Fit       0.045937
 1079 Fit       0.058878
 1080 Fit       0.039422
 1081 Fit       0.050969
 1082 Fit       0.060570
 1083 Fit       0.038110
 1084 Fit       0.048221
 1085 Fit       0.055926
 1086 Fit       0.062731
 1087 Fit       0.053556
 1088 Fit       0.042262
 1089 Fit       0.019859
 1090 Fit      -0.042689
 1091 Fit      -0.018440
 1092 Fit      -0.044159
 1093 Fit      -0.020898
 1094 Fit      -0.027425
 1095 Fit      -0.046299
 1096 Fit      -0.033798
 1097 Fit       0.006512
 1098 Fit       0.002143
 1099 Fit       0.001917
 1100 Fit       0.003478
 1101 Fit       0.000625
 1102 Fit       0.001837
 1103 Fit      -0.001339
 1104 Fit      -0.007384
 1105 Fit      -0.009350
 1106 Fit      -0.007642
 1107 Fit      -0.003603
 1108 Fit       0.027160
 1109 Fit       0.021125
 1110 Fit       0.018096
 1111 Fit       0.009692
 1112 Fit       0.004611
 1113 Fit       0.001795
 1114 Fit       0.000697
 1115 Fit       0.033222
 1116 Fit       0.025203
 1117 Fit       0.017487
 1118 Fit       0.022513
 1119 Fit       0.021979
 1120 Fit       0.018357
 1121 Fit       0.013742
 1122 Fit       0.011286
 1123 Fit       0.019234
 1124 Fit       0.019460
 1125 Fit       0.018677
 1126 Fit       0.037804
 1127 Fit       0.036363
 1128 Fit       0.035230
 1129 Fit       0.036122
 1130 Fit       0.038015
 1131 Fit       0.035694
 1132 Fit       0.034375
 1133 Fit       0.040331
 1134 Fit       0.046904
 1135 Fit       0.034208
 1136 Fit       0.052233
 1137 Fit       0.034178
 1138 Fit       0.054457
 1139 Fit       0.035397
 1140 Fit      -0.022771
 1141 Fit      -0.008767
 1142 Fit      -0.020683
 1143 Fit       0.037965
 1144 Fit       0.038473
 1145 Fit       0.029714
 1146 Fit       0.047957
 1147 Fit       0.021619
 1148 Fit       0.015807
 1149 Fit       0.013640
 1150 Fit      -0.054141
 1151 Fit      -0.066757
 1152 Fit      -0.071394
 1153 Fit      -0.071960
 1154 Fit      -0.069309
 1155 Fit      -0.063573
 1156 Fit      -0.053660
 1157 Fit      -0.042765
 1158 Fit      -0.025837
 1159 Fit      -0.056694
 1160 Fit      -0.063771
 1161 Fit      -0.067035
 1162 Fit      -0.067372
 1163 Fit      -0.065249
 1164 Fit      -0.060794
 1165 Fit      -0.053995
 1166 Fit      -0.044589
 1167 Fit      -0.029918
 1168 Fit      -0.033343
 1169 Fit      -0.047575
 1170 Fit      -0.056961
 1171 Fit      -0.062179
 1172 Fit      -0.064060
 1173 Fit      -0.063203
 1174 Fit      -0.059905
 1175 Fit      -0.054006
 1176 Fit      -0.046181
 1177 Fit      -0.035280
 1178 Fit      -0.037400
 1179 Fit      -0.047800
 1180 Fit      -0.055465
 1181 Fit      -0.059643
 1182 Fit      -0.060581
 1183 Fit      -0.058676
 1184 Fit      -0.053172
 1185 Fit      -0.045213
 1186 Fit      -0.040748
 1187 Fit      -0.045989
 1188 Fit      -0.053779
 1189 Fit      -0.056627
 1190 Fit      -0.050826
 1191 Fit       0.005158
 1192 Fit      -0.011352
 1193 Fit      -0.006748
 1194 Fit      -0.010391
 1195 Fit      -0.014871
 1196 Fit      -0.017642
 1197 Fit      -0.016433
 1198 Fit      -0.011070
 1199 Fit      -0.009461
 1200 Fit      -0.014630
 1201 Fit      -0.018432
 1202 Fit      -0.019747
 1203 Fit      -0.016925
 1204 Fit      -0.023666
 1205 Fit      -0.031744
 1206 Fit      -0.011333
 1207 Fit      -0.013982
 1208 Fit      -0.032840
 1209 Fit      -0.039771
 1210 Fit      -0.038142
 1211 Fit      -0.020901
 1212 Fit      -0.024174
 1213 Fit      -0.039509
 1214 Fit      -0.048537
 1215 Fit      -0.051521
 1216 Fit      -0.048180
 1217 Fit      -0.043360
 1218 Fit      -0.024653
 1219 Fit       0.003195
 1220 Fit      -0.044407
 1221 Fit      -0.055058
 1222 Fit      -0.060646
 1223 Fit      -0.060959
 1224 Fit      -0.055318
 1225 Fit      -0.043546
 1226 Fit      -0.057557
 1227 Fit      -0.067331
 1228 Fit      -0.072808
 1229 Fit      -0.072520
 1230 Fit      -0.064997
 1231 Fit       0.011243
 1232 Fit       0.012448
 1233 Fit       0.009880
 1234 Fit       0.008218
 1235 Fit       0.007142
 1236 Fit       0.010436
 1237 Fit       0.008492
 1238 Fit       0.007002
 1239 Fit       0.005736
 1240 Fit       0.004803
 1241 Fit       0.006340
 1242 Fit       0.004935
 1243 Fit       0.003724
 1244 Fit       0.002836
 1245 Fit       0.002711
 1246 Fit       0.002038
 1247 Fit       0.001464
 1248 Fit       0.000607
 1249 Fit       0.003585
 1250 Fit       0.003214
 1251 Fit       0.002559
 1252 Fit       0.001681
 1253 Fit       0.000302
 1254 Fit      -0.001498
 1255 Fit      -0.002320
 1256 Fit      -0.001091
 1257 Fit       0.000170
 1258 Fit       0.002194
 1259 Fit       0.002433
 1260 Fit       0.001354
 1261 Fit      -0.000376
 1262 Fit       0.001007
 1263 Fit      -0.009535
 1264 Fit      -0.012998
 1265 Fit      -0.010519
 1266 Fit      -0.002703
 1267 Fit      -0.005587
 1268 Fit      -0.004964
 1269 Fit       0.014371
 1270 Fit       0.012266
 1271 Fit       0.016040
 1272 Fit       0.013257
 1273 Fit       0.011054
 1274 Fit       0.009111
 1275 Fit       0.013775
 1276 Fit       0.012944
 1277 Fit       0.011261
 1278 Fit       0.009456
 1279 Fit       0.007455
 1280 Fit       0.005608
 1281 Fit       0.008620
 1282 Fit       0.008368
 1283 Fit       0.006972
 1284 Fit       0.005074
 1285 Fit       0.004812
 1286 Fit       0.004228
 1287 Fit       0.005134
 1288 Fit       0.003123
 1289 Fit       0.000845
 1290 Fit      -0.001577
 1291 Fit       0.003645
 1292 Fit       0.002319
 1293 Fit       0.000254
 1294 Fit      -0.002689
 1295 Fit      -0.005932
 1296 Fit       0.002492
 1297 Fit       0.001379
 1298 Fit      -0.000728
 1299 Fit      -0.003923
 1300 Fit      -0.007765
 1301 Fit       0.001469
 1302 Fit       0.000255
 1303 Fit      -0.002192
 1304 Fit      -0.005715
 1305 Fit      -0.001412
 1306 Fit      -0.014107
 1307 Fit      -0.018029
 1308 Fit      -0.015087
 1309 Fit      -0.019181
 1310 Fit      -0.011060
 1311 Fit      -0.010325
 1312 Fit      -0.013705
 1313 Fit      -0.007584
 1314 Fit      -0.004116
 1315 Fit      -0.003866
 1316 Fit      -0.007450
 1317 Fit      -0.003907
 1318 Fit       0.023587
 1319 Fit       0.021215
 1320 Fit       0.018902
 1321 Fit       0.023473
 1322 Fit       0.018901
 1323 Fit       0.016268
 1324 Fit       0.016065
 1325 Fit       0.021568
 1326 Fit       0.017418
 1327 Fit       0.015265
 1328 Fit       0.014260
 1329 Fit       0.016521
 1330 Fit       0.014410
 1331 Fit       0.013278
 1332 Fit       0.012984
 1333 Fit       0.013128
 1334 Fit       0.011964
 1335 Fit       0.009740
 1336 Fit       0.013502
 1337 Fit       0.010170
 1338 Fit       0.006871
 1339 Fit       0.005418
 1340 Fit       0.015330
 1341 Fit       0.011869
 1342 Fit       0.008956
 1343 Fit       0.006135
 1344 Fit       0.003388
 1345 Fit       0.013316
 1346 Fit       0.010270
 1347 Fit       0.007677
 1348 Fit       0.005224
 1349 Fit       0.002551
 1350 Fit       0.001961
 1351 Fit      -0.000321
 1352 Fit      -0.005303
 1353 Fit      -0.001444
 1354 Fit      -0.004984
 1355 Fit      -0.008672
 1356 Fit      -0.002290
 1357 Fit      -0.006459
 1358 Fit      -0.012708
 1359 Fit      -0.020852
 1360 Fit      -0.008326
 1361 Fit      -0.015721
 1362 Fit      -0.016599
 1363 Fit       0.019455
 1364 Fit       0.022898
 1365 Fit       0.028437
 1366 Fit       0.023410
 1367 Fit       0.017592
 1368 Fit       0.013880
 1369 Fit       0.014579
 1370 Fit       0.029920
 1371 Fit       0.032571
 1372 Fit       0.023883
 1373 Fit       0.018933
 1374 Fit       0.008889
 1375 Fit       0.014386
 1376 Fit       0.032653
 1377 Fit       0.031268
 1378 Fit       0.031273
 1379 Fit       0.027810
 1380 Fit       0.026768
 1381 Fit       0.026106
 1382 Fit       0.025462
 1383 Fit       0.024823
 1384 Fit       0.025070
 1385 Fit       0.023883
 1386 Fit       0.022839
 1387 Fit       0.021498
 1388 Fit       0.019543
 1389 Fit       0.021778
 1390 Fit       0.020019
 1391 Fit       0.005271
 1392 Fit       0.005946
 1393 Fit       0.013524
 1394 Fit       0.006398
 1395 Fit       0.004383
 1396 Fit       0.011882
 1397 Fit       0.012768
 1398 Fit       0.007846
 1399 Fit      -0.002672
 1400 Fit      -0.006591
 1401 Fit       0.005633
 1402 Fit       0.034707
 1403 Fit       0.034468
 1404 Fit       0.031376
 1405 Fit       0.029708
 1406 Fit       0.028738
 1407 Fit       0.028700
 1408 Fit       0.025880
 1409 Fit       0.025356
 1410 Fit       0.025056
 1411 Fit       0.024877
 1412 Fit       0.025206
 1413 Fit       0.019380
 1414 Fit       0.020996
 1415 Fit       0.021747
 1416 Fit       0.022433
 1417 Fit       0.018848
 1418 Fit       0.035972
 1419 Fit       0.040406
 1420 Fit       0.035363
 1421 Fit       0.033619
 1422 Fit       0.033706
 1423 Fit       0.041694
 1424 Fit       0.035807
 1425 Fit       0.033639
 1426 Fit       0.032960
 1427 Fit       0.033303
 1428 Fit       0.042175
 1429 Fit       0.036269
 1430 Fit       0.034433
 1431 Fit       0.033991
 1432 Fit       0.034386
 1433 Fit       0.038885
 1434 Fit       0.040767
 1435 Fit       0.039010
 1436 Fit       0.038719
 1437 Fit       0.041154
 1438 Fit       0.042599
 1439 Fit       0.045744
 1440 Fit       0.050462
 1441 Fit       0.056982
 1442 Fit       0.033032
 1443 Fit       0.032752
 1444 Fit       0.033075
 1445 Fit       0.031480
 1446 Fit       0.030964
 1447 Fit       0.031458
 1448 Fit       0.034851
 1449 Fit       0.033065
 1450 Fit       0.031727
 1451 Fit       0.030913
 1452 Fit       0.030255
 1453 Fit       0.035344
 1454 Fit       0.034028
 1455 Fit       0.032518
 1456 Fit       0.030680
 1457 Fit      -0.014279
 1458 Fit      -0.011895
 1459 Fit      -0.019566
 1460 Fit      -0.029813
 1461 Fit      -0.017275
 1462 Fit       0.031021
 1463 Fit      -0.001577
 1464 Fit       0.015237
 1465 Fit       0.029183
 1466 Fit       0.042713
 1467 Fit      -0.007977
 1468 Fit       0.007727
 1469 Fit       0.018371
 1470 Fit       0.025668
 1471 Fit       0.027858
 1472 Fit      -0.011358
 1473 Fit       0.003674
 1474 Fit       0.011349
 1475 Fit       0.011179
 1476 Fit      -0.012166
 1477 Fit      -0.000077
 1478 Fit      -0.007968
 1479 Fit      -0.031149
 1480 Fit      -0.033467
 1481 Fit      -0.014979
 1482 Fit      -0.010232
 1483 Fit       0.040573
 1484 Fit       0.044381
 1485 Fit       0.034704
 1486 Fit       0.019003
 1487 Fit       0.006658
 1488 Fit       0.002255
 1489 Fit       0.040180
 1490 Fit       0.052068
 1491 Fit       0.033474
 1492 Fit       0.044508
 1493 Fit       0.054056
 1494 Fit       0.030456
 1495 Fit       0.040933
 1496 Fit       0.049010
 1497 Fit       0.040343
 1498 Fit       0.046907
 1499 Fit       0.052589
 1500 Fit       0.044957
 -----------------------------------------------------------------
 Leave Link  602 at Sun Feb 18 17:11:45 2018, MaxMem=   33554432 cpu:       1.8

 Test job not archived.
 1\1\GINC-NODE050\SP\RHF\6-31G(d)\C13H24N2O3\WULSDORT\18-Feb-2018\0\\#H
 F/6-31G* Geom=AllCheck Guess=Read Pop=(MK,ReadRadii) Integral=(Grid=Ul
 traFine) iop(6/33=2)\\Optimization for frag2-conf2\\0,1\C,0,0.11541353
 53,-3.934600284,4.0318893208\C,0,0.474218303,0.1872174282,2.2932707317
 \C,0,2.4481488591,-6.0574194974,0.0247679574\C,0,1.6832151597,-6.17405
 20695,1.3525920171\C,0,2.9466948959,-4.6236228384,-0.2138321707\C,0,2.
 5232094036,-5.6530483576,2.5307377117\C,0,3.77891874,-4.1149386641,0.9
 754962961\C,0,3.0283770337,-4.206190565,2.3245305898\C,0,-1.1305911602
 ,-5.5028177769,5.4045249687\C,0,0.8702752611,-4.4849776517,6.386411459
 8\C,0,-0.2216944616,-0.9951464854,3.0386028911\C,0,1.9333894131,-3.117
 3976334,2.4118619768\C,0,1.3033932006,-2.9716124273,3.8076515017\N,0,-
 0.013408428,-4.574170224,5.2242567209\N,0,0.7991920971,-1.5524262584,3
 .9998301987\O,0,-0.2119358506,0.7932464668,1.4561840342\O,0,-0.7002415
 287,-4.0698455353,3.111752912\O,0,1.6798083824,0.3818425079,2.64835199
 59\H,0,3.3124654574,-6.7380002296,0.0475152894\H,0,1.8143679696,-6.383
 944198,-0.8097347662\H,0,0.7430884354,-5.6102899869,1.2905590589\H,0,1
 .4042502926,-7.2195877077,1.5366526268\H,0,3.5496589589,-4.5793113383,
 -1.1298054033\H,0,2.0860679544,-3.9608224724,-0.380874827\H,0,1.959848
 0834,-5.7432370645,3.4678095558\H,0,3.404683171,-6.2995209212,2.648221
 4359\H,0,4.6915481639,-4.7230715479,1.0508785456\H,0,4.1064160778,-3.0
 821127166,0.7980262809\H,0,3.7546698251,-3.987647346,3.1209970333\H,0,
 -0.7464359994,-6.4867622946,5.6953352273\H,0,-1.6824318394,-5.58323370
 94,4.4709454928\H,0,-1.7959829467,-5.139502183,6.1959498897\H,0,0.2637
 971813,-4.3056351206,7.2801186086\H,0,1.5886046271,-3.6733162158,6.303
 2191219\H,0,1.4166738902,-5.4257139891,6.5217218816\H,0,-0.5466405072,
 -1.7769167543,2.3550415833\H,0,-1.0869019688,-0.6462760561,3.603640379
 7\H,0,2.3942959879,-2.1555899324,2.1579806132\H,0,1.1388463631,-3.2948
 913619,1.6832204\H,0,2.0845801353,-3.0810269898,4.5587269274\H,0,1.587
 5220345,-0.8596949325,3.8013701799\H,0,0.4954746296,-1.4201097231,4.96
 72093856\\Version=AM64L-G09RevC.01\State=1-A\HF=-839.7168814\RMSD=7.80
 1e-09\Dipole=0.5568185,-3.9283536,3.8381555\Quadrupole=6.0170636,-26.1
 068604,20.0897969,2.2736147,-7.8197686,12.4997951\PG=C01 [X(C13H24N2O3
 )]\\@


 NOTHING PUZZLES ME MORE THAN TIME AND SPACE; AND YET NOTHING TROUBLES ME LESS
                                                          -- CHARLES LAMB (1810)
 Job cpu time:  0 days  0 hours 11 minutes 58.2 seconds.
 File lengths (MBytes):  RWF=     57 Int=      0 D2E=      0 Chk=     20 Scr=      1
 Normal termination of Gaussian 09 at Sun Feb 18 17:11:46 2018.
