 Entering Gaussian System, Link 0=g09
 Initial command:
 /home/fb_chem/chemsoft/lx24-amd64/Gaussian_09_C.01_NBO_3.1_64_istanbul-64/g09/l1.exe /local/2399801.1.parallel_long/Gau-22005.inp -scrdir=/local/2399801.1.parallel_long/
 Entering Link 1 = /home/fb_chem/chemsoft/lx24-amd64/Gaussian_09_C.01_NBO_3.1_64_istanbul-64/g09/l1.exe PID=     22006.
  
 Copyright (c) 1988,1990,1992,1993,1995,1998,2003,2009,2011,
            Gaussian, Inc.  All Rights Reserved.
  
 This is part of the Gaussian(R) 09 program.  It is based on
 the Gaussian(R) 03 system (copyright 2003, Gaussian, Inc.),
 the Gaussian(R) 98 system (copyright 1998, Gaussian, Inc.),
 the Gaussian(R) 94 system (copyright 1995, Gaussian, Inc.),
 the Gaussian 92(TM) system (copyright 1992, Gaussian, Inc.),
 the Gaussian 90(TM) system (copyright 1990, Gaussian, Inc.),
 the Gaussian 88(TM) system (copyright 1988, Gaussian, Inc.),
 the Gaussian 86(TM) system (copyright 1986, Carnegie Mellon
 University), and the Gaussian 82(TM) system (copyright 1983,
 Carnegie Mellon University). Gaussian is a federally registered
 trademark of Gaussian, Inc.
  
 This software contains proprietary and confidential information,
 including trade secrets, belonging to Gaussian, Inc.
  
 This software is provided under written license and may be
 used, copied, transmitted, or stored only in accord with that
 written license.
  
 The following legend is applicable only to US Government
 contracts under FAR:
  
                    RESTRICTED RIGHTS LEGEND
  
 Use, reproduction and disclosure by the US Government is
 subject to restrictions as set forth in subparagraphs (a)
 and (c) of the Commercial Computer Software - Restricted
 Rights clause in FAR 52.227-19.
  
 Gaussian, Inc.
 340 Quinnipiac St., Bldg. 40, Wallingford CT 06492
  
  
 ---------------------------------------------------------------
 Warning -- This program may not be used in any manner that
 competes with the business of Gaussian, Inc. or will provide
 assistance to any competitor of Gaussian, Inc.  The licensee
 of this program is prohibited from giving any competitor of
 Gaussian, Inc. access to this program.  By using this program,
 the user acknowledges that Gaussian, Inc. is engaged in the
 business of creating and licensing software in the field of
 computational chemistry and represents and warrants to the
 licensee that it is not a competitor of Gaussian, Inc. and that
 it will not use this program in any manner prohibited above.
 ---------------------------------------------------------------
  

 Cite this work as:
 Gaussian 09, Revision C.01,
 M. J. Frisch, G. W. Trucks, H. B. Schlegel, G. E. Scuseria, 
 M. A. Robb, J. R. Cheeseman, G. Scalmani, V. Barone, B. Mennucci, 
 G. A. Petersson, H. Nakatsuji, M. Caricato, X. Li, H. P. Hratchian, 
 A. F. Izmaylov, J. Bloino, G. Zheng, J. L. Sonnenberg, M. Hada, 
 M. Ehara, K. Toyota, R. Fukuda, J. Hasegawa, M. Ishida, T. Nakajima, 
 Y. Honda, O. Kitao, H. Nakai, T. Vreven, J. A. Montgomery, Jr., 
 J. E. Peralta, F. Ogliaro, M. Bearpark, J. J. Heyd, E. Brothers, 
 K. N. Kudin, V. N. Staroverov, T. Keith, R. Kobayashi, J. Normand, 
 K. Raghavachari, A. Rendell, J. C. Burant, S. S. Iyengar, J. Tomasi, 
 M. Cossi, N. Rega, J. M. Millam, M. Klene, J. E. Knox, J. B. Cross, 
 V. Bakken, C. Adamo, J. Jaramillo, R. Gomperts, R. E. Stratmann, 
 O. Yazyev, A. J. Austin, R. Cammi, C. Pomelli, J. W. Ochterski, 
 R. L. Martin, K. Morokuma, V. G. Zakrzewski, G. A. Voth, 
 P. Salvador, J. J. Dannenberg, S. Dapprich, A. D. Daniels, 
 O. Farkas, J. B. Foresman, J. V. Ortiz, J. Cioslowski, 
 and D. J. Fox, Gaussian, Inc., Wallingford CT, 2010.
 
 ******************************************
 Gaussian 09:  AM64L-G09RevC.01 23-Sep-2011
                17-Feb-2018 
 ******************************************
 %nprocs=12
 Will use up to   12 processors via shared memory.
 %chk=frag2-conf2.chk
 --------------------------------------------------------------
 #B3LYP/6-31G* Integral=(Grid=UltraFine) freq Opt pop=none SCRF
 --------------------------------------------------------------
 1/14=-1,18=20,19=15,26=3,38=1/1,3;
 2/9=110,12=2,17=6,18=5,40=1/2;
 3/5=1,6=6,7=1,11=2,16=1,25=1,30=1,70=2201,71=1,72=1,74=-5,75=-5/1,2,3;
 4//1;
 5/5=2,38=5/2;
 7//1,2,3,16;
 1/14=-1,18=20,19=15/3(2);
 2/9=110/2;
 99//99;
 2/9=110/2;
 3/5=1,6=6,7=1,11=2,16=1,25=1,30=1,70=2205,71=1,74=-5,75=-5/1,2,3;
 4/5=5,16=3/1;
 5/5=2,38=5/2;
 7//1,2,3,16;
 1/14=-1,18=20,19=15/3(-5);
 2/9=110/2;
 99/9=1/99;
 ----------------------------
 Optimization for frag2-conf2
 ----------------------------
 Charge =  0 Multiplicity = 1
 Symbolic Z-Matrix:
 C                     0.17927  -3.95085   3.92914 
 C                    -0.17082   0.52157   3.08635 
 C                     2.47092  -6.2044   -0.04381 
 C                     1.69496  -6.27346   1.26777 
 C                     3.04254  -4.81249  -0.29326 
 C                     2.53476  -5.78011   2.44456 
 C                     3.87402  -4.32491   0.89194 
 C                     3.10541  -4.36962   2.2274 
 C                    -1.20059  -5.30552   5.45814 
 C                     0.72448  -4.07935   6.39594 
 C                    -0.04819  -1.02144   3.02324 
 C                     2.05473  -3.23164   2.29533 
 C                     1.42559  -3.05094   3.69283 
 N                    -0.09778  -4.38013   5.2287 
 N                     1.06132  -1.60038   3.87733 
 O                    -1.17592   1.05008   2.52982 
 O                    -0.58555  -4.23015   2.99541 
 O                     0.77014   1.11218   3.70613 
 H                     3.29039  -6.93344  -0.01875 
 H                     1.81722  -6.49015  -0.87558 
 H                     0.77927  -5.67913   1.18079 
 H                     1.38169  -7.30759   1.4515 
 H                     3.66672  -4.83068  -1.19407 
 H                     2.22572  -4.10916  -0.4923 
 H                     1.95347  -5.83484   3.36914 
 H                     3.37438  -6.47481   2.58256 
 H                     4.7663   -4.95888   0.97851 
 H                     4.23694  -3.30947   0.69383 
 H                     3.83662  -4.18034   3.02504 
 H                    -0.79304  -6.24433   5.84514 
 H                    -1.76357  -5.51706   4.546 
 H                    -1.87832  -4.86875   6.19754 
 H                     0.09697  -4.06146   7.29208 
 H                     1.21486  -3.1095    6.3071 
 H                     1.48145  -4.86259   6.49365 
 H                     0.15197  -1.30689   1.9868 
 H                    -0.98265  -1.4767    3.36398 
 H                     2.57045  -2.30246   2.0169 
 H                     1.27876  -3.38627   1.53804 
 H                     2.19374  -3.25      4.4443 
 H                     1.88038  -0.99323   3.74375 
 H                     0.80583  -1.42687   4.85472 
 

 GradGradGradGradGradGradGradGradGradGradGradGradGradGradGradGradGradGrad
 Berny optimization.
 Initialization pass.
                           ----------------------------
                           !    Initial Parameters    !
                           ! (Angstroms and Degrees)  !
 --------------------------                            --------------------------
 ! Name  Definition              Value          Derivative Info.                !
 --------------------------------------------------------------------------------
 ! R1    R(1,13)                 1.5553         estimate D2E/DX2                !
 ! R2    R(1,14)                 1.3964         estimate D2E/DX2                !
 ! R3    R(1,17)                 1.2389         estimate D2E/DX2                !
 ! R4    R(2,11)                 1.5492         estimate D2E/DX2                !
 ! R5    R(2,16)                 1.2646         estimate D2E/DX2                !
 ! R6    R(2,18)                 1.2721         estimate D2E/DX2                !
 ! R7    R(3,4)                  1.5255         estimate D2E/DX2                !
 ! R8    R(3,5)                  1.5253         estimate D2E/DX2                !
 ! R9    R(3,19)                 1.0971         estimate D2E/DX2                !
 ! R10   R(3,20)                 1.0958         estimate D2E/DX2                !
 ! R11   R(4,6)                  1.5276         estimate D2E/DX2                !
 ! R12   R(4,21)                 1.0951         estimate D2E/DX2                !
 ! R13   R(4,22)                 1.0961         estimate D2E/DX2                !
 ! R14   R(5,7)                  1.5277         estimate D2E/DX2                !
 ! R15   R(5,23)                 1.0961         estimate D2E/DX2                !
 ! R16   R(5,24)                 1.0961         estimate D2E/DX2                !
 ! R17   R(6,8)                  1.537          estimate D2E/DX2                !
 ! R18   R(6,25)                 1.0935         estimate D2E/DX2                !
 ! R19   R(6,26)                 1.0985         estimate D2E/DX2                !
 ! R20   R(7,8)                  1.5415         estimate D2E/DX2                !
 ! R21   R(7,27)                 1.098          estimate D2E/DX2                !
 ! R22   R(7,28)                 1.0964         estimate D2E/DX2                !
 ! R23   R(8,12)                 1.5503         estimate D2E/DX2                !
 ! R24   R(8,29)                 1.0985         estimate D2E/DX2                !
 ! R25   R(9,14)                 1.4578         estimate D2E/DX2                !
 ! R26   R(9,30)                 1.0942         estimate D2E/DX2                !
 ! R27   R(9,31)                 1.0926         estimate D2E/DX2                !
 ! R28   R(9,32)                 1.094          estimate D2E/DX2                !
 ! R29   R(10,14)                1.4591         estimate D2E/DX2                !
 ! R30   R(10,33)                1.0941         estimate D2E/DX2                !
 ! R31   R(10,34)                1.0904         estimate D2E/DX2                !
 ! R32   R(10,35)                1.0936         estimate D2E/DX2                !
 ! R33   R(11,15)                1.5151         estimate D2E/DX2                !
 ! R34   R(11,36)                1.0935         estimate D2E/DX2                !
 ! R35   R(11,37)                1.0939         estimate D2E/DX2                !
 ! R36   R(12,13)                1.5432         estimate D2E/DX2                !
 ! R37   R(12,38)                1.0986         estimate D2E/DX2                !
 ! R38   R(12,39)                1.0952         estimate D2E/DX2                !
 ! R39   R(13,15)                1.5069         estimate D2E/DX2                !
 ! R40   R(13,40)                1.0929         estimate D2E/DX2                !
 ! R41   R(15,41)                1.0283         estimate D2E/DX2                !
 ! R42   R(15,42)                1.025          estimate D2E/DX2                !
 ! A1    A(13,1,14)            118.572          estimate D2E/DX2                !
 ! A2    A(13,1,17)            120.7063         estimate D2E/DX2                !
 ! A3    A(14,1,17)            120.6396         estimate D2E/DX2                !
 ! A4    A(11,2,16)            117.4671         estimate D2E/DX2                !
 ! A5    A(11,2,18)            115.0698         estimate D2E/DX2                !
 ! A6    A(16,2,18)            127.4631         estimate D2E/DX2                !
 ! A7    A(4,3,5)              111.8732         estimate D2E/DX2                !
 ! A8    A(4,3,19)             109.2824         estimate D2E/DX2                !
 ! A9    A(4,3,20)             109.7165         estimate D2E/DX2                !
 ! A10   A(5,3,19)             109.2822         estimate D2E/DX2                !
 ! A11   A(5,3,20)             109.7179         estimate D2E/DX2                !
 ! A12   A(19,3,20)            106.8359         estimate D2E/DX2                !
 ! A13   A(3,4,6)              111.597          estimate D2E/DX2                !
 ! A14   A(3,4,21)             109.4187         estimate D2E/DX2                !
 ! A15   A(3,4,22)             109.4034         estimate D2E/DX2                !
 ! A16   A(6,4,21)             110.2187         estimate D2E/DX2                !
 ! A17   A(6,4,22)             109.4335         estimate D2E/DX2                !
 ! A18   A(21,4,22)            106.6408         estimate D2E/DX2                !
 ! A19   A(3,5,7)              111.6144         estimate D2E/DX2                !
 ! A20   A(3,5,23)             109.4316         estimate D2E/DX2                !
 ! A21   A(3,5,24)             109.6319         estimate D2E/DX2                !
 ! A22   A(7,5,23)             109.4484         estimate D2E/DX2                !
 ! A23   A(7,5,24)             109.979          estimate D2E/DX2                !
 ! A24   A(23,5,24)            106.6055         estimate D2E/DX2                !
 ! A25   A(4,6,8)              113.0575         estimate D2E/DX2                !
 ! A26   A(4,6,25)             110.0566         estimate D2E/DX2                !
 ! A27   A(4,6,26)             108.2245         estimate D2E/DX2                !
 ! A28   A(8,6,25)             111.2702         estimate D2E/DX2                !
 ! A29   A(8,6,26)             108.3215         estimate D2E/DX2                !
 ! A30   A(25,6,26)            105.572          estimate D2E/DX2                !
 ! A31   A(5,7,8)              113.0469         estimate D2E/DX2                !
 ! A32   A(5,7,27)             108.614          estimate D2E/DX2                !
 ! A33   A(5,7,28)             109.6079         estimate D2E/DX2                !
 ! A34   A(8,7,27)             108.6714         estimate D2E/DX2                !
 ! A35   A(8,7,28)             110.3927         estimate D2E/DX2                !
 ! A36   A(27,7,28)            106.2605         estimate D2E/DX2                !
 ! A37   A(6,8,7)              109.5208         estimate D2E/DX2                !
 ! A38   A(6,8,12)             114.5701         estimate D2E/DX2                !
 ! A39   A(6,8,29)             107.6181         estimate D2E/DX2                !
 ! A40   A(7,8,12)             110.7678         estimate D2E/DX2                !
 ! A41   A(7,8,29)             106.9875         estimate D2E/DX2                !
 ! A42   A(12,8,29)            107.027          estimate D2E/DX2                !
 ! A43   A(14,9,30)            108.5744         estimate D2E/DX2                !
 ! A44   A(14,9,31)            112.4147         estimate D2E/DX2                !
 ! A45   A(14,9,32)            108.7589         estimate D2E/DX2                !
 ! A46   A(30,9,31)            108.7287         estimate D2E/DX2                !
 ! A47   A(30,9,32)            109.528          estimate D2E/DX2                !
 ! A48   A(31,9,32)            108.805          estimate D2E/DX2                !
 ! A49   A(14,10,33)           109.5949         estimate D2E/DX2                !
 ! A50   A(14,10,34)           111.8152         estimate D2E/DX2                !
 ! A51   A(14,10,35)           108.2943         estimate D2E/DX2                !
 ! A52   A(33,10,34)           108.0654         estimate D2E/DX2                !
 ! A53   A(33,10,35)           109.603          estimate D2E/DX2                !
 ! A54   A(34,10,35)           109.4514         estimate D2E/DX2                !
 ! A55   A(2,11,15)            114.5559         estimate D2E/DX2                !
 ! A56   A(2,11,36)            108.2464         estimate D2E/DX2                !
 ! A57   A(2,11,37)            109.5254         estimate D2E/DX2                !
 ! A58   A(15,11,36)           107.4876         estimate D2E/DX2                !
 ! A59   A(15,11,37)           106.9143         estimate D2E/DX2                !
 ! A60   A(36,11,37)           110.0583         estimate D2E/DX2                !
 ! A61   A(8,12,13)            113.6986         estimate D2E/DX2                !
 ! A62   A(8,12,38)            106.9534         estimate D2E/DX2                !
 ! A63   A(8,12,39)            110.257          estimate D2E/DX2                !
 ! A64   A(13,12,38)           108.7755         estimate D2E/DX2                !
 ! A65   A(13,12,39)           110.7226         estimate D2E/DX2                !
 ! A66   A(38,12,39)           106.0672         estimate D2E/DX2                !
 ! A67   A(1,13,12)            113.3613         estimate D2E/DX2                !
 ! A68   A(1,13,15)            110.1608         estimate D2E/DX2                !
 ! A69   A(1,13,40)            110.6937         estimate D2E/DX2                !
 ! A70   A(12,13,15)           108.7922         estimate D2E/DX2                !
 ! A71   A(12,13,40)           108.3492         estimate D2E/DX2                !
 ! A72   A(15,13,40)           105.1319         estimate D2E/DX2                !
 ! A73   A(1,14,9)             119.4532         estimate D2E/DX2                !
 ! A74   A(1,14,10)            124.7022         estimate D2E/DX2                !
 ! A75   A(9,14,10)            115.5475         estimate D2E/DX2                !
 ! A76   A(11,15,13)           118.4115         estimate D2E/DX2                !
 ! A77   A(11,15,41)           106.5261         estimate D2E/DX2                !
 ! A78   A(11,15,42)           106.8761         estimate D2E/DX2                !
 ! A79   A(13,15,41)           111.0956         estimate D2E/DX2                !
 ! A80   A(13,15,42)           109.8727         estimate D2E/DX2                !
 ! A81   A(41,15,42)           102.8538         estimate D2E/DX2                !
 ! D1    D(14,1,13,12)         149.9748         estimate D2E/DX2                !
 ! D2    D(14,1,13,15)         -87.858          estimate D2E/DX2                !
 ! D3    D(14,1,13,40)          27.9875         estimate D2E/DX2                !
 ! D4    D(17,1,13,12)         -33.2987         estimate D2E/DX2                !
 ! D5    D(17,1,13,15)          88.8686         estimate D2E/DX2                !
 ! D6    D(17,1,13,40)        -155.2859         estimate D2E/DX2                !
 ! D7    D(13,1,14,9)         -175.3844         estimate D2E/DX2                !
 ! D8    D(13,1,14,10)          -1.935          estimate D2E/DX2                !
 ! D9    D(17,1,14,9)            7.8867         estimate D2E/DX2                !
 ! D10   D(17,1,14,10)        -178.6638         estimate D2E/DX2                !
 ! D11   D(16,2,11,15)        -171.4613         estimate D2E/DX2                !
 ! D12   D(16,2,11,36)          68.6376         estimate D2E/DX2                !
 ! D13   D(16,2,11,37)         -51.3676         estimate D2E/DX2                !
 ! D14   D(18,2,11,15)           8.4291         estimate D2E/DX2                !
 ! D15   D(18,2,11,36)        -111.472          estimate D2E/DX2                !
 ! D16   D(18,2,11,37)         128.5227         estimate D2E/DX2                !
 ! D17   D(5,3,4,6)            -53.6115         estimate D2E/DX2                !
 ! D18   D(5,3,4,21)            68.6423         estimate D2E/DX2                !
 ! D19   D(5,3,4,22)          -174.8644         estimate D2E/DX2                !
 ! D20   D(19,3,4,6)            67.5488         estimate D2E/DX2                !
 ! D21   D(19,3,4,21)         -170.1974         estimate D2E/DX2                !
 ! D22   D(19,3,4,22)          -53.704          estimate D2E/DX2                !
 ! D23   D(20,3,4,6)          -175.622          estimate D2E/DX2                !
 ! D24   D(20,3,4,21)          -53.3682         estimate D2E/DX2                !
 ! D25   D(20,3,4,22)           63.1251         estimate D2E/DX2                !
 ! D26   D(4,3,5,7)             53.5186         estimate D2E/DX2                !
 ! D27   D(4,3,5,23)           174.8205         estimate D2E/DX2                !
 ! D28   D(4,3,5,24)           -68.5907         estimate D2E/DX2                !
 ! D29   D(19,3,5,7)           -67.6418         estimate D2E/DX2                !
 ! D30   D(19,3,5,23)           53.6601         estimate D2E/DX2                !
 ! D31   D(19,3,5,24)          170.2489         estimate D2E/DX2                !
 ! D32   D(20,3,5,7)           175.5283         estimate D2E/DX2                !
 ! D33   D(20,3,5,23)          -63.1698         estimate D2E/DX2                !
 ! D34   D(20,3,5,24)           53.419          estimate D2E/DX2                !
 ! D35   D(3,4,6,8)             54.5632         estimate D2E/DX2                !
 ! D36   D(3,4,6,25)           179.6712         estimate D2E/DX2                !
 ! D37   D(3,4,6,26)           -65.426          estimate D2E/DX2                !
 ! D38   D(21,4,6,8)           -67.2297         estimate D2E/DX2                !
 ! D39   D(21,4,6,25)           57.8783         estimate D2E/DX2                !
 ! D40   D(21,4,6,26)          172.7812         estimate D2E/DX2                !
 ! D41   D(22,4,6,8)           175.7985         estimate D2E/DX2                !
 ! D42   D(22,4,6,25)          -59.0935         estimate D2E/DX2                !
 ! D43   D(22,4,6,26)           55.8094         estimate D2E/DX2                !
 ! D44   D(3,5,7,8)            -54.2983         estimate D2E/DX2                !
 ! D45   D(3,5,7,27)            66.3925         estimate D2E/DX2                !
 ! D46   D(3,5,7,28)          -177.909          estimate D2E/DX2                !
 ! D47   D(23,5,7,8)          -175.5905         estimate D2E/DX2                !
 ! D48   D(23,5,7,27)          -54.8996         estimate D2E/DX2                !
 ! D49   D(23,5,7,28)           60.7988         estimate D2E/DX2                !
 ! D50   D(24,5,7,8)            67.611          estimate D2E/DX2                !
 ! D51   D(24,5,7,27)         -171.6982         estimate D2E/DX2                !
 ! D52   D(24,5,7,28)          -55.9998         estimate D2E/DX2                !
 ! D53   D(4,6,8,7)            -53.5872         estimate D2E/DX2                !
 ! D54   D(4,6,8,12)            71.5653         estimate D2E/DX2                !
 ! D55   D(4,6,8,29)          -169.5522         estimate D2E/DX2                !
 ! D56   D(25,6,8,7)          -178.0362         estimate D2E/DX2                !
 ! D57   D(25,6,8,12)          -52.8837         estimate D2E/DX2                !
 ! D58   D(25,6,8,29)           65.9988         estimate D2E/DX2                !
 ! D59   D(26,6,8,7)            66.3464         estimate D2E/DX2                !
 ! D60   D(26,6,8,12)         -168.5012         estimate D2E/DX2                !
 ! D61   D(26,6,8,29)          -49.6187         estimate D2E/DX2                !
 ! D62   D(5,7,8,6)             53.476          estimate D2E/DX2                !
 ! D63   D(5,7,8,12)           -73.844          estimate D2E/DX2                !
 ! D64   D(5,7,8,29)           169.8409         estimate D2E/DX2                !
 ! D65   D(27,7,8,6)           -67.1822         estimate D2E/DX2                !
 ! D66   D(27,7,8,12)          165.4978         estimate D2E/DX2                !
 ! D67   D(27,7,8,29)           49.1827         estimate D2E/DX2                !
 ! D68   D(28,7,8,6)           176.6534         estimate D2E/DX2                !
 ! D69   D(28,7,8,12)           49.3334         estimate D2E/DX2                !
 ! D70   D(28,7,8,29)          -66.9817         estimate D2E/DX2                !
 ! D71   D(6,8,12,13)           65.9802         estimate D2E/DX2                !
 ! D72   D(6,8,12,38)         -173.9352         estimate D2E/DX2                !
 ! D73   D(6,8,12,39)          -59.0426         estimate D2E/DX2                !
 ! D74   D(7,8,12,13)         -169.525          estimate D2E/DX2                !
 ! D75   D(7,8,12,38)          -49.4403         estimate D2E/DX2                !
 ! D76   D(7,8,12,39)           65.4522         estimate D2E/DX2                !
 ! D77   D(29,8,12,13)         -53.2343         estimate D2E/DX2                !
 ! D78   D(29,8,12,38)          66.8504         estimate D2E/DX2                !
 ! D79   D(29,8,12,39)        -178.2571         estimate D2E/DX2                !
 ! D80   D(30,9,14,1)          116.044          estimate D2E/DX2                !
 ! D81   D(30,9,14,10)         -57.9893         estimate D2E/DX2                !
 ! D82   D(31,9,14,1)           -4.2887         estimate D2E/DX2                !
 ! D83   D(31,9,14,10)        -178.322          estimate D2E/DX2                !
 ! D84   D(32,9,14,1)         -124.842          estimate D2E/DX2                !
 ! D85   D(32,9,14,10)          61.1247         estimate D2E/DX2                !
 ! D86   D(33,10,14,1)         151.4096         estimate D2E/DX2                !
 ! D87   D(33,10,14,9)         -34.9115         estimate D2E/DX2                !
 ! D88   D(34,10,14,1)          31.6047         estimate D2E/DX2                !
 ! D89   D(34,10,14,9)        -154.7164         estimate D2E/DX2                !
 ! D90   D(35,10,14,1)         -89.0674         estimate D2E/DX2                !
 ! D91   D(35,10,14,9)          84.6115         estimate D2E/DX2                !
 ! D92   D(2,11,15,13)        -168.9444         estimate D2E/DX2                !
 ! D93   D(2,11,15,41)         -42.975          estimate D2E/DX2                !
 ! D94   D(2,11,15,42)          66.4459         estimate D2E/DX2                !
 ! D95   D(36,11,15,13)        -48.6215         estimate D2E/DX2                !
 ! D96   D(36,11,15,41)         77.3479         estimate D2E/DX2                !
 ! D97   D(36,11,15,42)       -173.2312         estimate D2E/DX2                !
 ! D98   D(37,11,15,13)         69.5208         estimate D2E/DX2                !
 ! D99   D(37,11,15,41)       -164.5097         estimate D2E/DX2                !
 ! D100  D(37,11,15,42)        -55.0889         estimate D2E/DX2                !
 ! D101  D(8,12,13,1)          -87.6577         estimate D2E/DX2                !
 ! D102  D(8,12,13,15)         149.4167         estimate D2E/DX2                !
 ! D103  D(8,12,13,40)          35.6276         estimate D2E/DX2                !
 ! D104  D(38,12,13,1)         153.2929         estimate D2E/DX2                !
 ! D105  D(38,12,13,15)         30.3673         estimate D2E/DX2                !
 ! D106  D(38,12,13,40)        -83.4218         estimate D2E/DX2                !
 ! D107  D(39,12,13,1)          37.1157         estimate D2E/DX2                !
 ! D108  D(39,12,13,15)        -85.81           estimate D2E/DX2                !
 ! D109  D(39,12,13,40)        160.4009         estimate D2E/DX2                !
 ! D110  D(1,13,15,11)         -57.4644         estimate D2E/DX2                !
 ! D111  D(1,13,15,41)         178.8023         estimate D2E/DX2                !
 ! D112  D(1,13,15,42)          65.662          estimate D2E/DX2                !
 ! D113  D(12,13,15,11)         67.3644         estimate D2E/DX2                !
 ! D114  D(12,13,15,41)        -56.3688         estimate D2E/DX2                !
 ! D115  D(12,13,15,42)       -169.5091         estimate D2E/DX2                !
 ! D116  D(40,13,15,11)       -176.7551         estimate D2E/DX2                !
 ! D117  D(40,13,15,41)         59.5117         estimate D2E/DX2                !
 ! D118  D(40,13,15,42)        -53.6287         estimate D2E/DX2                !
 --------------------------------------------------------------------------------
 Trust Radius=3.00D-01 FncErr=1.00D-07 GrdErr=1.00D-06
 Number of steps in this run=    251 maximum allowed number of steps=    252.
 GradGradGradGradGradGradGradGradGradGradGradGradGradGradGradGradGradGrad

                          Input orientation:                          
 ---------------------------------------------------------------------
 Center     Atomic      Atomic             Coordinates (Angstroms)
 Number     Number       Type             X           Y           Z
 ---------------------------------------------------------------------
      1          6           0        0.179271   -3.950849    3.929137
      2          6           0       -0.170819    0.521569    3.086354
      3          6           0        2.470921   -6.204405   -0.043809
      4          6           0        1.694959   -6.273456    1.267768
      5          6           0        3.042542   -4.812485   -0.293261
      6          6           0        2.534764   -5.780107    2.444560
      7          6           0        3.874017   -4.324907    0.891936
      8          6           0        3.105408   -4.369621    2.227402
      9          6           0       -1.200594   -5.305523    5.458144
     10          6           0        0.724482   -4.079353    6.395936
     11          6           0       -0.048193   -1.021442    3.023239
     12          6           0        2.054735   -3.231645    2.295332
     13          6           0        1.425590   -3.050939    3.692833
     14          7           0       -0.097778   -4.380134    5.228704
     15          7           0        1.061325   -1.600377    3.877330
     16          8           0       -1.175921    1.050076    2.529819
     17          8           0       -0.585555   -4.230149    2.995406
     18          8           0        0.770142    1.112183    3.706130
     19          1           0        3.290392   -6.933444   -0.018753
     20          1           0        1.817224   -6.490151   -0.875584
     21          1           0        0.779269   -5.679133    1.180786
     22          1           0        1.381685   -7.307595    1.451499
     23          1           0        3.666724   -4.830680   -1.194074
     24          1           0        2.225721   -4.109162   -0.492297
     25          1           0        1.953471   -5.834839    3.369139
     26          1           0        3.374378   -6.474808    2.582556
     27          1           0        4.766298   -4.958882    0.978506
     28          1           0        4.236945   -3.309471    0.693830
     29          1           0        3.836621   -4.180345    3.025038
     30          1           0       -0.793041   -6.244325    5.845136
     31          1           0       -1.763568   -5.517059    4.545995
     32          1           0       -1.878323   -4.868747    6.197535
     33          1           0        0.096969   -4.061457    7.292077
     34          1           0        1.214862   -3.109503    6.307103
     35          1           0        1.481446   -4.862594    6.493650
     36          1           0        0.151973   -1.306886    1.986801
     37          1           0       -0.982651   -1.476703    3.363984
     38          1           0        2.570449   -2.302459    2.016898
     39          1           0        1.278762   -3.386271    1.538044
     40          1           0        2.193737   -3.249995    4.444304
     41          1           0        1.880377   -0.993225    3.743755
     42          1           0        0.805832   -1.426872    4.854717
 ---------------------------------------------------------------------
                    Distance matrix (angstroms):
                    1          2          3          4          5
     1  C    0.000000
     2  C    4.564578   0.000000
     3  C    5.110232   7.874988   0.000000
     4  C    3.843787   7.277414   1.525489   0.000000
     5  C    5.173914   7.085170   1.525260   2.527296   0.000000
     6  C    3.331441   6.887902   2.525091   1.527581   2.947846
     7  C    4.797464   6.683151   2.525234   2.947267   1.527670
     8  C    3.410799   5.949387   2.987877   2.556336   2.560044
     9  C    2.465164   6.375017   6.675290   5.184629   7.164214
    10  C    2.529597   5.737890   7.002585   5.661627   7.117320
    11  C    3.074706   1.549163   6.528079   5.805506   5.909638
    12  C    2.589196   4.434571   3.805535   3.230780   3.189928
    13  C    1.555310   3.959692   4.999955   4.042043   4.648282
    14  N    1.396394   5.349925   6.142115   4.742108   6.367153
    15  N    2.511060   2.578076   6.209619   5.389710   5.624651
    16  O    5.366925   1.264626   8.517658   7.966733   7.754666
    17  O    1.238879   4.770650   4.740945   3.515762   4.931282
    18  O    5.102270   1.272146   8.395663   7.832532   7.500709
    19  H    5.844723   8.786291   1.097114   2.153166   2.152964
    20  H    5.675939   8.295390   1.095819   2.157744   2.157561
    21  H    3.301576   6.556109   2.153422   1.095113   2.836600
    22  H    4.341916   8.147321   2.153929   1.096057   3.468171
    23  H    6.259690   7.854640   2.154106   3.468446   1.096082
    24  H    4.874639   6.324067   2.156689   2.839666   1.096118
    25  H    2.647792   6.707944   3.471678   2.162169   3.955308
    26  H    4.288632   7.859487   2.790545   2.142349   3.338226
    27  H    5.546456   7.671604   2.804498   3.353341   2.147128
    28  H    5.229082   6.311056   3.470388   3.946682   2.158702
    29  H    3.774423   6.178295   3.921705   3.472150   3.470053
    30  H    3.142686   7.333169   6.733106   5.209923   7.378468
    31  H    2.570633   6.413458   6.282487   4.824969   6.856641
    32  H    3.197164   6.453722   7.723618   6.248532   8.145460
    33  H    3.365764   6.226070   8.002693   6.613533   8.171769
    34  H    2.726725   5.047576   7.175666   5.969588   7.057292
    35  H    3.017228   6.582467   6.746695   5.417192   6.964316
    36  H    3.280847   2.157884   5.786759   5.250202   5.083631
    37  H    2.791211   2.174682   6.774317   5.879843   6.380052
    38  H    3.477295   4.078410   4.413796   4.134790   3.443826
    39  H    2.691646   4.446320   3.444616   2.929523   2.915251
    40  H    2.194235   4.654015   5.380383   4.413669   5.060274
    41  H    3.416967   2.633284   6.469217   5.834871   5.677576
    42  H    2.760386   2.806667   7.042222   6.094762   6.554916
                    6          7          8          9         10
     6  C    0.000000
     7  C    2.514329   0.000000
     8  C    1.536966   1.541502   0.000000
     9  C    4.822843   6.896633   5.463997   0.000000
    10  C    4.667232   6.346171   4.809339   2.467562   0.000000
    11  C    5.445312   5.553294   4.667854   5.060647   4.617676
    12  C    2.597567   2.544511   1.550329   4.990142   4.393533
    13  C    3.199501   3.932279   2.590019   3.885398   2.975895
    14  N    4.079419   5.880967   4.389570   1.457804   1.459112
    15  N    4.657681   4.924113   3.816969   4.619888   3.549952
    16  O    7.773535   7.554799   6.913346   6.997810   6.698465
    17  O    3.527349   4.931668   3.772598   2.756770   3.647264
    18  O    7.225587   6.864087   6.139241   6.938322   5.847152
    19  H    2.822955   2.823905   3.413594   7.267426   7.475156
    20  H    3.470213   3.470275   3.972982   7.115242   7.738283
    21  H    2.165429   3.390402   2.867255   4.728133   5.455281
    22  H    2.156150   3.926991   3.493557   5.170074   5.941457
    23  H    3.927136   2.156435   3.497735   8.256407   8.174933
    24  H    3.393036   2.163221   2.870270   6.969840   7.049990
    25  H    1.093501   3.479214   2.185724   3.819980   3.708590
    26  H    1.098456   2.780271   2.151811   5.528708   5.225134
    27  H    2.793469   1.097991   2.159983   7.469345   6.816039
    28  H    3.473689   1.096391   2.180857   7.499983   6.741226
    29  H    2.142668   2.138322   1.098508   5.706099   4.588961
    30  H    4.780554   7.071053   5.639186   1.094171   2.700622
    31  H    4.791751   6.823177   5.513567   1.092567   3.417553
    32  H    5.864361   7.844397   6.391296   1.093979   2.727104
    33  H    5.691662   7.436216   5.898865   2.568011   1.094149
    34  H    4.877858   6.154051   4.669691   3.373079   1.090401
    35  H    4.283275   6.114958   4.591422   2.908917   1.093622
    36  H    5.088903   4.915363   4.261574   5.465232   5.239734
    37  H    5.633545   6.149026   5.135467   4.369539   4.345207
    38  H    3.504026   2.656149   2.145612   5.922950   5.073551
    39  H    2.851274   2.834404   2.186053   5.019754   4.938290
    40  H    3.242952   4.074077   2.645631   4.095675   2.579808
    41  H    5.003035   4.817424   3.898727   5.570227   4.230171
    42  H    5.267704   5.789301   4.566246   4.408379   3.068815
                   11         12         13         14         15
    11  C    0.000000
    12  C    3.136423   0.000000
    13  C    2.596007   1.543206   0.000000
    14  N    4.018376   3.815365   2.538958   0.000000
    15  N    1.515146   2.480044   1.506938   3.301027   0.000000
    16  O    2.409652   5.368915   4.993875   6.159022   3.721015
    17  O    3.253511   2.908306   2.433443   2.290861   3.225787
    18  O    2.385030   4.744404   4.214425   5.765160   2.733510
    19  H    7.439868   4.537087   5.685702   6.747955   6.970640
    20  H    6.970465   4.552909   5.731665   6.736597   6.860865
    21  H    5.076752   2.976445   3.692630   4.340767   4.897669
    22  H    6.635558   4.216446   4.810886   5.002611   6.209640
    23  H    6.789450   4.163097   5.663216   7.458320   6.553023
    24  H    5.202278   2.927482   4.390371   6.180771   5.171409
    25  H    5.224471   2.817789   2.851935   3.127582   4.357162
    26  H    6.453479   3.513127   4.093088   4.842069   5.548580
    27  H    6.547037   3.474184   4.708306   6.485242   5.780101
    28  H    5.387358   2.707934   4.118807   6.364057   4.810431
    29  H    5.007039   2.146536   2.744918   4.513929   3.883929
    30  H    5.983010   5.457763   4.444372   2.082928   5.373750
    31  H    5.046967   4.986786   4.120724   2.129213   4.875196
    32  H    5.312936   5.777217   4.527008   2.085118   4.970626
    33  H    5.242685   5.430368   3.967485   2.096900   4.318263
    34  H    4.091340   4.100562   2.623403   2.121431   2.864408
    35  H    5.397962   4.540323   3.336134   2.080097   4.202820
    36  H    1.093503   2.724039   2.752157   4.474055   2.118291
    37  H    1.093884   3.667090   2.895857   3.562316   2.111080
    38  H    3.083993   1.098578   2.163258   4.663890   2.496314
    39  H    3.091768   1.095230   2.185663   4.062463   2.951094
    40  H    3.465852   2.153541   1.092878   2.672740   2.079678
    41  H    2.058961   2.671863   2.107987   4.193963   1.028262
    42  H    2.061078   3.371559   2.090853   3.110969   1.025019
                   16         17         18         19         20
    16  O    0.000000
    17  O    5.333486   0.000000
    18  O    2.274802   5.557297   0.000000
    19  H    9.496303   5.604991   9.217296   0.000000
    20  H    8.798336   5.085816   8.937783   1.760934   0.000000
    21  H    7.136169   2.693538   7.245648   3.052528   2.442080
    22  H    8.806519   3.965395   8.737849   2.438194   2.504640
    23  H    8.479498   5.999521   8.229205   2.438159   2.505180
    24  H    6.879106   4.481293   6.856234   3.055215   2.445994
    25  H    7.609179   3.026774   7.055137   3.804222   4.297170
    26  H    8.793855   4.570559   8.099809   2.642765   3.792584
    27  H    8.592096   5.765524   7.763185   2.659271   3.805190
    28  H    7.188576   5.422306   6.375241   3.812731   4.293580
    29  H    7.261413   4.422555   6.154513   4.140361   4.962662
    30  H    8.021609   3.495842   7.819022   7.178753   7.214013
    31  H    6.894749   2.334134   7.146462   6.955975   6.569817
    32  H    6.998427   3.511792   6.999500   8.343909   8.143404
    33  H    7.101206   4.353812   6.330777   8.479062   8.693015
    34  H    6.106211   3.932516   4.978501   7.677682   7.961319
    35  H    7.598238   4.112200   6.631304   7.069095   7.554290
    36  H    2.759247   3.179103   3.031521   6.747598   6.150816
    37  H    2.667920   2.806243   3.145104   7.712187   7.137780
    38  H    5.053501   3.825419   4.213596   5.109620   5.144955
    39  H    5.166262   2.512313   5.019500   4.364941   3.968578
    40  H    5.788822   3.283972   4.647594   5.889765   6.240319
    41  H    3.871651   4.137453   2.380501   7.171528   7.180423
    42  H    3.932908   3.640240   2.786993   7.761835   7.713368
                   21         22         23         24         25
    21  H    0.000000
    22  H    1.757293   0.000000
    23  H    3.833695   4.284339   0.000000
    24  H    2.712238   3.836758   1.757716   0.000000
    25  H    2.488350   2.484611   4.976594   4.238251   0.000000
    26  H    3.054938   2.437960   4.129352   4.046036   1.745638
    27  H    4.056609   4.146779   2.438361   3.056112   3.793998
    28  H    4.219945   4.971072   2.490664   2.468080   4.330013
    29  H    3.872341   4.275795   4.272318   3.869329   2.530219
    30  H    4.954570   5.016375   8.452122   7.337227   3.720426
    31  H    4.221010   4.761779   7.931430   6.578829   3.911822
    32  H    5.734745   6.253038   9.240394   7.885049   4.859609
    33  H    6.358482   6.804429   9.238485   8.070337   4.688382
    34  H    5.750814   6.420957   8.077235   6.946437   4.074878
    35  H    5.420915   5.604576   7.992344   7.065767   3.306152
    36  H    4.489956   6.148759   5.906654   4.277746   5.065433
    37  H    5.052834   6.576244   7.324052   5.665192   5.254921
    38  H    3.912714   5.175347   4.231319   3.111121   3.832353
    39  H    2.373677   3.923629   3.905527   2.354058   3.131075
    40  H    4.307201   5.106900   6.038175   5.010910   2.809827
    41  H    5.453346   6.736052   6.503787   5.269958   4.856635
    42  H    5.619626   6.818826   7.507229   6.148278   4.791053
                   26         27         28         29         30
    26  H    0.000000
    27  H    2.609300   0.000000
    28  H    3.785586   1.755509   0.000000
    29  H    2.382021   2.378805   2.520557   0.000000
    30  H    5.297635   7.499513   7.774965   5.800581   0.000000
    31  H    5.583088   7.461749   7.464501   5.955017   1.777246
    32  H    6.575590   8.449697   8.373686   6.572611   1.787243
    33  H    6.224570   7.903745   7.825711   5.675099   2.765985
    34  H    5.464525   6.665346   6.378229   4.335005   3.751293
    35  H    4.634554   6.419995   6.606276   4.247775   2.739168
    36  H    6.119333   5.970405   4.729600   4.786578   6.337042
    37  H    6.676481   7.132075   6.142715   5.536239   5.377944
    38  H    4.286580   3.599527   2.354101   2.479110   6.442576
    39  H    3.875780   3.866406   3.077245   3.063387   5.568832
    40  H    3.906333   4.642211   4.271334   2.361977   4.455242
    41  H    5.798980   5.630415   4.496715   3.808040   6.255959
    42  H    6.102606   6.571560   5.712241   4.484977   5.171574
                   31         32         33         34         35
    31  H    0.000000
    32  H    1.777937   0.000000
    33  H    3.622339   2.398232   0.000000
    34  H    4.215314   3.560160   1.768071   0.000000
    35  H    3.840807   3.372798   1.787759   1.783030   0.000000
    36  H    5.286239   5.877009   5.978013   4.800434   5.892559
    37  H    4.281525   4.509679   4.824567   4.019583   5.227891
    38  H    5.959337   6.622321   6.086024   4.571082   5.270819
    39  H    4.779519   5.820291   5.912818   4.777511   5.174809
    40  H    4.561818   4.719730   3.628321   2.109017   2.703267
    41  H    5.864043   5.930307   5.018484   3.390029   4.763726
    42  H    4.840119   4.566656   3.658449   2.260084   3.866102
                   36         37         38         39         40
    36  H    0.000000
    37  H    1.792440   0.000000
    38  H    2.615550   3.888578   0.000000
    39  H    2.407255   3.477715   1.752827   0.000000
    40  H    3.739492   3.794879   2.632877   3.049935   0.000000
    41  H    2.484482   2.928295   2.274275   3.309648   2.383690
    42  H    2.943955   2.328828   3.454525   3.881137   2.327767
                   41         42
    41  H    0.000000
    42  H    1.605284   0.000000
 Stoichiometry    C13H24N2O3
 Framework group  C1[X(C13H24N2O3)]
 Deg. of freedom   120
 Full point group                 C1      NOp   1
 Largest Abelian subgroup         C1      NOp   1
 Largest concise Abelian subgroup C1      NOp   1
                         Standard orientation:                         
 ---------------------------------------------------------------------
 Center     Atomic      Atomic             Coordinates (Angstroms)
 Number     Number       Type             X           Y           Z
 ---------------------------------------------------------------------
      1          6           0        0.372170    1.374754   -0.336174
      2          6           0        3.691773   -1.758233   -0.334813
      3          6           0       -4.121112   -0.982086   -0.944614
      4          6           0       -3.270866    0.283508   -0.894897
      5          6           0       -3.380294   -2.187123   -0.374093
      6          6           0       -2.741998    0.550625    0.513099
      7          6           0       -2.848714   -1.907565    1.030558
      8          6           0       -1.972186   -0.641607    1.103214
      9          6           0        0.565815    3.770644   -0.883205
     10          6           0        1.095061    3.049409    1.416486
     11          6           0        2.393201   -0.934825   -0.523526
     12          6           0       -0.585027   -0.895723    0.459216
     13          6           0        0.435091    0.232938    0.718001
     14          7           0        0.714605    2.669202    0.060130
     15          7           0        1.818760   -0.362748    0.756479
     16          8           0        4.308934   -2.121244   -1.377221
     17          8           0        0.084143    1.131124   -1.516219
     18          8           0        4.013118   -1.988470    0.874354
     19          1           0       -5.044296   -0.820978   -0.374145
     20          1           0       -4.418930   -1.186979   -1.979091
     21          1           0       -2.438571    0.190941   -1.600580
     22          1           0       -3.870715    1.138463   -1.227426
     23          1           0       -4.055973   -3.049635   -0.343638
     24          1           0       -2.553531   -2.460229   -1.039939
     25          1           0       -2.132402    1.458427    0.518766
     26          1           0       -3.598235    0.766317    1.166507
     27          1           0       -3.702234   -1.783620    1.710061
     28          1           0       -2.291550   -2.779352    1.393361
     29          1           0       -1.799134   -0.431707    2.167504
     30          1           0       -0.186681    4.463302   -0.494378
     31          1           0        0.252225    3.431639   -1.873376
     32          1           0        1.525709    4.287332   -0.974995
     33          1           0        1.769949    3.909879    1.380720
     34          1           0        1.607555    2.239070    1.935788
     35          1           0        0.187766    3.317277    1.965187
     36          1           0        1.633744   -1.588667   -0.961092
     37          1           0        2.589704   -0.089767   -1.189744
     38          1           0       -0.197409   -1.828538    0.891053
     39          1           0       -0.693759   -1.081089   -0.614723
     40          1           0        0.265623    0.625954    1.723586
     41          1           0        1.881898   -1.106674    1.463522
     42          1           0        2.488645    0.333876    1.097995
 ---------------------------------------------------------------------
 Rotational constants (GHZ):      0.4610456      0.2576927      0.1949982
 Standard basis: 6-31G(d) (6D, 7F)
 There are   318 symmetry adapted basis functions of A   symmetry.
 Integral buffers will be    131072 words long.
 Raffenetti 2 integral format.
 Two-electron integral symmetry is turned on.
   318 basis functions,   600 primitive gaussians,   318 cartesian basis functions
    70 alpha electrons       70 beta electrons
       nuclear repulsion energy      1436.5651115170 Hartrees.
 NAtoms=   42 NActive=   42 NUniq=   42 SFac= 1.00D+00 NAtFMM=   60 NAOKFM=F Big=F
 ------------------------------------------------------------------------------
 Polarizable Continuum Model (PCM)
 =================================
 Model                : PCM.
 Atomic radii         : UFF (Universal Force Field).
 Polarization charges : Total charges.
 Charge compensation  : None.
 Solution method      : Matrix inversion.
 Cavity type          : Scaled VdW (van der Waals Surface) (Alpha=1.100).
 Cavity algorithm     : GePol (No added spheres)
                        Default sphere list used, NSphG=   42.
                        Lebedev-Laikov grids with approx.  5.0 points / Ang**2.
                        Smoothing algorithm: Karplus/York (Gamma=1.0000).
                        Polarization charges: spherical gaussians, with
                                              point-specific exponents (IZeta= 3).
                        Self-potential: point-specific (ISelfS= 7).
                        Self-field    : sphere-specific E.n sum rule (ISelfD= 2).
 1st derivatives      : Analytical E(r).r(x)/FMM algorithm (CHGder, D1EAlg=3).
                        Cavity 1st derivative terms included.
 Solvent              : Water, Eps=  78.355300 Eps(inf)=   1.777849
 ------------------------------------------------------------------------------
 One-electron integrals computed using PRISM.
 PrsmSu:  requested number of processors reduced to:  10 ShMem   1 Linda.
 NBasis=   318 RedAO= T  NBF=   318
 NBsUse=   318 1.00D-06 NBFU=   318
 Harris functional with IExCor=  402 diagonalized for initial guess.
 ExpMin= 1.61D-01 ExpMax= 5.48D+03 ExpMxC= 8.25D+02 IAcc=3 IRadAn=         5 AccDes= 0.00D+00
 HarFok:  IExCor=  402 AccDes= 0.00D+00 IRadAn=         5 IDoV= 1
 ScaDFX=  1.000000  1.000000  1.000000  1.000000
 FoFCou: FMM=F IPFlag=           0 FMFlag=      100000 FMFlg1=           0
         NFxFlg=           0 DoJE=T BraDBF=F KetDBF=T FulRan=T
         Omega=  0.000000  0.000000  1.000000  0.000000  0.000000 ICntrl=     500 IOpCl=  0
         NMat0=    1 NMatS0=    1 NMatT0=    0 NMatD0=    1 NMtDS0=    0 NMtDT0=    0
         I1Cent=           4 NGrid=           0.
 Petite list used in FoFCou.
 Initial guess orbital symmetries:
       Occupied  (A) (A) (A) (A) (A) (A) (A) (A) (A) (A) (A) (A)
                 (A) (A) (A) (A) (A) (A) (A) (A) (A) (A) (A) (A)
                 (A) (A) (A) (A) (A) (A) (A) (A) (A) (A) (A) (A)
                 (A) (A) (A) (A) (A) (A) (A) (A) (A) (A) (A) (A)
                 (A) (A) (A) (A) (A) (A) (A) (A) (A) (A) (A) (A)
                 (A) (A) (A) (A) (A) (A) (A) (A) (A) (A)
       Virtual   (A) (A) (A) (A) (A) (A) (A) (A) (A) (A) (A) (A)
                 (A) (A) (A) (A) (A) (A) (A) (A) (A) (A) (A) (A)
                 (A) (A) (A) (A) (A) (A) (A) (A) (A) (A) (A) (A)
                 (A) (A) (A) (A) (A) (A) (A) (A) (A) (A) (A) (A)
                 (A) (A) (A) (A) (A) (A) (A) (A) (A) (A) (A) (A)
                 (A) (A) (A) (A) (A) (A) (A) (A) (A) (A) (A) (A)
                 (A) (A) (A) (A) (A) (A) (A) (A) (A) (A) (A) (A)
                 (A) (A) (A) (A) (A) (A) (A) (A) (A) (A) (A) (A)
                 (A) (A) (A) (A) (A) (A) (A) (A) (A) (A) (A) (A)
                 (A) (A) (A) (A) (A) (A) (A) (A) (A) (A) (A) (A)
                 (A) (A) (A) (A) (A) (A) (A) (A) (A) (A) (A) (A)
                 (A) (A) (A) (A) (A) (A) (A) (A) (A) (A) (A) (A)
                 (A) (A) (A) (A) (A) (A) (A) (A) (A) (A) (A) (A)
                 (A) (A) (A) (A) (A) (A) (A) (A) (A) (A) (A) (A)
                 (A) (A) (A) (A) (A) (A) (A) (A) (A) (A) (A) (A)
                 (A) (A) (A) (A) (A) (A) (A) (A) (A) (A) (A) (A)
                 (A) (A) (A) (A) (A) (A) (A) (A) (A) (A) (A) (A)
                 (A) (A) (A) (A) (A) (A) (A) (A) (A) (A) (A) (A)
                 (A) (A) (A) (A) (A) (A) (A) (A) (A) (A) (A) (A)
                 (A) (A) (A) (A) (A) (A) (A) (A) (A) (A) (A) (A)
                 (A) (A) (A) (A) (A) (A) (A) (A)
 The electronic state of the initial guess is 1-A.
 Requested convergence on RMS density matrix=1.00D-08 within 128 cycles.
 Requested convergence on MAX density matrix=1.00D-06.
 Requested convergence on             energy=1.00D-06.
 No special actions if energy rises.
 CoulSu:  requested number of processors reduced to:   4 ShMem   1 Linda.
 CoulSu:  requested number of processors reduced to:  11 ShMem   1 Linda.
 CoulSu:  requested number of processors reduced to:   4 ShMem   1 Linda.
 CoulSu:  requested number of processors reduced to:  11 ShMem   1 Linda.
 CoulSu:  requested number of processors reduced to:  11 ShMem   1 Linda.
 CoulSu:  requested number of processors reduced to:  11 ShMem   1 Linda.
 CoulSu:  requested number of processors reduced to:  11 ShMem   1 Linda.
 CoulSu:  requested number of processors reduced to:  11 ShMem   1 Linda.
 CoulSu:  requested number of processors reduced to:  11 ShMem   1 Linda.
 CoulSu:  requested number of processors reduced to:  11 ShMem   1 Linda.
 CoulSu:  requested number of processors reduced to:  11 ShMem   1 Linda.
 CoulSu:  requested number of processors reduced to:  11 ShMem   1 Linda.
 CoulSu:  requested number of processors reduced to:  11 ShMem   1 Linda.
 CoulSu:  requested number of processors reduced to:  11 ShMem   1 Linda.
 CoulSu:  requested number of processors reduced to:  11 ShMem   1 Linda.
 CoulSu:  requested number of processors reduced to:  11 ShMem   1 Linda.
 CoulSu:  requested number of processors reduced to:  11 ShMem   1 Linda.
 Error on total polarization charges =  0.00928
 SCF Done:  E(RB3LYP) =  -845.026743036     A.U. after   13 cycles
             Convg  =    0.8115D-08             -V/T =  2.0097
 PrsmSu:  requested number of processors reduced to:  10 ShMem   1 Linda.
 D1PCM: PCM CHGder 1st derivatives, ID1Alg=3 FixD1E=F DoIter=F DoCFld=F I1PDM=0.
 CoulSu:  requested number of processors reduced to:   8 ShMem   1 Linda.
 CoulSu:  requested number of processors reduced to:   8 ShMem   1 Linda.
 CoulSu:  requested number of processors reduced to:   8 ShMem   1 Linda.
 Calling FoFJK, ICntrl=      2127 FMM=F ISym2X=0 I1Cent= 0 IOpClX= 0 NMat=1 NMatS=1 NMatT=0.
 ***** Axes restored to original set *****
 -------------------------------------------------------------------
 Center     Atomic                   Forces (Hartrees/Bohr)
 Number     Number              X              Y              Z
 -------------------------------------------------------------------
      1        6          -0.023117486   -0.008514256    0.018452003
      2        6           0.004455183    0.030335254    0.010598323
      3        6          -0.001715697   -0.002506413   -0.003641279
      4        6          -0.003567602   -0.002920706   -0.000385290
      5        6           0.001404711    0.000527449   -0.003929054
      6        6           0.000132450   -0.002760454    0.001366447
      7        6           0.002105584    0.002057433   -0.000529836
      8        6           0.002311268    0.003155432    0.002463522
      9        6          -0.001784561   -0.001324456    0.001045537
     10        6           0.002702077   -0.004763925   -0.003572302
     11        6          -0.013023656   -0.005463123   -0.009166245
     12        6           0.000920342   -0.004604942   -0.003058231
     13        6           0.005182849   -0.007773848   -0.007131021
     14        7           0.007085606    0.016250538   -0.031075111
     15        7          -0.008943556    0.015575302    0.006398701
     16        8           0.015872540   -0.021148275    0.006306609
     17        8           0.013103533    0.004709507    0.003225861
     18        8          -0.005681298   -0.014108304   -0.006333133
     19        1           0.001687393   -0.001235193   -0.000100543
     20        1          -0.000002174   -0.001543408   -0.001366984
     21        1          -0.001577311    0.000723342    0.000999533
     22        1          -0.001476112   -0.000698765    0.000949813
     23        1           0.000158437    0.001597253   -0.001284079
     24        1          -0.001423982    0.001078220   -0.000817045
     25        1          -0.001054904    0.000264452    0.002669856
     26        1           0.001471361    0.000706597    0.000431050
     27        1           0.000260772   -0.000761508    0.001254055
     28        1           0.000796306    0.001333099    0.001200747
     29        1          -0.000200874    0.001256422    0.001231025
     30        1          -0.001724321   -0.002043012    0.002253633
     31        1           0.005280715    0.004201103   -0.000098485
     32        1          -0.001215880   -0.001813924    0.001530409
     33        1           0.000321429    0.000024205   -0.001617442
     34        1          -0.000160777   -0.000684813    0.001834498
     35        1           0.003475816    0.000722247    0.006571577
     36        1          -0.001726172   -0.003023520    0.002227683
     37        1           0.002299300   -0.001283909   -0.003996406
     38        1          -0.000332780    0.000092941    0.002557794
     39        1          -0.001469771    0.000399399    0.003969272
     40        1          -0.000930869    0.001166819   -0.000459944
     41        1           0.000944370    0.001856176   -0.001717031
     42        1          -0.000842264    0.000943562    0.000741514
 -------------------------------------------------------------------
 Cartesian Forces:  Max     0.031075111 RMS     0.006731633

 GradGradGradGradGradGradGradGradGradGradGradGradGradGradGradGradGradGrad
 Berny optimization.
 Internal  Forces:  Max     0.030539142 RMS     0.004414552
 Search for a local minimum.
 Step number   1 out of a maximum of  251
 All quantities printed in internal units (Hartrees-Bohrs-Radians)
 Mixed Optimization -- RFO/linear search
 Second derivative matrix not updated -- first step.
 ITU=  0
     Eigenvalues ---    0.00230   0.00230   0.00230   0.00230   0.00230
     Eigenvalues ---    0.00230   0.00277   0.00476   0.00555   0.00658
     Eigenvalues ---    0.00841   0.00910   0.00927   0.01162   0.01739
     Eigenvalues ---    0.01851   0.02038   0.02826   0.03280   0.03479
     Eigenvalues ---    0.03823   0.03830   0.03873   0.04041   0.04238
     Eigenvalues ---    0.04405   0.04536   0.04701   0.04730   0.04790
     Eigenvalues ---    0.04858   0.04908   0.05391   0.05439   0.05451
     Eigenvalues ---    0.05471   0.05931   0.06562   0.07330   0.07377
     Eigenvalues ---    0.07681   0.07734   0.07999   0.08191   0.08196
     Eigenvalues ---    0.08234   0.08382   0.08433   0.08462   0.08756
     Eigenvalues ---    0.09346   0.09388   0.12126   0.12209   0.12329
     Eigenvalues ---    0.12894   0.12926   0.14245   0.15173   0.16000
     Eigenvalues ---    0.16000   0.16000   0.16000   0.16000   0.16000
     Eigenvalues ---    0.16314   0.17445   0.18243   0.21057   0.21883
     Eigenvalues ---    0.21913   0.22128   0.24834   0.24908   0.24967
     Eigenvalues ---    0.25000   0.25000   0.25000   0.27205   0.27337
     Eigenvalues ---    0.27623   0.27690   0.27722   0.28237   0.28267
     Eigenvalues ---    0.29368   0.29486   0.29644   0.30839   0.31660
     Eigenvalues ---    0.33840   0.33848   0.33853   0.33905   0.34003
     Eigenvalues ---    0.34084   0.34115   0.34119   0.34122   0.34149
     Eigenvalues ---    0.34215   0.34228   0.34335   0.34338   0.34357
     Eigenvalues ---    0.34368   0.34397   0.34411   0.34411   0.34482
     Eigenvalues ---    0.34518   0.34766   0.37076   0.37241   0.43046
     Eigenvalues ---    0.43547   0.46223   0.75563   0.78058   0.87485
 RFO step:  Lambda=-1.68108752D-02 EMin= 2.30000000D-03
 Linear search not attempted -- first point.
 Iteration  1 RMS(Cart)=  0.07696954 RMS(Int)=  0.00224997
 Iteration  2 RMS(Cart)=  0.00362502 RMS(Int)=  0.00035381
 Iteration  3 RMS(Cart)=  0.00000490 RMS(Int)=  0.00035380
 Iteration  4 RMS(Cart)=  0.00000000 RMS(Int)=  0.00035380
 Variable       Old X    -DE/DX   Delta X   Delta X   Delta X     New X
                                 (Linear)    (Quad)   (Total)
    R1        2.93911  -0.00735   0.00000  -0.02546  -0.02546   2.91365
    R2        2.63880  -0.02754   0.00000  -0.05749  -0.05749   2.58131
    R3        2.34114  -0.01158   0.00000  -0.01299  -0.01299   2.32815
    R4        2.92749  -0.00563   0.00000  -0.01916  -0.01916   2.90834
    R5        2.38980  -0.02422   0.00000  -0.03038  -0.03038   2.35942
    R6        2.40401  -0.01384   0.00000  -0.01792  -0.01792   2.38608
    R7        2.88276   0.00698   0.00000   0.02254   0.02255   2.90531
    R8        2.88232   0.00692   0.00000   0.02191   0.02192   2.90425
    R9        2.07324   0.00208   0.00000   0.00584   0.00584   2.07908
   R10        2.07080   0.00144   0.00000   0.00402   0.00402   2.07482
   R11        2.88671   0.00599   0.00000   0.01897   0.01897   2.90568
   R12        2.06946   0.00163   0.00000   0.00454   0.00454   2.07400
   R13        2.07125   0.00124   0.00000   0.00347   0.00347   2.07472
   R14        2.88688   0.00657   0.00000   0.02111   0.02111   2.90799
   R15        2.07130   0.00112   0.00000   0.00312   0.00312   2.07442
   R16        2.07136   0.00190   0.00000   0.00530   0.00530   2.07667
   R17        2.90444   0.00465   0.00000   0.01531   0.01530   2.91975
   R18        2.06642   0.00281   0.00000   0.00778   0.00778   2.07419
   R19        2.07578   0.00073   0.00000   0.00206   0.00206   2.07784
   R20        2.91302   0.00264   0.00000   0.00836   0.00835   2.92136
   R21        2.07490   0.00075   0.00000   0.00211   0.00211   2.07701
   R22        2.07188   0.00128   0.00000   0.00358   0.00358   2.07545
   R23        2.92970  -0.00066   0.00000  -0.00225  -0.00225   2.92745
   R24        2.07588   0.00098   0.00000   0.00275   0.00275   2.07863
   R25        2.75485   0.00093   0.00000   0.00239   0.00239   2.75724
   R26        2.06768   0.00191   0.00000   0.00530   0.00530   2.07298
   R27        2.06465  -0.00346   0.00000  -0.00955  -0.00955   2.05510
   R28        2.06732   0.00107   0.00000   0.00296   0.00296   2.07028
   R29        2.75732   0.00519   0.00000   0.01339   0.01339   2.77071
   R30        2.06764  -0.00151   0.00000  -0.00419  -0.00419   2.06345
   R31        2.06056  -0.00082   0.00000  -0.00226  -0.00226   2.05830
   R32        2.06665   0.00247   0.00000   0.00685   0.00685   2.07350
   R33        2.86321  -0.00699   0.00000  -0.02148  -0.02148   2.84173
   R34        2.06642  -0.00163   0.00000  -0.00453  -0.00453   2.06189
   R35        2.06714  -0.00267   0.00000  -0.00742  -0.00742   2.05972
   R36        2.91624  -0.00382   0.00000  -0.01277  -0.01277   2.90347
   R37        2.07601  -0.00073   0.00000  -0.00205  -0.00205   2.07397
   R38        2.06968  -0.00176   0.00000  -0.00490  -0.00490   2.06479
   R39        2.84770   0.00577   0.00000   0.01731   0.01731   2.86501
   R40        2.06524  -0.00118   0.00000  -0.00328  -0.00328   2.06196
   R41        1.94313   0.00207   0.00000   0.00463   0.00463   1.94777
   R42        1.93701   0.00107   0.00000   0.00237   0.00237   1.93938
    A1        2.06947  -0.00389   0.00000  -0.01357  -0.01422   2.05525
    A2        2.10672  -0.00744   0.00000  -0.02699  -0.02763   2.07909
    A3        2.10556   0.01141   0.00000   0.04389   0.04324   2.14879
    A4        2.05019  -0.01249   0.00000  -0.04675  -0.04841   2.00178
    A5        2.00835  -0.00436   0.00000  -0.01629  -0.01795   1.99039
    A6        2.22465   0.01685   0.00000   0.06322   0.06155   2.28620
    A7        1.95256  -0.00040   0.00000  -0.00123  -0.00123   1.95133
    A8        1.90734   0.00003   0.00000  -0.00144  -0.00145   1.90589
    A9        1.91491   0.00051   0.00000   0.00576   0.00574   1.92065
   A10        1.90733  -0.00019   0.00000  -0.00432  -0.00433   1.90300
   A11        1.91494   0.00051   0.00000   0.00644   0.00642   1.92136
   A12        1.86464  -0.00046   0.00000  -0.00548  -0.00546   1.85918
   A13        1.94774  -0.00076   0.00000  -0.00105  -0.00104   1.94670
   A14        1.90972   0.00091   0.00000   0.00608   0.00608   1.91579
   A15        1.90945   0.00086   0.00000   0.00860   0.00860   1.91805
   A16        1.92368  -0.00041   0.00000  -0.00643  -0.00644   1.91724
   A17        1.90998  -0.00003   0.00000  -0.00128  -0.00129   1.90868
   A18        1.86123  -0.00055   0.00000  -0.00603  -0.00608   1.85516
   A19        1.94804  -0.00043   0.00000   0.00046   0.00046   1.94850
   A20        1.90994   0.00083   0.00000   0.00917   0.00916   1.91910
   A21        1.91344  -0.00002   0.00000  -0.00281  -0.00281   1.91063
   A22        1.91023  -0.00008   0.00000  -0.00049  -0.00052   1.90971
   A23        1.91950   0.00029   0.00000   0.00075   0.00075   1.92024
   A24        1.86062  -0.00059   0.00000  -0.00737  -0.00736   1.85326
   A25        1.97323   0.00121   0.00000   0.00608   0.00607   1.97929
   A26        1.92085  -0.00004   0.00000   0.00376   0.00377   1.92462
   A27        1.88887   0.00057   0.00000   0.00601   0.00603   1.89491
   A28        1.94203  -0.00066   0.00000  -0.00414  -0.00417   1.93786
   A29        1.89057  -0.00139   0.00000  -0.01199  -0.01201   1.87856
   A30        1.84258   0.00023   0.00000  -0.00016  -0.00022   1.84235
   A31        1.97304   0.00108   0.00000   0.00509   0.00508   1.97812
   A32        1.89567  -0.00007   0.00000   0.00154   0.00156   1.89723
   A33        1.91302   0.00091   0.00000   0.01070   0.01072   1.92374
   A34        1.89667  -0.00087   0.00000  -0.01061  -0.01062   1.88606
   A35        1.92672  -0.00136   0.00000  -0.00769  -0.00775   1.91897
   A36        1.85460   0.00026   0.00000   0.00061   0.00052   1.85512
   A37        1.91150  -0.00003   0.00000   0.00016   0.00014   1.91163
   A38        1.99963   0.00040   0.00000   0.00265   0.00266   2.00228
   A39        1.87829   0.00015   0.00000   0.00223   0.00222   1.88051
   A40        1.93326  -0.00033   0.00000  -0.00162  -0.00162   1.93165
   A41        1.86728   0.00056   0.00000   0.00666   0.00665   1.87393
   A42        1.86797  -0.00072   0.00000  -0.00978  -0.00978   1.85819
   A43        1.89498   0.00475   0.00000   0.02833   0.02824   1.92322
   A44        1.96201  -0.00987   0.00000  -0.05802  -0.05778   1.90422
   A45        1.89820   0.00399   0.00000   0.02326   0.02310   1.92130
   A46        1.89767   0.00203   0.00000   0.01001   0.01031   1.90799
   A47        1.91162  -0.00303   0.00000  -0.01247  -0.01294   1.89869
   A48        1.89900   0.00213   0.00000   0.00914   0.00931   1.90831
   A49        1.91279  -0.00354   0.00000  -0.02533  -0.02527   1.88752
   A50        1.95154   0.00103   0.00000   0.00574   0.00516   1.95671
   A51        1.89009   0.01061   0.00000   0.06533   0.06497   1.95506
   A52        1.88610  -0.00101   0.00000  -0.01566  -0.01583   1.87026
   A53        1.91293  -0.00353   0.00000  -0.01999  -0.01970   1.89323
   A54        1.91029  -0.00376   0.00000  -0.01127  -0.01215   1.89814
   A55        1.99938  -0.03054   0.00000  -0.13153  -0.13092   1.86846
   A56        1.88926   0.01007   0.00000   0.04076   0.03912   1.92837
   A57        1.91158   0.01022   0.00000   0.05174   0.05185   1.96343
   A58        1.87601   0.00698   0.00000   0.01535   0.01543   1.89144
   A59        1.86601   0.00890   0.00000   0.03619   0.03746   1.90347
   A60        1.92088  -0.00567   0.00000  -0.01224  -0.01394   1.90694
   A61        1.98441   0.00090   0.00000   0.00128   0.00133   1.98574
   A62        1.86669   0.00018   0.00000   0.00600   0.00594   1.87263
   A63        1.92435   0.00195   0.00000   0.01737   0.01730   1.94165
   A64        1.89849  -0.00110   0.00000  -0.01180  -0.01183   1.88666
   A65        1.93247  -0.00300   0.00000  -0.02554  -0.02554   1.90693
   A66        1.85122   0.00117   0.00000   0.01436   0.01404   1.86526
   A67        1.97853  -0.00238   0.00000  -0.01653  -0.01630   1.96222
   A68        1.92267  -0.00464   0.00000  -0.02991  -0.02977   1.89290
   A69        1.93197   0.00243   0.00000   0.01220   0.01222   1.94419
   A70        1.89878   0.00630   0.00000   0.02834   0.02803   1.92681
   A71        1.89105  -0.00079   0.00000   0.00629   0.00614   1.89719
   A72        1.83490  -0.00066   0.00000   0.00184   0.00166   1.83656
   A73        2.08485  -0.00317   0.00000  -0.01229  -0.01230   2.07256
   A74        2.17646   0.00464   0.00000   0.01717   0.01714   2.19360
   A75        2.01668  -0.00150   0.00000  -0.00597  -0.00598   2.01070
   A76        2.06667   0.00015   0.00000  -0.00052  -0.00065   2.06602
   A77        1.85923  -0.00128   0.00000  -0.01814  -0.01823   1.84100
   A78        1.86534  -0.00035   0.00000   0.00353   0.00346   1.86880
   A79        1.93898   0.00006   0.00000  -0.00568  -0.00582   1.93317
   A80        1.91764   0.00112   0.00000   0.01686   0.01682   1.93446
   A81        1.79514   0.00025   0.00000   0.00433   0.00437   1.79950
    D1        2.61755  -0.00294   0.00000  -0.06656  -0.06617   2.55138
    D2       -1.53341   0.00013   0.00000  -0.06361  -0.06280  -1.59621
    D3        0.48847  -0.00201   0.00000  -0.07202  -0.07148   0.41700
    D4       -0.58117  -0.00100   0.00000   0.00136   0.00059  -0.58058
    D5        1.55105   0.00206   0.00000   0.00431   0.00396   1.55501
    D6       -2.71025  -0.00008   0.00000  -0.00410  -0.00472  -2.71497
    D7       -3.06104  -0.00041   0.00000   0.00151   0.00236  -3.05867
    D8       -0.03377  -0.00086   0.00000  -0.01084  -0.01004  -0.04381
    D9        0.13765  -0.00170   0.00000  -0.06397  -0.06477   0.07288
   D10       -3.11827  -0.00215   0.00000  -0.07631  -0.07717   3.08774
   D11       -2.99256  -0.00144   0.00000  -0.05280  -0.05254  -3.04510
   D12        1.19795   0.00209   0.00000  -0.01698  -0.01607   1.18189
   D13       -0.89653  -0.00307   0.00000  -0.05690  -0.05790  -0.95444
   D14        0.14712   0.00038   0.00000   0.04278   0.04293   0.19004
   D15       -1.94555   0.00391   0.00000   0.07860   0.07940  -1.86615
   D16        2.24315  -0.00124   0.00000   0.03869   0.03757   2.28071
   D17       -0.93570   0.00046   0.00000   0.00489   0.00489  -0.93081
   D18        1.19803   0.00007   0.00000   0.00025   0.00024   1.19828
   D19       -3.05196   0.00041   0.00000   0.00135   0.00136  -3.05060
   D20        1.17895  -0.00002   0.00000  -0.00234  -0.00233   1.17662
   D21       -2.97050  -0.00042   0.00000  -0.00698  -0.00698  -2.97749
   D22       -0.93731  -0.00007   0.00000  -0.00587  -0.00587  -0.94318
   D23       -3.06518  -0.00027   0.00000  -0.00648  -0.00648  -3.07167
   D24       -0.93145  -0.00066   0.00000  -0.01112  -0.01113  -0.94258
   D25        1.10174  -0.00032   0.00000  -0.01002  -0.01002   1.09172
   D26        0.93408  -0.00043   0.00000  -0.00437  -0.00437   0.92970
   D27        3.05119  -0.00025   0.00000   0.00153   0.00155   3.05274
   D28       -1.19713  -0.00049   0.00000  -0.00369  -0.00369  -1.20082
   D29       -1.18057  -0.00007   0.00000   0.00119   0.00118  -1.17939
   D30        0.93655   0.00011   0.00000   0.00709   0.00709   0.94364
   D31        2.97140  -0.00013   0.00000   0.00187   0.00186   2.97326
   D32        3.06355   0.00030   0.00000   0.00662   0.00662   3.07016
   D33       -1.10252   0.00048   0.00000   0.01252   0.01253  -1.08999
   D34        0.93234   0.00024   0.00000   0.00730   0.00730   0.93964
   D35        0.95231  -0.00021   0.00000  -0.00393  -0.00393   0.94837
   D36        3.13585  -0.00021   0.00000  -0.00194  -0.00193   3.13392
   D37       -1.14190   0.00037   0.00000   0.00321   0.00322  -1.13868
   D38       -1.17338  -0.00057   0.00000  -0.00650  -0.00649  -1.17987
   D39        1.01017  -0.00056   0.00000  -0.00450  -0.00449   1.00568
   D40        3.01560   0.00001   0.00000   0.00065   0.00066   3.01626
   D41        3.06826   0.00035   0.00000   0.00534   0.00533   3.07359
   D42       -1.03138   0.00036   0.00000   0.00734   0.00734  -1.02404
   D43        0.97406   0.00094   0.00000   0.01249   0.01248   0.98654
   D44       -0.94768   0.00007   0.00000   0.00302   0.00303  -0.94465
   D45        1.15877  -0.00037   0.00000  -0.00603  -0.00604   1.15273
   D46       -3.10510   0.00039   0.00000   0.00139   0.00138  -3.10372
   D47       -3.06463  -0.00064   0.00000  -0.00849  -0.00847  -3.07311
   D48       -0.95818  -0.00108   0.00000  -0.01754  -0.01755  -0.97573
   D49        1.06114  -0.00031   0.00000  -0.01012  -0.01013   1.05101
   D50        1.18003  -0.00005   0.00000   0.00028   0.00030   1.18033
   D51       -2.99670  -0.00049   0.00000  -0.00877  -0.00878  -3.00547
   D52       -0.97738   0.00028   0.00000  -0.00135  -0.00136  -0.97874
   D53       -0.93527   0.00025   0.00000   0.00516   0.00516  -0.93011
   D54        1.24905   0.00008   0.00000   0.00512   0.00513   1.25418
   D55       -2.95924  -0.00049   0.00000  -0.00403  -0.00402  -2.96326
   D56       -3.10732  -0.00011   0.00000  -0.00124  -0.00122  -3.10853
   D57       -0.92299  -0.00029   0.00000  -0.00128  -0.00126  -0.92425
   D58        1.15190  -0.00085   0.00000  -0.01043  -0.01040   1.14150
   D59        1.15796   0.00079   0.00000   0.00833   0.00830   1.16626
   D60       -2.94090   0.00061   0.00000   0.00829   0.00826  -2.93264
   D61       -0.86601   0.00005   0.00000  -0.00086  -0.00088  -0.86689
   D62        0.93333  -0.00048   0.00000  -0.00603  -0.00603   0.92731
   D63       -1.28882  -0.00072   0.00000  -0.00839  -0.00839  -1.29721
   D64        2.96428  -0.00001   0.00000   0.00032   0.00033   2.96462
   D65       -1.17255  -0.00049   0.00000  -0.00389  -0.00386  -1.17642
   D66        2.88848  -0.00073   0.00000  -0.00625  -0.00622   2.88226
   D67        0.85840  -0.00002   0.00000   0.00246   0.00250   0.86090
   D68        3.08318   0.00046   0.00000   0.00583   0.00580   3.08898
   D69        0.86103   0.00022   0.00000   0.00347   0.00344   0.86447
   D70       -1.16905   0.00094   0.00000   0.01218   0.01216  -1.15689
   D71        1.15157  -0.00049   0.00000  -0.01073  -0.01073   1.14084
   D72       -3.03574  -0.00121   0.00000  -0.02059  -0.02065  -3.05639
   D73       -1.03049   0.00126   0.00000   0.00846   0.00854  -1.02195
   D74       -2.95877  -0.00050   0.00000  -0.00979  -0.00981  -2.96858
   D75       -0.86290  -0.00121   0.00000  -0.01965  -0.01973  -0.88262
   D76        1.14236   0.00126   0.00000   0.00940   0.00946   1.15181
   D77       -0.92911  -0.00042   0.00000  -0.00832  -0.00833  -0.93744
   D78        1.16676  -0.00113   0.00000  -0.01819  -0.01824   1.14852
   D79       -3.11117   0.00134   0.00000   0.01086   0.01094  -3.10023
   D80        2.02535  -0.00053   0.00000  -0.00803  -0.00828   2.01707
   D81       -1.01210  -0.00053   0.00000   0.00166   0.00129  -1.01082
   D82       -0.07485  -0.00005   0.00000  -0.00309  -0.00297  -0.07782
   D83       -3.11231  -0.00006   0.00000   0.00661   0.00660  -3.10571
   D84       -2.17890   0.00085   0.00000   0.00665   0.00697  -2.17193
   D85        1.06683   0.00085   0.00000   0.01634   0.01654   1.08336
   D86        2.64260  -0.00097   0.00000  -0.01491  -0.01468   2.62792
   D87       -0.60932  -0.00152   0.00000  -0.02728  -0.02713  -0.63645
   D88        0.55161   0.00199   0.00000   0.01788   0.01819   0.56980
   D89       -2.70031   0.00144   0.00000   0.00552   0.00574  -2.69457
   D90       -1.55452  -0.00098   0.00000  -0.01488  -0.01530  -1.56982
   D91        1.47675  -0.00153   0.00000  -0.02725  -0.02775   1.44900
   D92       -2.94864   0.00163   0.00000   0.04564   0.04519  -2.90345
   D93       -0.75005   0.00071   0.00000   0.02144   0.02107  -0.72898
   D94        1.15970   0.00030   0.00000   0.02008   0.01967   1.17937
   D95       -0.84861   0.00007   0.00000   0.02513   0.02535  -0.82325
   D96        1.34998  -0.00085   0.00000   0.00094   0.00124   1.35121
   D97       -3.02346  -0.00126   0.00000  -0.00043  -0.00017  -3.02363
   D98        1.21337   0.00167   0.00000   0.03754   0.03765   1.25102
   D99       -2.87124   0.00075   0.00000   0.01334   0.01353  -2.85770
   D100      -0.96148   0.00034   0.00000   0.01198   0.01213  -0.94936
   D101      -1.52992  -0.00168   0.00000  -0.01871  -0.01876  -1.54868
   D102       2.60781   0.00129   0.00000   0.01028   0.01039   2.61820
   D103       0.62182  -0.00076   0.00000  -0.00967  -0.00975   0.61207
   D104       2.67547  -0.00171   0.00000  -0.01893  -0.01894   2.65653
   D105       0.53001   0.00126   0.00000   0.01005   0.01021   0.54022
   D106      -1.45599  -0.00079   0.00000  -0.00989  -0.00992  -1.46590
   D107       0.64779  -0.00078   0.00000  -0.01493  -0.01501   0.63278
   D108      -1.49767   0.00219   0.00000   0.01406   0.01414  -1.48352
   D109       2.79952   0.00014   0.00000  -0.00589  -0.00599   2.79354
   D110      -1.00294  -0.00025   0.00000  -0.01647  -0.01638  -1.01933
   D111       3.12069   0.00136   0.00000   0.01460   0.01470   3.13539
   D112       1.14602   0.00038   0.00000   0.00286   0.00300   1.14902
   D113       1.17573  -0.00204   0.00000  -0.03793  -0.03806   1.13767
   D114      -0.98382  -0.00043   0.00000  -0.00686  -0.00698  -0.99080
   D115      -2.95849  -0.00141   0.00000  -0.01859  -0.01868  -2.97717
   D116      -3.08496  -0.00036   0.00000  -0.01653  -0.01655  -3.10150
   D117       1.03867   0.00125   0.00000   0.01454   0.01453   1.05321
   D118      -0.93600   0.00027   0.00000   0.00280   0.00283  -0.93316
         Item               Value     Threshold  Converged?
 Maximum Force            0.030539     0.000450     NO 
 RMS     Force            0.004415     0.000300     NO 
 Maximum Displacement     0.312149     0.001800     NO 
 RMS     Displacement     0.077174     0.001200     NO 
 Predicted change in Energy=-9.388316D-03
 GradGradGradGradGradGradGradGradGradGradGradGradGradGradGradGradGradGrad

                          Input orientation:                          
 ---------------------------------------------------------------------
 Center     Atomic      Atomic             Coordinates (Angstroms)
 Number     Number       Type             X           Y           Z
 ---------------------------------------------------------------------
      1          6           0        0.159229   -3.903237    3.901514
      2          6           0       -0.084896    0.520676    3.160262
      3          6           0        2.465151   -6.251912    0.009955
      4          6           0        1.695845   -6.301262    1.340144
      5          6           0        3.011249   -4.845278   -0.281764
      6          6           0        2.540232   -5.750872    2.501329
      7          6           0        3.843674   -4.304539    0.894122
      8          6           0        3.087553   -4.329411    2.242280
      9          6           0       -1.168585   -5.309945    5.374616
     10          6           0        0.795047   -4.153681    6.327445
     11          6           0       -0.111411   -1.009939    3.001796
     12          6           0        2.022268   -3.205822    2.292728
     13          6           0        1.395456   -3.008465    3.681553
     14          7           0       -0.066638   -4.377425    5.162467
     15          7           0        0.981809   -1.562641    3.874000
     16          8           0       -1.010739    1.121596    2.576660
     17          8           0       -0.568870   -4.166114    2.943076
     18          8           0        0.931084    0.957195    3.769810
     19          1           0        3.304983   -6.961438    0.051171
     20          1           0        1.816948   -6.582726   -0.812164
     21          1           0        0.764551   -5.727302    1.251830
     22          1           0        1.400610   -7.334993    1.562882
     23          1           0        3.629675   -4.864071   -1.188525
     24          1           0        2.175214   -4.164760   -0.495250
     25          1           0        1.969230   -5.788482    3.437974
     26          1           0        3.401750   -6.416779    2.654172
     27          1           0        4.747590   -4.920970    0.998933
     28          1           0        4.189535   -3.284950    0.677230
     29          1           0        3.818015   -4.102219    3.032676
     30          1           0       -0.782762   -6.285136    5.696324
[...]
 ,-0.00096992,0.00018948,-0.00043206,-0.00047507,0.00024190,-0.00021942
 ,0.00033211,-0.00001206,0.00032420,0.00013092,-0.00019636,0.00001285,0
 .02283621,0.05006081,-0.06423088,0.01787518,0.02686461,-0.01105073,0.0
 0151661,0.00125788,-0.00015622,0.00008653,0.00098665,0.00210067,-0.000
 40678,0.00010478,-0.00031320,0.00023297,0.00042889,0.00162430,-0.00108
 599,0.00022423,-0.00017182,0.00004241,0.00000458,-0.00002563,0.0000089
 3,0.00001047,-0.00002501,0.00024655,0.00007339,0.00004654,0.00011373,-
 0.00005070,0.00003959,0.00002233,0.00000045,-0.00002590,-0.00002666,0.
 00002789,0.00001498,-0.00003969,-0.00015701,0.00004364,-0.00004102,-0.
 00016824,0.00018579,-0.00004137,-0.00006851,-0.00020479,0.00022665,-0.
 00006397,0.00006062,0.00037071,0.00015698,0.00011089,0.00017717,0.0001
 4565,-0.00003939,-0.00000506,-0.00002221,0.00004612,0.00005617,0.00002
 762,-0.00005064,0.00000461,0.00003118,-0.00008033,-0.00000767,-0.00005
 178,0.00009342,-0.00004667,0.00003059,-0.00006022,0.00002722,0.0000123
 8,-0.00005338,-0.00002976,-0.00003384,0.00003289,-0.03245459,-0.053212
 80,0.07118165,-0.00027752,-0.00136020,0.00065469,-0.00021778,-0.000238
 38,-0.00013756,0.00018403,0.00014903,0.00011958,-0.00021514,0.00019497
 ,-0.00004791,-0.00055860,0.00053993,-0.00022645,0.00063001,-0.00096438
 ,0.00015210,0.00027912,-0.00033874,-0.00069905,-0.01657491,-0.00367036
 ,-0.01460524,-0.00013872,0.00006199,0.00000419,0.00012365,0.00006850,0
 .00013071,-0.00057731,0.00039857,0.00018093,-0.19045294,-0.03357907,-0
 .13188761,0.01194332,0.00279820,0.00965397,0.00007813,0.00041757,-0.00
 068439,0.00016388,-0.00018068,-0.00053515,0.00004486,0.00007452,0.0000
 0131,-0.00140835,-0.00054177,0.00138864,0.00013961,-0.00008626,0.00000
 365,0.00001496,-0.00014174,-0.00002589,-0.00003294,-0.00002460,-0.0000
 1866,0.00057037,-0.00037805,0.00002106,0.00022249,-0.00010592,0.000145
 66,0.00038353,-0.00026380,0.00004794,0.00061946,-0.00019835,0.00082734
 ,0.00005872,0.00010983,-0.00002915,0.00001592,-0.00003973,0.00012040,0
 .00017645,0.00008585,0.00016560,-0.00005199,0.00002196,0.00009203,-0.0
 0246692,0.00342529,0.00065691,0.00002770,0.00004340,-0.00001802,-0.000
 03439,-0.00004300,0.00002650,0.00000870,-0.00000077,-0.00000910,-0.000
 07899,-0.00005655,-0.00004562,-0.00001456,-0.00001419,-0.00008980,-0.0
 0002251,0.00002886,-0.00005510,-0.00042440,0.00119244,0.00038577,0.000
 06844,0.00009554,0.00011221,-0.00932825,-0.00191217,-0.00846966,0.2084
 4399,-0.00004690,-0.00005988,0.00115073,-0.00037238,-0.00052498,0.0000
 8682,0.00005182,-0.00003245,-0.00023607,0.00031905,-0.00057587,-0.0001
 8520,0.00007047,0.00004650,-0.00053658,-0.00045388,0.00108773,0.000631
 22,-0.00075241,0.00062953,0.00020731,0.01829865,0.00563711,0.01765637,
 -0.00013203,-0.00001034,-0.00001185,0.00004972,0.00001905,0.00009328,-
 0.00000566,-0.00028731,-0.00038657,-0.03398569,-0.05902139,-0.03185815
 ,-0.00138275,-0.00105068,-0.00091960,0.00005929,0.00032811,-0.00037409
 ,-0.00024154,0.00015956,-0.00041158,0.00009472,0.00010886,-0.00001787,
 -0.00040918,-0.00088038,0.00031396,0.00045313,-0.00011992,0.00002899,-
 0.00005221,0.00000426,0.00009496,0.00000506,-0.00000227,0.00004855,-0.
 00056468,-0.00137600,-0.00040609,-0.00025489,0.00027873,0.00008314,-0.
 00010407,0.00000218,0.00001024,0.00025852,-0.00009062,-0.00045889,-0.0
 0003186,-0.00020592,0.00003967,-0.00018304,0.00024041,-0.00021069,-0.0
 0015471,-0.00004224,0.00000801,0.00004535,-0.00000473,-0.00013711,0.00
 425025,-0.00309703,-0.00006684,0.00002553,0.00004017,-0.00001269,-0.00
 000959,-0.00001960,0.00002055,0.00002352,0.00001156,-0.00001818,-0.000
 01857,-0.00000860,-0.00003228,0.00001537,0.00000654,-0.00002638,-0.000
 02276,0.00002665,-0.00004737,0.00092354,-0.00037755,-0.00036113,0.0000
 4070,0.00007834,0.00014043,-0.02074874,-0.00405983,-0.02045105,0.03448
 454,0.06241614,-0.00430002,-0.00097706,-0.00309031,-0.00003770,-0.0003
 4954,0.00025957,0.00001223,-0.00012825,0.00005879,-0.00044328,-0.00006
 213,0.00001362,0.00015549,-0.00030617,-0.00066256,-0.00042191,-0.00019
 476,-0.00003318,0.00002147,0.00036388,0.00016079,0.00100248,0.00184867
 ,0.00219877,0.00013514,-0.00000820,0.00004135,-0.00026779,-0.00027327,
 -0.00034567,-0.00070001,-0.00010120,-0.00028095,-0.12742748,-0.0301294
 0,-0.16622667,-0.02118370,-0.00394876,-0.02479816,0.00014719,-0.000369
 16,0.00096990,0.00007311,0.00003161,-0.00021634,-0.00001304,0.00004633
 ,-0.00002936,0.00035637,-0.00021348,0.00376689,0.00010751,0.00005835,0
 .00002922,0.00006182,0.00000960,-0.00004900,0.00001354,0.00001363,-0.0
 0002649,0.00029437,-0.00036375,0.00017397,0.00013399,-0.00004589,0.000
 04380,0.00002543,0.00007849,0.00006111,0.00079380,-0.00062002,-0.00091
 256,-0.00003221,0.00001165,-0.00001317,0.00007089,0.00009503,-0.000022
 35,-0.00017275,0.00004625,0.00003917,0.00001386,0.00001456,-0.00001013
 ,0.00057397,-0.00054902,0.00060956,-0.00000671,-0.00004454,0.00004194,
 0.00007760,0.00008435,-0.00002107,-0.00002449,-0.00000468,0.00003627,0
 .00012521,0.00013352,0.00003997,0.00018105,0.00014693,0.00015708,0.000
 08992,0.00002719,0.00007578,0.00082337,-0.00036514,0.00029978,0.000106
 28,0.00016905,0.00025268,0.00638160,0.00071774,0.00642119,0.13997823,0
 .03599365,0.18548612,-0.01156944,0.00639133,-0.01898218,-0.00086789,-0
 .00045520,0.00021568,0.00000349,-0.00002121,0.00001788,-0.00003561,-0.
 00002796,0.00004720,-0.00000449,0.00003808,0.00012683,-0.00002262,0.00
 003862,-0.00009848,0.00018402,-0.00011800,-0.00000457,0.00152682,0.000
 28899,0.00134115,0.00016456,-0.00016816,0.00017217,-0.00035507,-0.0011
 3327,-0.00080662,0.00146174,0.00109013,0.00140393,0.01027086,-0.000732
 01,0.00989689,-0.19258526,0.01588216,-0.13336511,0.00008353,-0.0005188
 0,0.00109319,-0.00874260,0.00593026,-0.00775699,0.00009999,0.00039967,
 -0.00037453,-0.00509098,-0.00470180,0.00004852,0.00023719,0.00018444,-
 0.00011302,0.00001020,0.00000944,-0.00000746,-0.00000314,-0.00000440,0
 .00000383,-0.00002131,-0.00000025,0.00002633,-0.00002240,-0.00000086,-
 0.00001749,-0.00003682,0.00005444,0.00000581,-0.00007628,0.00001683,-0
 .00007847,-0.00003802,-0.00007888,0.00004330,0.00000993,0.00001201,-0.
 00000108,0.00000974,-0.00000240,-0.00004984,0.00001451,-0.00000610,-0.
 00000831,-0.00015917,-0.00034526,-0.00026497,-0.00001587,-0.00005484,0
 .00000640,0.00017372,0.00020499,-0.00013267,0.00002015,0.00005429,0.00
 004093,0.00046337,0.00051113,0.00000295,0.00134137,0.00006505,0.001320
 88,0.00025046,0.00027331,0.00009697,0.00005710,-0.00029131,0.00015367,
 -0.00011601,0.00015961,-0.00021479,0.00013894,-0.00010296,-0.00040267,
 -0.00114970,0.00039784,0.00287696,0.20441291,-0.01068008,0.00789309,-0
 .01765446,0.00187298,0.00111088,-0.00037846,0.00004515,0.00000821,0.00
 001718,-0.00010356,0.00006592,0.00001548,-0.00002471,-0.00001198,-0.00
 004249,0.00004979,0.00009133,-0.00020549,0.00008314,-0.00015353,0.0001
 3333,-0.00071010,0.00044836,-0.00126562,0.00014460,-0.00008475,0.00002
 943,-0.00109865,-0.00068062,0.00141025,-0.00106817,-0.00403351,-0.0042
 9364,-0.00204437,0.00138062,-0.00192422,0.01042516,-0.05120390,0.01429
 214,0.00055219,-0.00030064,0.00072832,0.03160872,-0.01620114,0.0259614
 3,-0.00030130,-0.00101962,0.00095933,-0.00631537,-0.00455022,-0.000331
 15,-0.00062183,-0.00045048,0.00005205,0.00000238,-0.00000340,-0.000007
 99,-0.00000428,-0.00000155,0.00001182,0.00003534,0.00003549,0.00006279
 ,0.00002786,-0.00000447,0.00001511,0.00001860,-0.00002410,-0.00000251,
 0.00003293,-0.00001614,0.00003525,-0.00009903,-0.00005347,-0.00020965,
 -0.00003034,0.00001792,0.00009180,0.00003294,-0.00000200,-0.00005202,-
 0.00002600,-0.00000937,0.00003699,0.00021063,0.00020463,0.00011183,-0.
 00002002,-0.00007305,0.00000912,0.00015048,0.00015223,-0.00007572,0.00
 002512,0.00000879,0.00005533,0.00014582,0.00012048,0.00014353,-0.00063
 159,0.00010373,0.00233393,0.00009804,-0.00007435,0.00013319,-0.0001815
 9,0.00009125,-0.00008148,0.00075642,-0.00075238,0.00091666,0.00025413,
 0.00005389,-0.00030298,0.00003627,0.00039937,-0.00101379,-0.02296754,0
 .06486623,0.00375186,-0.00305660,0.00425955,0.00046424,0.00011414,0.00
 007534,0.00005601,0.00001178,0.00003537,-0.00017430,0.00011431,-0.0000
 0702,-0.00025248,0.00007693,-0.00000826,0.00024275,-0.00021825,0.00008
 859,0.00021244,0.00033393,0.00025051,-0.00229472,0.00095596,0.00098168
 ,0.00014501,0.00017472,0.00007253,0.00163342,0.00205658,-0.00329715,0.
 00018012,-0.00112544,0.00026367,-0.01892940,-0.00002777,-0.02347415,-0
 .14023498,0.02004436,-0.18119860,-0.00124178,-0.00090035,-0.00011688,0
 .00473033,-0.00228848,0.00449191,-0.00009751,-0.00016696,0.00012213,0.
 00123465,0.00153983,0.00125180,-0.00014181,0.00004823,-0.00003681,0.00
 000525,-0.00002437,-0.00000215,-0.00000601,0.00000015,0.00000672,0.000
 10021,0.00000799,0.00003439,0.00006235,-0.00001768,0.00003006,0.000101
 79,-0.00003929,0.00005555,0.00013461,-0.00008531,0.00011197,-0.0000854
 0,-0.00012525,0.00006645,-0.00003782,-0.00008051,0.00004967,0.00000681
 ,-0.00000605,0.00000884,-0.00004159,-0.00001570,0.00000826,0.00140403,
 -0.00042641,0.00044454,-0.00001723,-0.00002899,0.00001666,-0.00006932,
 -0.00001482,-0.00007333,-0.00005710,-0.00001824,0.00003548,0.00007569,
 0.00004729,-0.00008620,0.00214812,0.00256770,-0.00409902,-0.00010805,0
 .00002152,0.00002592,0.00018341,-0.00008003,-0.00000249,0.00016441,-0.
 00000446,0.00008966,0.00019100,0.00031932,0.00037691,0.00271105,0.0004
 2622,-0.00439046,0.14375440,-0.02088111,0.20263623,-0.00516850,0.00167
 303,0.00185771,0.00544557,0.00806742,-0.00613280,0.00002384,-0.0000019
 7,-0.00001302,-0.00000962,-0.00003473,0.00000212,-0.00003276,-0.000019
 32,-0.00000738,0.00000340,-0.00004864,-0.00008762,-0.00009027,0.000194
 22,-0.00011027,0.00018707,-0.00029305,0.00043451,-0.00024422,-0.000502
 92,-0.00040334,0.00032630,-0.00000913,0.00049758,-0.03562570,-0.006017
 20,-0.01260916,0.00065968,0.00146910,-0.00155453,0.01560018,0.00787138
 ,-0.00253345,0.00130789,0.00100407,-0.00082889,-0.17960902,-0.10163245
 ,0.03289860,-0.00413946,-0.00191206,-0.00069884,0.00200104,0.00047269,
 0.00021049,-0.01415561,-0.00043662,-0.00165431,-0.00001669,0.00000711,
 0.00000702,0.00000218,0.00001119,0.00003038,-0.00004200,-0.00002170,-0
 .00005228,0.00000124,0.00004652,0.00001902,-0.00000481,0.00001292,0.00
 003809,-0.00000071,0.00000830,-0.00002592,0.00000655,-0.00011662,0.000
 05953,-0.00005207,0.00007004,0.00005504,-0.00007871,0.00002071,0.00009
 700,-0.00000867,-0.00002769,0.00002191,-0.00004468,0.00003320,-0.00004
 903,0.00005445,0.00013013,-0.00006283,-0.00002136,-0.00006885,0.000080
 04,0.00023095,0.00017304,-0.00009526,-0.00000037,0.00003395,-0.0001743
 5,0.00004518,-0.00007198,0.00012948,-0.00008830,0.00008044,-0.00013433
 ,-0.00164943,0.00042594,0.00031028,-0.00129364,-0.00066360,-0.00108514
 ,-0.00022131,0.00035012,0.00088810,-0.00010044,-0.00021429,0.00018464,
 0.00027577,0.00020183,-0.00019993,0.22133847,0.00028325,-0.00381668,0.
 00064413,0.03177809,0.00413586,0.01117760,0.00004114,-0.00004572,-0.00
 002453,-0.00000438,-0.00000135,-0.00006478,-0.00009465,-0.00005242,-0.
 00000263,-0.00027408,-0.00010488,0.00003882,-0.00014271,0.00044585,-0.
 00028674,0.00066801,-0.00037405,0.00112812,-0.00037087,-0.00008790,-0.
 00004321,0.00011210,-0.00018324,0.00022193,-0.00343840,0.00945655,-0.0
 0714909,-0.00127057,0.00121780,-0.00031504,-0.01446439,-0.02551239,0.0
 0275905,0.00026043,0.00046246,-0.00057649,-0.09402588,-0.12899877,0.01
 064631,-0.01099721,0.00148278,-0.00381248,0.00086408,0.00096160,0.0001
 4609,-0.01298822,0.00096801,-0.01930173,-0.00002702,0.00001649,0.00000
 433,0.00001227,0.00003221,0.00004733,-0.00006776,-0.00003178,-0.000034
 90,0.00001681,0.00008342,0.00004387,-0.00000296,0.00003890,0.00009046,
 -0.00000286,0.00001660,-0.00005598,0.00004346,-0.00008004,-0.00001509,
 -0.00002605,0.00022000,0.00001277,-0.00017276,0.00006544,0.00022202,0.
 00003490,-0.00004421,-0.00000402,-0.00000835,-0.00001931,-0.00007964,0
 .00009519,0.00011908,-0.00004436,-0.00001677,-0.00003829,0.00004244,0.
 00008527,0.00003817,-0.00008022,0.00005860,0.00007122,-0.00011642,0.00
 015979,-0.00010436,0.00022205,-0.00002585,0.00009863,-0.00009699,0.000
 82149,-0.00155085,0.00178348,0.00113114,-0.00182814,0.00174249,0.00054
 457,0.00034560,-0.00136503,-0.00000477,0.00029337,0.00028472,-0.000271
 13,0.00124082,0.00052113,0.09280908,0.13287752,0.00321050,-0.00121523,
 -0.00059021,-0.02566233,0.00199215,-0.01240522,-0.00000643,-0.00001260
 ,0.00000174,0.00000764,0.00002221,-0.00002579,0.00001178,-0.00000099,-
 0.00000237,-0.00021352,0.00007835,0.00007364,0.00006026,-0.00011178,-0
 .00000567,0.00032382,0.00038360,-0.00036171,0.00011755,0.00029731,0.00
 026340,-0.00016374,-0.00001504,-0.00023735,-0.01700476,-0.01116970,0.0
 0309434,-0.00111945,-0.00175180,0.00117808,-0.00919441,-0.00191918,0.0
 0177565,-0.00089789,-0.00064677,0.00043115,0.02069733,0.00287212,-0.06
 203453,0.00721095,-0.00105343,0.00586522,-0.00101188,0.00003076,-0.000
 26254,0.00999388,-0.01246548,0.00559055,0.00000386,0.00000112,-0.00000
 464,0.00000229,0.00000088,-0.00000843,0.00000989,0.00000406,0.00003380
 ,0.00000508,-0.00000989,-0.00000123,-0.00000154,0.00000193,-0.00000503
 ,-0.00000702,-0.00000136,-0.00000148,0.00001376,0.00006888,-0.00004279
 ,0.00003998,0.00005644,-0.00003336,0.00001925,0.00001419,-0.00002471,0
 .00003446,0.00001577,-0.00002341,-0.00006802,0.00000917,-0.00001977,-0
 .00002789,-0.00007314,0.00003392,0.00001201,0.00004000,-0.00004551,-0.
 00012921,-0.00011285,0.00005315,0.00000005,-0.00002943,0.00009521,-0.0
 0000515,0.00009578,-0.00012832,0.00004915,-0.00004466,0.00007595,-0.00
 213195,0.00155873,-0.00221519,-0.00097215,0.00107528,-0.00190985,0.001
 13103,-0.00069458,-0.00136363,0.00008634,0.00013179,-0.00020100,0.0001
 6895,0.00066102,-0.00002483,-0.01015838,0.00042174,0.06687020,0.000713
 78,-0.00098462,-0.00119052,-0.00465744,-0.00153424,-0.00165494,0.00000
 776,-0.00001172,-0.00000653,-0.00000005,-0.00000157,-0.00001960,-0.000
 02027,-0.00001239,-0.00001518,-0.00011339,0.00000729,0.00001932,-0.000
 08842,0.00014444,-0.00009167,0.00036761,-0.00000052,0.00059925,-0.0001
 9586,0.00002740,-0.00002348,0.00033008,0.00040748,0.00006299,0.0069690
 6,-0.00328461,-0.02599740,-0.00055504,0.00208771,-0.00006445,-0.003394
 34,0.00023185,0.00824535,-0.00007306,0.00015976,0.00025238,-0.08693976
 ,0.01323904,0.10497496,0.00084802,0.00162646,-0.00024357,-0.00010699,-
 0.00003440,0.00005027,0.00141625,-0.00261114,0.00108772,-0.00000536,0.
 00000310,0.00000123,0.00000325,0.00000744,0.00000951,-0.00001643,-0.00
 000609,-0.00000892,0.00000307,0.00001801,0.00000873,-0.00000011,0.0000
 0589,0.00001848,0.00000156,0.00000246,-0.00001310,0.00001419,-0.000006
 92,0.00000247,-0.00000032,0.00006554,-0.00000050,-0.00005087,0.0000074
 2,0.00006710,0.00000565,-0.00001458,0.00000298,-0.00002785,-0.00002243
 ,-0.00003188,0.00005751,0.00005291,-0.00001345,-0.00001154,-0.00001204
 ,0.00000617,0.00001990,-0.00001394,-0.00001931,-0.00002796,-0.00005442
 ,-0.00002823,0.00004306,0.00027937,0.00012888,-0.00010963,-0.00006105,
 -0.00003261,-0.00187457,0.00210863,-0.00298516,-0.00006542,0.00005043,
 -0.00051425,0.00022080,0.00020804,-0.00042075,-0.00007097,0.00027479,0
 .00021356,-0.00029767,0.00011803,0.00029548,-0.00481140,0.00887798,0.0
 2556586,0.09249315,-0.00000250,0.00014347,-0.00216797,-0.00014622,0.00
 000638,0.00059170,-0.00001432,0.00003895,0.00000049,0.00001599,-0.0000
 2434,0.00005192,0.00005619,0.00002683,0.00004221,0.00011636,0.00018818
 ,-0.00009850,0.00035115,-0.00048395,0.00025394,-0.00019221,0.00053125,
 -0.00184567,-0.00039653,-0.00026864,0.00005523,0.00016350,-0.00134953,
 0.00091799,-0.00385181,0.00063045,0.00896982,0.00248269,-0.00646914,0.
 00135794,0.01070290,-0.00451248,-0.03280124,-0.00030882,0.00036565,0.0
 0043660,0.01257772,-0.06382373,-0.04167520,0.00047542,-0.00121842,0.00
 098355,-0.00002683,0.00010580,0.00025182,0.00055720,-0.00272752,0.0011
 2239,0.00000457,-0.00000464,0.00000456,-0.00000779,-0.00001770,-0.0000
 1012,0.00000399,0.00000545,-0.00002026,-0.00001530,-0.00002426,-0.0000
 1676,-0.00001043,-0.00001138,-0.00003841,-0.00001643,-0.00000144,0.000
 01568,-0.00003870,-0.00002596,0.00004318,-0.00001278,-0.00007528,0.000
 03118,0.00013590,-0.00000324,-0.00021253,-0.00001107,0.00003783,-0.000
 00040,0.00002460,0.00003390,0.00006624,0.00009706,0.00010844,-0.000043
 71,0.00004990,0.00002177,0.00001649,0.00011638,0.00003656,-0.00006394,
 0.00007031,0.00000621,-0.00010612,0.00047329,-0.00129468,0.00012812,0.
 00011829,0.00020301,-0.00009263,0.00000089,-0.00039135,0.00026133,0.00
 099663,0.00047396,0.00133476,-0.00003668,0.00011560,0.00042664,-0.0000
 8377,0.00003342,-0.00010701,-0.00000031,0.00141141,0.00024999,-0.00307
 360,0.00818604,0.02149462,-0.02134483,0.07001714,-0.00123639,-0.000740
 25,0.00135792,-0.00152556,0.00025317,-0.00134394,0.00000501,-0.0000032
 7,-0.00000579,0.00000496,-0.00000670,-0.00000151,-0.00001120,-0.000008
 24,0.00000354,0.00001875,-0.00005579,-0.00000724,0.00000176,0.00001393
 ,0.00000606,-0.00026403,0.00015223,0.00002556,0.00002598,-0.00012633,-
 0.00019775,0.00029904,0.00029301,-0.00007206,0.00560892,-0.00130539,-0
 .01517335,0.00044468,0.00002318,0.00070023,0.00084071,-0.00076096,0.00
 126693,0.00046435,0.00037484,-0.00025257,0.10387557,-0.04144995,-0.378
 22042,0.00011430,0.00062841,-0.00023642,0.00010053,0.00022026,-0.00033
 991,0.00016823,-0.00060647,0.00077332,-0.00000536,0.00000351,0.0000018
 6,0.00000136,0.00000408,0.00000848,-0.00001650,-0.00000695,-0.00001496
 ,-0.00000093,0.00001546,0.00000564,-0.00000405,0.00000615,0.00001139,-
 0.00000627,0.00000270,-0.00001490,0.00000619,-0.00002548,0.00000629,-0
 .00001870,0.00001505,0.00000893,-0.00002506,0.00001950,0.00001596,0.00
 000660,-0.00000126,-0.00000351,-0.00000489,0.00001297,-0.00001295,-0.0
 0001042,0.00002215,-0.00000618,-0.00003552,-0.00003262,0.00001692,0.00
 006033,0.00004938,-0.00001084,-0.00003457,0.00001380,-0.00004496,-0.00
 038085,-0.00002762,-0.00006581,-0.00017128,-0.00013231,-0.00004942,-0.
 00073973,0.00141764,-0.00086943,0.00019480,-0.00022821,0.00219816,-0.0
 0009512,0.00000997,0.00004175,-0.00008244,0.00000036,0.00009213,-0.000
 18557,0.00050549,0.00092696,0.00084955,0.00126849,-0.00345743,-0.10823
 719,0.04019206,0.39293335\\-0.00000727,0.00000010,-0.00001180,-0.00000
 840,0.00000037,-0.00000439,-0.00000008,0.00000251,-0.00000140,0.000000
 67,0.00000067,-0.00000160,-0.00000132,0.00000288,-0.00000171,0.0000017
 3,0.00000332,-0.00000008,-0.00000251,0.00000176,0.00000021,0.00000367,
 0.00000371,-0.00000377,0.00000535,-0.00000217,0.00000008,0.00000410,0.
 00000048,-0.00000097,-0.00000621,0.00000097,0.00000411,-0.00000125,0.0
 0000057,-0.00000182,0.00000273,0.00000694,0.00000413,-0.00000294,0.000
 00182,0.00000229,-0.00000336,-0.00001218,0.00000746,-0.00000490,-0.000
 00311,0.00000435,0.00000445,-0.00000618,0.00001417,-0.00000513,0.00000
 020,0.00000100,0.00000128,0.00000297,-0.00000251,-0.00000042,0.0000009
 3,-0.00000057,0.00000045,-0.00000076,-0.00000028,0.00000264,0.00000044
 ,-0.00000085,-0.00000283,0.00000307,-0.00000252,-0.00000293,0.00000136
 ,-0.00000070,0.00000267,-0.00000027,-0.00000054,0.00000170,0.00000202,
 -0.00000219,-0.00000052,0.00000414,-0.00000365,-0.00000294,0.00000384,
 -0.00000134,0.00000007,0.00000326,-0.00000230,0.00000422,-0.00000299,0
 .00000047,0.00000327,-0.00000624,0.00000031,0.00000501,-0.00000357,0.0
 0000277,0.00000514,-0.00000366,0.00000032,0.00000397,-0.00000283,0.000
 00155,0.00000642,0.00000029,0.00000086,-0.00000262,-0.00000220,0.00000
 073,-0.00000386,-0.00000438,0.00000227,-0.00000321,0.00000148,-0.00000
 234,-0.00000089,-0.00000007,-0.00000028,0.00000156,-0.00000029,-0.0000
 0115,0.00000498,0.00000333,-0.00000065,-0.00000250,-0.00000252,0.00000
 234\\\@


 THERE IS MORE TO LIFE THAN INCREASING ITS SPEED.

                                       -- GANDHI
 Job cpu time:  0 days  8 hours 19 minutes 59.3 seconds.
 File lengths (MBytes):  RWF=    622 Int=      0 D2E=      0 Chk=     20 Scr=      1
 Normal termination of Gaussian 09 at Sat Feb 17 21:34:31 2018.
