 Entering Gaussian System, Link 0=g09
 Initial command:
 /home/fb_chem/chemsoft/lx24-amd64/Gaussian_09_C.01_NBO_3.1_64_istanbul-64/g09/l1.exe /local/2400025.1.parallel_long/Gau-4212.inp -scrdir=/local/2400025.1.parallel_long/
 Entering Link 1 = /home/fb_chem/chemsoft/lx24-amd64/Gaussian_09_C.01_NBO_3.1_64_istanbul-64/g09/l1.exe PID=      4213.
  
 Copyright (c) 1988,1990,1992,1993,1995,1998,2003,2009,2011,
            Gaussian, Inc.  All Rights Reserved.
  
 This is part of the Gaussian(R) 09 program.  It is based on
 the Gaussian(R) 03 system (copyright 2003, Gaussian, Inc.),
 the Gaussian(R) 98 system (copyright 1998, Gaussian, Inc.),
 the Gaussian(R) 94 system (copyright 1995, Gaussian, Inc.),
 the Gaussian 92(TM) system (copyright 1992, Gaussian, Inc.),
 the Gaussian 90(TM) system (copyright 1990, Gaussian, Inc.),
 the Gaussian 88(TM) system (copyright 1988, Gaussian, Inc.),
 the Gaussian 86(TM) system (copyright 1986, Carnegie Mellon
 University), and the Gaussian 82(TM) system (copyright 1983,
 Carnegie Mellon University). Gaussian is a federally registered
 trademark of Gaussian, Inc.
  
 This software contains proprietary and confidential information,
 including trade secrets, belonging to Gaussian, Inc.
  
 This software is provided under written license and may be
 used, copied, transmitted, or stored only in accord with that
 written license.
  
 The following legend is applicable only to US Government
 contracts under FAR:
  
                    RESTRICTED RIGHTS LEGEND
  
 Use, reproduction and disclosure by the US Government is
 subject to restrictions as set forth in subparagraphs (a)
 and (c) of the Commercial Computer Software - Restricted
 Rights clause in FAR 52.227-19.
  
 Gaussian, Inc.
 340 Quinnipiac St., Bldg. 40, Wallingford CT 06492
  
  
 ---------------------------------------------------------------
 Warning -- This program may not be used in any manner that
 competes with the business of Gaussian, Inc. or will provide
 assistance to any competitor of Gaussian, Inc.  The licensee
 of this program is prohibited from giving any competitor of
 Gaussian, Inc. access to this program.  By using this program,
 the user acknowledges that Gaussian, Inc. is engaged in the
 business of creating and licensing software in the field of
 computational chemistry and represents and warrants to the
 licensee that it is not a competitor of Gaussian, Inc. and that
 it will not use this program in any manner prohibited above.
 ---------------------------------------------------------------
  

 Cite this work as:
 Gaussian 09, Revision C.01,
 M. J. Frisch, G. W. Trucks, H. B. Schlegel, G. E. Scuseria, 
 M. A. Robb, J. R. Cheeseman, G. Scalmani, V. Barone, B. Mennucci, 
 G. A. Petersson, H. Nakatsuji, M. Caricato, X. Li, H. P. Hratchian, 
 A. F. Izmaylov, J. Bloino, G. Zheng, J. L. Sonnenberg, M. Hada, 
 M. Ehara, K. Toyota, R. Fukuda, J. Hasegawa, M. Ishida, T. Nakajima, 
 Y. Honda, O. Kitao, H. Nakai, T. Vreven, J. A. Montgomery, Jr., 
 J. E. Peralta, F. Ogliaro, M. Bearpark, J. J. Heyd, E. Brothers, 
 K. N. Kudin, V. N. Staroverov, T. Keith, R. Kobayashi, J. Normand, 
 K. Raghavachari, A. Rendell, J. C. Burant, S. S. Iyengar, J. Tomasi, 
 M. Cossi, N. Rega, J. M. Millam, M. Klene, J. E. Knox, J. B. Cross, 
 V. Bakken, C. Adamo, J. Jaramillo, R. Gomperts, R. E. Stratmann, 
 O. Yazyev, A. J. Austin, R. Cammi, C. Pomelli, J. W. Ochterski, 
 R. L. Martin, K. Morokuma, V. G. Zakrzewski, G. A. Voth, 
 P. Salvador, J. J. Dannenberg, S. Dapprich, A. D. Daniels, 
 O. Farkas, J. B. Foresman, J. V. Ortiz, J. Cioslowski, 
 and D. J. Fox, Gaussian, Inc., Wallingford CT, 2010.
 
 ******************************************
 Gaussian 09:  AM64L-G09RevC.01 23-Sep-2011
                17-Feb-2018 
 ******************************************
 %nprocs=2
 Will use up to    2 processors via shared memory.
 %chk=frag23-conf1.chk
 ----------------------------------------------------------------------
 #HF/6-31G* Geom=AllCheck Guess=Read Pop=(MK,ReadRadii) Integral=(Grid=
 UltraFine) iop(6/33=2)
 ----------------------------------------------------------------------
 1/29=7,38=1/1;
 2/12=2,40=1/2;
 3/5=1,6=6,7=1,11=9,14=-4,16=1,25=1,30=1,75=-5,116=-2/1,2,3;
 4/5=1/1;
 5/5=2,38=6/2;
 6/7=2,8=2,9=2,10=2,15=8,20=101,28=1,33=2/1,2;
 99/5=1,9=1/99;
 Structure from the checkpoint file:  frag23-conf1.chk
 -----------------------------
 Optimization for frag23-conf1
 -----------------------------
 Charge =  0 Multiplicity = 1
 Redundant internal coordinates found in file.
 C,0,-2.3605387192,-1.4664562247,2.2383409048
 C,0,-3.5021638238,0.0737759761,3.7451317604
 C,0,-4.878939586,-1.3938882591,2.3365834507
 C,0,-3.3506148623,-5.5436482224,-0.3004992705
 C,0,-2.4321277582,-2.6299780144,1.232696239
 N,0,-2.8695981241,-3.8674983397,1.8826259635
 N,0,-3.5463184859,-0.9777087511,2.7366043571
 O,0,-1.2728642762,-1.0137067913,2.5665704841
 O,0,-3.0219689638,-6.3391759853,2.2000816602
 O,0,-1.0325132088,-5.3243256365,0.9323072176
 S,0,-2.4547609939,-5.369750688,1.2636510297
 H,0,-3.9720064454,0.9910144286,3.3662271782
 H,0,-2.459696003,0.2735651096,3.9874087179
 H,0,-4.0385190283,-0.2434616926,4.6485601536
 H,0,-5.4073404591,-1.8893116353,3.1642730208
 H,0,-4.8488315266,-2.0735418841,1.4846269554
 H,0,-5.4729208738,-0.5194129456,2.040159244
 H,0,-3.0609604969,-6.5059176922,-0.729024247
 H,0,-4.4248487738,-5.5300564862,-0.1049593828
 H,0,-3.0614910009,-4.736765905,-0.9776067513
 H,0,-3.0480308593,-2.3607522224,0.3591883697
 H,0,-1.4067288576,-2.7851532764,0.8988918972
 H,0,-3.7800938452,-3.8818635892,2.3294131447
 Recover connectivity data from disk.
                          Input orientation:                          
 ---------------------------------------------------------------------
 Center     Atomic      Atomic             Coordinates (Angstroms)
 Number     Number       Type             X           Y           Z
 ---------------------------------------------------------------------
      1          6           0       -2.360539   -1.466456    2.238341
      2          6           0       -3.502164    0.073776    3.745132
      3          6           0       -4.878940   -1.393888    2.336583
      4          6           0       -3.350615   -5.543648   -0.300499
      5          6           0       -2.432128   -2.629978    1.232696
      6          7           0       -2.869598   -3.867498    1.882626
      7          7           0       -3.546318   -0.977709    2.736604
      8          8           0       -1.272864   -1.013707    2.566570
      9          8           0       -3.021969   -6.339176    2.200082
     10          8           0       -1.032513   -5.324326    0.932307
     11         16           0       -2.454761   -5.369751    1.263651
     12          1           0       -3.972006    0.991014    3.366227
     13          1           0       -2.459696    0.273565    3.987409
     14          1           0       -4.038519   -0.243462    4.648560
     15          1           0       -5.407340   -1.889312    3.164273
     16          1           0       -4.848832   -2.073542    1.484627
     17          1           0       -5.472921   -0.519413    2.040159
     18          1           0       -3.060960   -6.505918   -0.729024
     19          1           0       -4.424849   -5.530056   -0.104959
     20          1           0       -3.061491   -4.736766   -0.977607
     21          1           0       -3.048031   -2.360752    0.359188
     22          1           0       -1.406729   -2.785153    0.898892
     23          1           0       -3.780094   -3.881864    2.329413
 ---------------------------------------------------------------------
                    Distance matrix (angstroms):
                    1          2          3          4          5
     1  C    0.000000
     2  C    2.438451   0.000000
     3  C    2.521361   2.456330   0.000000
     4  C    4.904024   6.924273   5.148834   0.000000
     5  C    1.539555   3.842863   2.955228   3.418155   0.000000
     6  N    2.480056   4.404851   3.219049   2.794081   1.464666
     7  N    1.375941   1.457634   1.452274   5.487267   2.496629
     8  O    1.223010   2.746161   3.633347   5.749566   2.394879
     9  O    4.917555   6.613904   5.284207   2.644575   3.878388
    10  O    4.283986   6.568916   5.675855   2.634674   3.051010
    11  S    4.024252   6.073449   4.778630   1.810901   2.740041
    12  H    3.147716   1.098020   2.751446   7.518831   4.476021
    13  H    2.469159   1.088739   3.370217   7.281474   4.002470
    14  H    3.181272   1.097497   2.715700   7.284118   4.465879
    15  H    3.212345   2.796571   1.099874   5.439572   3.623736
    16  H    2.669876   3.396229   1.090259   4.180068   2.492699
    17  H    3.259308   2.672581   1.097902   5.935133   3.788523
    18  H    5.889993   7.969009   6.231841   1.092472   4.389383
    19  H    5.124966   6.861304   4.824440   1.091970   3.764401
    20  H    4.639890   6.755721   5.045969   1.092303   3.117706
    21  H    2.191717   4.194970   2.863065   3.264594   1.102196
    22  H    2.107804   4.545922   4.007346   3.581414   1.089471
    23  H    2.803145   4.210533   2.719841   3.140449   2.141732
                    6          7          8          9         10
     6  N    0.000000
     7  N    3.088384   0.000000
     8  O    3.340878   2.280088   0.000000
     9  O    2.496635   5.413698   5.617322   0.000000
    10  O    2.529888   5.335521   4.616278   2.568094   0.000000
    11  S    1.676897   4.759319   4.697829   1.462331   1.461041
    12  H    5.198223   2.110333   3.455970   7.482924   7.378896
    13  H    4.663318   2.076282   2.254866   6.873066   6.535050
    14  H    4.706422   2.106408   3.546379   6.647267   6.975800
    15  H    3.463521   2.115969   4.268234   5.140132   5.993338
    16  H    2.700749   2.113016   3.883477   4.695204   5.043504
    17  H    4.244029   2.099254   4.261679   6.316833   6.635642
    18  H    3.717337   6.542725   6.650009   2.934107   2.875896
    19  H    3.022151   5.437846   6.121233   2.817084   3.553335
    20  H    2.995560   5.306688   5.442568   3.559071   2.847762
    21  H    2.150113   2.795211   3.136604   4.383768   3.629538
    22  H    2.068620   3.349908   2.436615   4.114994   2.566817
    23  H    1.014311   2.941865   3.816905   2.574852   3.403205
                   11         12         13         14         15
    11  S    0.000000
    12  H    6.868930   0.000000
    13  H    6.266250   1.785408   0.000000
    14  H    6.343874   1.781217   1.788049   0.000000
    15  H    4.944041   3.224476   3.747559   2.604919   0.000000
    16  H    4.079877   3.701452   4.181004   3.743831   1.779630
    17  H    5.765243   2.508504   3.674251   2.989551   1.773289
    18  H    2.372574   8.590988   8.280558   8.312183   6.478913
    19  H    2.404171   7.401255   7.368265   7.119922   4.990811
    20  H    2.406663   7.246061   7.079333   7.266232   5.546726
    21  H    3.197514   4.596776   4.522140   4.884946   3.695551
    22  H    2.812750   5.189204   4.472520   5.238943   4.683949
    23  H    2.259682   4.985655   4.664760   4.322406   2.704660
                   16         17         18         19         20
    16  H    0.000000
    17  H    1.764489   0.000000
    18  H    5.267133   7.023117   0.000000
    19  H    3.828059   5.550364   1.789400   0.000000
    20  H    4.043506   5.719088   1.786531   1.802656   0.000000
    21  H    2.142892   3.477971   4.285647   3.486481   2.726287
    22  H    3.563362   4.792702   4.385280   4.201340   3.173055
    23  H    2.264043   3.775633   4.093513   3.009721   3.490505
                   21         22         23
    21  H    0.000000
    22  H    1.779120   0.000000
    23  H    2.594510   2.980273   0.000000
 Stoichiometry    C5H12N2O3S
 Framework group  C1[X(C5H12N2O3S)]
 Deg. of freedom    63
 Full point group                 C1      NOp   1
 Largest Abelian subgroup         C1      NOp   1
 Largest concise Abelian subgroup C1      NOp   1
                         Standard orientation:                         
 ---------------------------------------------------------------------
 Center     Atomic      Atomic             Coordinates (Angstroms)
 Number     Number       Type             X           Y           Z
 ---------------------------------------------------------------------
      1          6           0        1.770638   -0.730351   -0.258063
      2          6           0        3.900702    0.138678    0.550431
      3          6           0        2.233768    1.748102   -0.264827
      4          6           0       -2.764779    0.900698   -1.163116
      5          6           0        0.343623   -0.466285   -0.771993
      6          7           0       -0.495299    0.127376    0.271570
      7          7           0        2.571787    0.359585   -0.006240
      8          8           0        2.151188   -1.879932   -0.086606
      9          8           0       -2.631779    0.624897    1.463673
     10          8           0       -2.445238   -1.456096   -0.029570
     11         16           0       -2.162580   -0.051162    0.254869
     12          1           0        4.673682    0.481578   -0.149975
     13          1           0        4.023638   -0.927614    0.732807
     14          1           0        4.015096    0.691393    1.491663
     15          1           0        2.155461    2.320509    0.671089
     16          1           0        1.293428    1.838066   -0.809191
     17          1           0        3.015257    2.217811   -0.876412
     18          1           0       -3.847869    0.763493   -1.202953
     19          1           0       -2.527173    1.956395   -1.016676
     20          1           0       -2.310742    0.516356   -2.079226
     21          1           0        0.360923    0.127036   -1.700705
     22          1           0       -0.067683   -1.449743   -0.996906
     23          1           0       -0.215223    1.018580    0.666717
 ---------------------------------------------------------------------
 Rotational constants (GHZ):      1.9528194      0.4690198      0.4307110
 Standard basis: 6-31G(d) (6D, 7F)
 There are   193 symmetry adapted basis functions of A   symmetry.
 Integral buffers will be    131072 words long.
 Raffenetti 1 integral format.
 Two-electron integral symmetry is turned on.
   193 basis functions,   380 primitive gaussians,   193 cartesian basis functions
    48 alpha electrons       48 beta electrons
       nuclear repulsion energy       789.4798738029 Hartrees.
 NAtoms=   23 NActive=   23 NUniq=   23 SFac= 1.00D+00 NAtFMM=   60 NAOKFM=F Big=F
 One-electron integrals computed using PRISM.
 NBasis=   193 RedAO= T  NBF=   193
 NBsUse=   193 1.00D-06 NBFU=   193
 Initial guess read from the checkpoint file:  frag23-conf1.chk
 B after Tr=     0.000000    0.000000    0.000000
         Rot=    1.000000    0.000000    0.000000    0.000000 Ang=   0.00 deg.
 Initial guess orbital symmetries:
       Occupied  (A) (A) (A) (A) (A) (A) (A) (A) (A) (A) (A) (A)
                 (A) (A) (A) (A) (A) (A) (A) (A) (A) (A) (A) (A)
                 (A) (A) (A) (A) (A) (A) (A) (A) (A) (A) (A) (A)
                 (A) (A) (A) (A) (A) (A) (A) (A) (A) (A) (A) (A)
       Virtual   (A) (A) (A) (A) (A) (A) (A) (A) (A) (A) (A) (A)
                 (A) (A) (A) (A) (A) (A) (A) (A) (A) (A) (A) (A)
                 (A) (A) (A) (A) (A) (A) (A) (A) (A) (A) (A) (A)
                 (A) (A) (A) (A) (A) (A) (A) (A) (A) (A) (A) (A)
                 (A) (A) (A) (A) (A) (A) (A) (A) (A) (A) (A) (A)
                 (A) (A) (A) (A) (A) (A) (A) (A) (A) (A) (A) (A)
                 (A) (A) (A) (A) (A) (A) (A) (A) (A) (A) (A) (A)
                 (A) (A) (A) (A) (A) (A) (A) (A) (A) (A) (A) (A)
                 (A) (A) (A) (A) (A) (A) (A) (A) (A) (A) (A) (A)
                 (A) (A) (A) (A) (A) (A) (A) (A) (A) (A) (A) (A)
                 (A) (A) (A) (A) (A) (A) (A) (A) (A) (A) (A) (A)
                 (A) (A) (A) (A) (A) (A) (A) (A) (A) (A) (A) (A)
                 (A)
 Requested convergence on RMS density matrix=1.00D-08 within 128 cycles.
 Requested convergence on MAX density matrix=1.00D-06.
 Requested convergence on             energy=1.00D-06.
 No special actions if energy rises.
 SCF Done:  E(RHF) =  -927.233452531     A.U. after   13 cycles
             Convg  =    0.6999D-08             -V/T =  2.0023

 **********************************************************************

            Population analysis using the SCF density.

 **********************************************************************

 Orbital symmetries:
 BldTbl:  Degeneracy threshold= 1.00D-02
       Occupied  (A) (A) (A) (A) (A) (A) (A) (A) (A) (A) (A) (A)
                 (A) (A) (A) (A) (A) (A) (A) (A) (A) (A) (A) (A)
                 (A) (A) (A) (A) (A) (A) (A) (A) (A) (A) (A) (A)
                 (A) (A) (A) (A) (A) (A) (A) (A) (A) (A) (A) (A)
       Virtual   (A) (A) (A) (A) (A) (A) (A) (A) (A) (A) (A) (A)
                 (A) (A) (A) (A) (A) (A) (A) (A) (A) (A) (A) (A)
                 (A) (A) (A) (A) (A) (A) (A) (A) (A) (A) (A) (A)
                 (A) (A) (A) (A) (A) (A) (A) (A) (A) (A) (A) (A)
                 (A) (A) (A) (A) (A) (A) (A) (A) (A) (A) (A) (A)
                 (A) (A) (A) (A) (A) (A) (A) (A) (A) (A) (A) (A)
                 (A) (A) (A) (A) (A) (A) (A) (A) (A) (A) (A) (A)
                 (A) (A) (A) (A) (A) (A) (A) (A) (A) (A) (A) (A)
                 (A) (A) (A) (A) (A) (A) (A) (A) (A) (A) (A) (A)
                 (A) (A) (A) (A) (A) (A) (A) (A) (A) (A) (A) (A)
                 (A) (A) (A) (A) (A) (A) (A) (A) (A) (A) (A) (A)
                 (A) (A) (A) (A) (A) (A) (A) (A) (A) (A) (A) (A)
                 (A)
 The electronic state is 1-A.
 Alpha  occ. eigenvalues --  -92.22178 -20.56307 -20.56273 -20.53743 -15.62293
 Alpha  occ. eigenvalues --  -15.61018 -11.37120 -11.30344 -11.29526 -11.28927
 Alpha  occ. eigenvalues --  -11.26659  -9.19200  -6.87808  -6.87785  -6.87684
 Alpha  occ. eigenvalues --   -1.46158  -1.39097  -1.34366  -1.26209  -1.24386
 Alpha  occ. eigenvalues --   -1.04963  -1.00918  -0.99062  -0.93344  -0.84586
 Alpha  occ. eigenvalues --   -0.76981  -0.72877  -0.71492  -0.69868  -0.67421
 Alpha  occ. eigenvalues --   -0.66444  -0.66044  -0.64759  -0.61855  -0.60665
 Alpha  occ. eigenvalues --   -0.59918  -0.58923  -0.57628  -0.56069  -0.54581
 Alpha  occ. eigenvalues --   -0.53204  -0.50930  -0.49686  -0.47285  -0.46440
 Alpha  occ. eigenvalues --   -0.46140  -0.41451  -0.38333
 Alpha virt. eigenvalues --    0.16129   0.19044   0.21175   0.23016   0.23922
 Alpha virt. eigenvalues --    0.25162   0.26022   0.26314   0.27232   0.27638
 Alpha virt. eigenvalues --    0.28861   0.29751   0.30279   0.31305   0.32053
 Alpha virt. eigenvalues --    0.32344   0.35119   0.35596   0.38013   0.40282
 Alpha virt. eigenvalues --    0.44040   0.49246   0.51336   0.54972   0.57898
 Alpha virt. eigenvalues --    0.63654   0.65635   0.67635   0.69941   0.71710
 Alpha virt. eigenvalues --    0.72689   0.73508   0.74115   0.76935   0.78383
 Alpha virt. eigenvalues --    0.83904   0.86929   0.88972   0.89940   0.92510
 Alpha virt. eigenvalues --    0.92800   0.94912   0.98419   0.99805   1.00782
 Alpha virt. eigenvalues --    1.05269   1.05487   1.06017   1.08452   1.09352
 Alpha virt. eigenvalues --    1.10850   1.11551   1.11925   1.12261   1.12622
 Alpha virt. eigenvalues --    1.14097   1.16546   1.17054   1.17676   1.20736
 Alpha virt. eigenvalues --    1.20912   1.21591   1.23120   1.25259   1.26411
 Alpha virt. eigenvalues --    1.29046   1.31577   1.32046   1.34553   1.39253
 Alpha virt. eigenvalues --    1.39976   1.44471   1.45746   1.48694   1.49616
 Alpha virt. eigenvalues --    1.54197   1.54930   1.59393   1.61498   1.65791
 Alpha virt. eigenvalues --    1.67900   1.69826   1.75153   1.78158   1.82241
 Alpha virt. eigenvalues --    1.84511   1.91683   1.92332   1.99345   2.02766
 Alpha virt. eigenvalues --    2.05300   2.06706   2.08169   2.10203   2.10588
 Alpha virt. eigenvalues --    2.13575   2.14906   2.15494   2.19158   2.22321
 Alpha virt. eigenvalues --    2.22890   2.25557   2.28759   2.29914   2.32844
 Alpha virt. eigenvalues --    2.36005   2.36491   2.38310   2.40473   2.40696
 Alpha virt. eigenvalues --    2.43895   2.45163   2.51412   2.51759   2.54670
 Alpha virt. eigenvalues --    2.56853   2.59587   2.62097   2.63141   2.66560
 Alpha virt. eigenvalues --    2.69601   2.72675   2.78553   2.86070   2.88359
 Alpha virt. eigenvalues --    2.94884   2.97114   3.00769   3.09017   3.11651
 Alpha virt. eigenvalues --    3.19287   3.28950   3.35740   3.52806   4.13051
 Alpha virt. eigenvalues --    4.31264   4.35463   4.36715   4.40732   4.50616
 Alpha virt. eigenvalues --    4.59797   4.63121   4.74483   4.74815   4.95892
          Condensed to atoms (all electrons):
              1          2          3          4          5          6
     1  C    4.149232  -0.028839  -0.025778  -0.000102   0.343903  -0.037362
     2  C   -0.028839   4.973886  -0.049803   0.000000   0.003676  -0.000196
     3  C   -0.025778  -0.049803   4.952295  -0.000005   0.000319  -0.003633
     4  C   -0.000102   0.000000  -0.000005   5.527313   0.000213  -0.064310
     5  C    0.343903   0.003676   0.000319   0.000213   5.189248   0.160460
     6  N   -0.037362  -0.000196  -0.003633  -0.064310   0.160460   7.508777
     7  N    0.281133   0.211560   0.227008   0.000005  -0.120031   0.006033
     8  O    0.608414  -0.007461   0.001827   0.000001  -0.069490   0.000845
     9  O   -0.000050   0.000000  -0.000003  -0.059181   0.001350  -0.055735
    10  O   -0.000192   0.000000   0.000000  -0.060883  -0.001097  -0.053754
    11  S   -0.000140   0.000002  -0.000100   0.292568  -0.011719   0.189385
    12  H    0.000476   0.399536  -0.002168   0.000000  -0.000127   0.000000
    13  H   -0.004679   0.395161   0.003112   0.000000   0.000607  -0.000025
    14  H    0.001916   0.398550  -0.002042   0.000000  -0.000023   0.000004
    15  H    0.000812  -0.000912   0.398230   0.000001   0.000005  -0.000173
    16  H   -0.003191   0.003569   0.396787   0.000004  -0.001020  -0.000186
    17  H    0.000492  -0.001931   0.401432   0.000000  -0.000333   0.000143
    18  H    0.000002   0.000000   0.000000   0.367834  -0.000006   0.002076
    19  H   -0.000008   0.000000  -0.000004   0.354004   0.000217   0.000979
    20  H    0.000013   0.000000   0.000000   0.355957   0.000193  -0.000690
    21  H   -0.039732  -0.000203  -0.002777   0.001455   0.386266  -0.052735
    22  H   -0.029445  -0.000058   0.000158  -0.000196   0.388515  -0.027670
    23  H   -0.003898  -0.000058   0.000622   0.000090  -0.020739   0.307460
              7          8          9         10         11         12
     1  C    0.281133   0.608414  -0.000050  -0.000192  -0.000140   0.000476
     2  C    0.211560  -0.007461   0.000000   0.000000   0.000002   0.399536
     3  C    0.227008   0.001827  -0.000003   0.000000  -0.000100  -0.002168
     4  C    0.000005   0.000001  -0.059181  -0.060883   0.292568   0.000000
     5  C   -0.120031  -0.069490   0.001350  -0.001097  -0.011719  -0.000127
     6  N    0.006033   0.000845  -0.055735  -0.053754   0.189385   0.000000
     7  N    7.402610  -0.097122   0.000001  -0.000001  -0.000082  -0.048021
     8  O   -0.097122   8.145371   0.000000   0.000005  -0.000096   0.000416
     9  O    0.000001   0.000000   8.329244  -0.034386   0.494093   0.000000
    10  O   -0.000001   0.000005  -0.034386   8.337412   0.484137   0.000000
    11  S   -0.000082  -0.000096   0.494093   0.484137  12.997665   0.000000
    12  H   -0.048021   0.000416   0.000000   0.000000   0.000000   0.541217
    13  H   -0.030467   0.011660   0.000000   0.000000   0.000000  -0.021519
    14  H   -0.048100   0.000450   0.000000   0.000000   0.000000  -0.039711
    15  H   -0.051265  -0.000020   0.000001   0.000000  -0.000021  -0.000841
    16  H   -0.036860   0.000054  -0.000007   0.000000   0.000083  -0.000026
    17  H   -0.046592  -0.000012   0.000000   0.000000   0.000003   0.004302
    18  H    0.000000   0.000000   0.000049   0.000373  -0.015337   0.000000
    19  H    0.000000   0.000000   0.000919   0.001749  -0.013857   0.000000
    20  H    0.000000   0.000000   0.001652   0.000695  -0.013732   0.000000
    21  H    0.003743   0.001760  -0.000030  -0.000044  -0.005639   0.000002
    22  H    0.003229   0.005665   0.000021   0.005595  -0.000683   0.000002
    23  H    0.001153   0.000026   0.001920   0.001099  -0.003092   0.000002
             13         14         15         16         17         18
     1  C   -0.004679   0.001916   0.000812  -0.003191   0.000492   0.000002
     2  C    0.395161   0.398550  -0.000912   0.003569  -0.001931   0.000000
     3  C    0.003112  -0.002042   0.398230   0.396787   0.401432   0.000000
     4  C    0.000000   0.000000   0.000001   0.000004   0.000000   0.367834
     5  C    0.000607  -0.000023   0.000005  -0.001020  -0.000333  -0.000006
     6  N   -0.000025   0.000004  -0.000173  -0.000186   0.000143   0.002076
     7  N   -0.030467  -0.048100  -0.051265  -0.036860  -0.046592   0.000000
     8  O    0.011660   0.000450  -0.000020   0.000054  -0.000012   0.000000
     9  O    0.000000   0.000000   0.000001  -0.000007   0.000000   0.000049
    10  O    0.000000   0.000000   0.000000   0.000000   0.000000   0.000373
    11  S    0.000000   0.000000  -0.000021   0.000083   0.000003  -0.015337
    12  H   -0.021519  -0.039711  -0.000841  -0.000026   0.004302   0.000000
    13  H    0.422539  -0.020516  -0.000051  -0.000092  -0.000028   0.000000
    14  H   -0.020516   0.538501   0.003722  -0.000046  -0.001308   0.000000
    15  H   -0.000051   0.003722   0.538912  -0.029691  -0.039506   0.000000
    16  H   -0.000092  -0.000046  -0.029691   0.526984  -0.023729   0.000001
    17  H   -0.000028  -0.001308  -0.039506  -0.023729   0.517811   0.000000
    18  H    0.000000   0.000000   0.000000   0.000001   0.000000   0.433181
    19  H    0.000000   0.000000   0.000000   0.000054   0.000000  -0.016044
    20  H    0.000000   0.000000   0.000000  -0.000002   0.000000  -0.017130
    21  H   -0.000022  -0.000001   0.000207  -0.005295   0.000029  -0.000053
    22  H   -0.000010   0.000001  -0.000007   0.000268   0.000004   0.000002
    23  H   -0.000002  -0.000004   0.000163   0.000531   0.000076  -0.000019
             19         20         21         22         23
     1  C   -0.000008   0.000013  -0.039732  -0.029445  -0.003898
     2  C    0.000000   0.000000  -0.000203  -0.000058  -0.000058
     3  C   -0.000004   0.000000  -0.002777   0.000158   0.000622
     4  C    0.354004   0.355957   0.001455  -0.000196   0.000090
     5  C    0.000217   0.000193   0.386266   0.388515  -0.020739
     6  N    0.000979  -0.000690  -0.052735  -0.027670   0.307460
     7  N    0.000000   0.000000   0.003743   0.003229   0.001153
     8  O    0.000000   0.000000   0.001760   0.005665   0.000026
     9  O    0.000919   0.001652  -0.000030   0.000021   0.001920
    10  O    0.001749   0.000695  -0.000044   0.005595   0.001099
    11  S   -0.013857  -0.013732  -0.005639  -0.000683  -0.003092
    12  H    0.000000   0.000000   0.000002   0.000002   0.000002
    13  H    0.000000   0.000000  -0.000022  -0.000010  -0.000002
    14  H    0.000000   0.000000  -0.000001   0.000001  -0.000004
    15  H    0.000000   0.000000   0.000207  -0.000007   0.000163
    16  H    0.000054  -0.000002  -0.005295   0.000268   0.000531
    17  H    0.000000   0.000000   0.000029   0.000004   0.000076
    18  H   -0.016044  -0.017130  -0.000053   0.000002  -0.000019
    19  H    0.478667  -0.020525  -0.000010  -0.000008   0.000074
    20  H   -0.020525   0.475035   0.000812   0.000098   0.000076
    21  H   -0.000010   0.000812   0.558095  -0.021062  -0.000023
    22  H   -0.000008   0.000098  -0.021062   0.394816   0.002187
    23  H    0.000074   0.000076  -0.000023   0.002187   0.299384
 Mulliken atomic charges:
              1
     1  C    0.787021
     2  C   -0.296478
     3  C   -0.295477
     4  C   -0.714769
     5  C   -0.250385
     6  N   -0.879695
     7  N   -0.657933
     8  O   -0.602293
     9  O   -0.679856
    10  O   -0.680707
    11  S    1.606563
    12  H    0.166461
    13  H    0.244331
    14  H    0.168607
    15  H    0.180435
    16  H    0.171811
    17  H    0.189147
    18  H    0.245071
    19  H    0.213793
    20  H    0.217548
    21  H    0.175257
    22  H    0.278576
    23  H    0.412972
 Sum of Mulliken atomic charges =   0.00000
 Mulliken charges with hydrogens summed into heavy atoms:
              1
     1  C    0.787021
     2  C    0.282921
     3  C    0.245916
     4  C   -0.038357
     5  C    0.203448
     6  N   -0.466722
     7  N   -0.657933
     8  O   -0.602293
     9  O   -0.679856
    10  O   -0.680707
    11  S    1.606563
 Sum of Mulliken charges with hydrogens summed into heavy atoms =   0.00000
 DipInt: DoE/N= T F RetVal/Mat= T F Init=T NMatP=  1 IDeriv=0 Min/MaxMlt=  0  4
 Entering OneElI...
 OneElI was handed    33456291 working-precision words.
 Multipole integrals L=0 to 4 MinM= 0 MaxM= 0.
 Requested accuracy = 0.1000D-12
 PrsmSu:  NPrtUS=   1 ThrOK=F IAlg=1 NPAlg=1 LenDen=           0.
 Prism:   IPart=     0 DynPar=F LinDyn=F Incr=          21.
 PRISM was handed    33264146 working-precision words and  2146 shell-pairs
 IPart=  0 NShTot=        2146 NBatch=          61 AvBLen=        35.2
 PrSmSu:  NxtVal=             22.
 Electronic moments (au):
        -96.00000000          0.97780329          2.66450650         -1.65945547
      -2005.17427748       -418.33490871       -230.09667743          2.15763584
          8.22259468         -1.62707689      -1922.31280139         76.93405013
         -5.57498144       -489.92755630       -412.10515051       -504.02106292
        426.20225103       -185.99754961        130.33977969        -30.98452539
     -68186.37097654      -5079.99016869      -1905.81538152       -625.61597472
      -3295.98102291       -501.61693390        198.24496479         -1.36702068
        -19.88854184      -8352.93540505      -5443.60171073       -789.32735804
        354.71998840         39.85664827        632.78581907
 Electronic spatial extent (au):  <R**2>=           2653.6059
 DipInt: DoE/N= F T RetVal/Mat= T F Init=T NMatP=  1 IDeriv=0 Min/MaxMlt=  0  4
 Nuclear    moments (au):
         96.00000000          0.00000000          0.00000000          0.00000000
       1949.80522204        358.27522783        174.57191256          0.00000000
          0.00000000          0.00000000       1951.00900600        -45.30033459
         -3.48206993        484.19475246        458.44292344        473.29649008
       -417.90075536        180.05291988       -130.43541419         40.88198088
      61728.51648653       3639.24480109       1127.41025084        614.01193233
       3549.51225750        541.47048210       -195.34508374         39.99232999
         22.22209793       6853.08799828       4134.82108605        437.69645579
       -437.37648785        -33.06997942       -614.87680363
 Total      moments (au):
          0.00000000          0.97780329          2.66450650         -1.65945547
        -55.36905544        -60.05968088        -55.52476487          2.15763584
          8.22259468         -1.62707689         28.69620461         31.63371553
         -9.05705137         -5.73280383         46.33777293        -30.72457284
          8.30149568         -5.94462973         -0.09563451          9.89745549
      -6457.85449001      -1440.74536760       -778.40513068        -11.60404239
        253.53123459         39.85354820          2.89988105         38.62530931
          2.33355609      -1499.84740677      -1308.78062469       -351.63090225
        -82.65649945          6.78666885         17.90901544
 Traceless Quadrup. (au):
          1.61544496         -3.07518048          1.45973552          2.15763584
          8.22259468         -1.62707689
 Charge=              0.0000 electrons
 Dipole moment (field-independent basis, Debye):
    X=              2.4853    Y=              6.7725    Z=             -4.2179  Tot=              8.3567
 Quadrupole moment (field-independent basis, Debye-Ang):
   XX=            -74.4733   YY=            -80.7823   ZZ=            -74.6827
   XY=              2.9021   XZ=             11.0597   YZ=             -2.1885
 Traceless Quadrupole moment (field-independent basis, Debye-Ang):
   XX=              2.1728   YY=             -4.1362   ZZ=              1.9634
   XY=              2.9021   XZ=             11.0597   YZ=             -2.1885
 Octapole moment (field-independent basis, Debye-Ang**2):
  XXX=             20.4249  YYY=             22.5157  ZZZ=             -6.4465  XYY=             -4.0804
  XXY=             32.9814  XXZ=            -21.8686  XZZ=              5.9087  YZZ=             -4.2312
  YYZ=             -0.0681  XYZ=              7.0446
 Hexadecapole moment (field-independent basis, Debye-Ang**3):
 XXXX=          -2432.3375 YYYY=           -542.6538 ZZZZ=           -293.1847 XXXY=             -4.3706
 XXXZ=             95.4920 YYYX=             15.0108 YYYZ=              1.0922 ZZZX=             14.5481
 ZZZY=              0.8789 XXYY=           -564.9144 XXZZ=           -492.9495 YYZZ=           -132.4411
 XXYZ=            -31.1324 YYXZ=              2.5562 ZZXY=              6.7454
 N-N= 7.894798738029D+02 E-N=-3.765755537544D+03  KE= 9.251078198608D+02
 Entering OneElI...
 OneElI was handed    33381025 working-precision words.
 Calculate electrostatic properties
    NBasis =   193  MinDer = 0  MaxDer = 0
    NGrid  =    23  NMatD  =   1
 Requested accuracy = 0.1000D-12
 PrsmSu:  NPrtUS=   2 ThrOK=T IAlg=1 NPAlg=1 LenDen=           0.
 Prism:   IPart=     0 DynPar=F LinDyn=F Incr=         227.
 PRISM was handed    16570453 working-precision words and  1977 shell-pairs
 PRISM was handed    16570453 working-precision words and  1977 shell-pairs
 IPart=  1 NShTot=       22379 NBatch=         973 AvBLen=        23.0
 IPart=  0 NShTot=       23092 NBatch=        1004 AvBLen=        23.0
 PrSmSu:  NxtVal=            455.
 --------------------------------------------------------
       Center         ----      EFG at Nuclei      ----
                      3XX-RR        3YY-RR        3ZZ-RR
 --------------------------------------------------------
     1   Atom        0.165651      0.265854     -0.431506
     2   Atom       -0.242234      0.200531      0.041703
     3   Atom        0.102389     -0.213374      0.110985
     4   Atom        0.075327      0.015550     -0.090876
     5   Atom       -0.059999      0.153068     -0.093070
     6   Atom       -0.725623      0.207540      0.518082
     7   Atom       -0.279324     -0.567163      0.846487
     8   Atom        1.238687     -0.674291     -0.564396
     9   Atom        0.536688      0.221464     -0.758152
    10   Atom        0.657867     -1.382717      0.724850
    11   Atom       -0.695424      0.404759      0.290666
    12   Atom       -0.075718      0.108679     -0.032961
    13   Atom        0.128374     -0.265105      0.136731
    14   Atom        0.130752      0.038842     -0.169594
    15   Atom        0.143802      0.022106     -0.165908
    16   Atom       -0.183514      0.134740      0.048774
    17   Atom       -0.074776      0.057859      0.016917
    18   Atom       -0.285343      0.142568      0.142774
    19   Atom        0.128323     -0.265104      0.136780
    20   Atom        0.069682      0.094305     -0.163987
    21   Atom        0.134239      0.016521     -0.150760
    22   Atom        0.076614     -0.201076      0.124461
    23   Atom        0.113610     -0.248379      0.134769
 --------------------------------------------------------
                        XY            XZ            YZ
 --------------------------------------------------------
     1   Atom       -0.094632      0.240242     -0.057930
     2   Atom        0.049933     -0.142421      0.008703
     3   Atom        0.083694     -0.022109      0.066175
     4   Atom        0.062516     -0.087000      0.137368
     5   Atom        0.138834      0.153122     -0.113068
     6   Atom       -0.209751      0.254866     -0.827577
     7   Atom       -0.044453     -0.553014      0.117649
     8   Atom        0.774112      0.667400      0.252113
     9   Atom        0.287701      0.671721     -1.003202
    10   Atom       -0.465701      0.016109     -0.546784
    11   Atom       -0.097368     -0.024018      0.201300
    12   Atom       -0.092935      0.188149      0.092740
    13   Atom        0.059869     -0.016265      0.077724
    14   Atom       -0.015955     -0.042754     -0.190454
    15   Atom        0.020553      0.024574     -0.184196
    16   Atom        0.027687     -0.194854      0.019978
    17   Atom       -0.123990      0.171307      0.105844
    18   Atom       -0.054906     -0.017226      0.007119
    19   Atom       -0.095899     -0.021396     -0.055456
    20   Atom        0.073198      0.153361     -0.126169
    21   Atom        0.002214      0.008457      0.190191
    22   Atom       -0.140651     -0.029076     -0.090007
    23   Atom       -0.140306     -0.041219     -0.214719
 --------------------------------------------------------


 ---------------------------------------------------------------------------------
              Nuclear Quadrupole in Principal Axis System
 ---------------------------------------------------------------------------------

       Atom             a.u.   MegaHertz   Gauss  10(-4) cm-1        Axes

              Baa    -0.5169   -69.357   -24.748   -23.135 -0.3281  0.0302  0.9441
     1 C(13)  Bbb     0.1497    20.084     7.167     6.699  0.6992  0.6798  0.2213
              Bcc     0.3672    49.273    17.582    16.436 -0.6352  0.7328 -0.2442
 
              Baa    -0.3062   -41.088   -14.661   -13.705  0.9202 -0.0972  0.3792
     2 C(13)  Bbb     0.0997    13.375     4.773     4.462 -0.3696  0.1033  0.9234
              Bcc     0.2065    27.712     9.888     9.244  0.1289  0.9899 -0.0591
 
              Baa    -0.2477   -33.236   -11.859   -11.086 -0.2396  0.9520 -0.1904
     3 C(13)  Bbb     0.1184    15.890     5.670     5.300  0.6943  0.3051  0.6518
              Bcc     0.1293    17.346     6.189     5.786 -0.6787 -0.0240  0.7341
 
              Baa    -0.2234   -29.976   -10.696    -9.999  0.3375 -0.5340  0.7752
     4 C(13)  Bbb     0.1086    14.579     5.202     4.863 -0.3823  0.6748  0.6313
              Bcc     0.1147    15.397     5.494     5.136  0.8602  0.5094 -0.0236
 
              Baa    -0.2999   -40.248   -14.361   -13.425 -0.6417  0.3650  0.6745
     5 C(13)  Bbb     0.0733     9.831     3.508     3.279  0.6747 -0.1496  0.7228
              Bcc     0.2267    30.417    10.853    10.146  0.3648  0.9189 -0.1503
 
              Baa    -0.7805   -30.102   -10.741   -10.041  0.9864  0.1014 -0.1290
     6 N(14)  Bbb    -0.4792   -18.482    -6.595    -6.165  0.0043  0.7701  0.6379
              Bcc     1.2597    48.584    17.336    16.206  0.1640 -0.6298  0.7592
 
              Baa    -0.5769   -22.250    -7.939    -7.422 -0.0151  0.9960 -0.0882
     7 N(14)  Bbb    -0.5054   -19.491    -6.955    -6.501  0.9260  0.0472  0.3747
              Bcc     1.0823    41.741    14.894    13.923 -0.3773  0.0760  0.9230
 
              Baa    -0.9496    68.709    24.517    22.919 -0.3096  0.9472 -0.0835
     8 O(17)  Bbb    -0.7845    56.766    20.255    18.935 -0.3075 -0.0166  0.9514
              Bcc     1.7341  -125.475   -44.773   -41.854  0.8998  0.3202  0.2964
 
              Baa    -1.6264   117.684    41.992    39.255 -0.3173  0.4901  0.8118
     9 O(17)  Bbb     0.7014   -50.752   -18.110   -16.929  0.7667  0.6364 -0.0846
              Bcc     0.9250   -66.931   -23.883   -22.326 -0.5581  0.5956 -0.5777
 
              Baa    -1.6053   116.159    41.448    38.746  0.1950  0.9552  0.2228
    10 O(17)  Bbb     0.6670   -48.263   -17.222   -16.099  0.8230 -0.0357 -0.5670
              Bcc     0.9383   -67.896   -24.227   -22.648  0.5336 -0.2939  0.7931
 
              Baa    -0.7040   -28.864   -10.299    -9.628  0.9962  0.0863  0.0066
    11 S(33)  Bbb     0.1403     5.753     2.053     1.919  0.0462 -0.5942  0.8030
              Bcc     0.5637    23.111     8.247     7.709 -0.0732  0.7996  0.5960
 
              Baa    -0.2871  -153.199   -54.665   -51.102  0.7045  0.3145 -0.6362
    12 H(1)   Bbb     0.1326    70.739    25.242    23.596  0.7097 -0.3155  0.6299
              Bcc     0.1545    82.459    29.424    27.505  0.0026  0.8953  0.4454
 
              Baa    -0.2888  -154.081   -54.980   -51.396 -0.1467  0.9721 -0.1832
    13 H(1)   Bbb     0.1359    72.532    25.881    24.194  0.9411  0.1941  0.2768
              Bcc     0.1528    81.549    29.099    27.202 -0.3046  0.1318  0.9433
 
              Baa    -0.2873  -153.293   -54.699   -51.133  0.1069  0.5053  0.8563
    14 H(1)   Bbb     0.1323    70.571    25.181    23.540  0.9191 -0.3788  0.1088
              Bcc     0.1550    82.723    29.517    27.593  0.3793  0.7754 -0.5049
 
              Baa    -0.2811  -149.962   -53.510   -50.022 -0.0744  0.5215  0.8500
    15 H(1)   Bbb     0.1332    71.073    25.361    23.707 -0.3388  0.7885 -0.5134
              Bcc     0.1479    78.889    28.150    26.315  0.9379  0.3262 -0.1180
 
              Baa    -0.2969  -158.402   -56.522   -52.837  0.8665 -0.0784  0.4930
    16 H(1)   Bbb     0.1368    72.996    26.047    24.349  0.1466  0.9840 -0.1012
              Bcc     0.1601    85.406    30.475    28.488 -0.4772  0.1600  0.8641
 
              Baa    -0.2839  -151.457   -54.044   -50.521  0.7109  0.4303 -0.5563
    17 H(1)   Bbb     0.1319    70.374    25.111    23.474 -0.5678  0.8179 -0.0930
              Bcc     0.1520    81.084    28.933    27.047  0.4150  0.3820  0.8258
 
              Baa    -0.2929  -156.266   -55.760   -52.125  0.9915  0.1244  0.0372
    18 H(1)   Bbb     0.1367    72.952    26.031    24.334  0.0429 -0.5843  0.8104
              Bcc     0.1561    83.314    29.728    27.790 -0.1225  0.8019  0.5847
 
              Baa    -0.2953  -157.533   -56.212   -52.547  0.2253  0.9649  0.1350
    19 H(1)   Bbb     0.1389    74.087    26.436    24.713  0.5420 -0.2393  0.8056
              Bcc     0.1564    83.446    29.776    27.835  0.8096 -0.1083 -0.5769
 
              Baa    -0.2945  -157.114   -56.062   -52.408 -0.4225  0.3508  0.8357
    20 H(1)   Bbb     0.1381    73.691    26.295    24.581 -0.5832  0.6006 -0.5469
              Bcc     0.1564    83.423    29.767    27.827  0.6938  0.7185  0.0492
 
              Baa    -0.2750  -146.713   -52.351   -48.938 -0.0144 -0.5463  0.8375
    21 H(1)   Bbb     0.1303    69.511    24.803    23.186  0.8481 -0.4503 -0.2792
              Bcc     0.1447    77.202    27.548    25.752  0.5296  0.7063  0.4698
 
              Baa    -0.2817  -150.328   -53.641   -50.144  0.3717  0.9004  0.2261
    22 H(1)   Bbb     0.1315    70.136    25.026    23.395  0.8613 -0.2436 -0.4459
              Bcc     0.1503    80.192    28.614    26.749  0.3464 -0.3605  0.8661
 
              Baa    -0.3866  -206.266   -73.601   -68.803  0.2786  0.8801  0.3845
    23 H(1)   Bbb     0.1511    80.614    28.765    26.890  0.9339 -0.1548 -0.3223
              Bcc     0.2355   125.652    44.836    41.913  0.2241 -0.4488  0.8650
 

 ---------------------------------------------------------------------------------

 No NMR shielding tensors so no spin-rotation constants.
 Leave Link  601 at Sat Feb 17 21:00:00 2018, MaxMem=   33554432 cpu:       0.6
 Merz-Kollman atomic radii used.
 Read replacement radii for each type of atom:
 Atom Element Radius
    1     6    1.50
    2     6    1.50
    3     6    1.50
    4     6    1.50
    5     6    1.50
    6     7    1.50
    7     7    1.50
    8     8    1.40
    9     8    1.40
   10     8    1.40
   11    16    1.75
   12     1    1.20
   13     1    1.20
   14     1    1.20
   15     1    1.20
   16     1    1.20
   17     1    1.20
   18     1    1.20
   19     1    1.20
   20     1    1.20
   21     1    1.20
   22     1    1.20
   23     1    1.20
 Generate VDW surfaces: Layer= 4 Dens= 1 Start= 1.400 Inc= 0.200

 **********************************************************************

            Electrostatic Properties Using The SCF Density

 **********************************************************************

       Atomic Center    1 is at   1.770638 -0.730351 -0.258063
       Atomic Center    2 is at   3.900702  0.138678  0.550431
       Atomic Center    3 is at   2.233768  1.748102 -0.264827
       Atomic Center    4 is at  -2.764779  0.900698 -1.163116
       Atomic Center    5 is at   0.343623 -0.466285 -0.771993
       Atomic Center    6 is at  -0.495299  0.127376  0.271570
       Atomic Center    7 is at   2.571787  0.359585 -0.006240
       Atomic Center    8 is at   2.151188 -1.879932 -0.086606
       Atomic Center    9 is at  -2.631779  0.624897  1.463673
       Atomic Center   10 is at  -2.445238 -1.456096 -0.029570
       Atomic Center   11 is at  -2.162580 -0.051162  0.254869
       Atomic Center   12 is at   4.673682  0.481578 -0.149975
       Atomic Center   13 is at   4.023638 -0.927614  0.732807
       Atomic Center   14 is at   4.015096  0.691393  1.491663
       Atomic Center   15 is at   2.155461  2.320509  0.671089
       Atomic Center   16 is at   1.293428  1.838066 -0.809191
       Atomic Center   17 is at   3.015257  2.217811 -0.876412
       Atomic Center   18 is at  -3.847869  0.763493 -1.202953
       Atomic Center   19 is at  -2.527173  1.956395 -1.016676
       Atomic Center   20 is at  -2.310742  0.516356 -2.079226
       Atomic Center   21 is at   0.360923  0.127036 -1.700705
       Atomic Center   22 is at  -0.067683 -1.449743 -0.996906
       Atomic Center   23 is at  -0.215223  1.018580  0.666717
      ESP Fit Center   24 is at   1.770638 -0.730351  1.841937
      ESP Fit Center   25 is at   2.820638 -0.730351 -2.076717
      ESP Fit Center   26 is at   2.295638 -1.639678 -2.076717
      ESP Fit Center   27 is at   1.770638 -0.730351 -2.358063
      ESP Fit Center   28 is at   3.375702 -0.770649  2.369084
      ESP Fit Center   29 is at   4.425702 -0.770649  2.369084
      ESP Fit Center   30 is at   5.719355  0.138678  1.600431
      ESP Fit Center   31 is at   4.153829  2.223367  0.550431
      ESP Fit Center   32 is at   5.760159 -0.837241  0.550431
      ESP Fit Center   33 is at   4.425702 -0.770649 -1.268223
      ESP Fit Center   34 is at   2.486895  3.832790 -0.264827
      ESP Fit Center   35 is at   1.489097  3.711636 -0.264827
      ESP Fit Center   36 is at   1.974946  3.548244 -1.314827
      ESP Fit Center   37 is at   2.758768  0.838775 -2.083481
      ESP Fit Center   38 is at   2.233768  1.748102 -2.364827
      ESP Fit Center   39 is at  -3.955744  2.275144 -0.113116
      ESP Fit Center   40 is at  -1.234831  1.883936 -2.213116
      ESP Fit Center   41 is at  -3.955744  2.275144 -2.213116
      ESP Fit Center   42 is at  -3.289779  1.810024 -2.981769
      ESP Fit Center   43 is at  -3.814779  0.900698 -2.981769
      ESP Fit Center   44 is at   0.868623 -1.375612 -2.590647
      ESP Fit Center   45 is at  -0.495299  0.127376  2.371570
      ESP Fit Center   46 is at   0.554701  0.127376  2.090223
      ESP Fit Center   47 is at   0.029701 -0.781951  2.090223
      ESP Fit Center   48 is at   0.260197 -1.526929  1.321570
      ESP Fit Center   49 is at  -0.754120  1.927518 -0.778430
      ESP Fit Center   50 is at   1.521787  0.359585  1.812413
      ESP Fit Center   51 is at   3.621787  0.359585 -1.824894
      ESP Fit Center   52 is at   2.571787  0.359585 -2.106240
      ESP Fit Center   53 is at   2.151188 -1.879932  1.873394
      ESP Fit Center   54 is at   1.171188 -1.879932  1.610804
      ESP Fit Center   55 is at   1.661188 -2.728637  1.610804
      ESP Fit Center   56 is at   2.641188 -2.728637  1.610804
      ESP Fit Center   57 is at   0.777954 -2.877645  0.893394
      ESP Fit Center   58 is at   1.626659 -3.494265  0.893394
      ESP Fit Center   59 is at   2.675716 -3.494265  0.893394
      ESP Fit Center   60 is at   3.524421 -2.877645  0.893394
      ESP Fit Center   61 is at   0.453778 -2.859932 -0.086606
      ESP Fit Center   62 is at   1.171188 -3.577342 -0.086606
      ESP Fit Center   63 is at   2.151188 -3.839932 -0.086606
      ESP Fit Center   64 is at   3.131188 -3.577342 -0.086606
      ESP Fit Center   65 is at   3.848597 -2.859932 -0.086606
      ESP Fit Center   66 is at   3.848597 -1.879932 -1.066606
      ESP Fit Center   67 is at   1.626659 -3.494265 -1.066606
      ESP Fit Center   68 is at   2.675716 -3.494265 -1.066606
      ESP Fit Center   69 is at   3.524421 -2.877645 -1.066606
      ESP Fit Center   70 is at   3.131188 -1.879932 -1.784016
      ESP Fit Center   71 is at   1.661188 -2.728637 -1.784016
      ESP Fit Center   72 is at   2.641188 -2.728637 -1.784016
      ESP Fit Center   73 is at   2.151188 -1.879932 -2.046606
      ESP Fit Center   74 is at  -2.631779  0.624897  3.423673
      ESP Fit Center   75 is at  -1.651779  0.624897  3.161083
      ESP Fit Center   76 is at  -2.141779  1.473602  3.161083
      ESP Fit Center   77 is at  -3.121779  1.473602  3.161083
      ESP Fit Center   78 is at  -3.611779  0.624897  3.161083
      ESP Fit Center   79 is at  -3.121779 -0.223807  3.161083
      ESP Fit Center   80 is at  -2.141779 -0.223807  3.161083
      ESP Fit Center   81 is at  -0.934369  0.624897  2.443673
      ESP Fit Center   82 is at  -1.258545  1.622610  2.443673
      ESP Fit Center   83 is at  -2.107250  2.239230  2.443673
      ESP Fit Center   84 is at  -3.156307  2.239230  2.443673
      ESP Fit Center   85 is at  -4.005012  1.622610  2.443673
      ESP Fit Center   86 is at  -4.329188  0.624897  2.443673
      ESP Fit Center   87 is at  -4.005012 -0.372815  2.443673
      ESP Fit Center   88 is at  -3.156307 -0.989435  2.443673
      ESP Fit Center   89 is at  -1.651779  2.322307  1.463673
      ESP Fit Center   90 is at  -2.631779  2.584897  1.463673
      ESP Fit Center   91 is at  -3.611779  2.322307  1.463673
      ESP Fit Center   92 is at  -4.329188  1.604897  1.463673
      ESP Fit Center   93 is at  -4.591779  0.624897  1.463673
      ESP Fit Center   94 is at  -4.329188 -0.355103  1.463673
      ESP Fit Center   95 is at  -4.005012  1.622610  0.483673
      ESP Fit Center   96 is at  -2.935238 -2.304801  1.667840
      ESP Fit Center   97 is at  -1.955238 -2.304801  1.667840
      ESP Fit Center   98 is at  -4.142648 -1.456096  0.950430
      ESP Fit Center   99 is at  -3.818472 -2.453809  0.950430
      ESP Fit Center  100 is at  -2.969767 -3.070429  0.950430
      ESP Fit Center  101 is at  -1.920710 -3.070429  0.950430
      ESP Fit Center  102 is at  -1.072005 -2.453809  0.950430
      ESP Fit Center  103 is at  -4.405238 -1.456096 -0.029570
      ESP Fit Center  104 is at  -4.142648 -2.436096 -0.029570
      ESP Fit Center  105 is at  -3.425238 -3.153506 -0.029570
      ESP Fit Center  106 is at  -2.445238 -3.416096 -0.029570
      ESP Fit Center  107 is at  -1.465238 -3.153506 -0.029570
      ESP Fit Center  108 is at  -4.142648 -1.456096 -1.009570
      ESP Fit Center  109 is at  -3.818472 -2.453809 -1.009570
      ESP Fit Center  110 is at  -2.969767 -3.070429 -1.009570
      ESP Fit Center  111 is at  -1.920710 -3.070429 -1.009570
      ESP Fit Center  112 is at  -3.425238 -1.456096 -1.726980
      ESP Fit Center  113 is at  -2.935238 -2.304801 -1.726980
      ESP Fit Center  114 is at  -1.955238 -2.304801 -1.726980
      ESP Fit Center  115 is at  -2.445238 -1.456096 -1.989570
      ESP Fit Center  116 is at  -1.631073 -0.971760  2.462242
      ESP Fit Center  117 is at  -3.416958 -1.498791  1.782419
      ESP Fit Center  118 is at  -1.366858 -1.793550  1.782419
      ESP Fit Center  119 is at  -1.631073  2.277525  0.800045
      ESP Fit Center  120 is at  -4.551154 -0.051162  0.800045
      ESP Fit Center  121 is at  -4.314610 -1.087525  0.800045
      ESP Fit Center  122 is at  -0.673329 -1.918624  0.800045
      ESP Fit Center  123 is at   6.271457  0.481578  0.369174
      ESP Fit Center  124 is at   5.897649  1.508608  0.369174
      ESP Fit Center  125 is at   4.951133  2.055079  0.369174
      ESP Fit Center  126 is at   5.897649 -0.545452  0.369174
      ESP Fit Center  127 is at   6.271457  0.481578 -0.669123
      ESP Fit Center  128 is at   5.897649  1.508608 -0.669123
      ESP Fit Center  129 is at   4.951133  2.055079 -0.669123
      ESP Fit Center  130 is at   5.897649 -0.545452 -0.669123
      ESP Fit Center  131 is at   5.661161  0.481578 -1.509123
      ESP Fit Center  132 is at   4.978830  1.420727 -1.509123
      ESP Fit Center  133 is at   4.978830 -0.457570 -1.509123
      ESP Fit Center  134 is at   4.673682  0.481578 -1.829975
      ESP Fit Center  135 is at   4.023638 -0.927614  2.412807
      ESP Fit Center  136 is at   5.011118 -0.927614  2.091955
      ESP Fit Center  137 is at   3.224751 -1.508040  2.091955
      ESP Fit Center  138 is at   4.328786 -1.866763  2.091955
      ESP Fit Center  139 is at   5.621413 -0.927614  1.251955
      ESP Fit Center  140 is at   4.301089 -2.501115  1.251955
      ESP Fit Center  141 is at   5.247605 -1.954644  1.251955
      ESP Fit Center  142 is at   4.301089 -2.501115  0.213658
      ESP Fit Center  143 is at   5.247605 -1.954644  0.213658
      ESP Fit Center  144 is at   4.328786 -1.866763 -0.626342
      ESP Fit Center  145 is at   4.015096  0.691393  3.171663
      ESP Fit Center  146 is at   5.002576  0.691393  2.850812
      ESP Fit Center  147 is at   4.320244  1.630542  2.850812
      ESP Fit Center  148 is at   3.216209  1.271819  2.850812
      ESP Fit Center  149 is at   3.216209  0.110967  2.850812
      ESP Fit Center  150 is at   4.320244 -0.247756  2.850812
      ESP Fit Center  151 is at   5.612871  0.691393  2.010812
      ESP Fit Center  152 is at   5.239063  1.718423  2.010812
      ESP Fit Center  153 is at   4.292547  2.264894  2.010812
      ESP Fit Center  154 is at   3.216209  2.075107  2.010812
      ESP Fit Center  155 is at   2.513679  1.237864  2.010812
      ESP Fit Center  156 is at   5.239063  1.718423  0.972515
      ESP Fit Center  157 is at   4.292547  2.264894  0.972515
      ESP Fit Center  158 is at   2.155461  2.320509  2.351089
      ESP Fit Center  159 is at   3.142941  2.320509  2.030238
      ESP Fit Center  160 is at   2.460609  3.259657  2.030238
      ESP Fit Center  161 is at   1.356574  2.900935  2.030238
      ESP Fit Center  162 is at   1.356574  1.740083  2.030238
      ESP Fit Center  163 is at   2.460609  1.381360  2.030238
      ESP Fit Center  164 is at   3.379428  3.347539  1.190238
      ESP Fit Center  165 is at   2.432912  3.894010  1.190238
      ESP Fit Center  166 is at   1.356574  3.704223  1.190238
      ESP Fit Center  167 is at   0.654044  2.866980  1.190238
      ESP Fit Center  168 is at   2.432912  3.894010  0.151941
      ESP Fit Center  169 is at   1.356574  3.704223  0.151941
      ESP Fit Center  170 is at   0.494540  3.221780 -0.290043
      ESP Fit Center  171 is at   0.494540  3.221780 -1.328340
      ESP Fit Center  172 is at  -0.207990  2.384537 -1.328340
      ESP Fit Center  173 is at   1.598575  2.777215 -2.168340
      ESP Fit Center  174 is at   0.494540  2.418492 -2.168340
      ESP Fit Center  175 is at   1.293428  1.838066 -2.489191
      ESP Fit Center  176 is at   4.613032  2.217811 -0.357263
      ESP Fit Center  177 is at   4.239223  3.244841 -0.357263
      ESP Fit Center  178 is at   3.292707  3.791312 -0.357263
      ESP Fit Center  179 is at   4.613032  2.217811 -1.395560
      ESP Fit Center  180 is at   4.239223  3.244841 -1.395560
      ESP Fit Center  181 is at   3.292707  3.791312 -1.395560
      ESP Fit Center  182 is at   2.216369  3.601525 -1.395560
      ESP Fit Center  183 is at   4.002736  2.217811 -2.235560
      ESP Fit Center  184 is at   3.320405  3.156960 -2.235560
      ESP Fit Center  185 is at   2.216369  2.798237 -2.235560
      ESP Fit Center  186 is at   3.320405  1.278663 -2.235560
      ESP Fit Center  187 is at   3.015257  2.217811 -2.556412
      ESP Fit Center  188 is at  -4.646757  1.343919  0.156195
      ESP Fit Center  189 is at  -4.646757  0.183068  0.156195
      ESP Fit Center  190 is at  -4.646757  2.147207 -0.683805
      ESP Fit Center  191 is at  -5.349287  1.309965 -0.683805
      ESP Fit Center  192 is at  -5.349287  0.217022 -0.683805
      ESP Fit Center  193 is at  -4.646757 -0.620220 -0.683805
      ESP Fit Center  194 is at  -4.646757  2.147207 -1.722102
      ESP Fit Center  195 is at  -5.349287  1.309965 -1.722102
      ESP Fit Center  196 is at  -5.349287  0.217022 -1.722102
      ESP Fit Center  197 is at  -4.646757 -0.620220 -1.722102
      ESP Fit Center  198 is at  -4.646757  1.343919 -2.562102
      ESP Fit Center  199 is at  -4.646757  0.183068 -2.562102
      ESP Fit Center  200 is at  -2.222025  2.895544  0.342473
      ESP Fit Center  201 is at  -3.326060  2.536821  0.342473
      ESP Fit Center  202 is at  -1.303206  2.983425 -0.497527
      ESP Fit Center  203 is at  -2.249722  3.529896 -0.497527
      ESP Fit Center  204 is at  -3.326060  3.340109 -0.497527
      ESP Fit Center  205 is at  -4.028590  2.502866 -0.497527
      ESP Fit Center  206 is at  -0.929398  1.956395 -1.535824
      ESP Fit Center  207 is at  -1.303206  2.983425 -1.535824
      ESP Fit Center  208 is at  -2.249722  3.529896 -1.535824
      ESP Fit Center  209 is at  -3.326060  3.340109 -1.535824
      ESP Fit Center  210 is at  -2.222025  2.895544 -2.375824
      ESP Fit Center  211 is at  -3.326060  2.536821 -2.375824
      ESP Fit Center  212 is at  -1.086775  1.543386 -2.598375
      ESP Fit Center  213 is at  -3.109629 -0.867357 -2.598375
      ESP Fit Center  214 is at  -2.033291 -1.057145 -2.598375
      ESP Fit Center  215 is at  -1.086775 -0.510674 -2.598375
      ESP Fit Center  216 is at  -1.323263  0.516356 -3.438375
      ESP Fit Center  217 is at  -2.005594  1.455505 -3.438375
      ESP Fit Center  218 is at  -3.109629  1.096782 -3.438375
      ESP Fit Center  219 is at  -3.109629 -0.064069 -3.438375
      ESP Fit Center  220 is at  -2.005594 -0.422792 -3.438375
      ESP Fit Center  221 is at  -2.310742  0.516356 -3.759226
      ESP Fit Center  222 is at   1.958698  0.127036 -2.219854
      ESP Fit Center  223 is at  -0.437964  1.510750 -2.219854
      ESP Fit Center  224 is at   1.348403  0.127036 -3.059854
      ESP Fit Center  225 is at   0.666071  1.066185 -3.059854
      ESP Fit Center  226 is at  -0.437964  0.707462 -3.059854
      ESP Fit Center  227 is at  -0.437964 -0.453389 -3.059854
      ESP Fit Center  228 is at   0.666071 -0.812112 -3.059854
      ESP Fit Center  229 is at   0.360923  0.127036 -3.380705
      ESP Fit Center  230 is at   0.237465 -2.388891  0.362242
      ESP Fit Center  231 is at  -0.866570 -2.833457 -0.477758
      ESP Fit Center  232 is at   0.209768 -3.023244 -0.477758
      ESP Fit Center  233 is at  -0.866570 -2.833457 -1.516055
      ESP Fit Center  234 is at   0.209768 -3.023244 -1.516055
      ESP Fit Center  235 is at  -0.866570 -2.030169 -2.356055
      ESP Fit Center  236 is at   0.237465 -2.388891 -2.356055
      ESP Fit Center  237 is at  -0.067683 -1.449743 -2.676906
      ESP Fit Center  238 is at  -0.215223  1.018580  2.346717
      ESP Fit Center  239 is at   0.772256  1.018580  2.025865
      ESP Fit Center  240 is at   0.089924  1.957728  2.025865
      ESP Fit Center  241 is at  -1.014111  1.599005  2.025865
      ESP Fit Center  242 is at   0.062227  2.592081  1.185865
      ESP Fit Center  243 is at  -1.014111  2.402293  1.185865
      ESP Fit Center  244 is at   0.062227  2.592081  0.147568
      ESP Fit Center  245 is at  -1.014111  2.402293  0.147568
      ESP Fit Center  246 is at   1.770638 -0.730351  2.141937
      ESP Fit Center  247 is at   2.811959 -0.730351 -2.420388
      ESP Fit Center  248 is at   2.291299  0.171460 -2.420388
      ESP Fit Center  249 is at   2.291299 -1.632161 -2.420388
      ESP Fit Center  250 is at   3.380041 -0.763133  2.712756
      ESP Fit Center  251 is at   4.421362 -0.763133  2.712756
      ESP Fit Center  252 is at   5.777097  0.138678  2.046806
      ESP Fit Center  253 is at   5.479226 -0.875778  2.046806
      ESP Fit Center  254 is at   6.240529  0.138678  1.084481
      ESP Fit Center  255 is at   6.008813  1.153891  1.084481
      ESP Fit Center  256 is at   6.008813 -0.876535  1.084481
      ESP Fit Center  257 is at   4.421362 -0.763133 -1.611895
      ESP Fit Center  258 is at   1.713107  4.029264 -0.798877
      ESP Fit Center  259 is at   1.966729  3.605398 -1.761203
      ESP Fit Center  260 is at   2.754428  0.846291 -2.427152
      ESP Fit Center  261 is at   2.233768  1.748102 -2.664827
      ESP Fit Center  262 is at  -3.993557  2.318783  0.333260
      ESP Fit Center  263 is at  -0.656668  1.915910 -1.697166
      ESP Fit Center  264 is at  -4.223638  2.730048 -1.697166
      ESP Fit Center  265 is at  -3.993557  2.318783 -2.659491
      ESP Fit Center  266 is at  -3.993557 -0.517388 -2.659491
      ESP Fit Center  267 is at  -3.285440  1.802508 -3.325441
      ESP Fit Center  268 is at  -3.806100  0.900698 -3.325441
      ESP Fit Center  269 is at   0.076584 -2.323581  0.724382
      ESP Fit Center  270 is at  -0.177038 -1.368095 -2.934318
      ESP Fit Center  271 is at   0.864283 -1.368095 -2.934318
      ESP Fit Center  272 is at  -0.495299  0.127376  2.671570
      ESP Fit Center  273 is at   0.546022  0.127376  2.433895
      ESP Fit Center  274 is at   0.025362 -0.774435  2.433895
      ESP Fit Center  275 is at   0.284184 -1.579454  1.767945
      ESP Fit Center  276 is at   1.530466  0.359585  2.156085
      ESP Fit Center  277 is at   2.051126 -0.542225  2.156085
      ESP Fit Center  278 is at   3.613108  0.359585 -2.168566
      ESP Fit Center  279 is at   2.571787  0.359585 -2.406240
      ESP Fit Center  280 is at   2.151188 -1.879932  2.153394
      ESP Fit Center  281 is at   1.179288 -1.879932  1.931564
      ESP Fit Center  282 is at   1.665238 -2.721622  1.931564
      ESP Fit Center  283 is at   2.637137 -2.721622  1.931564
      ESP Fit Center  284 is at   0.734354 -2.909322  1.310011
      ESP Fit Center  285 is at   1.610005 -3.545520  1.310011
      ESP Fit Center  286 is at   2.692370 -3.545520  1.310011
      ESP Fit Center  287 is at   3.568021 -2.909322  1.310011
      ESP Fit Center  288 is at   0.516561 -3.328085  0.411841
      ESP Fit Center  289 is at   1.376788 -3.921857  0.411841
      ESP Fit Center  290 is at   2.414420 -4.047848  0.411841
      ESP Fit Center  291 is at   3.391749 -3.677196  0.411841
      ESP Fit Center  292 is at   4.084880 -2.894813  0.411841
      ESP Fit Center  293 is at   0.516561 -3.328085 -0.585053
      ESP Fit Center  294 is at   1.376788 -3.921857 -0.585053
      ESP Fit Center  295 is at   2.414420 -4.047848 -0.585053
      ESP Fit Center  296 is at   3.391749 -3.677196 -0.585053
      ESP Fit Center  297 is at   4.084880 -2.894813 -0.585053
      ESP Fit Center  298 is at   3.902490 -1.879932 -1.483223
      ESP Fit Center  299 is at   1.610005 -3.545520 -1.483223
      ESP Fit Center  300 is at   2.692370 -3.545520 -1.483223
      ESP Fit Center  301 is at   3.568021 -2.909322 -1.483223
      ESP Fit Center  302 is at   3.123087 -1.879932 -2.104776
      ESP Fit Center  303 is at   1.665238 -2.721622 -2.104776
      ESP Fit Center  304 is at   2.637137 -2.721622 -2.104776
      ESP Fit Center  305 is at  -2.631779  0.624897  3.703673
      ESP Fit Center  306 is at  -1.659879  0.624897  3.481844
      ESP Fit Center  307 is at  -2.145829  1.466587  3.481844
      ESP Fit Center  308 is at  -3.117728  1.466587  3.481844
      ESP Fit Center  309 is at  -3.603678  0.624897  3.481844
      ESP Fit Center  310 is at  -3.117728 -0.216792  3.481844
      ESP Fit Center  311 is at  -2.145829 -0.216792  3.481844
      ESP Fit Center  312 is at  -0.880476  0.624897  2.860291
      ESP Fit Center  313 is at  -1.214945  1.654287  2.860291
      ESP Fit Center  314 is at  -2.090596  2.290485  2.860291
      ESP Fit Center  315 is at  -3.172961  2.290485  2.860291
      ESP Fit Center  316 is at  -4.048612  1.654287  2.860291
      ESP Fit Center  317 is at  -4.383081  0.624897  2.860291
      ESP Fit Center  318 is at  -4.048612 -0.404492  2.860291
      ESP Fit Center  319 is at  -3.172961 -1.040690  2.860291
      ESP Fit Center  320 is at  -1.391217  2.422161  1.962120
      ESP Fit Center  321 is at  -2.368546  2.792813  1.962120
      ESP Fit Center  322 is at  -3.406178  2.666822  1.962120
      ESP Fit Center  323 is at  -4.266405  2.073050  1.962120
      ESP Fit Center  324 is at  -4.752159  1.147524  1.962120
      ESP Fit Center  325 is at  -4.752159  0.102271  1.962120
      ESP Fit Center  326 is at  -4.266405 -0.823255  1.962120
      ESP Fit Center  327 is at  -2.368546  2.792813  0.965227
      ESP Fit Center  328 is at  -3.406178  2.666822  0.965227
      ESP Fit Center  329 is at  -4.266405  2.073050  0.965227
      ESP Fit Center  330 is at  -4.752159  1.147524  0.965227
      ESP Fit Center  331 is at  -2.931188 -2.297786  1.988600
      ESP Fit Center  332 is at  -1.959288 -2.297786  1.988600
      ESP Fit Center  333 is at  -3.862072 -2.485486  1.367047
      ESP Fit Center  334 is at  -2.986420 -3.121684  1.367047
      ESP Fit Center  335 is at  -1.904056 -3.121684  1.367047
      ESP Fit Center  336 is at  -1.028405 -2.485486  1.367047
      ESP Fit Center  337 is at  -4.565618 -1.978723  0.468877
      ESP Fit Center  338 is at  -4.079865 -2.904249  0.468877
      ESP Fit Center  339 is at  -3.219638 -3.498021  0.468877
      ESP Fit Center  340 is at  -2.182006 -3.624012  0.468877
      ESP Fit Center  341 is at  -1.204677 -3.253360  0.468877
      ESP Fit Center  342 is at  -4.565618 -1.978723 -0.528017
      ESP Fit Center  343 is at  -4.079865 -2.904249 -0.528017
      ESP Fit Center  344 is at  -3.219638 -3.498021 -0.528017
      ESP Fit Center  345 is at  -2.182006 -3.624012 -0.528017
      ESP Fit Center  346 is at  -1.204677 -3.253360 -0.528017
      ESP Fit Center  347 is at  -4.196541 -1.456096 -1.426187
      ESP Fit Center  348 is at  -3.862072 -2.485486 -1.426187
      ESP Fit Center  349 is at  -2.986420 -3.121684 -1.426187
      ESP Fit Center  350 is at  -1.904056 -3.121684 -1.426187
      ESP Fit Center  351 is at  -3.417138 -1.456096 -2.047740
      ESP Fit Center  352 is at  -2.931188 -2.297786 -2.047740
      ESP Fit Center  353 is at  -1.959288 -2.297786 -2.047740
      ESP Fit Center  354 is at  -2.445238 -1.456096 -2.269570
      ESP Fit Center  355 is at  -1.626823 -0.979120  2.841731
      ESP Fit Center  356 is at  -3.152530 -1.765805  2.234768
      ESP Fit Center  357 is at  -2.162580 -2.031061  2.234768
      ESP Fit Center  358 is at  -1.172631 -1.765805  2.234768
      ESP Fit Center  359 is at  -4.692914 -0.589001  1.326382
      ESP Fit Center  360 is at  -4.255396 -1.571682  1.326382
      ESP Fit Center  361 is at  -4.914905 -0.565661  0.254869
      ESP Fit Center  362 is at   6.336451  0.481578  0.810025
      ESP Fit Center  363 is at   6.018890  1.458929  0.810025
      ESP Fit Center  364 is at   6.593682  0.481578 -0.149975
      ESP Fit Center  365 is at   6.336451  1.441578 -0.149975
      ESP Fit Center  366 is at   5.633682  2.144347 -0.149975
      ESP Fit Center  367 is at   6.336451 -0.478422 -0.149975
      ESP Fit Center  368 is at   6.336451  0.481578 -1.109975
      ESP Fit Center  369 is at   6.018890  1.458929 -1.109975
      ESP Fit Center  370 is at   5.187506  2.062965 -1.109975
      ESP Fit Center  371 is at   5.187506 -1.099809 -1.109975
      ESP Fit Center  372 is at   6.018890 -0.495773 -1.109975
      ESP Fit Center  373 is at   5.633682  0.481578 -1.812743
      ESP Fit Center  374 is at   5.153682  1.312963 -1.812743
      ESP Fit Center  375 is at   4.193682 -0.349806 -1.812743
      ESP Fit Center  376 is at   5.153682 -0.349806 -1.812743
      ESP Fit Center  377 is at   4.673682  0.481578 -2.069975
      ESP Fit Center  378 is at   3.543638 -1.758998  2.395576
      ESP Fit Center  379 is at   4.503638 -1.758998  2.395576
      ESP Fit Center  380 is at   3.509815 -2.509001  1.692807
      ESP Fit Center  381 is at   4.537462 -2.509001  1.692807
      ESP Fit Center  382 is at   5.368847 -1.904965  1.692807
      ESP Fit Center  383 is at   4.023638 -2.847614  0.732807
      ESP Fit Center  384 is at   4.983638 -2.590383  0.732807
      ESP Fit Center  385 is at   5.686407 -1.887614  0.732807
      ESP Fit Center  386 is at   4.537462 -2.509001 -0.227193
      ESP Fit Center  387 is at   5.368847 -1.904965 -0.227193
      ESP Fit Center  388 is at   4.503638 -1.758998 -0.929962
      ESP Fit Center  389 is at   4.015096  0.691393  3.411663
      ESP Fit Center  390 is at   4.975096  0.691393  3.154432
      ESP Fit Center  391 is at   4.495096  1.522777  3.154432
      ESP Fit Center  392 is at   3.535096  1.522777  3.154432
      ESP Fit Center  393 is at   3.055096  0.691393  3.154432
      ESP Fit Center  394 is at   3.535096 -0.139991  3.154432
      ESP Fit Center  395 is at   4.495096 -0.139991  3.154432
      ESP Fit Center  396 is at   5.677865  0.691393  2.451663
      ESP Fit Center  397 is at   5.360305  1.668744  2.451663
      ESP Fit Center  398 is at   4.528920  2.272780  2.451663
      ESP Fit Center  399 is at   3.501273  2.272780  2.451663
      ESP Fit Center  400 is at   2.669888  1.668744  2.451663
      ESP Fit Center  401 is at   2.352328  0.691393  2.451663
      ESP Fit Center  402 is at   5.360305 -0.285958  2.451663
      ESP Fit Center  403 is at   5.677865  1.651393  1.491663
      ESP Fit Center  404 is at   4.975096  2.354162  1.491663
      ESP Fit Center  405 is at   4.015096  2.611393  1.491663
      ESP Fit Center  406 is at   2.155461  2.320509  2.591089
      ESP Fit Center  407 is at   3.115461  2.320509  2.333858
      ESP Fit Center  408 is at   2.635461  3.151893  2.333858
      ESP Fit Center  409 is at   1.675461  3.151893  2.333858
      ESP Fit Center  410 is at   1.195461  2.320509  2.333858
      ESP Fit Center  411 is at   1.675461  1.489124  2.333858
      ESP Fit Center  412 is at   3.500670  3.297860  1.631089
      ESP Fit Center  413 is at   2.669285  3.901896  1.631089
      ESP Fit Center  414 is at   1.641638  3.901896  1.631089
      ESP Fit Center  415 is at   0.810253  3.297860  1.631089
      ESP Fit Center  416 is at   3.115461  3.983278  0.671089
      ESP Fit Center  417 is at   2.155461  4.240509  0.671089
      ESP Fit Center  418 is at   1.195461  3.983278  0.671089
      ESP Fit Center  419 is at   0.492693  3.280509  0.671089
      ESP Fit Center  420 is at   0.333428  3.500835 -0.809191
      ESP Fit Center  421 is at  -0.369341  2.798066 -0.809191
      ESP Fit Center  422 is at   0.779604  3.419453 -1.769191
      ESP Fit Center  423 is at  -0.051781  2.815417 -1.769191
      ESP Fit Center  424 is at   1.773428  2.669451 -2.471960
      ESP Fit Center  425 is at   0.813428  2.669451 -2.471960
      ESP Fit Center  426 is at   1.293428  1.838066 -2.729191
      ESP Fit Center  427 is at   4.360465  3.195162  0.083588
      ESP Fit Center  428 is at   3.529081  3.799198  0.083588
      ESP Fit Center  429 is at   4.678026  3.177811 -0.876412
      ESP Fit Center  430 is at   3.975257  3.880580 -0.876412
      ESP Fit Center  431 is at   3.015257  4.137811 -0.876412
      ESP Fit Center  432 is at   4.678026  2.217811 -1.836412
      ESP Fit Center  433 is at   4.360465  3.195162 -1.836412
      ESP Fit Center  434 is at   3.529081  3.799198 -1.836412
      ESP Fit Center  435 is at   2.501433  3.799198 -1.836412
      ESP Fit Center  436 is at   3.975257  2.217811 -2.539181
      ESP Fit Center  437 is at   3.495257  3.049196 -2.539181
      ESP Fit Center  438 is at   2.535257  3.049196 -2.539181
      ESP Fit Center  439 is at   3.495257  1.386427 -2.539181
      ESP Fit Center  440 is at   3.015257  2.217811 -2.796412
      ESP Fit Center  441 is at  -5.193078  1.740844 -0.242953
      ESP Fit Center  442 is at  -5.510638  0.763493 -0.242953
      ESP Fit Center  443 is at  -5.193078 -0.213858 -0.242953
      ESP Fit Center  444 is at  -4.807869  2.426262 -1.202953
      ESP Fit Center  445 is at  -5.510638  1.723493 -1.202953
      ESP Fit Center  446 is at  -5.767869  0.763493 -1.202953
      ESP Fit Center  447 is at  -5.510638 -0.196507 -1.202953
      ESP Fit Center  448 is at  -4.807869 -0.899275 -1.202953
      ESP Fit Center  449 is at  -5.193078  1.740844 -2.162953
      ESP Fit Center  450 is at  -5.510638  0.763493 -2.162953
      ESP Fit Center  451 is at  -5.193078 -0.213858 -2.162953
      ESP Fit Center  452 is at  -4.361693 -0.817894 -2.162953
      ESP Fit Center  453 is at  -4.327869  1.594878 -2.865722
      ESP Fit Center  454 is at  -4.807869  0.763493 -2.865722
      ESP Fit Center  455 is at  -4.327869 -0.067891 -2.865722
      ESP Fit Center  456 is at  -2.047173  2.787780  0.646093
      ESP Fit Center  457 is at  -3.007173  2.787780  0.646093
      ESP Fit Center  458 is at  -1.181965  2.933746 -0.056676
      ESP Fit Center  459 is at  -2.013349  3.537782 -0.056676
      ESP Fit Center  460 is at  -3.040997  3.537782 -0.056676
      ESP Fit Center  461 is at  -3.872381  2.933746 -0.056676
      ESP Fit Center  462 is at  -0.864404  2.916395 -1.016676
      ESP Fit Center  463 is at  -1.567173  3.619164 -1.016676
      ESP Fit Center  464 is at  -2.527173  3.876395 -1.016676
      ESP Fit Center  465 is at  -3.487173  3.619164 -1.016676
      ESP Fit Center  466 is at  -4.189942  2.916395 -1.016676
      ESP Fit Center  467 is at  -1.181965  2.933746 -1.976676
      ESP Fit Center  468 is at  -2.013349  3.537782 -1.976676
      ESP Fit Center  469 is at  -3.040997  3.537782 -1.976676
      ESP Fit Center  470 is at  -3.872381  2.933746 -1.976676
      ESP Fit Center  471 is at  -2.047173  2.787780 -2.679444
      ESP Fit Center  472 is at  -3.007173  2.787780 -2.679444
      ESP Fit Center  473 is at  -0.965534  1.493707 -3.039226
      ESP Fit Center  474 is at  -1.796918  2.097743 -3.039226
      ESP Fit Center  475 is at  -3.655950 -0.460995 -3.039226
      ESP Fit Center  476 is at  -2.824566 -1.065031 -3.039226
      ESP Fit Center  477 is at  -1.796918 -1.065031 -3.039226
      ESP Fit Center  478 is at  -0.965534 -0.460995 -3.039226
      ESP Fit Center  479 is at  -1.350742  0.516356 -3.741995
      ESP Fit Center  480 is at  -1.830742  1.347741 -3.741995
      ESP Fit Center  481 is at  -2.790742  1.347741 -3.741995
      ESP Fit Center  482 is at  -3.270742  0.516356 -3.741995
      ESP Fit Center  483 is at  -2.790742 -0.315028 -3.741995
      ESP Fit Center  484 is at  -1.830742 -0.315028 -3.741995
      ESP Fit Center  485 is at  -2.310742  0.516356 -3.999226
      ESP Fit Center  486 is at  -0.599077  1.789805 -1.700705
      ESP Fit Center  487 is at   2.023692  0.127036 -2.660705
      ESP Fit Center  488 is at   1.706132  1.104387 -2.660705
      ESP Fit Center  489 is at  -0.152900  1.708423 -2.660705
      ESP Fit Center  490 is at   1.320923  0.127036 -3.363474
      ESP Fit Center  491 is at   0.840923  0.958421 -3.363474
      ESP Fit Center  492 is at  -0.119077  0.958421 -3.363474
      ESP Fit Center  493 is at  -0.599077  0.127036 -3.363474
      ESP Fit Center  494 is at  -0.119077 -0.704348 -3.363474
      ESP Fit Center  495 is at   0.840923 -0.704348 -3.363474
      ESP Fit Center  496 is at   0.360923  0.127036 -3.620705
      ESP Fit Center  497 is at  -0.581507 -3.031130 -0.036906
      ESP Fit Center  498 is at  -1.027683 -3.112512 -0.996906
      ESP Fit Center  499 is at  -0.067683 -3.369743 -0.996906
      ESP Fit Center  500 is at  -1.412891 -2.427094 -1.956906
      ESP Fit Center  501 is at  -0.581507 -3.031130 -1.956906
      ESP Fit Center  502 is at   0.446141 -3.031130 -1.956906
      ESP Fit Center  503 is at  -1.027683 -1.449743 -2.659675
      ESP Fit Center  504 is at  -0.547683 -2.281127 -2.659675
      ESP Fit Center  505 is at   0.412317 -2.281127 -2.659675
      ESP Fit Center  506 is at  -0.215223  1.018580  2.586717
      ESP Fit Center  507 is at   0.744777  1.018580  2.329486
      ESP Fit Center  508 is at   0.264777  1.849964  2.329486
      ESP Fit Center  509 is at  -0.695223  1.849964  2.329486
      ESP Fit Center  510 is at   0.298600  2.599967  1.626717
      ESP Fit Center  511 is at  -0.729047  2.599967  1.626717
      ESP Fit Center  512 is at  -0.215223  2.938580  0.666717
      ESP Fit Center  513 is at  -1.175223  2.681348  0.666717
      ESP Fit Center  514 is at  -0.729047  2.599967 -0.293283
      ESP Fit Center  515 is at   1.770638 -0.730351  2.441937
      ESP Fit Center  516 is at   2.803884 -0.730351 -2.752538
      ESP Fit Center  517 is at   2.287261  0.164466 -2.752538
      ESP Fit Center  518 is at   2.287261 -1.625167 -2.752538
      ESP Fit Center  519 is at   3.384079 -0.756139  3.044905
      ESP Fit Center  520 is at   4.417324 -0.756139  3.044905
      ESP Fit Center  521 is at   2.650449 -1.304190  2.459619
      ESP Fit Center  522 is at   5.506813 -0.893507  2.459619
      ESP Fit Center  523 is at   6.395176  0.138678  1.583676
      ESP Fit Center  524 is at   6.148146  1.220990  1.583676
      ESP Fit Center  525 is at   6.148146 -0.943634  1.583676
      ESP Fit Center  526 is at   4.933947  2.633153  0.550431
      ESP Fit Center  527 is at   6.395176 -0.894567  0.550431
      ESP Fit Center  528 is at   4.693807 -1.597981 -1.358758
      ESP Fit Center  529 is at   4.417324 -0.756139 -1.944044
      ESP Fit Center  530 is at   4.481212  2.830414  0.768418
      ESP Fit Center  531 is at   2.233768  4.448102 -0.264827
      ESP Fit Center  532 is at   1.200522  4.242576 -0.264827
      ESP Fit Center  533 is at   1.678695  4.180035 -1.298072
      ESP Fit Center  534 is at   1.962062  3.637857 -2.174015
      ESP Fit Center  535 is at   2.750390  0.853285 -2.759302
      ESP Fit Center  536 is at   2.233768  1.748102 -2.964827
      ESP Fit Center  537 is at  -4.320059  2.850956 -0.129871
      ESP Fit Center  538 is at  -4.673968  2.809886 -1.163116
      ESP Fit Center  539 is at  -4.320059  2.850956 -2.196361
      ESP Fit Center  540 is at  -1.971674  2.637356 -3.072304
      ESP Fit Center  541 is at  -3.036485  2.790453 -3.072304
      ESP Fit Center  542 is at  -4.015032  2.343566 -3.072304
      ESP Fit Center  543 is at  -4.015032 -0.542171 -3.072304
      ESP Fit Center  544 is at  -3.281402  1.795514 -3.657591
      ESP Fit Center  545 is at  -3.798025  0.900698 -3.657591
      ESP Fit Center  546 is at   1.136728 -2.202944 -2.681181
      ESP Fit Center  547 is at  -0.173000 -1.361102 -3.266468
      ESP Fit Center  548 is at   0.860245 -1.361102 -3.266468
      ESP Fit Center  549 is at  -0.495299  0.127376  2.971570
      ESP Fit Center  550 is at   0.537946  0.127376  2.766044
      ESP Fit Center  551 is at   0.021324 -0.767441  2.766044
      ESP Fit Center  552 is at   0.297807 -1.609283  2.180758
      ESP Fit Center  553 is at   0.059774 -2.304557  1.304815
      ESP Fit Center  554 is at   1.538541  0.359585  2.488234
      ESP Fit Center  555 is at   2.055164 -0.535231  2.488234
      ESP Fit Center  556 is at   3.605032  0.359585 -2.500715
      ESP Fit Center  557 is at   2.571787  0.359585 -2.706240
      ESP Fit Center  558 is at   2.151188 -1.879932  2.433394
      ESP Fit Center  559 is at   1.057800 -1.879932  2.183835
      ESP Fit Center  560 is at   1.604494 -2.826833  2.183835
      ESP Fit Center  561 is at   2.697881 -2.826833  2.183835
      ESP Fit Center  562 is at   0.260780 -2.435006  1.484588
      ESP Fit Center  563 is at   0.860971 -3.368922  1.484588
      ESP Fit Center  564 is at   1.870797 -3.830094  1.484588
[...]
  372 Fit       0.009856
  373 Fit       0.015951
  374 Fit       0.021769
  375 Fit       0.007527
  376 Fit       0.009652
  377 Fit       0.016510
  378 Fit      -0.010064
  379 Fit      -0.000940
  380 Fit      -0.027200
  381 Fit      -0.007894
  382 Fit       0.002870
  383 Fit      -0.030696
  384 Fit      -0.007472
  385 Fit       0.002985
  386 Fit      -0.020206
  387 Fit      -0.001810
  388 Fit      -0.012708
  389 Fit       0.011635
  390 Fit       0.012823
  391 Fit       0.016201
  392 Fit       0.016554
  393 Fit       0.010561
  394 Fit       0.005167
  395 Fit       0.007958
  396 Fit       0.013910
  397 Fit       0.016855
  398 Fit       0.019991
  399 Fit       0.023366
  400 Fit       0.022649
  401 Fit       0.011045
  402 Fit       0.010386
  403 Fit       0.017538
  404 Fit       0.020610
  405 Fit       0.026106
  406 Fit       0.023377
  407 Fit       0.025456
  408 Fit       0.025069
  409 Fit       0.026072
  410 Fit       0.027168
  411 Fit       0.021662
  412 Fit       0.025767
  413 Fit       0.026511
  414 Fit       0.028327
  415 Fit       0.032504
  416 Fit       0.027751
  417 Fit       0.029572
  418 Fit       0.033051
  419 Fit       0.041996
  420 Fit       0.042705
  421 Fit       0.053926
  422 Fit       0.039523
  423 Fit       0.047661
  424 Fit       0.035524
  425 Fit       0.040651
  426 Fit       0.040009
  427 Fit       0.026693
  428 Fit       0.028412
  429 Fit       0.027012
  430 Fit       0.027693
  431 Fit       0.029941
  432 Fit       0.026835
  433 Fit       0.027544
  434 Fit       0.028733
  435 Fit       0.031572
  436 Fit       0.026483
  437 Fit       0.028287
  438 Fit       0.030896
  439 Fit       0.024792
  440 Fit       0.028300
  441 Fit       0.013919
  442 Fit       0.012278
  443 Fit       0.007238
  444 Fit       0.022940
  445 Fit       0.020769
  446 Fit       0.018638
  447 Fit       0.013833
  448 Fit       0.003511
  449 Fit       0.024454
  450 Fit       0.021941
  451 Fit       0.017311
  452 Fit       0.010522
  453 Fit       0.027910
  454 Fit       0.024110
  455 Fit       0.021401
  456 Fit       0.020762
  457 Fit       0.004902
  458 Fit       0.047335
  459 Fit       0.032048
  460 Fit       0.022712
  461 Fit       0.015786
  462 Fit       0.050550
  463 Fit       0.039553
  464 Fit       0.032174
  465 Fit       0.026728
  466 Fit       0.024109
  467 Fit       0.043711
  468 Fit       0.036572
  469 Fit       0.031308
  470 Fit       0.028759
  471 Fit       0.036943
  472 Fit       0.032688
  473 Fit       0.043876
  474 Fit       0.038656
  475 Fit       0.020078
  476 Fit       0.016085
  477 Fit       0.023451
  478 Fit       0.037072
  479 Fit       0.036547
  480 Fit       0.035423
  481 Fit       0.031347
  482 Fit       0.027476
  483 Fit       0.025361
  484 Fit       0.030214
  485 Fit       0.031090
  486 Fit       0.057188
  487 Fit       0.031695
  488 Fit       0.038567
  489 Fit       0.047237
  490 Fit       0.030533
  491 Fit       0.036489
  492 Fit       0.039855
  493 Fit       0.038300
  494 Fit       0.028082
  495 Fit       0.025775
  496 Fit       0.032110
  497 Fit      -0.034914
  498 Fit      -0.025669
  499 Fit      -0.021367
  500 Fit      -0.009651
  501 Fit      -0.005636
  502 Fit      -0.008965
  503 Fit       0.019990
  504 Fit       0.008780
  505 Fit       0.008116
  506 Fit       0.001170
  507 Fit       0.017000
  508 Fit       0.025225
  509 Fit       0.007140
  510 Fit       0.041046
  511 Fit       0.027710
  512 Fit       0.048520
  513 Fit       0.040639
  514 Fit       0.058223
  515 Fit      -0.009534
  516 Fit       0.012021
  517 Fit       0.026732
  518 Fit       0.002765
  519 Fit      -0.001172
  520 Fit       0.003373
  521 Fit      -0.013447
  522 Fit       0.006338
  523 Fit       0.011409
  524 Fit       0.014635
  525 Fit       0.007681
  526 Fit       0.022514
  527 Fit       0.007877
  528 Fit      -0.006897
  529 Fit       0.003408
  530 Fit       0.024349
  531 Fit       0.028818
  532 Fit       0.032310
  533 Fit       0.031582
  534 Fit       0.031492
  535 Fit       0.024760
  536 Fit       0.030022
  537 Fit       0.013115
  538 Fit       0.020646
  539 Fit       0.024358
  540 Fit       0.033983
  541 Fit       0.028913
  542 Fit       0.025202
  543 Fit       0.016086
  544 Fit       0.027319
  545 Fit       0.024572
  546 Fit       0.003008
  547 Fit       0.019976
  548 Fit       0.017700
  549 Fit      -0.021806
  550 Fit      -0.007547
  551 Fit      -0.023664
  552 Fit      -0.030157
  553 Fit      -0.038379
  554 Fit       0.004101
  555 Fit      -0.005645
  556 Fit       0.015611
  557 Fit       0.024176
  558 Fit      -0.025148
  559 Fit      -0.030253
  560 Fit      -0.036605
  561 Fit      -0.032089
  562 Fit      -0.039149
  563 Fit      -0.042744
  564 Fit      -0.041621
  565 Fit      -0.037130
  566 Fit      -0.026361
  567 Fit      -0.043482
  568 Fit      -0.043255
  569 Fit      -0.040540
  570 Fit      -0.035335
  571 Fit      -0.036817
  572 Fit      -0.040196
  573 Fit      -0.038808
  574 Fit      -0.034665
  575 Fit      -0.026512
  576 Fit      -0.015291
  577 Fit      -0.024140
  578 Fit      -0.032949
  579 Fit      -0.032364
  580 Fit      -0.026611
  581 Fit      -0.011293
  582 Fit      -0.016303
  583 Fit      -0.021614
  584 Fit      -0.036645
  585 Fit      -0.031761
  586 Fit      -0.029571
  587 Fit      -0.033166
  588 Fit      -0.037839
  589 Fit      -0.040828
  590 Fit      -0.038356
  591 Fit      -0.020010
  592 Fit      -0.013910
  593 Fit      -0.019192
  594 Fit      -0.025325
  595 Fit      -0.030090
  596 Fit      -0.034208
  597 Fit      -0.038174
  598 Fit      -0.041791
  599 Fit       0.006954
  600 Fit      -0.008498
  601 Fit      -0.017359
  602 Fit      -0.022871
  603 Fit      -0.026557
  604 Fit      -0.029674
  605 Fit      -0.033865
  606 Fit      -0.000784
  607 Fit      -0.008577
  608 Fit      -0.011441
  609 Fit      -0.044178
  610 Fit      -0.039632
  611 Fit      -0.043072
  612 Fit      -0.044453
  613 Fit      -0.044312
  614 Fit      -0.035971
  615 Fit      -0.040110
  616 Fit      -0.041704
  617 Fit      -0.042412
  618 Fit      -0.041899
  619 Fit      -0.016250
  620 Fit      -0.030097
  621 Fit      -0.035321
  622 Fit      -0.036886
  623 Fit      -0.036467
  624 Fit      -0.019008
  625 Fit      -0.028120
  626 Fit      -0.029666
  627 Fit      -0.024456
  628 Fit      -0.003745
  629 Fit      -0.017480
  630 Fit      -0.011047
  631 Fit      -0.036101
  632 Fit      -0.041434
  633 Fit      -0.038480
  634 Fit      -0.033062
  635 Fit      -0.033666
  636 Fit      -0.041371
  637 Fit      -0.041102
  638 Fit       0.023853
  639 Fit      -0.009432
  640 Fit      -0.011633
  641 Fit      -0.021627
  642 Fit      -0.010564
  643 Fit       0.015688
  644 Fit       0.012815
  645 Fit       0.015818
  646 Fit       0.019166
  647 Fit       0.009214
  648 Fit       0.013352
  649 Fit       0.017285
  650 Fit       0.022376
  651 Fit       0.002063
  652 Fit       0.008641
  653 Fit       0.014056
  654 Fit       0.020066
  655 Fit       0.008046
  656 Fit       0.015210
  657 Fit      -0.011212
  658 Fit      -0.002396
  659 Fit      -0.022235
  660 Fit      -0.007058
  661 Fit       0.001859
  662 Fit      -0.024264
  663 Fit      -0.006849
  664 Fit       0.002073
  665 Fit      -0.016011
  666 Fit      -0.001667
  667 Fit      -0.012554
  668 Fit       0.009423
  669 Fit       0.010724
  670 Fit       0.013930
  671 Fit       0.014328
  672 Fit       0.008387
  673 Fit       0.003103
  674 Fit       0.006056
  675 Fit       0.012027
  676 Fit       0.014642
  677 Fit       0.017404
  678 Fit       0.020645
  679 Fit       0.016001
  680 Fit       0.015973
  681 Fit       0.018683
  682 Fit       0.023259
  683 Fit       0.019847
  684 Fit       0.021882
  685 Fit       0.022427
  686 Fit       0.022874
  687 Fit       0.017493
  688 Fit       0.023274
  689 Fit       0.023407
  690 Fit       0.024556
  691 Fit       0.026953
  692 Fit       0.034208
  693 Fit       0.025280
  694 Fit       0.026405
  695 Fit       0.028905
  696 Fit       0.034668
  697 Fit       0.037277
  698 Fit       0.045459
  699 Fit       0.034994
  700 Fit       0.040820
  701 Fit       0.050310
  702 Fit       0.037345
  703 Fit       0.036732
  704 Fit       0.024316
  705 Fit       0.025598
  706 Fit       0.024182
  707 Fit       0.024758
  708 Fit       0.026611
  709 Fit       0.023905
  710 Fit       0.024431
  711 Fit       0.025562
  712 Fit       0.027975
  713 Fit       0.023683
  714 Fit       0.025533
  715 Fit       0.028768
  716 Fit       0.022435
  717 Fit       0.026094
  718 Fit       0.010524
  719 Fit       0.008854
  720 Fit       0.005548
  721 Fit       0.017830
  722 Fit       0.015720
  723 Fit       0.012484
  724 Fit       0.006047
  725 Fit       0.022167
  726 Fit       0.019468
  727 Fit       0.016227
  728 Fit       0.010989
  729 Fit       0.020834
  730 Fit       0.018286
  731 Fit       0.046857
  732 Fit       0.030154
  733 Fit       0.020865
  734 Fit       0.014079
  735 Fit       0.049646
  736 Fit       0.037361
  737 Fit       0.029720
  738 Fit       0.024450
  739 Fit       0.021178
  740 Fit       0.041824
  741 Fit       0.034234
  742 Fit       0.029006
  743 Fit       0.025917
  744 Fit       0.034016
  745 Fit       0.041570
  746 Fit       0.013841
  747 Fit       0.012300
  748 Fit       0.021102
  749 Fit       0.032539
  750 Fit       0.031908
  751 Fit       0.028036
  752 Fit       0.024050
  753 Fit       0.021421
  754 Fit       0.025888
  755 Fit       0.027205
  756 Fit       0.027085
  757 Fit       0.043315
  758 Fit       0.026814
  759 Fit       0.032893
  760 Fit       0.036423
  761 Fit       0.035172
  762 Fit       0.024618
  763 Fit       0.021974
  764 Fit       0.028609
  765 Fit      -0.035667
  766 Fit      -0.024396
  767 Fit      -0.025991
  768 Fit      -0.010513
  769 Fit      -0.008295
  770 Fit      -0.012917
  771 Fit       0.018463
  772 Fit       0.006354
  773 Fit       0.005567
  774 Fit      -0.003268
  775 Fit       0.012666
  776 Fit       0.019663
  777 Fit       0.001117
  778 Fit       0.026286
  779 Fit       0.043751
  780 Fit       0.037274
  781 Fit      -0.009417
  782 Fit      -0.023164
  783 Fit       0.011767
  784 Fit       0.004436
  785 Fit      -0.001358
  786 Fit       0.002416
  787 Fit      -0.004295
  788 Fit      -0.011448
  789 Fit       0.004738
  790 Fit       0.009618
  791 Fit       0.006235
  792 Fit       0.010240
  793 Fit       0.013153
  794 Fit       0.015753
  795 Fit       0.019173
  796 Fit       0.006734
  797 Fit       0.006671
  798 Fit      -0.001584
  799 Fit      -0.005439
  800 Fit       0.004134
  801 Fit       0.023619
  802 Fit       0.025141
  803 Fit       0.027580
  804 Fit       0.032055
  805 Fit       0.026036
  806 Fit       0.028600
  807 Fit       0.034002
  808 Fit       0.028129
  809 Fit       0.028828
  810 Fit       0.030375
  811 Fit       0.023272
  812 Fit       0.027655
  813 Fit       0.003376
  814 Fit       0.015817
  815 Fit       0.020283
  816 Fit       0.022924
  817 Fit       0.021013
  818 Fit       0.002949
  819 Fit       0.030381
  820 Fit       0.025919
  821 Fit       0.022636
  822 Fit       0.020839
  823 Fit       0.018386
  824 Fit       0.014770
  825 Fit       0.024567
  826 Fit       0.021898
  827 Fit       0.003937
  828 Fit       0.017924
  829 Fit       0.015736
  830 Fit      -0.008347
  831 Fit      -0.002823
  832 Fit      -0.021426
  833 Fit      -0.027102
  834 Fit       0.002381
  835 Fit       0.015608
  836 Fit       0.022715
  837 Fit      -0.021239
  838 Fit      -0.026656
  839 Fit      -0.030799
  840 Fit      -0.026361
  841 Fit      -0.036668
  842 Fit      -0.036558
  843 Fit      -0.034286
  844 Fit      -0.029575
  845 Fit      -0.039800
  846 Fit      -0.038653
  847 Fit      -0.036781
  848 Fit      -0.033612
  849 Fit      -0.028069
  850 Fit      -0.036253
  851 Fit      -0.036397
  852 Fit      -0.034910
  853 Fit      -0.031958
  854 Fit      -0.026880
  855 Fit      -0.030076
  856 Fit      -0.032082
  857 Fit      -0.030770
  858 Fit      -0.027045
  859 Fit      -0.020320
  860 Fit      -0.010436
  861 Fit      -0.020871
  862 Fit      -0.025364
  863 Fit      -0.024278
  864 Fit      -0.019278
  865 Fit      -0.006712
  866 Fit      -0.010564
  867 Fit      -0.015114
  868 Fit      -0.031015
  869 Fit      -0.027152
  870 Fit      -0.025166
  871 Fit      -0.028233
  872 Fit      -0.032226
  873 Fit      -0.034763
  874 Fit      -0.032804
  875 Fit      -0.018988
  876 Fit      -0.013951
  877 Fit      -0.016214
  878 Fit      -0.020608
  879 Fit      -0.024580
  880 Fit      -0.028047
  881 Fit      -0.031322
  882 Fit      -0.034512
  883 Fit      -0.036997
  884 Fit       0.002920
  885 Fit      -0.007219
  886 Fit      -0.014365
  887 Fit      -0.019278
  888 Fit      -0.022892
  889 Fit      -0.025950
  890 Fit      -0.029252
  891 Fit      -0.033644
  892 Fit       0.001280
  893 Fit      -0.006579
  894 Fit      -0.011693
  895 Fit      -0.014847
  896 Fit      -0.017158
  897 Fit      -0.037143
  898 Fit      -0.038510
  899 Fit      -0.039190
  900 Fit      -0.039009
  901 Fit      -0.029709
  902 Fit      -0.034182
  903 Fit      -0.036503
  904 Fit      -0.037745
  905 Fit      -0.038675
  906 Fit      -0.039722
  907 Fit      -0.022494
  908 Fit      -0.029305
  909 Fit      -0.032586
  910 Fit      -0.034109
  911 Fit      -0.034847
  912 Fit      -0.035075
  913 Fit      -0.016688
  914 Fit      -0.025118
  915 Fit      -0.028614
  916 Fit      -0.029536
  917 Fit      -0.028207
  918 Fit      -0.016783
  919 Fit      -0.021811
  920 Fit      -0.021797
  921 Fit      -0.015526
  922 Fit      -0.010702
  923 Fit      -0.005386
  924 Fit      -0.032474
  925 Fit      -0.036690
  926 Fit      -0.034298
  927 Fit      -0.030419
  928 Fit      -0.025820
  929 Fit      -0.032305
  930 Fit      -0.035969
  931 Fit      -0.035504
  932 Fit      -0.032005
  933 Fit       0.017093
  934 Fit      -0.017103
  935 Fit      -0.019865
  936 Fit      -0.027338
  937 Fit      -0.039324
  938 Fit      -0.007081
  939 Fit      -0.019409
  940 Fit       0.011330
  941 Fit       0.013873
  942 Fit       0.016739
  943 Fit       0.011496
  944 Fit       0.014463
  945 Fit       0.017826
  946 Fit       0.008052
  947 Fit       0.012011
  948 Fit       0.015839
  949 Fit       0.020902
  950 Fit       0.001925
  951 Fit       0.007712
  952 Fit       0.012804
  953 Fit       0.018289
  954 Fit       0.007803
  955 Fit       0.014268
  956 Fit      -0.009651
  957 Fit      -0.002869
  958 Fit      -0.018054
  959 Fit      -0.006835
  960 Fit       0.000798
  961 Fit      -0.016413
  962 Fit      -0.004946
  963 Fit       0.002014
  964 Fit      -0.007252
  965 Fit       0.001007
  966 Fit      -0.016124
  967 Fit       0.007732
  968 Fit       0.008939
  969 Fit       0.011656
  970 Fit       0.011734
  971 Fit       0.006709
  972 Fit       0.002479
  973 Fit       0.004933
  974 Fit       0.010122
  975 Fit       0.012600
  976 Fit       0.014946
  977 Fit       0.017236
  978 Fit       0.017843
  979 Fit       0.012256
  980 Fit       0.007055
  981 Fit       0.013650
  982 Fit       0.015978
  983 Fit       0.019214
  984 Fit       0.016918
  985 Fit       0.019042
  986 Fit       0.018980
  987 Fit       0.018088
  988 Fit       0.014160
  989 Fit       0.020771
  990 Fit       0.020593
  991 Fit       0.021210
  992 Fit       0.022463
  993 Fit       0.025766
  994 Fit       0.022067
  995 Fit       0.022647
  996 Fit       0.024037
  997 Fit       0.026895
  998 Fit       0.038801
  999 Fit       0.038265
 1000 Fit       0.032257
 1001 Fit       0.037351
 1002 Fit       0.034417
 1003 Fit       0.033840
 1004 Fit       0.021979
 1005 Fit       0.022407
 1006 Fit       0.024065
 1007 Fit       0.021904
 1008 Fit       0.022472
 1009 Fit       0.023909
 1010 Fit       0.021281
 1011 Fit       0.022092
 1012 Fit       0.023350
 1013 Fit       0.025753
 1014 Fit       0.021642
 1015 Fit       0.023407
 1016 Fit       0.026618
 1017 Fit       0.021117
 1018 Fit       0.024254
 1019 Fit       0.003660
 1020 Fit       0.002271
 1021 Fit       0.013481
 1022 Fit       0.011200
 1023 Fit       0.008743
 1024 Fit       0.004354
 1025 Fit       0.018164
 1026 Fit       0.015604
 1027 Fit       0.013112
 1028 Fit       0.009273
 1029 Fit       0.002616
 1030 Fit       0.020344
 1031 Fit       0.017397
 1032 Fit       0.014365
 1033 Fit       0.010350
 1034 Fit       0.018847
 1035 Fit       0.024239
 1036 Fit       0.014783
 1037 Fit       0.007454
 1038 Fit       0.035538
 1039 Fit       0.026634
 1040 Fit       0.020805
 1041 Fit       0.016677
 1042 Fit       0.035628
 1043 Fit       0.028810
 1044 Fit       0.024222
 1045 Fit       0.021297
 1046 Fit       0.037943
 1047 Fit       0.031241
 1048 Fit       0.026704
 1049 Fit       0.036000
 1050 Fit       0.032525
 1051 Fit       0.013421
 1052 Fit       0.012578
 1053 Fit       0.018926
 1054 Fit       0.028362
 1055 Fit       0.028341
 1056 Fit       0.025148
 1057 Fit       0.021580
 1058 Fit       0.019321
 1059 Fit       0.022805
 1060 Fit       0.024148
 1061 Fit       0.023516
 1062 Fit       0.029892
 1063 Fit       0.037707
 1064 Fit       0.023948
 1065 Fit       0.029263
 1066 Fit       0.032316
 1067 Fit       0.030775
 1068 Fit       0.022302
 1069 Fit       0.019834
 1070 Fit       0.025731
 1071 Fit      -0.038657
 1072 Fit      -0.029981
 1073 Fit      -0.017825
 1074 Fit      -0.021899
 1075 Fit      -0.006017
 1076 Fit      -0.005933
 1077 Fit      -0.008429
 1078 Fit       0.006645
 1079 Fit       0.005963
 1080 Fit       0.007844
 1081 Fit       0.012881
 1082 Fit       0.017490
 1083 Fit       0.028003
 1084 Fit       0.041054
 -----------------------------------------------------------------
 Leave Link  602 at Sat Feb 17 21:00:01 2018, MaxMem=   33554432 cpu:       0.4

 Test job not archived.
 1\1\GINC-NODE048\SP\RHF\6-31G(d)\C5H12N2O3S1\WULSDORT\17-Feb-2018\0\\#
 HF/6-31G* Geom=AllCheck Guess=Read Pop=(MK,ReadRadii) Integral=(Grid=U
 ltraFine) iop(6/33=2)\\Optimization for frag23-conf1\\0,1\C,0,-2.36053
 87192,-1.4664562247,2.2383409048\C,0,-3.5021638238,0.0737759761,3.7451
 317604\C,0,-4.878939586,-1.3938882591,2.3365834507\C,0,-3.3506148623,-
 5.5436482224,-0.3004992705\C,0,-2.4321277582,-2.6299780144,1.232696239
 \N,0,-2.8695981241,-3.8674983397,1.8826259635\N,0,-3.5463184859,-0.977
 7087511,2.7366043571\O,0,-1.2728642762,-1.0137067913,2.5665704841\O,0,
 -3.0219689638,-6.3391759853,2.2000816602\O,0,-1.0325132088,-5.32432563
 65,0.9323072176\S,0,-2.4547609939,-5.369750688,1.2636510297\H,0,-3.972
 0064454,0.9910144286,3.3662271782\H,0,-2.459696003,0.2735651096,3.9874
 087179\H,0,-4.0385190283,-0.2434616926,4.6485601536\H,0,-5.4073404591,
 -1.8893116353,3.1642730208\H,0,-4.8488315266,-2.0735418841,1.484626955
 4\H,0,-5.4729208738,-0.5194129456,2.040159244\H,0,-3.0609604969,-6.505
 9176922,-0.729024247\H,0,-4.4248487738,-5.5300564862,-0.1049593828\H,0
 ,-3.0614910009,-4.736765905,-0.9776067513\H,0,-3.0480308593,-2.3607522
 224,0.3591883697\H,0,-1.4067288576,-2.7851532764,0.8988918972\H,0,-3.7
 800938452,-3.8818635892,2.3294131447\\Version=AM64L-G09RevC.01\State=1
 -A\HF=-927.2334525\RMSD=6.999e-09\Dipole=-2.8232298,1.1218052,-1.25714
 49\Quadrupole=-2.3395653,-4.7579917,7.0975569,-2.5198825,-0.4058925,6.
 0211468\PG=C01 [X(C5H12N2O3S1)]\\@


 THE TRULY SUCCESSFUL PERFORMANCE OF RESEARCHES IN
 INORGANIC CHEMISTRY IS POSSIBLE ONLY TO ONE WHO IS NOT
 ONLY A THEORETICAL CHEMIST, BUT ALSO AN ACCOMPLISHED
 ANALYST AND, MOREOVER, NOT MERELY A PRACTICALLY TRAINED,
 MECHANICAL WORKER, BUT A THINKING CREATIVE ARTIST.
   --  CLEMENS WINKLER, BER. 33, 1697(1900)
 Job cpu time:  0 days  0 hours  1 minutes 44.4 seconds.
 File lengths (MBytes):  RWF=     25 Int=      0 D2E=      0 Chk=      4 Scr=      1
 Normal termination of Gaussian 09 at Sat Feb 17 21:00:01 2018.
