 Entering Gaussian System, Link 0=g09
 Initial command:
 /home/fb_chem/chemsoft/lx24-amd64/Gaussian_09_C.01_NBO_3.1_64_istanbul-64/g09/l1.exe /local/2400091.1.parallel/Gau-15749.inp -scrdir=/local/2400091.1.parallel/
 Entering Link 1 = /home/fb_chem/chemsoft/lx24-amd64/Gaussian_09_C.01_NBO_3.1_64_istanbul-64/g09/l1.exe PID=     15750.
  
 Copyright (c) 1988,1990,1992,1993,1995,1998,2003,2009,2011,
            Gaussian, Inc.  All Rights Reserved.
  
 This is part of the Gaussian(R) 09 program.  It is based on
 the Gaussian(R) 03 system (copyright 2003, Gaussian, Inc.),
 the Gaussian(R) 98 system (copyright 1998, Gaussian, Inc.),
 the Gaussian(R) 94 system (copyright 1995, Gaussian, Inc.),
 the Gaussian 92(TM) system (copyright 1992, Gaussian, Inc.),
 the Gaussian 90(TM) system (copyright 1990, Gaussian, Inc.),
 the Gaussian 88(TM) system (copyright 1988, Gaussian, Inc.),
 the Gaussian 86(TM) system (copyright 1986, Carnegie Mellon
 University), and the Gaussian 82(TM) system (copyright 1983,
 Carnegie Mellon University). Gaussian is a federally registered
 trademark of Gaussian, Inc.
  
 This software contains proprietary and confidential information,
 including trade secrets, belonging to Gaussian, Inc.
  
 This software is provided under written license and may be
 used, copied, transmitted, or stored only in accord with that
 written license.
  
 The following legend is applicable only to US Government
 contracts under FAR:
  
                    RESTRICTED RIGHTS LEGEND
  
 Use, reproduction and disclosure by the US Government is
 subject to restrictions as set forth in subparagraphs (a)
 and (c) of the Commercial Computer Software - Restricted
 Rights clause in FAR 52.227-19.
  
 Gaussian, Inc.
 340 Quinnipiac St., Bldg. 40, Wallingford CT 06492
  
  
 ---------------------------------------------------------------
 Warning -- This program may not be used in any manner that
 competes with the business of Gaussian, Inc. or will provide
 assistance to any competitor of Gaussian, Inc.  The licensee
 of this program is prohibited from giving any competitor of
 Gaussian, Inc. access to this program.  By using this program,
 the user acknowledges that Gaussian, Inc. is engaged in the
 business of creating and licensing software in the field of
 computational chemistry and represents and warrants to the
 licensee that it is not a competitor of Gaussian, Inc. and that
 it will not use this program in any manner prohibited above.
 ---------------------------------------------------------------
  

 Cite this work as:
 Gaussian 09, Revision C.01,
 M. J. Frisch, G. W. Trucks, H. B. Schlegel, G. E. Scuseria, 
 M. A. Robb, J. R. Cheeseman, G. Scalmani, V. Barone, B. Mennucci, 
 G. A. Petersson, H. Nakatsuji, M. Caricato, X. Li, H. P. Hratchian, 
 A. F. Izmaylov, J. Bloino, G. Zheng, J. L. Sonnenberg, M. Hada, 
 M. Ehara, K. Toyota, R. Fukuda, J. Hasegawa, M. Ishida, T. Nakajima, 
 Y. Honda, O. Kitao, H. Nakai, T. Vreven, J. A. Montgomery, Jr., 
 J. E. Peralta, F. Ogliaro, M. Bearpark, J. J. Heyd, E. Brothers, 
 K. N. Kudin, V. N. Staroverov, T. Keith, R. Kobayashi, J. Normand, 
 K. Raghavachari, A. Rendell, J. C. Burant, S. S. Iyengar, J. Tomasi, 
 M. Cossi, N. Rega, J. M. Millam, M. Klene, J. E. Knox, J. B. Cross, 
 V. Bakken, C. Adamo, J. Jaramillo, R. Gomperts, R. E. Stratmann, 
 O. Yazyev, A. J. Austin, R. Cammi, C. Pomelli, J. W. Ochterski, 
 R. L. Martin, K. Morokuma, V. G. Zakrzewski, G. A. Voth, 
 P. Salvador, J. J. Dannenberg, S. Dapprich, A. D. Daniels, 
 O. Farkas, J. B. Foresman, J. V. Ortiz, J. Cioslowski, 
 and D. J. Fox, Gaussian, Inc., Wallingford CT, 2010.
 
 ******************************************
 Gaussian 09:  AM64L-G09RevC.01 23-Sep-2011
                17-Feb-2018 
 ******************************************
 %nprocs=2
 Will use up to    2 processors via shared memory.
 %chk=frag50-conf0.chk
 ----------------------------------------------------------------------
 #HF/6-31G* Geom=AllCheck Guess=Read Pop=(MK,ReadRadii) Integral=(Grid=
 UltraFine) iop(6/33=2)
 ----------------------------------------------------------------------
 1/29=7,38=1/1;
 2/12=2,40=1/2;
 3/5=1,6=6,7=1,11=9,14=-4,16=1,25=1,30=1,75=-5,116=-2/1,2,3;
 4/5=1/1;
 5/5=2,38=6/2;
 6/7=2,8=2,9=2,10=2,15=8,20=101,28=1,33=2/1,2;
 99/5=1,9=1/99;
 Structure from the checkpoint file:  frag50-conf0.chk
 -----------------------------
 Optimization for frag50-conf0
 -----------------------------
 Charge =  1 Multiplicity = 1
 Redundant internal coordinates found in file.
 C,0,-0.189739263,2.6870085719,-1.219369272
 C,0,0.9541833913,8.9333262729,0.7623717141
 C,0,0.3785772508,0.4891984185,-0.3517664041
 C,0,-1.9844572097,0.9502103665,-0.8903042968
 C,0,-3.4884901751,3.9478562362,-5.0225989551
 C,0,-0.3754647869,5.7326083076,-0.6363431098
 C,0,-0.6313772835,5.0641869039,-1.9941191648
 C,0,0.2903913283,7.0989724405,-0.8026497596
 C,0,-1.2206092214,3.6487376979,-1.8707820509
 N,0,1.0565360185,9.3817819094,2.0256266031
 N,0,0.604519059,7.6713808268,0.5230564866
 N,0,-1.5938110636,3.1468696081,-3.2089328882
 N,0,-0.6111301565,1.4498630533,-0.8382786515
 N,0,1.1906689754,9.7783222397,-0.2509114399
 O,0,0.9793111251,3.0621105464,-1.0949838267
 O,0,-4.0304088995,3.3794043225,-2.490976851
 O,0,-3.3327416711,1.4862760297,-4.0744548181
 S,0,-3.2227515469,2.869832359,-3.6065184729
 H,0,0.1744409007,0.2317987568,0.6945720091
 H,0,1.369827089,0.9313213259,-0.4313805984
 H,0,0.3318051985,-0.4284159764,-0.9496468478
 H,0,-2.7118336334,1.7578234716,-0.9514853732
 H,0,-2.1845665477,0.3870721257,0.0273153373
 H,0,-2.1368971778,0.2830216801,-1.7468946763
 H,0,-4.5226572091,3.8014000412,-5.3433023331
 H,0,-3.3250114787,4.982103708,-4.7166822332
 H,0,-2.8002836866,3.6584711743,-5.8184678211
 H,0,-1.3170196536,5.854613452,-0.0844065887
 H,0,0.2877689755,5.0842680535,-0.0535693142
 H,0,-1.3366263454,5.6650372163,-2.5809431627
 H,0,0.3059102733,4.998278179,-2.5553465168
 H,0,1.2169339137,6.9923535436,-1.3819029411
 H,0,-0.374478722,7.7963942334,-1.3253270897
 H,0,-2.1319608727,3.6984259541,-1.2666906265
 H,0,0.7095496307,8.8401691657,2.8046108046
 H,0,1.5396295669,10.2425392804,2.2407740472
 H,0,0.6551504581,7.0169999653,1.2947894145
 H,0,-1.0245482412,2.3819836452,-3.5617134819
 H,0,1.2513690539,10.7754398678,-0.1007443104
 H,0,1.2993007582,9.4424391686,-1.1968532863
 Recover connectivity data from disk.
                          Input orientation:                          
 ---------------------------------------------------------------------
 Center     Atomic      Atomic             Coordinates (Angstroms)
 Number     Number       Type             X           Y           Z
 ---------------------------------------------------------------------
      1          6           0       -0.189739    2.687009   -1.219369
      2          6           0        0.954183    8.933326    0.762372
      3          6           0        0.378577    0.489198   -0.351766
      4          6           0       -1.984457    0.950210   -0.890304
      5          6           0       -3.488490    3.947856   -5.022599
      6          6           0       -0.375465    5.732608   -0.636343
      7          6           0       -0.631377    5.064187   -1.994119
      8          6           0        0.290391    7.098972   -0.802650
      9          6           0       -1.220609    3.648738   -1.870782
     10          7           0        1.056536    9.381782    2.025627
     11          7           0        0.604519    7.671381    0.523056
     12          7           0       -1.593811    3.146870   -3.208933
     13          7           0       -0.611130    1.449863   -0.838279
     14          7           0        1.190669    9.778322   -0.250911
     15          8           0        0.979311    3.062111   -1.094984
     16          8           0       -4.030409    3.379404   -2.490977
     17          8           0       -3.332742    1.486276   -4.074455
     18         16           0       -3.222752    2.869832   -3.606518
     19          1           0        0.174441    0.231799    0.694572
     20          1           0        1.369827    0.931321   -0.431381
     21          1           0        0.331805   -0.428416   -0.949647
     22          1           0       -2.711834    1.757823   -0.951485
     23          1           0       -2.184567    0.387072    0.027315
     24          1           0       -2.136897    0.283022   -1.746895
     25          1           0       -4.522657    3.801400   -5.343302
     26          1           0       -3.325011    4.982104   -4.716682
     27          1           0       -2.800284    3.658471   -5.818468
     28          1           0       -1.317020    5.854613   -0.084407
     29          1           0        0.287769    5.084268   -0.053569
     30          1           0       -1.336626    5.665037   -2.580943
     31          1           0        0.305910    4.998278   -2.555347
     32          1           0        1.216934    6.992354   -1.381903
     33          1           0       -0.374479    7.796394   -1.325327
     34          1           0       -2.131961    3.698426   -1.266691
     35          1           0        0.709550    8.840169    2.804611
     36          1           0        1.539630   10.242539    2.240774
     37          1           0        0.655150    7.017000    1.294789
     38          1           0       -1.024548    2.381984   -3.561713
     39          1           0        1.251369   10.775440   -0.100744
     40          1           0        1.299301    9.442439   -1.196853
 ---------------------------------------------------------------------
                    Distance matrix (angstroms):
                    1          2          3          4          5
     1  C    0.000000
     2  C    6.652243   0.000000
     3  C    2.430244   8.536740   0.000000
     4  C    2.519080   8.665857   2.467081   0.000000
     5  C    5.189995   8.835052   6.980917   5.322016   0.000000
     6  C    3.106460   3.737508   5.304989   5.052196   5.667055
     7  C    2.538948   5.008242   4.964660   4.469232   4.310566
     8  C    4.457534   2.500953   6.625721   6.556668   6.482087
     9  C    1.553047   6.292066   3.853245   2.971002   3.894445
    10  N    7.543420   1.344396   9.229825   9.425587   9.993112
    11  N    5.339556   1.331181   7.238792   7.339926   7.834006
    12  N    2.478155   7.466366   4.372291   3.217756   2.742403
    13  N    1.361370   7.811179   1.462563   1.462322   5.659303
    14  N    7.289044   1.340405   9.325100   9.403500   8.868927
    15  O    1.234039   6.158050   2.744655   3.644988   6.014312
    16  O    4.104527   8.141037   5.689347   3.556551   2.650646
    17  O    4.412679   9.860587   5.350370   3.499150   2.642463
    18  S    3.864074   8.561539   5.406514   3.549104   1.799454
    19  H    3.134303   8.736657   1.096700   2.772867   7.740297
    20  H    2.477017   8.101228   1.088296   3.385586   7.333622
    21  H    3.170273   9.537326   1.096205   2.696146   7.094741
    22  H    2.701131   8.238011   3.394070   1.088604   4.687580
    23  H    3.289873   9.134031   2.593037   1.095077   6.315143
    24  H    3.138289   9.522550   2.883835   1.096415   5.097848
    25  H    6.084642   9.675314   7.740039   5.865231   1.092612
    26  H    5.227676   7.996481   7.277036   5.717903   1.090861
    27  H    5.376838   9.231878   7.073491   5.682169   1.091228
    28  H    3.548608   3.918401   5.633312   5.014789   5.721604
    29  H    2.708128   3.990629   4.605631   4.790988   6.343723
    30  H    3.469566   5.206465   5.890710   5.050499   3.679798
    31  H    2.715229   5.187689   5.019248   4.940142   4.646310
    32  H    4.532234   2.904191   6.637398   6.855514   6.683161
    33  H    5.113822   2.723315   7.410130   7.046383   6.178845
    34  H    2.190303   6.406681   4.176006   2.777789   4.001154
    35  H    7.406924   2.058947   8.933699   9.119294  10.140191
    36  H    8.488189   2.059723  10.158591  10.419703  10.847194
    37  H    5.077761   2.011267   6.737940   6.967647   8.154679
    38  H    2.505299   8.095257   3.981854   3.179281   3.264530
    39  H    8.291612   2.055887  10.326255  10.374445   9.659545
    40  H    6.917629   2.053501   9.040046   9.110159   8.231021
                    6          7          8          9         10
     6  C    0.000000
     7  C    1.534873   0.000000
     8  C    1.529043   2.531721   0.000000
     9  C    2.565273   1.538149   3.915118   0.000000
    10  N    4.738478   6.135881   3.714478   7.296245   0.000000
    11  N    2.462400   3.828978   1.477777   5.024263   2.321101
    12  N    3.845599   2.465392   4.995952   1.477091   8.561488
    13  N    4.293975   3.794696   5.720703   2.504511   8.596418
    14  N    4.355357   5.346185   2.879901   6.783071   2.314705
    15  O    3.029410   2.722328   4.105645   2.405337   7.048576
    16  O    4.726082   3.826065   5.946003   2.890010   9.072224
    17  O    6.212684   4.942329   7.438694   3.740791  10.900264
    18  S    5.012432   3.759022   6.171667   2.761892   9.614512
    19  H    5.686179   5.588415   7.029452   4.494739   9.288272
    20  H    5.112769   4.850520   6.272395   4.020770   8.805982
    21  H    6.209397   5.673388   7.528937   4.458886  10.277036
    22  H    4.621347   4.043195   6.128897   2.577676   9.010469
    23  H    5.682257   5.326725   7.201657   3.894926   9.767436
    24  H    5.833863   5.018690   7.296610   3.490412  10.354582
    25  H    6.563858   5.287128   7.393034   4.794291  10.796720
    26  H    5.090408   3.830764   5.733404   3.782264   9.165907
    27  H    6.085738   4.615824   6.822591   4.252022  10.448022
    28  H    1.098201   2.177586   2.155939   2.840127   4.746254
    29  H    1.095376   2.147316   2.149456   2.763732   4.835564
    30  H    2.170223   1.096704   2.804583   2.140853   6.384505
    31  H    2.164737   1.094453   2.735892   2.149453   6.384658
    32  H    2.162996   2.740235   1.097899   4.166580   4.164895
    33  H    2.175756   2.824577   1.096194   4.268081   3.973682
    34  H    2.760528   2.155506   4.200814   1.094512   7.301123
    35  H    4.761760   6.251715   4.027380   7.248156   1.010228
    36  H    5.681977   7.032988   4.550279   8.246334   1.010233
    37  H    2.537933   4.035536   2.130498   4.988437   2.507474
    38  H    4.495085   3.131477   5.620630   2.121875   9.194915
    39  H    5.325749   6.304602   3.864267   7.748135   2.549842
    40  H    4.108754   4.851004   2.581691   6.353826   3.232180
                   11         12         13         14         15
    11  N    0.000000
    12  N    6.263514   0.000000
    13  N    6.483696   3.076604   0.000000
    14  N    2.319871   7.776849   8.541353   0.000000
    15  O    4.899377   3.331204   2.279198   6.772343   0.000000
    16  O    6.999144   2.550792   4.259813   8.557085   5.210256
    17  O    8.654170   2.555500   4.228632  10.190130   5.473052
    18  S    7.399747   1.699491   4.062023   8.858082   4.899195
    19  H    7.453977   5.182828   2.109605   9.646905   3.443979
    20  H    6.850186   4.626727   2.087736   8.850655   2.265642
    21  H    8.237107   4.647046   2.104629  10.266615   3.553050
    22  H    6.938489   2.876716   2.126173   8.946996   3.917436
    23  H    7.815748   4.294040   2.086739   9.983246   4.292494
    24  H    8.200969   3.261000   2.124869  10.172089   4.226000
    25  H    8.699359   3.682673   6.412878   9.710723   6.990452
    26  H    7.080133   2.939124   5.906259   7.958529   5.943927
    27  H    8.240816   2.920100   5.871339   9.185748   6.078839
    28  H    2.713294   4.143809   4.524205   4.659583   3.753994
    29  H    2.669453   4.153333   3.825270   4.784174   2.377372
    30  H    4.174718   2.608004   4.618541   5.360539   3.787726
    31  H    4.087935   2.732001   4.047287   5.379781   2.516917
    32  H    2.113055   5.101575   5.861446   3.006901   3.947860
    33  H    2.095373   5.162637   6.369590   2.744466   4.929427
    34  H    5.145473   2.089527   2.748181   7.002629   3.180314
    35  H    2.565655   8.595455   8.344547   3.232309   6.976071
    36  H    3.230455   9.479783   9.561249   2.558470   7.937241
    37  H    1.013089   6.349744   6.094790   3.209497   4.632197
    38  H    6.878730   1.016644   2.908068   8.400858   3.250043
    39  H    3.231521   8.714985   9.538304   1.010187   7.781901
    40  H    2.564656   7.214760   8.225545   1.009665   6.389160
                   16         17         18         19         20
    16  O    0.000000
    17  O    2.564776   0.000000
    18  S    1.468471   1.464681   0.000000
    19  H    6.142956   6.051253   6.082723   0.000000
    20  H    6.276750   5.974455   5.910254   1.784951   0.000000
    21  H    5.992003   5.182603   5.529221   1.778792   1.787449
    22  H    2.595804   3.195654   2.923491   3.656342   4.196852
    23  H    4.324694   4.398986   4.521800   2.456473   3.624958
    24  H    3.704947   2.880174   3.365839   3.362390   3.801050
    25  H    2.925090   2.895803   2.360930   8.441606   8.190586
    26  H    2.831960   3.554339   2.388433   8.005825   7.537517
    27  H    3.558551   2.836111   2.386032   7.937932   7.338111
    28  H    4.390982   6.250279   4.994598   5.869183   5.619461
    29  H    5.243489   6.497781   5.463600   4.911112   4.308197
    30  H    3.533932   4.865912   3.524549   6.521687   5.861192
    31  H    4.629099   5.280307   4.252846   5.770492   4.709914
    32  H    6.466688   7.633235   6.454061   7.148681   6.137017
    33  H    5.851014   7.491770   6.130865   7.848848   7.139396
    34  H    2.281394   3.770812   2.711307   4.602558   4.540609
    35  H    8.962723  10.850871   9.602629   8.879338   8.570734
    36  H   10.025837  11.844588  10.546464  10.221028   9.688551
    37  H    7.036945   8.678766   7.500663   6.828638   6.365996
    38  H    3.343131   2.528429   2.252133   4.916995   4.199576
    39  H    9.397432  11.094729   9.736880  10.628296   9.850382
    40  H    8.175632   9.645566   8.333943   9.469884   8.545762
                   21         22         23         24         25
    21  H    0.000000
    22  H    3.747450   0.000000
    23  H    2.819859   1.764942   0.000000
    24  H    2.690026   1.771516   1.777898   0.000000
    25  H    7.794957   5.171397   6.779958   5.568212   0.000000
    26  H    7.539004   4.994865   6.702271   5.684420   1.794734
    27  H    7.086469   5.225687   6.727135   5.330239   1.792423
    28  H    6.553146   4.413731   5.537068   5.871857   6.492132
    29  H    5.585211   4.568271   5.308732   5.639000   7.264105
    30  H    6.524949   4.451140   5.948019   5.504740   4.610267
    31  H    5.659324   4.709532   5.842588   5.371643   5.702655
    32  H    7.485861   6.559023   7.562132   7.509763   7.669275
    33  H    8.263624   6.485933   7.746232   7.728817   7.022214
    34  H    4.816792   2.049767   3.555599   3.449001   4.727028
    35  H   10.007188   8.716292   9.356502  10.101645  10.915753
    36  H   11.202987  10.012785  10.765652  11.340650  11.651515
    37  H    7.783076   6.636360   7.323007   7.898977   9.011883
    38  H    4.069513   3.170142   4.266901   2.989403   4.174394
    39  H   11.273536   9.886766  10.942588  11.148139  10.462362
    40  H    9.921237   8.671950   9.779345   9.798211   9.105469
                   26         27         28         29         30
    26  H    0.000000
    27  H    1.800354   0.000000
    28  H    5.123600   6.316848   0.000000
    29  H    5.899766   6.693506   1.780373   0.000000
    30  H    2.996908   4.080461   2.503801   3.059995   0.000000
    31  H    4.225545   4.700158   3.077784   2.503320   1.772893
    32  H    5.982568   6.850979   3.065758   2.503719   3.117713
    33  H    5.303505   6.572309   2.489735   3.067828   2.654239
    34  H    3.869579   4.600753   2.590573   3.040940   2.495471
    35  H    9.366547  10.654877   4.622440   4.738553   6.578183
    36  H    9.987147  11.275468   5.728944   5.782640   7.243986
    37  H    7.491347   8.591750   2.672598   2.385056   4.562486
    38  H    3.658785   3.142546   4.923044   4.618614   3.440602
    39  H    8.707060   9.987968   5.550804   5.772364   6.242221
    40  H    7.325848   8.462872   4.577681   4.617786   4.809634
                   31         32         33         34         35
    31  H    0.000000
    32  H    2.486618   0.000000
    33  H    3.131346   1.783894   0.000000
    34  H    3.048519   4.698758   4.459319   0.000000
    35  H    6.606981   4.604211   4.395563   7.147531   0.000000
    36  H    7.212982   4.877666   4.729113   8.283013   1.724409
    37  H    4.361279   2.735122   2.921062   5.034094   2.367798
    38  H    3.102884   5.570577   5.894053   2.868190   9.232840
    39  H    6.347800   3.994283   3.608005   7.930352   3.532694
    40  H    4.752146   2.458444   2.351065   6.691197   4.089285
                   36         37         38         39         40
    36  H    0.000000
    37  H    3.475816   0.000000
    38  H   10.101099   6.920288   0.000000
    39  H    2.418633   4.053253   9.359926   0.000000
    40  H    3.537683   3.536378   7.800184   1.726454   0.000000
 Stoichiometry    C9H22N5O3S(1+)
 Framework group  C1[X(C9H22N5O3S)]
 Deg. of freedom   114
 Full point group                 C1      NOp   1
 Largest Abelian subgroup         C1      NOp   1
 Largest concise Abelian subgroup C1      NOp   1
                         Standard orientation:                         
 ---------------------------------------------------------------------
 Center     Atomic      Atomic             Coordinates (Angstroms)
 Number     Number       Type             X           Y           Z
 ---------------------------------------------------------------------
      1          6           0        0.910831    1.638972   -0.421244
      2          6           0       -5.424289   -0.288123    0.215082
      3          6           0        2.067153    3.772890   -0.297156
      4          6           0        2.912709    1.911312    1.083441
      5          6           0        2.898009   -3.153791   -0.550074
      6          6           0       -1.704404    0.072212    0.175331
      7          6           0       -0.481888   -0.478569   -0.571616
      8          6           0       -3.007608   -0.485855   -0.397552
      9          6           0        0.847077    0.124057   -0.085206
     10          7           0       -6.365906    0.255109    1.006066
     11          7           0       -4.163677    0.134144    0.282838
     12          7           0        1.976494   -0.577065   -0.729137
     13          7           0        1.916717    2.379308    0.120442
     14          7           0       -5.768596   -1.271828   -0.627808
     15          8           0        0.069115    2.115239   -1.187753
     16          8           0        2.499894   -1.589893    1.552699
     17          8           0        4.403715   -1.035134   -0.073888
     18         16           0        3.047932   -1.521366    0.192050
     19          1           0        1.912351    4.443269    0.556881
     20          1           0        1.332874    3.991983   -1.069956
     21          1           0        3.078126    3.937327   -0.687745
     22          1           0        2.594162    1.003878    1.593491
     23          1           0        3.056491    2.689151    1.840731
     24          1           0        3.877205    1.715060    0.600370
     25          1           0        3.583761   -3.811711   -0.010920
     26          1           0        1.869353   -3.500040   -0.440728
     27          1           0        3.182773   -3.089203   -1.601509
     28          1           0       -1.645086   -0.174083    1.243912
     29          1           0       -1.709486    1.162451    0.069494
     30          1           0       -0.419444   -1.565393   -0.438669
     31          1           0       -0.580476   -0.273571   -1.642169
     32          1           0       -3.061354   -0.273114   -1.473301
     33          1           0       -3.066872   -1.570279   -0.248716
     34          1           0        0.929571   -0.031742    0.995016
     35          1           0       -6.118971    0.858565    1.777704
     36          1           0       -7.349933    0.129025    0.815367
     37          1           0       -3.989014    1.013266    0.755053
     38          1           0        2.503356   -0.027420   -1.402836
     39          1           0       -6.658124   -1.744127   -0.549363
     40          1           0       -5.140724   -1.579428   -1.356219
 ---------------------------------------------------------------------
 Rotational constants (GHZ):      0.5359974      0.1535398      0.1281590
 Standard basis: 6-31G(d) (6D, 7F)
 There are   318 symmetry adapted basis functions of A   symmetry.
 Integral buffers will be    131072 words long.
 Raffenetti 1 integral format.
 Two-electron integral symmetry is turned on.
   318 basis functions,   616 primitive gaussians,   318 cartesian basis functions
    75 alpha electrons       75 beta electrons
       nuclear repulsion energy      1586.4666256430 Hartrees.
 NAtoms=   40 NActive=   40 NUniq=   40 SFac= 1.00D+00 NAtFMM=   60 NAOKFM=F Big=F
 One-electron integrals computed using PRISM.
 NBasis=   318 RedAO= T  NBF=   318
 NBsUse=   318 1.00D-06 NBFU=   318
 Initial guess read from the checkpoint file:  frag50-conf0.chk
 B after Tr=     0.000000    0.000000    0.000000
         Rot=    1.000000    0.000000    0.000000    0.000000 Ang=   0.00 deg.
 Initial guess orbital symmetries:
       Occupied  (A) (A) (A) (A) (A) (A) (A) (A) (A) (A) (A) (A)
                 (A) (A) (A) (A) (A) (A) (A) (A) (A) (A) (A) (A)
                 (A) (A) (A) (A) (A) (A) (A) (A) (A) (A) (A) (A)
                 (A) (A) (A) (A) (A) (A) (A) (A) (A) (A) (A) (A)
                 (A) (A) (A) (A) (A) (A) (A) (A) (A) (A) (A) (A)
                 (A) (A) (A) (A) (A) (A) (A) (A) (A) (A) (A) (A)
                 (A) (A) (A)
       Virtual   (A) (A) (A) (A) (A) (A) (A) (A) (A) (A) (A) (A)
                 (A) (A) (A) (A) (A) (A) (A) (A) (A) (A) (A) (A)
                 (A) (A) (A) (A) (A) (A) (A) (A) (A) (A) (A) (A)
                 (A) (A) (A) (A) (A) (A) (A) (A) (A) (A) (A) (A)
                 (A) (A) (A) (A) (A) (A) (A) (A) (A) (A) (A) (A)
                 (A) (A) (A) (A) (A) (A) (A) (A) (A) (A) (A) (A)
                 (A) (A) (A) (A) (A) (A) (A) (A) (A) (A) (A) (A)
                 (A) (A) (A) (A) (A) (A) (A) (A) (A) (A) (A) (A)
                 (A) (A) (A) (A) (A) (A) (A) (A) (A) (A) (A) (A)
                 (A) (A) (A) (A) (A) (A) (A) (A) (A) (A) (A) (A)
                 (A) (A) (A) (A) (A) (A) (A) (A) (A) (A) (A) (A)
                 (A) (A) (A) (A) (A) (A) (A) (A) (A) (A) (A) (A)
                 (A) (A) (A) (A) (A) (A) (A) (A) (A) (A) (A) (A)
                 (A) (A) (A) (A) (A) (A) (A) (A) (A) (A) (A) (A)
                 (A) (A) (A) (A) (A) (A) (A) (A) (A) (A) (A) (A)
                 (A) (A) (A) (A) (A) (A) (A) (A) (A) (A) (A) (A)
                 (A) (A) (A) (A) (A) (A) (A) (A) (A) (A) (A) (A)
                 (A) (A) (A) (A) (A) (A) (A) (A) (A) (A) (A) (A)
                 (A) (A) (A) (A) (A) (A) (A) (A) (A) (A) (A) (A)
                 (A) (A) (A) (A) (A) (A) (A) (A) (A) (A) (A) (A)
                 (A) (A) (A)
 Requested convergence on RMS density matrix=1.00D-08 within 128 cycles.
 Requested convergence on MAX density matrix=1.00D-06.
 Requested convergence on             energy=1.00D-06.
 No special actions if energy rises.
 SCF Done:  E(RHF) =  -1247.71087903     A.U. after   13 cycles
             Convg  =    0.6182D-08             -V/T =  2.0024

 **********************************************************************

            Population analysis using the SCF density.

 **********************************************************************

 Orbital symmetries:
 BldTbl:  Degeneracy threshold= 1.00D-02
       Occupied  (A) (A) (A) (A) (A) (A) (A) (A) (A) (A) (A) (A)
                 (A) (A) (A) (A) (A) (A) (A) (A) (A) (A) (A) (A)
                 (A) (A) (A) (A) (A) (A) (A) (A) (A) (A) (A) (A)
                 (A) (A) (A) (A) (A) (A) (A) (A) (A) (A) (A) (A)
                 (A) (A) (A) (A) (A) (A) (A) (A) (A) (A) (A) (A)
                 (A) (A) (A) (A) (A) (A) (A) (A) (A) (A) (A) (A)
                 (A) (A) (A)
       Virtual   (A) (A) (A) (A) (A) (A) (A) (A) (A) (A) (A) (A)
                 (A) (A) (A) (A) (A) (A) (A) (A) (A) (A) (A) (A)
                 (A) (A) (A) (A) (A) (A) (A) (A) (A) (A) (A) (A)
                 (A) (A) (A) (A) (A) (A) (A) (A) (A) (A) (A) (A)
                 (A) (A) (A) (A) (A) (A) (A) (A) (A) (A) (A) (A)
                 (A) (A) (A) (A) (A) (A) (A) (A) (A) (A) (A) (A)
                 (A) (A) (A) (A) (A) (A) (A) (A) (A) (A) (A) (A)
                 (A) (A) (A) (A) (A) (A) (A) (A) (A) (A) (A) (A)
                 (A) (A) (A) (A) (A) (A) (A) (A) (A) (A) (A) (A)
                 (A) (A) (A) (A) (A) (A) (A) (A) (A) (A) (A) (A)
                 (A) (A) (A) (A) (A) (A) (A) (A) (A) (A) (A) (A)
                 (A) (A) (A) (A) (A) (A) (A) (A) (A) (A) (A) (A)
                 (A) (A) (A) (A) (A) (A) (A) (A) (A) (A) (A) (A)
                 (A) (A) (A) (A) (A) (A) (A) (A) (A) (A) (A) (A)
                 (A) (A) (A) (A) (A) (A) (A) (A) (A) (A) (A) (A)
                 (A) (A) (A) (A) (A) (A) (A) (A) (A) (A) (A) (A)
                 (A) (A) (A) (A) (A) (A) (A) (A) (A) (A) (A) (A)
                 (A) (A) (A) (A) (A) (A) (A) (A) (A) (A) (A) (A)
                 (A) (A) (A) (A) (A) (A) (A) (A) (A) (A) (A) (A)
                 (A) (A) (A) (A) (A) (A) (A) (A) (A) (A) (A) (A)
                 (A) (A) (A)
 The electronic state is 1-A.
 Alpha  occ. eigenvalues --  -92.29530 -20.64350 -20.63878 -20.61512 -15.78608
 Alpha  occ. eigenvalues --  -15.78347 -15.78135 -15.69656 -15.68108 -11.58980
 Alpha  occ. eigenvalues --  -11.44680 -11.42517 -11.38763 -11.35603 -11.35580
 Alpha  occ. eigenvalues --  -11.33968 -11.33876 -11.33075  -9.26651  -6.95250
 Alpha  occ. eigenvalues --   -6.95219  -6.95108  -1.53677  -1.52636  -1.46691
 Alpha  occ. eigenvalues --   -1.41967  -1.39078  -1.37792  -1.33143  -1.31612
 Alpha  occ. eigenvalues --   -1.20332  -1.13632  -1.10631  -1.05682  -1.04473
 Alpha  occ. eigenvalues --   -1.02894  -0.99867  -0.96611  -0.93228  -0.92218
 Alpha  occ. eigenvalues --   -0.91201  -0.86043  -0.85001  -0.84111  -0.81241
 Alpha  occ. eigenvalues --   -0.80994  -0.78553  -0.77425  -0.75962  -0.75584
 Alpha  occ. eigenvalues --   -0.74681  -0.73147  -0.72559  -0.71515  -0.69352
 Alpha  occ. eigenvalues --   -0.68389  -0.67795  -0.67060  -0.65055  -0.63951
 Alpha  occ. eigenvalues --   -0.63683  -0.63209  -0.61685  -0.61066  -0.60838
 Alpha  occ. eigenvalues --   -0.60727  -0.59661  -0.58813  -0.57435  -0.57320
 Alpha  occ. eigenvalues --   -0.55137  -0.54047  -0.51609  -0.49908  -0.45192
 Alpha virt. eigenvalues --    0.01510   0.03234   0.07283   0.07965   0.08788
 Alpha virt. eigenvalues --    0.09508   0.11259   0.13004   0.14239   0.15202
 Alpha virt. eigenvalues --    0.15805   0.16744   0.17318   0.17728   0.18163
 Alpha virt. eigenvalues --    0.18840   0.20043   0.20297   0.20986   0.22348
 Alpha virt. eigenvalues --    0.22582   0.22958   0.23883   0.24039   0.24460
 Alpha virt. eigenvalues --    0.25180   0.25556   0.26300   0.27379   0.28257
 Alpha virt. eigenvalues --    0.29207   0.30353   0.31698   0.32612   0.36131
 Alpha virt. eigenvalues --    0.36509   0.38744   0.39255   0.42903   0.45406
 Alpha virt. eigenvalues --    0.48135   0.48655   0.51541   0.55258   0.57003
 Alpha virt. eigenvalues --    0.57324   0.58682   0.59032   0.59947   0.61779
 Alpha virt. eigenvalues --    0.63587   0.64904   0.65497   0.65739   0.66196
 Alpha virt. eigenvalues --    0.67358   0.67647   0.68107   0.69793   0.71728
 Alpha virt. eigenvalues --    0.73224   0.75871   0.76949   0.77748   0.78743
 Alpha virt. eigenvalues --    0.79778   0.81683   0.82320   0.83743   0.84914
 Alpha virt. eigenvalues --    0.86179   0.86690   0.87330   0.89430   0.89906
 Alpha virt. eigenvalues --    0.92312   0.93767   0.95757   0.96174   0.96329
 Alpha virt. eigenvalues --    0.96823   0.97820   0.98683   0.99170   0.99507
 Alpha virt. eigenvalues --    1.00715   1.01268   1.01597   1.01787   1.03075
 Alpha virt. eigenvalues --    1.03111   1.03832   1.04688   1.05212   1.05980
 Alpha virt. eigenvalues --    1.06643   1.07322   1.07599   1.08263   1.09083
 Alpha virt. eigenvalues --    1.10044   1.11610   1.12035   1.12442   1.13443
 Alpha virt. eigenvalues --    1.14086   1.15512   1.16636   1.17868   1.19399
 Alpha virt. eigenvalues --    1.19928   1.22319   1.23641   1.23933   1.25758
 Alpha virt. eigenvalues --    1.27296   1.30110   1.33503   1.34926   1.36226
 Alpha virt. eigenvalues --    1.36727   1.38263   1.39337   1.42502   1.42710
 Alpha virt. eigenvalues --    1.43942   1.45239   1.45650   1.47669   1.49073
 Alpha virt. eigenvalues --    1.50407   1.52203   1.54818   1.58267   1.60058
 Alpha virt. eigenvalues --    1.61352   1.63669   1.64381   1.67436   1.69015
 Alpha virt. eigenvalues --    1.70026   1.73623   1.75581   1.76735   1.77903
 Alpha virt. eigenvalues --    1.79381   1.83597   1.87810   1.91224   1.91731
 Alpha virt. eigenvalues --    1.93640   1.94074   1.95499   1.97276   1.97721
 Alpha virt. eigenvalues --    1.99937   2.01081   2.03459   2.03723   2.06531
 Alpha virt. eigenvalues --    2.07396   2.07757   2.08754   2.09653   2.11775
 Alpha virt. eigenvalues --    2.13469   2.14756   2.15841   2.16341   2.17824
 Alpha virt. eigenvalues --    2.19341   2.21671   2.22608   2.23451   2.24197
 Alpha virt. eigenvalues --    2.26141   2.27089   2.28323   2.30868   2.31917
 Alpha virt. eigenvalues --    2.32302   2.34123   2.34975   2.36269   2.38102
 Alpha virt. eigenvalues --    2.38781   2.41090   2.42450   2.45388   2.45428
 Alpha virt. eigenvalues --    2.47211   2.49263   2.50416   2.52205   2.54395
 Alpha virt. eigenvalues --    2.55350   2.56154   2.58228   2.58820   2.60308
 Alpha virt. eigenvalues --    2.64870   2.66309   2.67089   2.70001   2.71220
 Alpha virt. eigenvalues --    2.73491   2.75795   2.78726   2.82213   2.84199
 Alpha virt. eigenvalues --    2.84945   2.88144   2.90357   2.92208   2.92248
 Alpha virt. eigenvalues --    2.95457   3.03902   3.05292   3.10283   3.16622
 Alpha virt. eigenvalues --    3.22730   3.25849   3.30972   3.33352   3.47241
 Alpha virt. eigenvalues --    4.03556   4.09307   4.11384   4.21870   4.26732
 Alpha virt. eigenvalues --    4.30189   4.34151   4.37938   4.44214   4.45616
 Alpha virt. eigenvalues --    4.53547   4.55349   4.58959   4.67004   4.74665
 Alpha virt. eigenvalues --    4.77159   4.87469   4.97435
          Condensed to atoms (all electrons):
              1          2          3          4          5          6
     1  C    4.184364   0.000000  -0.031992  -0.029423  -0.000057  -0.001933
     2  C    0.000000   3.827039   0.000000   0.000000   0.000000   0.002457
     3  C   -0.031992   0.000000   4.985429  -0.043988   0.000000  -0.000004
     4  C   -0.029423   0.000000  -0.043988   5.031126  -0.000052   0.000005
     5  C   -0.000057   0.000000   0.000000  -0.000052   5.481612  -0.000001
     6  C   -0.001933   0.002457  -0.000004   0.000005  -0.000001   5.171936
     7  C   -0.055614  -0.000047  -0.000083   0.000389   0.000038   0.317684
     8  C    0.000055  -0.030890   0.000000   0.000000   0.000000   0.342216
     9  C    0.350633   0.000001   0.003655  -0.001909   0.000368  -0.039609
    10  N    0.000000   0.407482   0.000000   0.000000   0.000000  -0.000089
    11  N   -0.000001   0.435984   0.000000   0.000000   0.000000  -0.042238
    12  N   -0.038333   0.000000  -0.000209   0.000914  -0.060062   0.003376
    13  N    0.326209   0.000000   0.203940   0.191654   0.000002  -0.000167
    14  N    0.000000   0.410929   0.000000   0.000000   0.000000   0.000173
    15  O    0.553631   0.000000  -0.006855   0.001595   0.000000  -0.010084
    16  O    0.000080   0.000000   0.000000  -0.004299  -0.058637  -0.000008
    17  O    0.000103   0.000000  -0.000001  -0.000514  -0.062361   0.000000
    18  S    0.001523   0.000000  -0.000030  -0.002251   0.314363   0.000037
    19  H    0.000918   0.000000   0.399425  -0.002551   0.000000   0.000000
    20  H   -0.004096   0.000000   0.395697   0.002866   0.000000   0.000002
    21  H    0.001239   0.000000   0.400285  -0.001010   0.000000   0.000000
    22  H   -0.004455   0.000000   0.002938   0.392951   0.000024   0.000000
    23  H    0.001756   0.000000  -0.003821   0.397001   0.000000  -0.000001
    24  H    0.000055   0.000000  -0.000132   0.398885   0.000016   0.000000
    25  H    0.000000   0.000000   0.000000   0.000000   0.367978   0.000000
    26  H    0.000006   0.000000   0.000000   0.000000   0.354689  -0.000003
    27  H    0.000000   0.000000   0.000000   0.000002   0.357481   0.000000
    28  H    0.000324  -0.000148   0.000000  -0.000003   0.000000   0.390405
    29  H    0.002193  -0.000017   0.000028  -0.000005   0.000000   0.390552
    30  H    0.004038  -0.000001   0.000001  -0.000003  -0.000175  -0.040921
    31  H   -0.004563  -0.000002  -0.000004  -0.000017   0.000000  -0.034928
    32  H    0.000021  -0.001392   0.000000   0.000000   0.000000  -0.037078
    33  H   -0.000007  -0.002000   0.000000   0.000000   0.000000  -0.029345
    34  H   -0.029061   0.000000  -0.000097  -0.003361   0.000087  -0.000206
    35  H    0.000000  -0.020989   0.000000   0.000000   0.000000  -0.000017
    36  H    0.000000  -0.020165   0.000000   0.000000   0.000000   0.000001
    37  H   -0.000004  -0.024283   0.000000   0.000000   0.000000  -0.002074
    38  H   -0.000887   0.000000  -0.000107  -0.000455   0.000579  -0.000046
    39  H    0.000000  -0.019925   0.000000   0.000000   0.000000   0.000001
    40  H    0.000000  -0.018075   0.000000   0.000000   0.000000  -0.000011
              7          8          9         10         11         12
     1  C   -0.055614   0.000055   0.350633   0.000000  -0.000001  -0.038333
     2  C   -0.000047  -0.030890   0.000001   0.407482   0.435984   0.000000
     3  C   -0.000083   0.000000   0.003655   0.000000   0.000000  -0.000209
     4  C    0.000389   0.000000  -0.001909   0.000000   0.000000   0.000914
     5  C    0.000038   0.000000   0.000368   0.000000   0.000000  -0.060062
     6  C    0.317684   0.342216  -0.039609  -0.000089  -0.042238   0.003376
     7  C    5.099633  -0.045088   0.350172   0.000000   0.002371  -0.067741
     8  C   -0.045088   4.998498   0.003360   0.001656   0.147361  -0.000052
     9  C    0.350172   0.003360   5.117697   0.000000  -0.000040   0.198237
    10  N    0.000000   0.001656   0.000000   7.028747  -0.076916   0.000000
    11  N    0.002371   0.147361  -0.000040  -0.076916   7.201990   0.000000
    12  N   -0.067741  -0.000052   0.198237   0.000000   0.000000   7.545308
    13  N    0.003644   0.000000  -0.106052   0.000000   0.000000   0.001548
    14  N    0.000001  -0.004345   0.000000  -0.077764  -0.073386   0.000000
    15  O    0.001815   0.000083  -0.080936   0.000000   0.000002   0.000609
    16  O   -0.000323   0.000000   0.001597   0.000000   0.000000  -0.053992
    17  O   -0.000043   0.000000   0.000174   0.000000   0.000000  -0.052460
    18  S   -0.001632  -0.000003  -0.016476   0.000000   0.000000   0.170424
    19  H    0.000002   0.000000  -0.000116   0.000000   0.000000  -0.000004
    20  H   -0.000018   0.000000   0.000544   0.000000   0.000000  -0.000020
    21  H    0.000000   0.000000  -0.000020   0.000000   0.000000   0.000030
    22  H    0.000318   0.000000   0.002428   0.000000   0.000000  -0.003281
    23  H    0.000004   0.000000  -0.000326   0.000000   0.000000   0.000122
    24  H   -0.000021   0.000000  -0.000388   0.000000   0.000000   0.000183
    25  H   -0.000001   0.000000  -0.000027   0.000000   0.000000   0.002152
    26  H    0.000101   0.000000  -0.000043   0.000000   0.000000   0.000698
    27  H    0.000001   0.000000   0.000036   0.000000   0.000000   0.000803
    28  H   -0.033655  -0.041262  -0.002078  -0.000003  -0.000404  -0.000027
    29  H   -0.029703  -0.038022  -0.004463  -0.000006  -0.003138   0.000015
    30  H    0.397663  -0.003844  -0.039204   0.000000  -0.000012  -0.001245
    31  H    0.391129  -0.004633  -0.030863   0.000000  -0.000001   0.000890
    32  H   -0.000130   0.407329  -0.000097  -0.000019  -0.048010  -0.000001
    33  H   -0.000607   0.401829  -0.000058   0.000036  -0.045555  -0.000002
    34  H   -0.043428  -0.000131   0.401671   0.000000   0.000000  -0.036087
    35  H    0.000000   0.000008   0.000000   0.321212   0.000034   0.000000
    36  H    0.000000  -0.000038   0.000000   0.320483   0.002362   0.000000
    37  H    0.000016  -0.014911  -0.000003  -0.000633   0.318888   0.000000
    38  H    0.001479   0.000001  -0.028264   0.000000   0.000000   0.312803
    39  H    0.000000   0.000046   0.000000  -0.000314   0.002371   0.000000
    40  H    0.000002   0.003037   0.000000   0.002213  -0.002522   0.000000
             13         14         15         16         17         18
     1  C    0.326209   0.000000   0.553631   0.000080   0.000103   0.001523
     2  C    0.000000   0.410929   0.000000   0.000000   0.000000   0.000000
     3  C    0.203940   0.000000  -0.006855   0.000000  -0.000001  -0.000030
     4  C    0.191654   0.000000   0.001595  -0.004299  -0.000514  -0.002251
     5  C    0.000002   0.000000   0.000000  -0.058637  -0.062361   0.314363
     6  C   -0.000167   0.000173  -0.010084  -0.000008   0.000000   0.000037
     7  C    0.003644   0.000001   0.001815  -0.000323  -0.000043  -0.001632
     8  C    0.000000  -0.004345   0.000083   0.000000   0.000000  -0.000003
     9  C   -0.106052   0.000000  -0.080936   0.001597   0.000174  -0.016476
    10  N    0.000000  -0.077764   0.000000   0.000000   0.000000   0.000000
    11  N    0.000000  -0.073386   0.000002   0.000000   0.000000   0.000000
    12  N    0.001548   0.000000   0.000609  -0.053992  -0.052460   0.170424
    13  N    7.376393   0.000000  -0.092897   0.000129  -0.000051   0.000180
    14  N    0.000000   7.025173   0.000000   0.000000   0.000000   0.000000
    15  O   -0.092897   0.000000   8.251293  -0.000001   0.000000  -0.000042
    16  O    0.000129   0.000000  -0.000001   8.385075  -0.034506   0.455214
    17  O   -0.000051   0.000000   0.000000  -0.034506   8.331807   0.487728
    18  S    0.000180   0.000000  -0.000042   0.455214   0.487728  13.019502
    19  H   -0.045719   0.000000   0.000420   0.000000   0.000000   0.000001
    20  H   -0.030769   0.000000   0.009172   0.000000   0.000000   0.000001
    21  H   -0.046558   0.000000   0.000447   0.000000  -0.000001  -0.000001
    22  H   -0.033301   0.000000   0.000007   0.008937  -0.001451  -0.000320
    23  H   -0.042115   0.000000  -0.000021   0.000006   0.000040   0.000227
    24  H   -0.046881   0.000000  -0.000007  -0.000143   0.003215   0.000104
    25  H    0.000000   0.000000   0.000000   0.000261   0.000306  -0.019144
    26  H    0.000000   0.000000   0.000000   0.000764   0.001592  -0.012531
    27  H    0.000000   0.000000   0.000000   0.001501   0.000520  -0.012406
    28  H   -0.000018  -0.000004   0.000332  -0.000009   0.000000  -0.000005
    29  H   -0.000173  -0.000007   0.010207   0.000000   0.000000   0.000003
    30  H   -0.000033  -0.000001   0.000387   0.000274   0.000000   0.000504
    31  H    0.000102   0.000000   0.006486  -0.000008   0.000000  -0.000109
    32  H    0.000000   0.000236   0.000112   0.000000   0.000000   0.000000
    33  H    0.000000   0.001573  -0.000005   0.000000   0.000000   0.000000
    34  H    0.001419   0.000000   0.001395   0.004441   0.000200  -0.005240
    35  H    0.000000   0.002359   0.000000   0.000000   0.000000   0.000000
    36  H    0.000000  -0.000009   0.000000   0.000000   0.000000   0.000000
    37  H    0.000000   0.002411  -0.000015   0.000000   0.000000   0.000000
    38  H    0.002729   0.000000   0.000487   0.000866   0.002923  -0.007030
    39  H    0.000000   0.320416   0.000000   0.000000   0.000000   0.000000
    40  H    0.000000   0.317285   0.000000   0.000000   0.000000   0.000000
             19         20         21         22         23         24
     1  C    0.000918  -0.004096   0.001239  -0.004455   0.001756   0.000055
     2  C    0.000000   0.000000   0.000000   0.000000   0.000000   0.000000
     3  C    0.399425   0.395697   0.400285   0.002938  -0.003821  -0.000132
     4  C   -0.002551   0.002866  -0.001010   0.392951   0.397001   0.398885
     5  C    0.000000   0.000000   0.000000   0.000024   0.000000   0.000016
     6  C    0.000000   0.000002   0.000000   0.000000  -0.000001   0.000000
     7  C    0.000002  -0.000018   0.000000   0.000318   0.000004  -0.000021
     8  C    0.000000   0.000000   0.000000   0.000000   0.000000   0.000000
     9  C   -0.000116   0.000544  -0.000020   0.002428  -0.000326  -0.000388
    10  N    0.000000   0.000000   0.000000   0.000000   0.000000   0.000000
    11  N    0.000000   0.000000   0.000000   0.000000   0.000000   0.000000
    12  N   -0.000004  -0.000020   0.000030  -0.003281   0.000122   0.000183
    13  N   -0.045719  -0.030769  -0.046558  -0.033301  -0.042115  -0.046881
    14  N    0.000000   0.000000   0.000000   0.000000   0.000000   0.000000
    15  O    0.000420   0.009172   0.000447   0.000007  -0.000021  -0.000007
    16  O    0.000000   0.000000   0.000000   0.008937   0.000006  -0.000143
    17  O    0.000000   0.000000  -0.000001  -0.001451   0.000040   0.003215
    18  S    0.000001   0.000001  -0.000001  -0.000320   0.000227   0.000104
    19  H    0.523740  -0.021960  -0.036022  -0.000007   0.003517  -0.000455
    20  H   -0.021960   0.433145  -0.020843  -0.000085   0.000057  -0.000065
    21  H   -0.036022  -0.020843   0.516385  -0.000025  -0.001531   0.002597
    22  H   -0.000007  -0.000085  -0.000025   0.474495  -0.022383  -0.026142
    23  H    0.003517   0.000057  -0.001531  -0.022383   0.503541  -0.031875
    24  H   -0.000455  -0.000065   0.002597  -0.026142  -0.031875   0.486924
    25  H    0.000000   0.000000   0.000000   0.000000   0.000000   0.000000
    26  H    0.000000   0.000000   0.000000   0.000002   0.000000   0.000000
    27  H    0.000000   0.000000   0.000000  -0.000002   0.000000   0.000000
    28  H    0.000000   0.000000   0.000000  -0.000005   0.000000   0.000000
    29  H    0.000004   0.000004  -0.000001   0.000002   0.000002   0.000000
    30  H    0.000000   0.000000   0.000000   0.000001   0.000000   0.000000
    31  H    0.000000  -0.000002   0.000000  -0.000008   0.000000   0.000001
    32  H    0.000000   0.000000   0.000000   0.000000   0.000000   0.000000
    33  H    0.000000   0.000000   0.000000   0.000000   0.000000   0.000000
    34  H    0.000003  -0.000011  -0.000003  -0.000940  -0.000002   0.000140
    35  H    0.000000   0.000000   0.000000   0.000000   0.000000   0.000000
    36  H    0.000000   0.000000   0.000000   0.000000   0.000000   0.000000
    37  H    0.000000   0.000000   0.000000   0.000000   0.000000   0.000000
    38  H    0.000003  -0.000011  -0.000017  -0.000043   0.000023  -0.000031
    39  H    0.000000   0.000000   0.000000   0.000000   0.000000   0.000000
    40  H    0.000000   0.000000   0.000000   0.000000   0.000000   0.000000
             25         26         27         28         29         30
     1  C    0.000000   0.000006   0.000000   0.000324   0.002193   0.004038
     2  C    0.000000   0.000000   0.000000  -0.000148  -0.000017  -0.000001
     3  C    0.000000   0.000000   0.000000   0.000000   0.000028   0.000001
     4  C    0.000000   0.000000   0.000002  -0.000003  -0.000005  -0.000003
     5  C    0.367978   0.354689   0.357481   0.000000   0.000000  -0.000175
     6  C    0.000000  -0.000003   0.000000   0.390405   0.390552  -0.040921
     7  C   -0.000001   0.000101   0.000001  -0.033655  -0.029703   0.397663
     8  C    0.000000   0.000000   0.000000  -0.041262  -0.038022  -0.003844
     9  C   -0.000027  -0.000043   0.000036  -0.002078  -0.004463  -0.039204
    10  N    0.000000   0.000000   0.000000  -0.000003  -0.000006   0.000000
    11  N    0.000000   0.000000   0.000000  -0.000404  -0.003138  -0.000012
    12  N    0.002152   0.000698   0.000803  -0.000027   0.000015  -0.001245
    13  N    0.000000   0.000000   0.000000  -0.000018  -0.000173  -0.000033
    14  N    0.000000   0.000000   0.000000  -0.000004  -0.000007  -0.000001
    15  O    0.000000   0.000000   0.000000   0.000332   0.010207   0.000387
    16  O    0.000261   0.000764   0.001501  -0.000009   0.000000   0.000274
    17  O    0.000306   0.001592   0.000520   0.000000   0.000000   0.000000
    18  S   -0.019144  -0.012531  -0.012406  -0.000005   0.000003   0.000504
    19  H    0.000000   0.000000   0.000000   0.000000   0.000004   0.000000
    20  H    0.000000   0.000000   0.000000   0.000000   0.000004   0.000000
    21  H    0.000000   0.000000   0.000000   0.000000  -0.000001   0.000000
    22  H    0.000000   0.000002  -0.000002  -0.000005   0.000002   0.000001
    23  H    0.000000   0.000000   0.000000   0.000000   0.000002   0.000000
    24  H    0.000000   0.000000   0.000000   0.000000   0.000000   0.000000
    25  H    0.428954  -0.015752  -0.014817   0.000000   0.000000   0.000007
    26  H   -0.015752   0.469046  -0.018441  -0.000001   0.000000   0.000559
    27  H   -0.014817  -0.018441   0.450256   0.000000   0.000000  -0.000004
    28  H    0.000000  -0.000001   0.000000   0.519029  -0.025223  -0.001965
    29  H    0.000000   0.000000   0.000000  -0.025223   0.467678   0.003346
    30  H    0.000007   0.000559  -0.000004  -0.001965   0.003346   0.530812
    31  H    0.000000  -0.000008   0.000001   0.003284  -0.001701  -0.024720
    32  H    0.000000   0.000000   0.000000   0.003802  -0.002811   0.000262
    33  H    0.000000   0.000000   0.000000  -0.003768   0.003275   0.001440
    34  H    0.000005  -0.000028  -0.000006   0.001936   0.000017  -0.001429
    35  H    0.000000   0.000000   0.000000   0.000002  -0.000001   0.000000
    36  H    0.000000   0.000000   0.000000   0.000000   0.000000   0.000000
    37  H    0.000000   0.000000   0.000000   0.000507   0.003087   0.000006
    38  H   -0.000025  -0.000005  -0.000045  -0.000001   0.000006   0.000069
    39  H    0.000000   0.000000   0.000000   0.000000   0.000000   0.000000
    40  H    0.000000   0.000000   0.000000   0.000004   0.000001   0.000000
             31         32         33         34         35         36
     1  C   -0.004563   0.000021  -0.000007  -0.029061   0.000000   0.000000
     2  C   -0.000002  -0.001392  -0.002000   0.000000  -0.020989  -0.020165
     3  C   -0.000004   0.000000   0.000000  -0.000097   0.000000   0.000000
     4  C   -0.000017   0.000000   0.000000  -0.003361   0.000000   0.000000
     5  C    0.000000   0.000000   0.000000   0.000087   0.000000   0.000000
     6  C   -0.034928  -0.037078  -0.029345  -0.000206  -0.000017   0.000001
     7  C    0.391129  -0.000130  -0.000607  -0.043428   0.000000   0.000000
     8  C   -0.004633   0.407329   0.401829  -0.000131   0.000008  -0.000038
     9  C   -0.030863  -0.000097  -0.000058   0.401671   0.000000   0.000000
    10  N    0.000000  -0.000019   0.000036   0.000000   0.321212   0.320483
    11  N   -0.000001  -0.048010  -0.045555   0.000000   0.000034   0.002362
    12  N    0.000890  -0.000001  -0.000002  -0.036087   0.000000   0.000000
    13  N    0.000102   0.000000   0.000000   0.001419   0.000000   0.000000
    14  N    0.000000   0.000236   0.001573   0.000000   0.002359  -0.000009
    15  O    0.006486   0.000112  -0.000005   0.001395   0.000000   0.000000
    16  O   -0.000008   0.000000   0.000000   0.004441   0.000000   0.000000
    17  O    0.000000   0.000000   0.000000   0.000200   0.000000   0.000000
    18  S   -0.000109   0.000000   0.000000  -0.005240   0.000000   0.000000
    19  H    0.000000   0.000000   0.000000   0.000003   0.000000   0.000000
    20  H   -0.000002   0.000000   0.000000  -0.000011   0.000000   0.000000
    21  H    0.000000   0.000000   0.000000  -0.000003   0.000000   0.000000
    22  H   -0.000008   0.000000   0.000000  -0.000940   0.000000   0.000000
    23  H    0.000000   0.000000   0.000000  -0.000002   0.000000   0.000000
    24  H    0.000001   0.000000   0.000000   0.000140   0.000000   0.000000
    25  H    0.000000   0.000000   0.000000   0.000005   0.000000   0.000000
    26  H   -0.000008   0.000000   0.000000  -0.000028   0.000000   0.000000
    27  H    0.000001   0.000000   0.000000  -0.000006   0.000000   0.000000
    28  H    0.003284   0.003802  -0.003768   0.001936   0.000002   0.000000
    29  H   -0.001701  -0.002811   0.003275   0.000017  -0.000001   0.000000
    30  H   -0.024720   0.000262   0.001440  -0.001429   0.000000   0.000000
    31  H    0.487839   0.001822   0.000314   0.003553   0.000000   0.000000
    32  H    0.001822   0.494647  -0.034679  -0.000003   0.000007   0.000006
    33  H    0.000314  -0.034679   0.499147   0.000015  -0.000004  -0.000003
    34  H    0.003553  -0.000003   0.000015   0.445076   0.000000   0.000000
    35  H    0.000000   0.000007  -0.000004   0.000000   0.261580  -0.008951
    36  H    0.000000   0.000006  -0.000003   0.000000  -0.008951   0.262937
    37  H    0.000010   0.001060   0.002428   0.000001   0.001997  -0.000024
    38  H    0.000224   0.000000   0.000000   0.002459   0.000000   0.000000
    39  H    0.000000  -0.000041   0.000086   0.000000  -0.000032   0.001484
    40  H    0.000000   0.000833  -0.000353   0.000000  -0.000047  -0.000020
             37         38         39         40
     1  C   -0.000004  -0.000887   0.000000   0.000000
     2  C   -0.024283   0.000000  -0.019925  -0.018075
     3  C    0.000000  -0.000107   0.000000   0.000000
     4  C    0.000000  -0.000455   0.000000   0.000000
     5  C    0.000000   0.000579   0.000000   0.000000
     6  C   -0.002074  -0.000046   0.000001  -0.000011
     7  C    0.000016   0.001479   0.000000   0.000002
     8  C   -0.014911   0.000001   0.000046   0.003037
     9  C   -0.000003  -0.028264   0.000000   0.000000
    10  N   -0.000633   0.000000  -0.000314   0.002213
    11  N    0.318888   0.000000   0.002371  -0.002522
    12  N    0.000000   0.312803   0.000000   0.000000
    13  N    0.000000   0.002729   0.000000   0.000000
    14  N    0.002411   0.000000   0.320416   0.317285
    15  O   -0.000015   0.000487   0.000000   0.000000
    16  O    0.000000   0.000866   0.000000   0.000000
    17  O    0.000000   0.002923   0.000000   0.000000
    18  S    0.000000  -0.007030   0.000000   0.000000
    19  H    0.000000   0.000003   0.000000   0.000000
    20  H    0.000000  -0.000011   0.000000   0.000000
    21  H    0.000000  -0.000017   0.000000   0.000000
    22  H    0.000000  -0.000043   0.000000   0.000000
    23  H    0.000000   0.000023   0.000000   0.000000
    24  H    0.000000  -0.000031   0.000000   0.000000
    25  H    0.000000  -0.000025   0.000000   0.000000
    26  H    0.000000  -0.000005   0.000000   0.000000
    27  H    0.000000  -0.000045   0.000000   0.000000
    28  H    0.000507  -0.000001   0.000000   0.000004
    29  H    0.003087   0.000006   0.000000   0.000001
    30  H    0.000006   0.000069   0.000000   0.000000
    31  H    0.000010   0.000224   0.000000   0.000000
    32  H    0.001060   0.000000  -0.000041   0.000833
    33  H    0.002428   0.000000   0.000086  -0.000353
    34  H    0.000001   0.002459   0.000000   0.000000
    35  H    0.001997   0.000000  -0.000032  -0.000047
    36  H   -0.000024   0.000000   0.001484  -0.000020
    37  H    0.280404   0.000000  -0.000053  -0.000029
    38  H    0.000000   0.289280   0.000000   0.000000
    39  H   -0.000053   0.000000   0.261560  -0.009179
    40  H   -0.000029   0.000000  -0.009179   0.253120
 Mulliken atomic charges:
              1
     1  C    0.773278
     2  C    1.054042
     3  C   -0.304077
     4  C   -0.327547
     5  C   -0.695893
     6  C   -0.380083
     7  C   -0.288328
     8  C   -0.122260
     9  C   -0.079604
    10  N   -0.926085
    11  N   -0.819140
    12  N   -0.924596
    13  N   -0.663213
    14  N   -0.925041
    15  O   -0.647616
    16  O   -0.707220
    17  O   -0.677221
    18  S    1.627410
    19  H    0.178803
    20  H    0.236393
    21  H    0.185048
    22  H    0.210343
    23  H    0.195779
    24  H    0.214021
    25  H    0.250102
    26  H    0.219356
    27  H    0.235119
    28  H    0.188952
    29  H    0.224849
    30  H    0.174188
    31  H    0.205909
    32  H    0.214124
    33  H    0.206241
    34  H    0.257617
    35  H    0.442842
    36  H    0.441936
    37  H    0.431212
    38  H    0.423037
    39  H    0.443579
    40  H    0.453742
 Sum of Mulliken atomic charges =   1.00000
 Mulliken charges with hydrogens summed into heavy atoms:
              1
     1  C    0.773278
     2  C    1.054042
     3  C    0.296167
     4  C    0.292597
     5  C    0.008684
     6  C    0.033718
     7  C    0.091769
     8  C    0.298105
     9  C    0.178014
    10  N   -0.041307
    11  N   -0.387928
    12  N   -0.501559
    13  N   -0.663213
    14  N   -0.027720
    15  O   -0.647616
    16  O   -0.707220
    17  O   -0.677221
    18  S    1.627410
 Sum of Mulliken charges with hydrogens summed into heavy atoms =   1.00000
 DipInt: DoE/N= T F RetVal/Mat= T F Init=T NMatP=  1 IDeriv=0 Min/MaxMlt=  0  4
 Entering OneElI...
 OneElI was handed    33293355 working-precision words.
 Multipole integrals L=0 to 4 MinM= 0 MaxM= 0.
 Requested accuracy = 0.1000D-12
 PrsmSu:  NPrtUS=   1 ThrOK=F IAlg=1 NPAlg=1 LenDen=           0.
 Prism:   IPart=     0 DynPar=F LinDyn=F Incr=          51.
 PRISM was handed    32859270 working-precision words and  5167 shell-pairs
 IPart=  0 NShTot=        5167 NBatch=          82 AvBLen=        63.0
 PrSmSu:  NxtVal=             52.
 Electronic moments (au):
       -150.00000000         -8.66551102         -0.93691344         -0.02679116
      -6101.62989696      -1692.32343789       -392.93659807          9.62568625
        -10.07958665         12.63628423      25809.66053519      -2432.10707019
       -175.07466882      -5576.43868121       4750.44029891      -2257.03721771
        -81.35813857        -49.19729638        510.17435262        316.48590000
    -530278.10551036     -54947.22778444      -3054.94796822      -6086.54772529
      16431.23260461      -5812.98843406        465.37138746       -718.81068646
        273.82716857     -44713.11568469     -15612.63418565      -4479.08299353
      -6667.38634532       -439.11044785        216.69994500
 Electronic spatial extent (au):  <R**2>=           8186.8899
 DipInt: DoE/N= F T RetVal/Mat= T F Init=T NMatP=  1 IDeriv=0 Min/MaxMlt=  0  4
 Nuclear    moments (au):
        151.00000000          0.00000000          0.00000000          0.00000000
       6118.50004132       1622.93956983        308.69904396          0.00000000
          0.00000000          0.00000000     -27194.29233642       2390.70480598
        171.43619250       5608.19416938      -4819.27144026       2302.89788683
         31.97802872         54.69834055       -514.84170034       -348.84236999
     525098.70857358      49891.39533516       1815.86257172       7296.61518408
     -17480.34316940       5768.34400842       -343.26133330        570.88952585
       -166.91790476      41425.33361442      12489.96244192       3295.88902700
       7319.26860624        417.42759441       -204.60922356
 Total      moments (au):
          1.00000000         -8.66551102         -0.93691344         -0.02679116
         16.87014436        -69.38386806        -84.23755411          9.62568625
        -10.07958665         12.63628423      -1384.63180123        -41.40226421
         -3.63847633         31.75548817        -68.83114135         45.86066912
        -49.38010985          5.50104417         -4.66734772        -32.35647000
      -5179.39693678      -5055.83244927      -1239.08539650       1210.06745879
      -1049.11056479        -44.64442564        122.11005416       -147.92116061
        106.90926380      -3287.78207027      -3122.67174373      -1183.19396653
        651.88226092        -21.68285344         12.09072143
 Traceless Quadrup. (au):
         62.45390363        -23.80010879        -38.65379484          9.62568625
        -10.07958665         12.63628423
 Charge=              1.0000 electrons
 Dipole moment (field-independent basis, Debye):
    X=            -22.0255    Y=             -2.3814    Z=             -0.0681  Tot=             22.1540
 Quadrupole moment (field-independent basis, Debye-Ang):
   XX=             22.6909   YY=            -93.3237   ZZ=           -113.3024
   XY=             12.9469   XZ=            -13.5574   YZ=             16.9962
 Traceless Quadrupole moment (field-independent basis, Debye-Ang):
   XX=             84.0026   YY=            -32.0120   ZZ=            -51.9907
   XY=             12.9469   XZ=            -13.5574   YZ=             16.9962
 Octapole moment (field-independent basis, Debye-Ang**2):
  XXX=           -985.5275  YYY=            -29.4685  ZZZ=             -2.5897  XYY=             22.6023
  XXY=            -48.9914  XXZ=             32.6419  XZZ=            -35.1469  YZZ=              3.9154
  YYZ=             -3.3220  XYZ=            -23.0301
 Hexadecapole moment (field-independent basis, Debye-Ang**3):
 XXXX=          -1950.8091 YYYY=          -1904.2688 ZZZZ=           -466.6989 XXXY=            455.7694
 XXXZ=           -395.1453 YYYX=            -16.8152 YYYZ=             45.9925 ZZZX=            -55.7142
 ZZZY=             40.2672 XXYY=          -1238.3363 XXZZ=          -1176.1478 YYZZ=           -445.6476
 XXYZ=            245.5301 YYXZ=             -8.1668 ZZXY=              4.5539
 N-N= 1.586466625643D+03 E-N=-6.090928877818D+03  KE= 1.244724007891D+03
 Entering OneElI...
 OneElI was handed    33089789 working-precision words.
 Calculate electrostatic properties
    NBasis =   318  MinDer = 0  MaxDer = 0
    NGrid  =    40  NMatD  =   1
 Requested accuracy = 0.1000D-12
 PrsmSu:  NPrtUS=   2 ThrOK=T IAlg=1 NPAlg=1 LenDen=           0.
 Prism:   IPart=     0 DynPar=F LinDyn=F Incr=         512.
 PRISM was handed    16288408 working-precision words and  4444 shell-pairs
 PRISM was handed    16288408 working-precision words and  4444 shell-pairs
 IPart=  1 NShTot=       88360 NBatch=        2209 AvBLen=        40.0
 IPart=  0 NShTot=       89400 NBatch=        2236 AvBLen=        40.0
 PrSmSu:  NxtVal=           1025.
 --------------------------------------------------------
       Center         ----      EFG at Nuclei      ----
                      3XX-RR        3YY-RR        3ZZ-RR
 --------------------------------------------------------
     1   Atom       -0.024984      0.239207     -0.214223
     2   Atom        0.241803     -0.097293     -0.144510
     3   Atom        0.161472     -0.286995      0.125523
     4   Atom       -0.054077      0.122010     -0.067933
     5   Atom        0.127863     -0.199930      0.072067
     6   Atom       -0.076866      0.068366      0.008500
     7   Atom       -0.054403      0.006152      0.048251
     8   Atom       -0.157169      0.082385      0.074784
     9   Atom       -0.114165     -0.035152      0.149318
    10   Atom       -0.520503      0.489402      0.031102
    11   Atom       -0.529336     -0.028358      0.557694
    12   Atom       -0.210624      0.231440     -0.020815
    13   Atom        0.033676     -0.356126      0.322450
    14   Atom       -0.162444      0.101639      0.060804
    15   Atom       -0.437713      1.205726     -0.768013
    16   Atom        0.383276      0.863264     -1.246540
    17   Atom       -1.263481      0.653578      0.609903
    18   Atom       -0.034874      0.060089     -0.025215
    19   Atom        0.145770     -0.024200     -0.121571
    20   Atom       -0.042180      0.114497     -0.072317
    21   Atom       -0.222012      0.123816      0.098196
    22   Atom        0.100940     -0.154228      0.053288
    23   Atom        0.139399     -0.076863     -0.062535
    24   Atom       -0.186960      0.137675      0.049285
    25   Atom       -0.020699     -0.019414      0.040113
    26   Atom       -0.249387      0.098794      0.150593
    27   Atom        0.127145      0.134903     -0.262048
    28   Atom        0.132988      0.127727     -0.260716
    29   Atom        0.126962     -0.274768      0.147805
    30   Atom        0.134395     -0.280821      0.146426
    31   Atom        0.127541      0.142398     -0.269939
    32   Atom        0.127902      0.131762     -0.259664
    33   Atom        0.128303     -0.270560      0.142257
    34   Atom        0.128566      0.134425     -0.262992
    35   Atom        0.118409      0.011331     -0.129741
    36   Atom       -0.360755      0.195840      0.164916
    37   Atom        0.135590     -0.226289      0.090699
    38   Atom        0.019347      0.018752     -0.038099
    39   Atom       -0.258534      0.073729      0.184804
    40   Atom       -0.047187      0.141656     -0.094469
 --------------------------------------------------------
                        XY            XZ            YZ
 --------------------------------------------------------
     1   Atom        0.036399      0.368401     -0.178692
     2   Atom        0.116133     -0.107415      0.352259
     3   Atom       -0.053921      0.058746      0.111475
     4   Atom        0.088725     -0.222942      0.086439
     5   Atom       -0.034919     -0.012735     -0.151198
     6   Atom       -0.053398     -0.062099     -0.046969
     7   Atom       -0.003938      0.026680     -0.049440
     8   Atom        0.218456      0.226542     -0.121999
     9   Atom        0.142005      0.162636     -0.107810
    10   Atom        0.062156      0.118421     -0.749659
    11   Atom       -0.203974      0.154558     -0.577266
    12   Atom        0.714748      0.331209      0.716931
    13   Atom       -0.272759     -0.666069      0.280613
    14   Atom       -0.429898      0.297979     -0.683431
    15   Atom        0.961653     -0.092834      0.240413
    16   Atom       -0.041827      0.828866      0.169226
    17   Atom       -0.728933      0.434166      0.219313
    18   Atom        0.367813     -0.458040      0.299286
    19   Atom        0.036043      0.050008     -0.200245
    20   Atom        0.062671     -0.210236      0.072687
    21   Atom       -0.056661      0.144034      0.028247
    22   Atom       -0.115984      0.049567      0.169645
    23   Atom       -0.032139     -0.048422     -0.209705
    24   Atom        0.066828      0.161839     -0.028987
    25   Atom        0.163813     -0.141760      0.122890
    26   Atom       -0.130019      0.045065      0.006110
    27   Atom       -0.010474      0.111801      0.025151
    28   Atom        0.002546     -0.021277      0.094656
    29   Atom        0.011359     -0.006675      0.032644
    30   Atom        0.022447     -0.002870      0.053770
    31   Atom        0.006251     -0.040440      0.075500
    32   Atom        0.010078     -0.021161      0.076946
    33   Atom       -0.021782      0.009882      0.054853
    34   Atom        0.004188     -0.022236      0.046810
    35   Atom       -0.085764     -0.101756     -0.288424
    36   Atom       -0.069727     -0.102821     -0.055528
    37   Atom       -0.082515     -0.026632     -0.251575
    38   Atom       -0.127491      0.202201      0.222445
    39   Atom       -0.242850      0.060742     -0.014662
    40   Atom        0.082079      0.264235     -0.154108
 --------------------------------------------------------


 ---------------------------------------------------------------------------------
              Nuclear Quadrupole in Principal Axis System
 ---------------------------------------------------------------------------------

       Atom             a.u.   MegaHertz   Gauss  10(-4) cm-1        Axes

              Baa    -0.5349   -71.774   -25.611   -23.941 -0.5825  0.2087  0.7856
     1 C(13)  Bbb     0.1882    25.253     9.011     8.424  0.6766  0.6601  0.3263
              Bcc     0.3467    46.521    16.600    15.518 -0.4505  0.7216 -0.5257
 
              Baa    -0.5072   -68.061   -24.286   -22.703  0.2062 -0.6707  0.7125
     2 C(13)  Bbb     0.2294    30.784    10.984    10.268 -0.2327  0.6737  0.7015
              Bcc     0.2778    37.277    13.301    12.434  0.9505  0.3104  0.0172
 
              Baa    -0.3244   -43.534   -15.534   -14.521  0.1371  0.9572 -0.2550
     3 C(13)  Bbb     0.1181    15.845     5.654     5.285 -0.6288  0.2830  0.7242
              Bcc     0.2063    27.689     9.880     9.236  0.7654  0.0611  0.6407
 
              Baa    -0.3188   -42.784   -15.267   -14.271  0.6715 -0.2704  0.6899
     4 C(13)  Bbb     0.1551    20.815     7.427     6.943 -0.1472  0.8638  0.4819
              Bcc     0.1637    21.970     7.839     7.328  0.7262  0.4252 -0.5402
 
              Baa    -0.2707   -36.331   -12.964   -12.119  0.0926  0.9098  0.4047
     5 C(13)  Bbb     0.1306    17.521     6.252     5.844  0.9564  0.0318 -0.2904
              Bcc     0.1402    18.810     6.712     6.274  0.2771 -0.4139  0.8671
 
              Baa    -0.1334   -17.902    -6.388    -5.971  0.8216  0.3263  0.4675
     6 C(13)  Bbb     0.0368     4.941     1.763     1.648 -0.5520  0.2501  0.7955
              Bcc     0.0966    12.961     4.625     4.323 -0.1426  0.9116 -0.3856
 
              Baa    -0.0622    -8.351    -2.980    -2.785  0.9400 -0.1626 -0.2998
     7 C(13)  Bbb    -0.0230    -3.088    -1.102    -1.030  0.2935  0.8334  0.4683
              Bcc     0.0852    11.439     4.082     3.816  0.1737 -0.5282  0.8312
 
              Baa    -0.4201   -56.377   -20.117   -18.805  0.7674 -0.4455 -0.4611
     8 C(13)  Bbb     0.2006    26.922     9.607     8.980  0.0171  0.7331 -0.6800
              Bcc     0.2195    29.455    10.510     9.825  0.6410  0.5139  0.5701
 
              Baa    -0.3055   -40.995   -14.628   -13.674  0.7397 -0.5456 -0.3938
     9 C(13)  Bbb     0.0720     9.659     3.446     3.222  0.5714  0.8184 -0.0607
              Bcc     0.2335    31.337    11.182    10.453  0.3554 -0.1802  0.9172
 
              Baa    -0.6544   -25.238    -9.005    -8.418  0.7032 -0.4161 -0.5765
    10 N(14)  Bbb    -0.3900   -15.043    -5.368    -5.018  0.7109  0.4265  0.5593
              Bcc     1.0444    40.281    14.373    13.436 -0.0132  0.8031 -0.5957
 
              Baa    -0.6056   -23.356    -8.334    -7.791  0.9134  0.3998  0.0770
    11 N(14)  Bbb    -0.3450   -13.308    -4.748    -4.439 -0.3745  0.7507  0.5442
              Bcc     0.9506    36.664    13.082    12.230  0.1597 -0.5259  0.8354
 
              Baa    -0.8014   -30.908   -11.029   -10.310 -0.6271  0.6878 -0.3656
    12 N(14)  Bbb    -0.4372   -16.862    -6.017    -5.624 -0.6213 -0.1586  0.7674
              Bcc     1.2386    47.770    17.045    15.934  0.4698  0.7084  0.5268
 
              Baa    -0.5254   -20.264    -7.231    -6.759  0.7493  0.5130  0.4188
    13 N(14)  Bbb    -0.4484   -17.295    -6.171    -5.769 -0.2632  0.8110 -0.5226
              Bcc     0.9738    37.559    13.402    12.528 -0.6077  0.2813  0.7426
 
              Baa    -0.6291   -24.263    -8.657    -8.093  0.2948  0.7395  0.6052
    14 N(14)  Bbb    -0.3667   -14.142    -5.046    -4.717  0.8640  0.0643 -0.4994
              Bcc     0.9958    38.405    13.704    12.810 -0.4082  0.6701 -0.6199
 
              Baa    -1.0222    73.964    26.392    24.672  0.7041 -0.3694  0.6065
    15 O(17)  Bbb    -0.6401    46.315    16.526    15.449 -0.5780  0.1981  0.7916
              Bcc     1.6622  -120.279   -42.919   -40.121  0.4125  0.9079  0.0741
 
              Baa    -1.6060   116.210    41.467    38.763 -0.3849 -0.0696  0.9203
    16 O(17)  Bbb     0.7259   -52.528   -18.743   -17.521  0.9128 -0.1760  0.3685
              Bcc     0.8801   -63.682   -22.723   -21.242  0.1364  0.9819  0.1313
 
              Baa    -1.6135   116.753    41.660    38.944  0.9242  0.3177 -0.2118
    17 O(17)  Bbb     0.6921   -50.081   -17.870   -16.705  0.2915 -0.2290  0.9288
              Bcc     0.9214   -66.671   -23.790   -22.239 -0.2465  0.9201  0.3042
 
              Baa    -0.7602   -31.169   -11.122   -10.397  0.6293 -0.4994  0.5955
    18 S(33)  Bbb     0.3175    13.016     4.645     4.342  0.1007  0.8121  0.5747
              Bcc     0.4428    18.153     6.477     6.055  0.7706  0.3017 -0.5613
 
              Baa    -0.2877  -153.511   -54.776   -51.206 -0.1407  0.6111  0.7789
    19 H(1)   Bbb     0.1329    70.907    25.301    23.652  0.1154  0.7915 -0.6002
              Bcc     0.1548    82.604    29.475    27.554  0.9833 -0.0054  0.1818
 
              Baa    -0.2907  -155.116   -55.349   -51.741  0.6617 -0.2303  0.7136
    20 H(1)   Bbb     0.1365    72.806    25.979    24.285  0.3031  0.9526  0.0264
              Bcc     0.1543    82.311    29.371    27.456 -0.6858  0.1988  0.7001
 
              Baa    -0.2869  -153.096   -54.628   -51.067  0.9221  0.1517 -0.3560
    21 H(1)   Bbb     0.1318    70.331    25.096    23.460 -0.2328  0.9523 -0.1973
              Bcc     0.1551    82.765    29.533    27.607  0.3091  0.2648  0.9134
 
              Baa    -0.2896  -154.538   -55.143   -51.548  0.3060  0.8350 -0.4573
    22 H(1)   Bbb     0.1315    70.156    25.033    23.402  0.7571  0.0778  0.6486
              Bcc     0.1582    84.382    30.109    28.147 -0.5772  0.5447  0.6084
 
              Baa    -0.2871  -153.176   -54.657   -51.094  0.1320  0.7101  0.6916
    23 H(1)   Bbb     0.1307    69.739    24.885    23.262 -0.6003  0.6125 -0.5143
              Bcc     0.1564    83.437    29.772    27.832  0.7888  0.3473 -0.5071
 
              Baa    -0.2818  -150.357   -53.651   -50.154  0.8792 -0.1708 -0.4447
    24 H(1)   Bbb     0.1306    69.660    24.856    23.236  0.4078 -0.2127  0.8879
              Bcc     0.1512    80.697    28.795    26.918  0.2463  0.9621  0.1174
 
              Baa    -0.2901  -154.775   -55.227   -51.627  0.6265 -0.6032  0.4935
    25 H(1)   Bbb     0.1337    71.332    25.453    23.794  0.2837  0.7663  0.5765
              Bcc     0.1564    83.443    29.774    27.833  0.7259  0.2212 -0.6513
 
              Baa    -0.2970  -158.489   -56.553   -52.866  0.9449  0.3119 -0.0994
    26 H(1)   Bbb     0.1379    73.580    26.255    24.544 -0.2404  0.8672  0.4362
              Bcc     0.1591    84.909    30.298    28.322  0.2222 -0.3883  0.8943
 
              Baa    -0.2936  -156.640   -55.893   -52.250 -0.2578 -0.0629  0.9642
    27 H(1)   Bbb     0.1360    72.551    25.888    24.200  0.1485  0.9834  0.1039
              Bcc     0.1576    84.089    30.005    28.049  0.9547 -0.1700  0.2442
 
              Baa    -0.2836  -151.339   -54.001   -50.481  0.0511 -0.2242  0.9732
    28 H(1)   Bbb     0.1337    71.359    25.463    23.803  0.9883  0.1515 -0.0169
              Bcc     0.1499    79.979    28.539    26.678 -0.1437  0.9627  0.2294
 
              Baa    -0.2776  -148.125   -52.855   -49.409 -0.0293  0.9966 -0.0769
    29 H(1)   Bbb     0.1259    67.194    23.976    22.413  0.9726  0.0461  0.2280
              Bcc     0.1517    80.932    28.878    26.996 -0.2307  0.0682  0.9706
 
              Baa    -0.2887  -154.034   -54.963   -51.380 -0.0534  0.9910 -0.1228
    30 H(1)   Bbb     0.1356    72.352    25.817    24.134  0.9986  0.0536 -0.0016
              Bcc     0.1531    81.681    29.146    27.246 -0.0050  0.1227  0.9924
 
              Baa    -0.2874  -153.323   -54.709   -51.143  0.0981 -0.1736  0.9799
    31 H(1)   Bbb     0.1315    70.184    25.044    23.411  0.9945  0.0537 -0.0901
              Bcc     0.1558    83.139    29.666    27.732 -0.0370  0.9834  0.1779
 
              Baa    -0.2755  -147.005   -52.455   -49.035  0.0561 -0.1867  0.9808
    32 H(1)   Bbb     0.1273    67.929    24.239    22.659  0.9529 -0.2833 -0.1084
              Bcc     0.1482    79.076    28.216    26.377  0.2981  0.9407  0.1620
 
              Baa    -0.2790  -148.866   -53.119   -49.656  0.0561  0.9899 -0.1302
    33 H(1)   Bbb     0.1274    67.967    24.252    22.671  0.9520 -0.0924 -0.2920
              Bcc     0.1516    80.899    28.867    26.985  0.3010  0.1076  0.9475
 
              Baa    -0.2697  -143.904   -51.349   -48.001  0.0566 -0.1155  0.9917
    34 H(1)   Bbb     0.1296    69.148    24.674    23.065  0.9866 -0.1456 -0.0732
              Bcc     0.1401    74.756    26.675    24.936  0.1529  0.9826  0.1057
 
              Baa    -0.3909  -208.546   -74.414   -69.564  0.2527  0.5989  0.7599
    35 H(1)   Bbb     0.1529    81.583    29.111    27.213  0.9662 -0.1143 -0.2312
              Bcc     0.2380   126.964    45.304    42.351 -0.0516  0.7927 -0.6075
 
              Baa    -0.3908  -208.509   -74.401   -69.551  0.9720  0.1338  0.1932
    36 H(1)   Bbb     0.1527    81.463    29.068    27.173 -0.2346  0.6025  0.7629
              Bcc     0.2381   127.046    45.333    42.378  0.0143  0.7868 -0.6170
 
              Baa    -0.3792  -202.332   -72.197   -67.491  0.1632  0.8659  0.4728
    37 H(1)   Bbb     0.1465    78.139    27.882    26.065  0.9679 -0.0478 -0.2466
              Bcc     0.2328   124.193    44.315    41.426  0.1910 -0.4979  0.8459
 
              Baa    -0.3758  -200.496   -71.542   -66.878 -0.5149 -0.5412  0.6648
    38 H(1)   Bbb     0.1454    77.582    27.683    25.878  0.7698 -0.6332  0.0807
              Bcc     0.2304   122.914    43.859    41.000  0.3773  0.5533  0.7426
 
              Baa    -0.3905  -208.342   -74.341   -69.495  0.8842  0.4600 -0.0816
    39 H(1)   Bbb     0.1535    81.922    29.232    27.326 -0.2444  0.6044  0.7583
              Bcc     0.2369   126.420    45.110    42.169 -0.3981  0.6505 -0.6468
 
              Baa    -0.3902  -208.202   -74.292   -69.449 -0.6259  0.3046  0.7179
    40 H(1)   Bbb     0.1537    82.023    29.268    27.360  0.6790  0.6658  0.3095
              Bcc     0.2365   126.179    45.024    42.089 -0.3837  0.6812 -0.6235
 

 ---------------------------------------------------------------------------------

 No NMR shielding tensors so no spin-rotation constants.
 Leave Link  601 at Sat Feb 17 21:07:05 2018, MaxMem=   33554432 cpu:       0.7
 Merz-Kollman atomic radii used.
 Read replacement radii for each type of atom:
 Atom Element Radius
    1     6    1.50
    2     6    1.50
    3     6    1.50
    4     6    1.50
    5     6    1.50
    6     6    1.50
    7     6    1.50
    8     6    1.50
    9     6    1.50
   10     7    1.50
   11     7    1.50
   12     7    1.50
   13     7    1.50
   14     7    1.50
   15     8    1.40
   16     8    1.40
   17     8    1.40
   18    16    1.75
   19     1    1.20
   20     1    1.20
   21     1    1.20
   22     1    1.20
   23     1    1.20
   24     1    1.20
   25     1    1.20
   26     1    1.20
   27     1    1.20
   28     1    1.20
   29     1    1.20
   30     1    1.20
   31     1    1.20
   32     1    1.20
   33     1    1.20
   34     1    1.20
   35     1    1.20
   36     1    1.20
   37     1    1.20
   38     1    1.20
   39     1    1.20
   40     1    1.20
 Generate VDW surfaces: Layer= 4 Dens= 1 Start= 1.400 Inc= 0.200

 **********************************************************************

            Electrostatic Properties Using The SCF Density

 **********************************************************************

       Atomic Center    1 is at   0.910831  1.638972 -0.421244
       Atomic Center    2 is at  -5.424289 -0.288123  0.215082
       Atomic Center    3 is at   2.067153  3.772890 -0.297156
       Atomic Center    4 is at   2.912709  1.911312  1.083441
       Atomic Center    5 is at   2.898009 -3.153791 -0.550074
       Atomic Center    6 is at  -1.704404  0.072212  0.175331
       Atomic Center    7 is at  -0.481888 -0.478569 -0.571616
[...]
  909 Fit       0.036360
  910 Fit       0.041486
  911 Fit       0.026620
  912 Fit       0.024993
  913 Fit       0.027589
  914 Fit       0.037133
  915 Fit       0.043393
  916 Fit       0.028972
  917 Fit       0.030954
  918 Fit       0.034371
  919 Fit       0.047971
  920 Fit       0.037366
  921 Fit       0.043336
  922 Fit       0.053166
  923 Fit       0.058974
  924 Fit       0.031033
  925 Fit       0.033507
  926 Fit       0.043838
  927 Fit       0.037984
  928 Fit       0.056537
  929 Fit       0.038805
  930 Fit       0.077269
  931 Fit       0.076325
  932 Fit       0.070108
  933 Fit       0.071590
  934 Fit       0.076555
  935 Fit       0.067320
  936 Fit       0.065911
  937 Fit       0.067070
  938 Fit       0.069958
  939 Fit       0.074214
  940 Fit       0.078720
  941 Fit       0.064637
  942 Fit       0.064653
  943 Fit       0.066006
  944 Fit       0.068196
  945 Fit       0.064420
  946 Fit       0.063008
  947 Fit       0.055141
  948 Fit       0.062091
  949 Fit       0.060339
  950 Fit       0.051725
  951 Fit       0.060748
  952 Fit       0.058462
  953 Fit       0.048312
  954 Fit       0.059935
  955 Fit       0.056626
  956 Fit       0.066861
  957 Fit       0.064504
  958 Fit       0.063886
  959 Fit       0.062169
  960 Fit       0.062085
  961 Fit       0.063182
  962 Fit       0.061554
  963 Fit       0.061602
  964 Fit       0.076442
  965 Fit       0.067238
  966 Fit       0.063464
  967 Fit       0.061841
  968 Fit       0.068534
  969 Fit       0.063625
  970 Fit       0.064378
  971 Fit       0.075365
  972 Fit       0.057964
  973 Fit       0.048519
  974 Fit       0.066908
  975 Fit       0.062941
  976 Fit       0.066216
  977 Fit       0.070712
  978 Fit       0.073116
  979 Fit       0.063606
  980 Fit       0.061049
  981 Fit       0.063489
  982 Fit       0.067413
  983 Fit       0.072377
  984 Fit       0.076505
  985 Fit       0.079150
  986 Fit       0.064131
  987 Fit       0.067937
  988 Fit       0.052056
  989 Fit       0.059920
  990 Fit       0.041062
  991 Fit       0.049500
  992 Fit       0.058097
  993 Fit       0.065916
  994 Fit       0.051980
  995 Fit       0.062114
  996 Fit       0.062005
  997 Fit       0.060999
  998 Fit       0.067848
  999 Fit       0.065554
 1000 Fit       0.059662
 1001 Fit       0.072354
 1002 Fit       0.068723
 1003 Fit       0.064996
 1004 Fit       0.058727
 1005 Fit       0.078111
 1006 Fit       0.072829
 1007 Fit       0.069077
 1008 Fit       0.065120
 1009 Fit       0.072978
 1010 Fit       0.068807
 1011 Fit       0.078021
 1012 Fit       0.077191
 1013 Fit       0.096062
 1014 Fit       0.087210
 1015 Fit       0.081379
 1016 Fit       0.103956
 1017 Fit       0.093319
 1018 Fit       0.085690
 1019 Fit       0.099733
 1020 Fit       0.091195
 1021 Fit       0.085552
 1022 Fit       0.094021
 1023 Fit       0.066974
 1024 Fit       0.066655
 1025 Fit       0.079975
 1026 Fit       0.075115
 1027 Fit       0.070866
 1028 Fit       0.074023
 1029 Fit       0.079392
 1030 Fit       0.084796
 1031 Fit       0.084716
 1032 Fit       0.080987
 1033 Fit       0.076047
 1034 Fit       0.079742
 1035 Fit       0.103555
 1036 Fit       0.096276
 1037 Fit       0.102811
 1038 Fit       0.114836
 1039 Fit       0.118954
 1040 Fit       0.108063
 1041 Fit       0.096952
 1042 Fit       0.106558
 1043 Fit       0.121246
 1044 Fit       0.108598
 1045 Fit       0.097121
 1046 Fit       0.106589
 1047 Fit       0.125000
 1048 Fit       0.092046
 1049 Fit       0.105474
 1050 Fit       0.102045
 1051 Fit       0.106073
 1052 Fit       0.104335
 1053 Fit       0.086416
 1054 Fit       0.116980
 1055 Fit       0.103650
 1056 Fit       0.110398
 1057 Fit       0.117196
 1058 Fit       0.105238
 1059 Fit       0.104458
 1060 Fit       0.094309
 1061 Fit       0.083478
 1062 Fit       0.115448
 1063 Fit       0.100482
 1064 Fit       0.089775
 1065 Fit       0.081552
 1066 Fit       0.070894
 1067 Fit       0.079573
 1068 Fit       0.098918
 1069 Fit       0.096801
 1070 Fit       0.087316
 1071 Fit       0.084996
 1072 Fit       0.090266
 1073 Fit       0.107212
 1074 Fit       0.123429
 1075 Fit       0.143037
 1076 Fit       0.123985
 1077 Fit       0.105966
 1078 Fit       0.101063
 1079 Fit       0.112597
 1080 Fit       0.128750
 1081 Fit       0.130435
 1082 Fit       0.116082
 1083 Fit       0.112714
 1084 Fit       0.127652
 1085 Fit       0.119374
 1086 Fit       0.122071
 1087 Fit       0.116889
 1088 Fit       0.131152
 1089 Fit       0.121073
 1090 Fit       0.119050
 1091 Fit       0.132823
 1092 Fit       0.122498
 1093 Fit       0.075794
 1094 Fit       0.093641
 1095 Fit       0.096293
 1096 Fit       0.075274
 1097 Fit       0.108086
 1098 Fit       0.133033
 1099 Fit       0.140157
 1100 Fit       0.137611
 1101 Fit       0.133265
 1102 Fit       0.132787
 1103 Fit       0.134229
 1104 Fit       0.154755
 1105 Fit       0.143052
 1106 Fit       0.135518
 1107 Fit       0.134381
 1108 Fit       0.141055
 1109 Fit       0.134919
 1110 Fit       0.137684
 1111 Fit       0.134015
 1112 Fit       0.134861
 1113 Fit       0.138437
 1114 Fit       0.132821
 1115 Fit       0.134147
 1116 Fit       0.138473
 1117 Fit       0.147479
 1118 Fit       0.133243
 1119 Fit       0.137064
 1120 Fit       0.145852
 1121 Fit       0.147733
 1122 Fit       0.150013
 1123 Fit       0.136792
 1124 Fit       0.140882
 1125 Fit       0.134914
 1126 Fit       0.144766
 1127 Fit       0.132103
 1128 Fit       0.141998
 1129 Fit       0.123823
 1130 Fit       0.130719
 1131 Fit       0.070094
 1132 Fit       0.078505
 1133 Fit       0.084883
 1134 Fit       0.082707
 1135 Fit       0.084657
 1136 Fit       0.083827
 1137 Fit       0.086758
 1138 Fit       0.085339
 1139 Fit       0.143084
 1140 Fit       0.149100
 1141 Fit       0.138859
 1142 Fit       0.134658
 1143 Fit       0.155314
 1144 Fit       0.142737
 1145 Fit       0.136675
 1146 Fit       0.134377
 1147 Fit       0.141528
 1148 Fit       0.136975
 1149 Fit       0.135240
 1150 Fit       0.137871
 1151 Fit       0.135922
 1152 Fit       0.138408
 1153 Fit       0.142605
 1154 Fit       0.138031
 1155 Fit       0.138188
 1156 Fit       0.143373
 1157 Fit       0.140454
 1158 Fit       0.139177
 1159 Fit       0.135731
 1160 Fit       0.136608
 1161 Fit       0.134620
 1162 Fit       0.099769
 1163 Fit       0.072563
 1164 Fit       0.124957
 1165 Fit       0.126837
 1166 Fit       0.124788
 1167 Fit       0.123821
 1168 Fit       0.065285
 1169 Fit       0.075906
 1170 Fit       0.061577
 1171 Fit       0.067675
 1172 Fit       0.060455
 1173 Fit       0.060832
 1174 Fit       0.062057
 1175 Fit       0.059934
 1176 Fit       0.060641
 1177 Fit       0.059816
 1178 Fit       0.062089
 1179 Fit       0.059853
 1180 Fit       0.064942
 1181 Fit       0.070985
 1182 Fit       0.057917
 1183 Fit       0.056506
 1184 Fit       0.078567
 1185 Fit       0.051756
 1186 Fit       0.053558
 1187 Fit       0.047186
 1188 Fit       0.057693
 1189 Fit       0.070646
 1190 Fit       0.076704
 1191 Fit       0.077396
 1192 Fit       0.073100
 1193 Fit       0.081473
 1194 Fit       0.075616
 1195 Fit       0.071988
 1196 Fit       0.069115
 1197 Fit       0.065307
 1198 Fit       0.087065
 1199 Fit       0.087946
 1200 Fit       0.082931
 1201 Fit       0.077747
 1202 Fit       0.102530
 1203 Fit       0.114156
 1204 Fit       0.115719
 1205 Fit       0.097517
 1206 Fit       0.088647
 1207 Fit       0.105946
 1208 Fit       0.134415
 1209 Fit       0.117954
 1210 Fit       0.121943
 1211 Fit       0.117611
 1212 Fit       0.121092
 1213 Fit       0.123933
 1214 Fit       0.120514
 1215 Fit       0.116996
 1216 Fit       0.116054
 1217 Fit       0.119792
 1218 Fit       0.127658
 1219 Fit       0.125658
 1220 Fit       0.125331
 1221 Fit       0.122933
 1222 Fit       0.122363
 1223 Fit       0.123921
 1224 Fit       0.122385
 1225 Fit       0.139141
 1226 Fit       0.125326
 1227 Fit       0.118634
 1228 Fit       0.119690
 1229 Fit       0.128536
 1230 Fit       0.118869
 1231 Fit       0.118155
 1232 Fit       0.122237
 1233 Fit       0.123708
 1234 Fit       0.134611
 1235 Fit       0.125336
 1236 Fit       0.122661
 1237 Fit       0.120208
 1238 Fit       0.129142
 1239 Fit       0.109313
 1240 Fit       0.117016
 1241 Fit       0.124735
 1242 Fit       0.115950
 1243 Fit       0.084963
 1244 Fit       0.080070
 1245 Fit       0.081116
 1246 Fit       0.080612
 1247 Fit       0.082371
 1248 Fit       0.080922
 1249 Fit       0.085518
 1250 Fit       0.133247
 1251 Fit       0.124111
 1252 Fit       0.123856
 1253 Fit       0.121528
 1254 Fit       0.120229
 1255 Fit       0.125537
 1256 Fit       0.120896
 1257 Fit       0.124295
 1258 Fit       0.126921
 1259 Fit       0.124617
 1260 Fit       0.129508
 1261 Fit       0.124441
 1262 Fit       0.125881
 1263 Fit       0.128720
 1264 Fit       0.129061
 1265 Fit       0.127809
 1266 Fit       0.128122
 1267 Fit       0.120190
 1268 Fit       0.117662
 1269 Fit       0.119630
 1270 Fit       0.123399
 1271 Fit       0.125971
 1272 Fit       0.129204
 1273 Fit       0.126778
 1274 Fit       0.119002
 1275 Fit       0.120028
 1276 Fit       0.125738
 1277 Fit       0.076848
 1278 Fit       0.066970
 1279 Fit       0.081735
 1280 Fit       0.061077
 1281 Fit       0.073873
 1282 Fit       0.053044
 1283 Fit       0.061018
 1284 Fit       0.075725
 1285 Fit       0.067664
 1286 Fit       0.049609
 1287 Fit       0.049623
 1288 Fit       0.056480
 1289 Fit       0.067799
 1290 Fit       0.056894
 1291 Fit       0.049827
 1292 Fit       0.049445
 1293 Fit       0.057269
 1294 Fit       0.064134
 1295 Fit       0.063429
 1296 Fit       0.053531
 1297 Fit       0.040371
 1298 Fit       0.034998
 1299 Fit       0.041545
 1300 Fit       0.049549
 1301 Fit       0.049405
 1302 Fit       0.042661
 1303 Fit       0.036605
 1304 Fit       0.032796
 1305 Fit       0.036872
 1306 Fit       0.067139
 1307 Fit       0.062826
 1308 Fit       0.055299
 1309 Fit       0.048167
 1310 Fit       0.042910
 1311 Fit       0.038858
 1312 Fit       0.034883
 1313 Fit       0.075562
 1314 Fit       0.065441
 1315 Fit       0.058084
 1316 Fit       0.053796
 1317 Fit       0.051552
 1318 Fit       0.083770
 1319 Fit       0.027836
 1320 Fit       0.031126
 1321 Fit       0.031481
 1322 Fit       0.026287
 1323 Fit       0.028727
 1324 Fit       0.037723
 1325 Fit       0.029490
 1326 Fit       0.026995
 1327 Fit       0.028817
 1328 Fit       0.035449
 1329 Fit       0.038517
 1330 Fit       0.029668
 1331 Fit       0.030151
 1332 Fit       0.032144
 1333 Fit       0.039736
 1334 Fit       0.044713
 1335 Fit       0.033644
 1336 Fit       0.036614
 1337 Fit       0.039113
 1338 Fit       0.049356
 1339 Fit       0.041759
 1340 Fit       0.048423
 1341 Fit       0.056924
 1342 Fit       0.033145
 1343 Fit       0.036157
 1344 Fit       0.037011
 1345 Fit       0.049871
 1346 Fit       0.038651
 1347 Fit       0.052238
 1348 Fit       0.068224
 1349 Fit       0.069775
 1350 Fit       0.074974
 1351 Fit       0.065683
 1352 Fit       0.064093
 1353 Fit       0.065324
 1354 Fit       0.068661
 1355 Fit       0.073758
 1356 Fit       0.079239
 1357 Fit       0.062289
 1358 Fit       0.062251
 1359 Fit       0.063716
 1360 Fit       0.066481
 1361 Fit       0.070360
 1362 Fit       0.063088
 1363 Fit       0.064436
 1364 Fit       0.063510
 1365 Fit       0.061407
 1366 Fit       0.061063
 1367 Fit       0.058161
 1368 Fit       0.059341
 1369 Fit       0.058055
 1370 Fit       0.051775
 1371 Fit       0.058562
 1372 Fit       0.056598
 1373 Fit       0.058807
 1374 Fit       0.055693
 1375 Fit       0.063476
 1376 Fit       0.061788
 1377 Fit       0.060116
 1378 Fit       0.060134
 1379 Fit       0.060295
 1380 Fit       0.058904
 1381 Fit       0.058790
 1382 Fit       0.060188
 1383 Fit       0.063533
 1384 Fit       0.060401
 1385 Fit       0.058851
 1386 Fit       0.059002
 1387 Fit       0.073905
 1388 Fit       0.064477
 1389 Fit       0.061182
 1390 Fit       0.059704
 1391 Fit       0.066066
 1392 Fit       0.062320
 1393 Fit       0.071663
 1394 Fit       0.057620
 1395 Fit       0.049428
 1396 Fit       0.064309
 1397 Fit       0.060431
 1398 Fit       0.063293
 1399 Fit       0.067594
 1400 Fit       0.070189
 1401 Fit       0.058279
 1402 Fit       0.060511
 1403 Fit       0.063978
 1404 Fit       0.068386
 1405 Fit       0.072648
 1406 Fit       0.076270
 1407 Fit       0.060138
 1408 Fit       0.063269
 1409 Fit       0.067774
 1410 Fit       0.066383
 1411 Fit       0.051183
 1412 Fit       0.047622
 1413 Fit       0.054975
 1414 Fit       0.047392
 1415 Fit       0.055764
 1416 Fit       0.063600
 1417 Fit       0.051591
 1418 Fit       0.060888
 1419 Fit       0.062273
 1420 Fit       0.062810
 1421 Fit       0.060725
 1422 Fit       0.055478
 1423 Fit       0.067573
 1424 Fit       0.063972
 1425 Fit       0.060339
 1426 Fit       0.054074
 1427 Fit       0.071512
 1428 Fit       0.067177
 1429 Fit       0.063730
 1430 Fit       0.059988
 1431 Fit       0.055742
 1432 Fit       0.069120
 1433 Fit       0.065353
 1434 Fit       0.061581
 1435 Fit       0.071935
 1436 Fit       0.089900
 1437 Fit       0.082162
 1438 Fit       0.076848
 1439 Fit       0.095454
 1440 Fit       0.085957
 1441 Fit       0.079915
 1442 Fit       0.096880
 1443 Fit       0.087502
 1444 Fit       0.081486
 1445 Fit       0.095675
 1446 Fit       0.087913
 1447 Fit       0.058413
 1448 Fit       0.064925
 1449 Fit       0.064941
 1450 Fit       0.066111
 1451 Fit       0.085590
 1452 Fit       0.086026
 1453 Fit       0.081433
 1454 Fit       0.075892
 1455 Fit       0.071305
 1456 Fit       0.067606
 1457 Fit       0.070733
 1458 Fit       0.075424
 1459 Fit       0.080630
 1460 Fit       0.080837
 1461 Fit       0.077133
 1462 Fit       0.072448
 1463 Fit       0.075841
 1464 Fit       0.099459
 1465 Fit       0.092051
 1466 Fit       0.098615
 1467 Fit       0.109401
 1468 Fit       0.113110
 1469 Fit       0.103365
 1470 Fit       0.093088
 1471 Fit       0.101696
 1472 Fit       0.112354
 1473 Fit       0.114689
 1474 Fit       0.102695
 1475 Fit       0.091698
 1476 Fit       0.102209
 1477 Fit       0.105549
 1478 Fit       0.097847
 1479 Fit       0.112097
 1480 Fit       0.098046
 1481 Fit       0.100365
 1482 Fit       0.098471
 1483 Fit       0.104118
 1484 Fit       0.104989
 1485 Fit       0.112981
 1486 Fit       0.101458
 1487 Fit       0.082032
 1488 Fit       0.108889
 1489 Fit       0.096578
 1490 Fit       0.087851
 1491 Fit       0.079182
 1492 Fit       0.071268
 1493 Fit       0.078456
 1494 Fit       0.093880
 1495 Fit       0.092688
 1496 Fit       0.084763
 1497 Fit       0.082402
 1498 Fit       0.110071
 1499 Fit       0.086934
 1500 Fit       0.100930
 1501 Fit       0.115334
 1502 Fit       0.131931
 1503 Fit       0.116541
 1504 Fit       0.100871
 1505 Fit       0.097023
 1506 Fit       0.106807
 1507 Fit       0.120068
 1508 Fit       0.121419
 1509 Fit       0.110020
 1510 Fit       0.107121
 1511 Fit       0.122986
 1512 Fit       0.115351
 1513 Fit       0.116646
 1514 Fit       0.111672
 1515 Fit       0.119707
 1516 Fit       0.113340
 1517 Fit       0.124964
 1518 Fit       0.116251
 1519 Fit       0.129469
 1520 Fit       0.118704
 1521 Fit       0.072950
 1522 Fit       0.088465
 1523 Fit       0.090626
 1524 Fit       0.101843
 1525 Fit       0.124065
 1526 Fit       0.129559
 1527 Fit       0.127274
 1528 Fit       0.123814
 1529 Fit       0.123551
 1530 Fit       0.125774
 1531 Fit       0.141744
 1532 Fit       0.139415
 1533 Fit       0.131374
 1534 Fit       0.125665
 1535 Fit       0.124530
 1536 Fit       0.132503
 1537 Fit       0.126283
 1538 Fit       0.126348
 1539 Fit       0.125462
 1540 Fit       0.125323
 1541 Fit       0.123975
 1542 Fit       0.125150
 1543 Fit       0.129097
 1544 Fit       0.136553
 1545 Fit       0.123806
 1546 Fit       0.124464
 1547 Fit       0.127852
 1548 Fit       0.135201
 1549 Fit       0.126048
 1550 Fit       0.129318
 1551 Fit       0.138248
 1552 Fit       0.139722
 1553 Fit       0.141477
 1554 Fit       0.129882
 1555 Fit       0.133059
 1556 Fit       0.127590
 1557 Fit       0.137333
 1558 Fit       0.124115
 1559 Fit       0.132782
 1560 Fit       0.118852
 1561 Fit       0.126537
 1562 Fit       0.069732
 1563 Fit       0.074421
 1564 Fit       0.078844
 1565 Fit       0.077930
 1566 Fit       0.078902
 1567 Fit       0.078725
 1568 Fit       0.081915
 1569 Fit       0.080450
 1570 Fit       0.141315
 1571 Fit       0.131054
 1572 Fit       0.127457
 1573 Fit       0.142844
 1574 Fit       0.131940
 1575 Fit       0.126918
 1576 Fit       0.125338
 1577 Fit       0.143871
 1578 Fit       0.133896
 1579 Fit       0.128062
 1580 Fit       0.125549
 1581 Fit       0.126102
 1582 Fit       0.130195
 1583 Fit       0.126954
 1584 Fit       0.126290
 1585 Fit       0.129396
 1586 Fit       0.133439
 1587 Fit       0.128027
 1588 Fit       0.128441
 1589 Fit       0.132631
 1590 Fit       0.130028
 1591 Fit       0.129229
 1592 Fit       0.126203
 1593 Fit       0.126988
 1594 Fit       0.125671
 -----------------------------------------------------------------
 Leave Link  602 at Sat Feb 17 21:07:05 2018, MaxMem=   33554432 cpu:       0.7

 Test job not archived.
 1\1\GINC-NODE033\SP\RHF\6-31G(d)\C9H22N5O3S1(1+)\WULSDORT\17-Feb-2018\
 0\\#HF/6-31G* Geom=AllCheck Guess=Read Pop=(MK,ReadRadii) Integral=(Gr
 id=UltraFine) iop(6/33=2)\\Optimization for frag50-conf0\\1,1\C,0,-0.1
 89739263,2.6870085719,-1.219369272\C,0,0.9541833913,8.9333262729,0.762
 3717141\C,0,0.3785772508,0.4891984185,-0.3517664041\C,0,-1.9844572097,
 0.9502103665,-0.8903042968\C,0,-3.4884901751,3.9478562362,-5.022598955
 1\C,0,-0.3754647869,5.7326083076,-0.6363431098\C,0,-0.6313772835,5.064
 1869039,-1.9941191648\C,0,0.2903913283,7.0989724405,-0.8026497596\C,0,
 -1.2206092214,3.6487376979,-1.8707820509\N,0,1.0565360185,9.3817819094
 ,2.0256266031\N,0,0.604519059,7.6713808268,0.5230564866\N,0,-1.5938110
 636,3.1468696081,-3.2089328882\N,0,-0.6111301565,1.4498630533,-0.83827
 86515\N,0,1.1906689754,9.7783222397,-0.2509114399\O,0,0.9793111251,3.0
 621105464,-1.0949838267\O,0,-4.0304088995,3.3794043225,-2.490976851\O,
 0,-3.3327416711,1.4862760297,-4.0744548181\S,0,-3.2227515469,2.8698323
 59,-3.6065184729\H,0,0.1744409007,0.2317987568,0.6945720091\H,0,1.3698
 27089,0.9313213259,-0.4313805984\H,0,0.3318051985,-0.4284159764,-0.949
 6468478\H,0,-2.7118336334,1.7578234716,-0.9514853732\H,0,-2.1845665477
 ,0.3870721257,0.0273153373\H,0,-2.1368971778,0.2830216801,-1.746894676
 3\H,0,-4.5226572091,3.8014000412,-5.3433023331\H,0,-3.3250114787,4.982
 103708,-4.7166822332\H,0,-2.8002836866,3.6584711743,-5.8184678211\H,0,
 -1.3170196536,5.854613452,-0.0844065887\H,0,0.2877689755,5.0842680535,
 -0.0535693142\H,0,-1.3366263454,5.6650372163,-2.5809431627\H,0,0.30591
 02733,4.998278179,-2.5553465168\H,0,1.2169339137,6.9923535436,-1.38190
 29411\H,0,-0.374478722,7.7963942334,-1.3253270897\H,0,-2.1319608727,3.
 6984259541,-1.2666906265\H,0,0.7095496307,8.8401691657,2.8046108046\H,
 0,1.5396295669,10.2425392804,2.2407740472\H,0,0.6551504581,7.016999965
 3,1.2947894145\H,0,-1.0245482412,2.3819836452,-3.5617134819\H,0,1.2513
 690539,10.7754398678,-0.1007443104\H,0,1.2993007582,9.4424391686,-1.19
 68532863\\Version=AM64L-G09RevC.01\State=1-A\HF=-1247.710879\RMSD=6.18
 2e-09\Dipole=3.132965,7.5117176,3.1190117\Quadrupole=-37.2177273,40.96
 90596,-3.7513323,27.1915947,16.8738861,27.7757898\PG=C01 [X(C9H22N5O3S
 1)]\\@


 BETTER TO HUNT IN FIELDS, FOR HEALTH UNBOUGHT
 THAN FEE THE DOCTOR FOR A NAUSEOUS DRAUGHT.
 THE WISE, FOR CURE, ON EXERCISE DEPEND;
 GOD NEVER MADE HIS WORK FOR MAN TO MEND.
     -- JOHN DRYDEN (1631-1700)
 Job cpu time:  0 days  0 hours  4 minutes 57.2 seconds.
 File lengths (MBytes):  RWF=     57 Int=      0 D2E=      0 Chk=      8 Scr=      1
 Normal termination of Gaussian 09 at Sat Feb 17 21:07:06 2018.
