 Entering Gaussian System, Link 0=g09
 Initial command:
 /home/fb_chem/chemsoft/lx24-amd64/Gaussian_09_C.01_NBO_3.1_64_istanbul-64/g09/l1.exe /local/2397427.1.parallel/Gau-22035.inp -scrdir=/local/2397427.1.parallel/
 Entering Link 1 = /home/fb_chem/chemsoft/lx24-amd64/Gaussian_09_C.01_NBO_3.1_64_istanbul-64/g09/l1.exe PID=     22036.
  
 Copyright (c) 1988,1990,1992,1993,1995,1998,2003,2009,2011,
            Gaussian, Inc.  All Rights Reserved.
  
 This is part of the Gaussian(R) 09 program.  It is based on
 the Gaussian(R) 03 system (copyright 2003, Gaussian, Inc.),
 the Gaussian(R) 98 system (copyright 1998, Gaussian, Inc.),
 the Gaussian(R) 94 system (copyright 1995, Gaussian, Inc.),
 the Gaussian 92(TM) system (copyright 1992, Gaussian, Inc.),
 the Gaussian 90(TM) system (copyright 1990, Gaussian, Inc.),
 the Gaussian 88(TM) system (copyright 1988, Gaussian, Inc.),
 the Gaussian 86(TM) system (copyright 1986, Carnegie Mellon
 University), and the Gaussian 82(TM) system (copyright 1983,
 Carnegie Mellon University). Gaussian is a federally registered
 trademark of Gaussian, Inc.
  
 This software contains proprietary and confidential information,
 including trade secrets, belonging to Gaussian, Inc.
  
 This software is provided under written license and may be
 used, copied, transmitted, or stored only in accord with that
 written license.
  
 The following legend is applicable only to US Government
 contracts under FAR:
  
                    RESTRICTED RIGHTS LEGEND
  
 Use, reproduction and disclosure by the US Government is
 subject to restrictions as set forth in subparagraphs (a)
 and (c) of the Commercial Computer Software - Restricted
 Rights clause in FAR 52.227-19.
  
 Gaussian, Inc.
 340 Quinnipiac St., Bldg. 40, Wallingford CT 06492
  
  
 ---------------------------------------------------------------
 Warning -- This program may not be used in any manner that
 competes with the business of Gaussian, Inc. or will provide
 assistance to any competitor of Gaussian, Inc.  The licensee
 of this program is prohibited from giving any competitor of
 Gaussian, Inc. access to this program.  By using this program,
 the user acknowledges that Gaussian, Inc. is engaged in the
 business of creating and licensing software in the field of
 computational chemistry and represents and warrants to the
 licensee that it is not a competitor of Gaussian, Inc. and that
 it will not use this program in any manner prohibited above.
 ---------------------------------------------------------------
  

 Cite this work as:
 Gaussian 09, Revision C.01,
 M. J. Frisch, G. W. Trucks, H. B. Schlegel, G. E. Scuseria, 
 M. A. Robb, J. R. Cheeseman, G. Scalmani, V. Barone, B. Mennucci, 
 G. A. Petersson, H. Nakatsuji, M. Caricato, X. Li, H. P. Hratchian, 
 A. F. Izmaylov, J. Bloino, G. Zheng, J. L. Sonnenberg, M. Hada, 
 M. Ehara, K. Toyota, R. Fukuda, J. Hasegawa, M. Ishida, T. Nakajima, 
 Y. Honda, O. Kitao, H. Nakai, T. Vreven, J. A. Montgomery, Jr., 
 J. E. Peralta, F. Ogliaro, M. Bearpark, J. J. Heyd, E. Brothers, 
 K. N. Kudin, V. N. Staroverov, T. Keith, R. Kobayashi, J. Normand, 
 K. Raghavachari, A. Rendell, J. C. Burant, S. S. Iyengar, J. Tomasi, 
 M. Cossi, N. Rega, J. M. Millam, M. Klene, J. E. Knox, J. B. Cross, 
 V. Bakken, C. Adamo, J. Jaramillo, R. Gomperts, R. E. Stratmann, 
 O. Yazyev, A. J. Austin, R. Cammi, C. Pomelli, J. W. Ochterski, 
 R. L. Martin, K. Morokuma, V. G. Zakrzewski, G. A. Voth, 
 P. Salvador, J. J. Dannenberg, S. Dapprich, A. D. Daniels, 
 O. Farkas, J. B. Foresman, J. V. Ortiz, J. Cioslowski, 
 and D. J. Fox, Gaussian, Inc., Wallingford CT, 2010.
 
 ******************************************
 Gaussian 09:  AM64L-G09RevC.01 23-Sep-2011
                16-Feb-2018 
 ******************************************
 %nprocs=4
 Will use up to    4 processors via shared memory.
 %chk=frag50-conf0.chk
 ---------------------------------------------------------
 #B3LYP/6-31G* Integral=(Grid=UltraFine) freq Opt pop=none
 ---------------------------------------------------------
 1/14=-1,18=20,19=15,26=3,38=1/1,3;
 2/9=110,12=2,17=6,18=5,40=1/2;
 3/5=1,6=6,7=1,11=2,16=1,25=1,30=1,71=1,74=-5,75=-5/1,2,3;
 4//1;
 5/5=2,38=5/2;
 7//1,2,3,16;
 1/14=-1,18=20,19=15/3(2);
 2/9=110/2;
 99//99;
 2/9=110/2;
 3/5=1,6=6,7=1,11=2,16=1,25=1,30=1,71=1,74=-5,75=-5/1,2,3;
 4/5=5,16=3/1;
 5/5=2,38=5/2;
 7//1,2,3,16;
 1/14=-1,18=20,19=15/3(-5);
 2/9=110/2;
 99/9=1/99;
 -----------------------------
 Optimization for frag50-conf0
 -----------------------------
 Charge =  1 Multiplicity = 1
 Symbolic Z-Matrix:
 C                    -0.12036   2.42996  -1.58658 
 C                     0.75179   8.70014   0.62383 
 C                     0.44562   0.59676  -0.0376 
 C                    -1.91666   1.29359  -0.24258 
 C                    -3.45525   4.6149   -4.24303 
 C                    -0.41304   5.45716  -0.85694 
 C                    -0.57997   4.83233  -2.24455 
 C                     0.14951   6.87354  -0.94761 
 C                    -1.17049   3.41532  -2.16685 
 N                     0.83748   9.13718   1.88026 
 N                     0.29021   7.4608    0.38633 
 N                    -1.44276   2.91608  -3.54312 
 N                    -0.53703   1.46072  -0.67789 
 N                     1.12918   9.51277  -0.36259 
 O                     1.06244   2.48984  -1.95216 
 O                    -3.84121   2.23295  -3.16349 
 O                    -2.89609   2.36164  -5.48872 
 S                    -2.99969   2.89621  -4.14234 
 H                     0.40013   0.75761   1.04371 
 H                     1.46306   0.79941  -0.38043 
 H                     0.19736  -0.44448  -0.26357 
 H                    -2.59165   1.35274  -1.0962 
 H                    -2.155     2.08603   0.47234 
 H                    -2.04823   0.31765   0.23389 
 H                    -4.43522   4.67107  -4.72245 
 H                    -3.51767   5.02956  -3.23609 
 H                    -2.71788   5.14193  -4.85078 
 H                    -1.38091   5.48381  -0.3414 
 H                     0.25431   4.84499  -0.2389 
 H                    -1.23086   5.47745  -2.84407 
 H                     0.38911   4.82066  -2.75981 
 H                     1.13714   6.84957  -1.42009 
 H                    -0.52917   7.50401  -1.53173 
 H                    -2.08103   3.42971  -1.56572 
 H                     0.56123   8.55345   2.65697 
 H                     1.18127   10.06581   2.08038 
 H                     0.03081   6.92674   1.20857 
 H                    -0.72556   3.15806  -4.23506 
 H                     1.47263   10.44109  -0.16123 
 H                     1.08144   9.22273  -1.32794 
 

 GradGradGradGradGradGradGradGradGradGradGradGradGradGradGradGradGradGrad
 Berny optimization.
 Initialization pass.
                           ----------------------------
                           !    Initial Parameters    !
                           ! (Angstroms and Degrees)  !
 --------------------------                            --------------------------
 ! Name  Definition              Value          Derivative Info.                !
 --------------------------------------------------------------------------------
 ! R1    R(1,9)                  1.5526         estimate D2E/DX2                !
 ! R2    R(1,13)                 1.3924         estimate D2E/DX2                !
 ! R3    R(1,15)                 1.2395         estimate D2E/DX2                !
 ! R4    R(2,10)                 1.333          estimate D2E/DX2                !
 ! R5    R(2,11)                 1.3437         estimate D2E/DX2                !
 ! R6    R(2,14)                 1.3326         estimate D2E/DX2                !
 ! R7    R(3,13)                 1.4567         estimate D2E/DX2                !
 ! R8    R(3,19)                 1.0942         estimate D2E/DX2                !
 ! R9    R(3,20)                 1.0926         estimate D2E/DX2                !
 ! R10   R(3,21)                 1.094          estimate D2E/DX2                !
 ! R11   R(4,13)                 1.4563         estimate D2E/DX2                !
 ! R12   R(4,22)                 1.0899         estimate D2E/DX2                !
 ! R13   R(4,23)                 1.0936         estimate D2E/DX2                !
 ! R14   R(4,24)                 1.094          estimate D2E/DX2                !
 ! R15   R(5,18)                 1.7809         estimate D2E/DX2                !
 ! R16   R(5,25)                 1.0924         estimate D2E/DX2                !
 ! R17   R(5,26)                 1.0908         estimate D2E/DX2                !
 ! R18   R(5,27)                 1.0913         estimate D2E/DX2                !
 ! R19   R(6,7)                  1.5309         estimate D2E/DX2                !
 ! R20   R(6,8)                  1.5267         estimate D2E/DX2                !
 ! R21   R(6,28)                 1.0969         estimate D2E/DX2                !
 ! R22   R(6,29)                 1.0964         estimate D2E/DX2                !
 ! R23   R(7,9)                  1.5371         estimate D2E/DX2                !
 ! R24   R(7,30)                 1.0951         estimate D2E/DX2                !
 ! R25   R(7,31)                 1.0976         estimate D2E/DX2                !
 ! R26   R(8,11)                 1.4643         estimate D2E/DX2                !
 ! R27   R(8,32)                 1.0951         estimate D2E/DX2                !
 ! R28   R(8,33)                 1.0951         estimate D2E/DX2                !
 ! R29   R(9,12)                 1.4891         estimate D2E/DX2                !
 ! R30   R(9,34)                 1.0912         estimate D2E/DX2                !
 ! R31   R(10,35)                1.0101         estimate D2E/DX2                !
 ! R32   R(10,36)                1.0102         estimate D2E/DX2                !
 ! R33   R(11,37)                1.0142         estimate D2E/DX2                !
 ! R34   R(12,18)                1.6684         estimate D2E/DX2                !
 ! R35   R(12,38)                1.0255         estimate D2E/DX2                !
 ! R36   R(14,39)                1.0101         estimate D2E/DX2                !
 ! R37   R(14,40)                1.0091         estimate D2E/DX2                !
 ! R38   R(16,18)                1.4513         estimate D2E/DX2                !
 ! R39   R(17,18)                1.4523         estimate D2E/DX2                !
 ! A1    A(9,1,13)             118.9016         estimate D2E/DX2                !
 ! A2    A(9,1,15)             120.3026         estimate D2E/DX2                !
 ! A3    A(13,1,15)            120.7759         estimate D2E/DX2                !
 ! A4    A(10,2,11)            119.4121         estimate D2E/DX2                !
 ! A5    A(10,2,14)            118.6561         estimate D2E/DX2                !
 ! A6    A(11,2,14)            121.9318         estimate D2E/DX2                !
 ! A7    A(13,3,19)            108.6113         estimate D2E/DX2                !
 ! A8    A(13,3,20)            112.3486         estimate D2E/DX2                !
 ! A9    A(13,3,21)            108.6995         estimate D2E/DX2                !
 ! A10   A(19,3,20)            108.7564         estimate D2E/DX2                !
 ! A11   A(19,3,21)            109.5492         estimate D2E/DX2                !
 ! A12   A(20,3,21)            108.8464         estimate D2E/DX2                !
 ! A13   A(13,4,22)            110.2659         estimate D2E/DX2                !
 ! A14   A(13,4,23)            108.5859         estimate D2E/DX2                !
 ! A15   A(13,4,24)            110.2731         estimate D2E/DX2                !
 ! A16   A(22,4,23)            109.7395         estimate D2E/DX2                !
 ! A17   A(22,4,24)            108.3648         estimate D2E/DX2                !
 ! A18   A(23,4,24)            109.6037         estimate D2E/DX2                !
 ! A19   A(18,5,25)            107.6924         estimate D2E/DX2                !
 ! A20   A(18,5,26)            109.2278         estimate D2E/DX2                !
 ! A21   A(18,5,27)            108.9492         estimate D2E/DX2                !
 ! A22   A(25,5,26)            109.5274         estimate D2E/DX2                !
 ! A23   A(25,5,27)            109.6889         estimate D2E/DX2                !
 ! A24   A(26,5,27)            111.6664         estimate D2E/DX2                !
 ! A25   A(7,6,8)              111.4074         estimate D2E/DX2                !
 ! A26   A(7,6,28)             109.8581         estimate D2E/DX2                !
 ! A27   A(7,6,29)             110.4514         estimate D2E/DX2                !
 ! A28   A(8,6,28)             109.299          estimate D2E/DX2                !
 ! A29   A(8,6,29)             109.0988         estimate D2E/DX2                !
 ! A30   A(28,6,29)            106.6            estimate D2E/DX2                !
 ! A31   A(6,7,9)              111.8593         estimate D2E/DX2                !
 ! A32   A(6,7,30)             108.6975         estimate D2E/DX2                !
 ! A33   A(6,7,31)             109.4853         estimate D2E/DX2                !
 ! A34   A(9,7,30)             110.0231         estimate D2E/DX2                !
 ! A35   A(9,7,31)             110.6786         estimate D2E/DX2                !
 ! A36   A(30,7,31)            105.9041         estimate D2E/DX2                !
 ! A37   A(6,8,11)             110.6946         estimate D2E/DX2                !
 ! A38   A(6,8,32)             109.7329         estimate D2E/DX2                !
 ! A39   A(6,8,33)             109.7205         estimate D2E/DX2                !
 ! A40   A(11,8,32)            108.3706         estimate D2E/DX2                !
 ! A41   A(11,8,33)            108.3342         estimate D2E/DX2                !
 ! A42   A(32,8,33)            109.9617         estimate D2E/DX2                !
 ! A43   A(1,9,7)              110.1285         estimate D2E/DX2                !
 ! A44   A(1,9,12)             104.8517         estimate D2E/DX2                !
 ! A45   A(1,9,34)             111.5234         estimate D2E/DX2                !
 ! A46   A(7,9,12)             109.4263         estimate D2E/DX2                !
 ! A47   A(7,9,34)             109.6501         estimate D2E/DX2                !
 ! A48   A(12,9,34)            111.1619         estimate D2E/DX2                !
 ! A49   A(2,10,35)            121.1782         estimate D2E/DX2                !
 ! A50   A(2,10,36)            120.6607         estimate D2E/DX2                !
 ! A51   A(35,10,36)           118.1611         estimate D2E/DX2                !
 ! A52   A(2,11,8)             124.3302         estimate D2E/DX2                !
 ! A53   A(2,11,37)            115.4845         estimate D2E/DX2                !
 ! A54   A(8,11,37)            120.1853         estimate D2E/DX2                !
 ! A55   A(9,12,18)            120.4349         estimate D2E/DX2                !
 ! A56   A(9,12,38)            114.6204         estimate D2E/DX2                !
 ! A57   A(18,12,38)           114.4004         estimate D2E/DX2                !
 ! A58   A(1,13,3)             119.8571         estimate D2E/DX2                !
 ! A59   A(1,13,4)             123.9486         estimate D2E/DX2                !
 ! A60   A(3,13,4)             116.0789         estimate D2E/DX2                !
 ! A61   A(2,14,39)            120.6089         estimate D2E/DX2                !
 ! A62   A(2,14,40)            121.2956         estimate D2E/DX2                !
 ! A63   A(39,14,40)           118.0955         estimate D2E/DX2                !
 ! A64   A(5,18,12)            104.3312         estimate D2E/DX2                !
 ! A65   A(5,18,16)            109.321          estimate D2E/DX2                !
 ! A66   A(5,18,17)            108.7266         estimate D2E/DX2                !
 ! A67   A(12,18,16)           107.7168         estimate D2E/DX2                !
 ! A68   A(12,18,17)           105.7104         estimate D2E/DX2                !
 ! A69   A(16,18,17)           119.8957         estimate D2E/DX2                !
 ! D1    D(13,1,9,7)           139.3187         estimate D2E/DX2                !
 ! D2    D(13,1,9,12)         -103.0575         estimate D2E/DX2                !
 ! D3    D(13,1,9,34)           17.3442         estimate D2E/DX2                !
 ! D4    D(15,1,9,7)           -42.2868         estimate D2E/DX2                !
 ! D5    D(15,1,9,12)           75.3369         estimate D2E/DX2                !
 ! D6    D(15,1,9,34)         -164.2614         estimate D2E/DX2                !
 ! D7    D(9,1,13,3)          -174.9982         estimate D2E/DX2                !
 ! D8    D(9,1,13,4)             0.9388         estimate D2E/DX2                !
 ! D9    D(15,1,13,3)            6.6152         estimate D2E/DX2                !
 ! D10   D(15,1,13,4)         -177.4477         estimate D2E/DX2                !
 ! D11   D(11,2,10,35)          -0.0278         estimate D2E/DX2                !
 ! D12   D(11,2,10,36)        -179.9628         estimate D2E/DX2                !
 ! D13   D(14,2,10,35)         179.9572         estimate D2E/DX2                !
 ! D14   D(14,2,10,36)           0.0222         estimate D2E/DX2                !
 ! D15   D(10,2,11,8)          179.9            estimate D2E/DX2                !
 ! D16   D(10,2,11,37)          -0.0153         estimate D2E/DX2                !
 ! D17   D(14,2,11,8)           -0.0845         estimate D2E/DX2                !
 ! D18   D(14,2,11,37)        -179.9999         estimate D2E/DX2                !
 ! D19   D(10,2,14,39)          -0.0307         estimate D2E/DX2                !
 ! D20   D(10,2,14,40)         179.9692         estimate D2E/DX2                !
 ! D21   D(11,2,14,39)         179.954          estimate D2E/DX2                !
 ! D22   D(11,2,14,40)          -0.0462         estimate D2E/DX2                !
 ! D23   D(19,3,13,1)          118.8168         estimate D2E/DX2                !
 ! D24   D(19,3,13,4)          -57.4312         estimate D2E/DX2                !
 ! D25   D(20,3,13,1)           -1.5338         estimate D2E/DX2                !
 ! D26   D(20,3,13,4)         -177.7819         estimate D2E/DX2                !
 ! D27   D(21,3,13,1)         -122.0567         estimate D2E/DX2                !
 ! D28   D(21,3,13,4)           61.6952         estimate D2E/DX2                !
 ! D29   D(22,4,13,1)           44.29           estimate D2E/DX2                !
 ! D30   D(22,4,13,3)         -139.6329         estimate D2E/DX2                !
 ! D31   D(23,4,13,1)          -75.9751         estimate D2E/DX2                !
 ! D32   D(23,4,13,3)          100.102          estimate D2E/DX2                !
 ! D33   D(24,4,13,1)          163.9218         estimate D2E/DX2                !
 ! D34   D(24,4,13,3)          -20.0011         estimate D2E/DX2                !
 ! D35   D(25,5,18,12)         174.5886         estimate D2E/DX2                !
 ! D36   D(25,5,18,16)         -70.425          estimate D2E/DX2                !
 ! D37   D(25,5,18,17)          62.1495         estimate D2E/DX2                !
 ! D38   D(26,5,18,12)         -66.5403         estimate D2E/DX2                !
 ! D39   D(26,5,18,16)          48.4461         estimate D2E/DX2                !
 ! D40   D(26,5,18,17)        -178.9794         estimate D2E/DX2                !
 ! D41   D(27,5,18,12)          55.6793         estimate D2E/DX2                !
 ! D42   D(27,5,18,16)         170.6657         estimate D2E/DX2                !
 ! D43   D(27,5,18,17)         -56.7598         estimate D2E/DX2                !
 ! D44   D(8,6,7,9)           -178.9375         estimate D2E/DX2                !
 ! D45   D(8,6,7,30)           -57.2525         estimate D2E/DX2                !
 ! D46   D(8,6,7,31)            58.0007         estimate D2E/DX2                !
 ! D47   D(28,6,7,9)           -57.6706         estimate D2E/DX2                !
 ! D48   D(28,6,7,30)           64.0145         estimate D2E/DX2                !
 ! D49   D(28,6,7,31)          179.2676         estimate D2E/DX2                !
 ! D50   D(29,6,7,9)            59.6437         estimate D2E/DX2                !
 ! D51   D(29,6,7,30)         -178.6712         estimate D2E/DX2                !
 ! D52   D(29,6,7,31)          -63.4181         estimate D2E/DX2                !
 ! D53   D(7,6,8,11)           179.4368         estimate D2E/DX2                !
 ! D54   D(7,6,8,32)           -60.9975         estimate D2E/DX2                !
 ! D55   D(7,6,8,33)            59.9242         estimate D2E/DX2                !
 ! D56   D(28,6,8,11)           57.8445         estimate D2E/DX2                !
 ! D57   D(28,6,8,32)          177.4101         estimate D2E/DX2                !
 ! D58   D(28,6,8,33)          -61.6682         estimate D2E/DX2                !
 ! D59   D(29,6,8,11)          -58.3604         estimate D2E/DX2                !
 ! D60   D(29,6,8,32)           61.2053         estimate D2E/DX2                !
 ! D61   D(29,6,8,33)         -177.873          estimate D2E/DX2                !
 ! D62   D(6,7,9,1)            -71.1458         estimate D2E/DX2                !
 ! D63   D(6,7,9,12)           174.0998         estimate D2E/DX2                !
 ! D64   D(6,7,9,34)            51.9322         estimate D2E/DX2                !
 ! D65   D(30,7,9,1)           167.9352         estimate D2E/DX2                !
 ! D66   D(30,7,9,12)           53.1807         estimate D2E/DX2                !
 ! D67   D(30,7,9,34)          -68.9869         estimate D2E/DX2                !
 ! D68   D(31,7,9,1)            51.237          estimate D2E/DX2                !
 ! D69   D(31,7,9,12)          -63.5174         estimate D2E/DX2                !
 ! D70   D(31,7,9,34)          174.315          estimate D2E/DX2                !
 ! D71   D(6,8,11,2)          -179.5548         estimate D2E/DX2                !
 ! D72   D(6,8,11,37)            0.3568         estimate D2E/DX2                !
 ! D73   D(32,8,11,2)           60.0638         estimate D2E/DX2                !
 ! D74   D(32,8,11,37)        -120.0246         estimate D2E/DX2                !
 ! D75   D(33,8,11,2)          -59.2116         estimate D2E/DX2                !
 ! D76   D(33,8,11,37)         120.7            estimate D2E/DX2                !
 ! D77   D(1,9,12,18)          138.9021         estimate D2E/DX2                !
 ! D78   D(1,9,12,38)          -78.3209         estimate D2E/DX2                !
 ! D79   D(7,9,12,18)         -102.9965         estimate D2E/DX2                !
 ! D80   D(7,9,12,38)           39.7804         estimate D2E/DX2                !
 ! D81   D(34,9,12,18)          18.2609         estimate D2E/DX2                !
 ! D82   D(34,9,12,38)         161.0378         estimate D2E/DX2                !
 ! D83   D(9,12,18,5)           65.2367         estimate D2E/DX2                !
 ! D84   D(9,12,18,16)         -50.8739         estimate D2E/DX2                !
 ! D85   D(9,12,18,17)         179.8243         estimate D2E/DX2                !
 ! D86   D(38,12,18,5)         -77.6164         estimate D2E/DX2                !
 ! D87   D(38,12,18,16)        166.273          estimate D2E/DX2                !
 ! D88   D(38,12,18,17)         36.9713         estimate D2E/DX2                !
 --------------------------------------------------------------------------------
 Trust Radius=3.00D-01 FncErr=1.00D-07 GrdErr=1.00D-06
 Number of steps in this run=    206 maximum allowed number of steps=    240.
 GradGradGradGradGradGradGradGradGradGradGradGradGradGradGradGradGradGrad

                          Input orientation:                          
 ---------------------------------------------------------------------
 Center     Atomic      Atomic             Coordinates (Angstroms)
 Number     Number       Type             X           Y           Z
 ---------------------------------------------------------------------
      1          6           0       -0.120364    2.429959   -1.586576
      2          6           0        0.751786    8.700138    0.623833
      3          6           0        0.445623    0.596757   -0.037596
      4          6           0       -1.916665    1.293593   -0.242576
      5          6           0       -3.455248    4.614900   -4.243030
      6          6           0       -0.413038    5.457163   -0.856944
      7          6           0       -0.579966    4.832326   -2.244550
      8          6           0        0.149507    6.873537   -0.947614
      9          6           0       -1.170487    3.415324   -2.166852
     10          7           0        0.837481    9.137182    1.880263
     11          7           0        0.290215    7.460804    0.386333
     12          7           0       -1.442759    2.916077   -3.543123
     13          7           0       -0.537030    1.460717   -0.677885
     14          7           0        1.129179    9.512772   -0.362590
     15          8           0        1.062444    2.489836   -1.952156
     16          8           0       -3.841212    2.232954   -3.163492
     17          8           0       -2.896092    2.361645   -5.488715
     18         16           0       -2.999693    2.896206   -4.142339
     19          1           0        0.400132    0.757612    1.043714
     20          1           0        1.463060    0.799405   -0.380433
     21          1           0        0.197356   -0.444479   -0.263572
     22          1           0       -2.591649    1.352741   -1.096201
     23          1           0       -2.154997    2.086029    0.472340
     24          1           0       -2.048229    0.317650    0.233890
     25          1           0       -4.435216    4.671066   -4.722449
     26          1           0       -3.517670    5.029561   -3.236093
     27          1           0       -2.717878    5.141928   -4.850784
     28          1           0       -1.380910    5.483806   -0.341401
     29          1           0        0.254315    4.844989   -0.238899
     30          1           0       -1.230861    5.477449   -2.844069
     31          1           0        0.389111    4.820660   -2.759814
     32          1           0        1.137138    6.849571   -1.420090
     33          1           0       -0.529174    7.504010   -1.531726
     34          1           0       -2.081025    3.429713   -1.565718
     35          1           0        0.561229    8.553454    2.656971
     36          1           0        1.181273   10.065810    2.080379
     37          1           0        0.030806    6.926741    1.208570
     38          1           0       -0.725557    3.158055   -4.235064
     39          1           0        1.472632   10.441092   -0.161230
     40          1           0        1.081438    9.222732   -1.327944
 ---------------------------------------------------------------------
                    Distance matrix (angstroms):
                    1          2          3          4          5
     1  C    0.000000
     2  C    6.705349   0.000000
     3  C    2.465828   8.136093   0.000000
     4  C    2.514828   7.920114   2.471437   0.000000
     5  C    4.790842   7.620673   7.003424   5.422357   0.000000
     6  C    3.127617   3.750521   5.003216   4.469190   4.629257
     7  C    2.532890   4.996114   4.884928   4.279871   3.508339
     8  C    4.497387   2.483679   6.349313   5.991821   5.381028
     9  C    1.552554   6.277923   3.884567   2.959960   3.312043
    10  N    7.610735   1.333029   8.761883   8.579840   8.739180
    11  N    5.419441   1.343653   6.878881   6.580299   6.599898
    12  N    2.411041   7.458882   4.608031   3.708187   2.725066
    13  N    1.392393   7.467579   1.456710   1.456302   5.583469
    14  N    7.295597   1.332603   8.948083   8.766212   7.750092
    15  O    1.239463   6.730534   2.762201   3.637135   5.493045
    16  O    4.046008   8.789990   5.552055   3.621882   2.643490
    17  O    4.789157   9.531357   6.632992   5.442609   2.634682
    18  S    3.878124   8.394976   5.831516   4.353099   1.780893
    19  H    3.160076   7.961387   1.094155   2.703583   7.595544
    20  H    2.573075   7.996002   1.092603   3.418445   7.325805
    21  H    3.180201   9.204287   1.094017   2.736863   7.401008
    22  H    2.740094   8.253563   3.304115   1.089852   4.614110
    23  H    2.914988   7.226256   3.039933   1.093555   5.506411
    24  H    3.390075   8.846369   2.524065   1.093980   6.363087
    25  H    5.785690   8.468833   7.897495   6.149771   1.092398
    26  H    4.584815   6.826450   6.751875   5.047952   1.090762
    27  H    4.975632   7.393974   7.337104   6.056997   1.091256
    28  H    3.530640   3.978047   5.226066   4.225481   4.503397
    29  H    2.790876   3.981703   4.257300   4.162401   5.463228
    30  H    3.478749   5.132539   5.874355   4.974209   2.765679
    31  H    2.711366   5.160519   5.025437   4.908492   4.125696
    32  H    4.598043   2.784012   6.441053   6.448344   5.835474
    33  H    5.090789   2.778132   7.133919   6.492790   4.925448
    34  H    2.200940   6.371525   4.092035   2.518081   3.234371
    35  H    7.481274   2.047309   8.401374   8.200788   8.902488
    36  H    8.570125   2.042314   9.730877   9.588803   9.549620
    37  H    5.296862   2.001666   6.464805   6.134397   6.871472
    38  H    2.812627   7.517054   5.054764   4.564528   3.094135
    39  H    8.291411   2.041289   9.898533   9.755546   8.653878
    40  H    6.903114   2.047245   8.745095   8.546221   7.093050
                    6          7          8          9         10
     6  C    0.000000
     7  C    1.530927   0.000000
     8  C    1.526694   2.526008   0.000000
     9  C    2.541396   1.537090   3.897199   0.000000
    10  N    4.753803   6.128216   3.687043   7.290455   0.000000
    11  N    2.460666   3.819379   1.464273   5.001831   2.311184
    12  N    3.838359   2.470367   4.993342   1.489128   8.562404
    13  N    4.002376   3.718068   5.462847   2.537475   8.207406
    14  N    4.367011   5.326305   2.875338   6.761856   2.292715
    15  O    3.490210   2.875807   4.589051   2.426645   7.676279
    16  O    5.240998   4.270470   6.509298   3.086107   9.746691
    17  O    6.099270   4.689703   7.089037   3.888795  10.684068
    18  S    4.903377   3.633902   5.995239   2.741902   9.483956
    19  H    5.134152   5.326966   6.436826   4.453988   8.432573
    20  H    5.043958   4.890126   6.240368   4.119453   8.661444
    21  H    5.962722   5.689743   7.350072   4.515701   9.839412
    22  H    4.652941   4.180082   6.165646   2.724012   9.011980
    23  H    4.020692   4.171854   5.499749   3.114743   7.788192
    24  H    5.502577   5.355442   7.014673   4.016165   9.424543
    25  H    5.633648   4.585732   6.334030   4.332022   9.557370
    26  H    3.934708   3.106793   4.699529   3.042746   7.875087
    27  H    4.621949   3.385111   5.143452   3.546698   8.597071
    28  H    1.096936   2.165159   2.154303   2.766798   4.817074
    29  H    1.096402   2.172285   2.151341   2.791238   4.822224
    30  H    2.148933   1.095113   2.729655   2.171320   6.323843
    31  H    2.160901   1.097608   2.748778   2.181495   6.353244
    32  H    2.158467   2.774429   1.095091   4.204383   4.026821
    33  H    2.158333   2.765609   1.095122   4.187126   4.022022
    34  H    2.719392   2.163635   4.149367   1.091169   7.277889
    35  H    4.783703   6.258916   3.998083   7.257306   1.010113
    36  H    5.692919   7.014010   4.519280   8.233998   1.010242
    37  H    2.573520   4.084563   2.160105   5.016636   2.447028
    38  H    4.098202   2.605095   5.037645   2.131114   8.694266
    39  H    5.373948   6.325475   3.885423   7.769814   2.504254
    40  H    4.078579   4.782896   2.555751   6.284976   3.218606
                   11         12         13         14         15
    11  N    0.000000
    12  N    6.252869   0.000000
    13  N    6.149629   3.338863   0.000000
    14  N    2.339940   7.761897   8.228684   0.000000
    15  O    5.547557   2.998150   2.289360   7.200889   0.000000
    16  O    7.549858   2.522568   4.206210   9.249085   5.057585
    17  O    8.406555   2.490963   5.433316   9.675670   5.309773
    18  S    7.222736   1.668382   4.486399   8.666777   4.632817
    19  H    6.736246   5.393912   2.082434   8.897304   3.523420
    20  H    6.807182   4.788183   2.127481   8.719779   2.342725
    21  H    7.932496   4.973809   2.083447  10.001247   3.494267
    22  H    6.914583   3.122722   2.099548   8.998268   3.921484
    23  H    5.905477   4.161756   2.081310   8.163298   4.048849
    24  H    7.517725   4.624310   2.102774   9.746895   4.378753
    25  H    7.497465   3.664095   6.469984   8.568137   6.531199
    26  H    5.790760   2.977639   5.307097   7.067489   5.392230
    27  H    6.469405   2.879292   5.976663   7.351735   5.452199
    28  H    2.689009   4.104642   4.124391   4.746952   4.186689
    29  H    2.689737   4.185530   3.503175   4.750671   3.022428
    30  H    4.084466   2.663495   4.616047   5.292575   3.870477
    31  H    4.108331   2.756222   4.059727   5.320742   2.557036
    32  H    2.086636   5.160961   5.691525   2.865486   4.392717
    33  H    2.086196   5.092101   6.103319   2.855194   5.277495
    34  H    5.067837   2.140406   2.655017   6.982587   3.303650
    35  H    2.534389   8.616099   7.914187   3.218789   7.633003
    36  H    3.232621   9.467207   9.198272   2.505327   8.583172
    37  H    1.014194   6.390259   5.810213   3.219087   5.544420
    38  H    6.395525   1.025531   3.945886   7.669323   2.975758
    39  H    3.252699   8.750003   9.216984   1.010091   8.160768
    40  H    2.582474   7.145102   7.955557   1.009114   6.761796
                   16         17         18         19         20
    16  O    0.000000
    17  O    2.513260   0.000000
    18  S    1.451275   1.452314   0.000000
    19  H    6.153552   7.490703   6.559538   0.000000
    20  H    6.159203   6.894733   6.201989   1.777571   0.000000
    21  H    5.646965   6.689236   6.035407   1.787494   1.778458
    22  H    2.570967   4.517162   3.439148   3.726146   4.154416
    23  H    4.010509   6.013266   4.760795   2.935957   3.933569
    24  H    4.292480   6.135552   5.167748   2.616075   3.597031
    25  H    2.954248   2.879149   2.355289   8.482001   8.284475
    26  H    2.816196   3.546610   2.375034   7.205238   7.131387
    27  H    3.545555   2.858093   2.371620   7.980559   7.504784
    28  H    4.958359   6.207940   4.874758   5.237133   5.480265
    29  H    5.670036   6.607014   5.442717   4.286375   4.224671
    30  H    4.176447   4.413093   3.387786   6.328654   5.933870
    31  H    4.975420   4.928105   4.135081   5.565546   4.794300
    32  H    7.009748   7.277509   6.336648   6.612524   6.147488
    33  H    6.435549   6.906807   5.843854   7.280823   7.088455
    34  H    2.661460   4.146687   2.787034   4.483904   4.569897
    35  H    9.654428  10.800174   9.534948   7.962644   8.376419
    36  H   10.680691  11.544274  10.373328   9.398266   9.591729
    37  H    7.492602   8.617451   7.352644   6.182373   6.490033
    38  H    3.422189   2.630044   2.291038   5.907181   5.021101
    39  H   10.228589  10.618160   9.632042   9.816920   9.644182
    40  H    8.744067   8.955851   8.037498   8.817436   8.485036
                   21         22         23         24         25
    21  H    0.000000
    22  H    3.420793   0.000000
    23  H    3.532507   1.785692   0.000000
    24  H    2.423007   1.770837   1.787574   0.000000
    25  H    8.216515   5.249733   6.234393   7.015357   0.000000
    26  H    7.252752   4.353809   4.926838   6.033419   1.783161
    27  H    7.794168   5.335800   6.163685   7.041023   1.785338
    28  H    6.135271   4.370504   3.578586   5.240748   5.402121
    29  H    5.289833   4.585877   3.731288   5.101180   6.490314
    30  H    6.615740   4.681880   4.832632   6.063452   3.800849
    31  H    5.830068   4.866107   4.939385   5.931272   5.210417
    32  H    7.444722   6.650104   6.091862   7.453067   6.833929
    33  H    8.081741   6.502430   6.001175   7.554383   5.784760
    34  H    4.679314   2.189747   2.442261   3.595080   4.128937
    35  H    9.467036   8.710752   7.346978   8.972684   9.720763
    36  H   10.813343  10.012151   8.797352  10.433879  10.340536
    37  H    7.518632   6.577135   5.362114   6.996604   7.759536
    38  H    5.440843   4.073563   5.035096   5.457922   4.035878
    39  H   10.960495   9.999533   9.130618  10.725514   9.434012
    40  H    9.765729   8.688039   8.040402   9.567373   7.916678
                   26         27         28         29         30
    26  H    0.000000
    27  H    1.805414   0.000000
    28  H    3.626476   4.715814   0.000000
    29  H    4.821318   5.494687   1.758565   0.000000
    30  H    2.363003   2.520059   2.507171   3.064746   0.000000
    31  H    3.941246   3.758823   3.069439   2.524634   1.750080
    32  H    5.317663   5.435702   3.060956   2.488561   3.085102
    33  H    4.237791   4.624500   2.494705   3.058700   2.514271
    34  H    2.722795   3.758846   2.491668   3.035996   2.559333
    35  H    7.986453   8.874538   4.710082   4.715185   6.552467
    36  H    8.701078   9.353556   5.781398   5.787510   7.149940
    37  H    5.995499   6.888874   2.545076   2.545351   4.485101
    38  H    3.506618   2.878230   4.582490   4.446935   2.751324
    39  H    7.977629   8.223954   5.722748   5.727712   6.256536
    40  H    6.509647   6.595313   4.584320   4.586369   4.655373
                   31         32         33         34         35
    31  H    0.000000
    32  H    2.543793   0.000000
    33  H    3.090601   1.793697   0.000000
    34  H    3.076065   4.698214   4.359965   0.000000
    35  H    6.580649   4.456155   4.453705   7.146001   0.000000
    36  H    7.180988   4.753886   4.747183   8.244659   1.733244
    37  H    4.506888   2.853031   2.855878   4.938189   2.241742
    38  H    2.486584   5.002099   5.121906   3.006077   8.846823
    39  H    6.286168   3.820511   3.809453   7.985017   3.512276
    40  H    4.680577   2.375602   2.364234   6.604300   4.074076
                   36         37         38         39         40
    36  H    0.000000
    37  H    3.455051   0.000000
    38  H    9.551853   6.663950   0.000000
    39  H    2.291405   4.038053   8.629645   0.000000
    40  H    3.512466   3.579009   6.963970   1.731663   0.000000
 Stoichiometry    C9H22N5O3S(1+)
 Framework group  C1[X(C9H22N5O3S)]
 Deg. of freedom   114
 Full point group                 C1      NOp   1
 Largest Abelian subgroup         C1      NOp   1
 Largest concise Abelian subgroup C1      NOp   1
                         Standard orientation:                         
 ---------------------------------------------------------------------
 Center     Atomic      Atomic             Coordinates (Angstroms)
 Number     Number       Type             X           Y           Z
 ---------------------------------------------------------------------
      1          6           0        1.101393    1.625705   -0.658421
      2          6           0       -5.240233   -0.378430    0.195353
      3          6           0        1.597317    4.007729   -0.258011
      4          6           0        2.061934    2.377767    1.540699
      5          6           0        1.928101   -2.945029    0.515085
      6          6           0       -1.523056    0.115594    0.125044
      7          6           0       -0.307503   -0.478122   -0.591664
      8          6           0       -2.818453   -0.554070   -0.326943
      9          6           0        1.005407    0.170828   -0.124995
     10          7           0       -6.213675    0.208180    0.891962
     11          7           0       -3.968718    0.015922    0.377398
     12          7           0        2.157277   -0.540075   -0.745731
     13          7           0        1.599469    2.618736    0.180965
     14          7           0       -5.562456   -1.343944   -0.664755
     15          8           0        0.767226    1.888231   -1.822758
     16          8           0        3.450078   -0.963610    1.378565
     17          8           0        4.081406   -2.121975   -0.760615
     18         16           0        3.061905   -1.622463    0.145102
     19          1           0        0.976079    4.590124    0.429052
     20          1           0        1.203824    4.122750   -1.270787
     21          1           0        2.623856    4.385157   -0.232730
     22          1           0        2.681616    1.481909    1.575484
     23          1           0        1.189836    2.248968    2.187784
     24          1           0        2.659029    3.223804    1.893531
     25          1           0        2.491607   -3.734618    1.017423
     26          1           0        1.148020   -2.573713    1.180938
     27          1           0        1.512465   -3.327123   -0.418773
     28          1           0       -1.411821   -0.005111    1.209629
     29          1           0       -1.591125    1.193281   -0.064835
     30          1           0       -0.280646   -1.556475   -0.402704
     31          1           0       -0.431177   -0.365846   -1.676487
     32          1           0       -2.959869   -0.398109   -1.401606
     33          1           0       -2.776505   -1.626070   -0.107064
     34          1           0        1.063528    0.139124    0.964164
     35          1           0       -6.012460    0.943582    1.554552
     36          1           0       -7.176101   -0.073869    0.770417
     37          1           0       -3.834859    0.758129    1.055484
     38          1           0        2.014650   -0.811653   -1.724310
     39          1           0       -6.525096   -1.625151   -0.785298
     40          1           0       -4.857735   -1.814420   -1.212780
 ---------------------------------------------------------------------
 Rotational constants (GHZ):      0.4688398      0.1632397      0.1336879
 Standard basis: 6-31G(d) (6D, 7F)
 There are   318 symmetry adapted basis functions of A   symmetry.
 Integral buffers will be    131072 words long.
 Raffenetti 2 integral format.
 Two-electron integral symmetry is turned on.
   318 basis functions,   616 primitive gaussians,   318 cartesian basis functions
    75 alpha electrons       75 beta electrons
       nuclear repulsion energy      1586.0333537010 Hartrees.
 NAtoms=   40 NActive=   40 NUniq=   40 SFac= 1.00D+00 NAtFMM=   60 NAOKFM=F Big=F
 One-electron integrals computed using PRISM.
 NBasis=   318 RedAO= T  NBF=   318
 NBsUse=   318 1.00D-06 NBFU=   318
 Harris functional with IExCor=  402 diagonalized for initial guess.
 ExpMin= 1.17D-01 ExpMax= 2.19D+04 ExpMxC= 3.30D+03 IAcc=3 IRadAn=         5 AccDes= 0.00D+00
 HarFok:  IExCor=  402 AccDes= 0.00D+00 IRadAn=         5 IDoV= 1
 ScaDFX=  1.000000  1.000000  1.000000  1.000000
 FoFCou: FMM=F IPFlag=           0 FMFlag=      100000 FMFlg1=           0
         NFxFlg=           0 DoJE=T BraDBF=F KetDBF=T FulRan=T
         Omega=  0.000000  0.000000  1.000000  0.000000  0.000000 ICntrl=     500 IOpCl=  0
         NMat0=    1 NMatS0=    1 NMatT0=    0 NMatD0=    1 NMtDS0=    0 NMtDT0=    0
         I1Cent=           4 NGrid=           0.
 Petite list used in FoFCou.
 Initial guess orbital symmetries:
       Occupied  (A) (A) (A) (A) (A) (A) (A) (A) (A) (A) (A) (A)
                 (A) (A) (A) (A) (A) (A) (A) (A) (A) (A) (A) (A)
                 (A) (A) (A) (A) (A) (A) (A) (A) (A) (A) (A) (A)
                 (A) (A) (A) (A) (A) (A) (A) (A) (A) (A) (A) (A)
                 (A) (A) (A) (A) (A) (A) (A) (A) (A) (A) (A) (A)
                 (A) (A) (A) (A) (A) (A) (A) (A) (A) (A) (A) (A)
                 (A) (A) (A)
       Virtual   (A) (A) (A) (A) (A) (A) (A) (A) (A) (A) (A) (A)
                 (A) (A) (A) (A) (A) (A) (A) (A) (A) (A) (A) (A)
                 (A) (A) (A) (A) (A) (A) (A) (A) (A) (A) (A) (A)
                 (A) (A) (A) (A) (A) (A) (A) (A) (A) (A) (A) (A)
                 (A) (A) (A) (A) (A) (A) (A) (A) (A) (A) (A) (A)
                 (A) (A) (A) (A) (A) (A) (A) (A) (A) (A) (A) (A)
                 (A) (A) (A) (A) (A) (A) (A) (A) (A) (A) (A) (A)
                 (A) (A) (A) (A) (A) (A) (A) (A) (A) (A) (A) (A)
                 (A) (A) (A) (A) (A) (A) (A) (A) (A) (A) (A) (A)
                 (A) (A) (A) (A) (A) (A) (A) (A) (A) (A) (A) (A)
                 (A) (A) (A) (A) (A) (A) (A) (A) (A) (A) (A) (A)
                 (A) (A) (A) (A) (A) (A) (A) (A) (A) (A) (A) (A)
                 (A) (A) (A) (A) (A) (A) (A) (A) (A) (A) (A) (A)
                 (A) (A) (A) (A) (A) (A) (A) (A) (A) (A) (A) (A)
                 (A) (A) (A) (A) (A) (A) (A) (A) (A) (A) (A) (A)
                 (A) (A) (A) (A) (A) (A) (A) (A) (A) (A) (A) (A)
                 (A) (A) (A) (A) (A) (A) (A) (A) (A) (A) (A) (A)
                 (A) (A) (A) (A) (A) (A) (A) (A) (A) (A) (A) (A)
                 (A) (A) (A) (A) (A) (A) (A) (A) (A) (A) (A) (A)
                 (A) (A) (A) (A) (A) (A) (A) (A) (A) (A) (A) (A)
                 (A) (A) (A)
 The electronic state of the initial guess is 1-A.
 Requested convergence on RMS density matrix=1.00D-08 within 128 cycles.
 Requested convergence on MAX density matrix=1.00D-06.
 Requested convergence on             energy=1.00D-06.
 No special actions if energy rises.
 Integral accuracy reduced to 1.0D-05 until final iterations.
 Initial convergence to 1.0D-05 achieved.  Increase integral accuracy.
 SCF Done:  E(RB3LYP) =  -1253.54900292     A.U. after   15 cycles
             Convg  =    0.4454D-08             -V/T =  2.0077
 Calling FoFJK, ICntrl=      2127 FMM=F ISym2X=0 I1Cent= 0 IOpClX= 0 NMat=1 NMatS=1 NMatT=0.
 ***** Axes restored to original set *****
 -------------------------------------------------------------------
 Center     Atomic                   Forces (Hartrees/Bohr)
 Number     Number              X              Y              Z
 -------------------------------------------------------------------
      1        6           0.013083668   -0.025776421    0.016338943
      2        6          -0.004652422   -0.012892854   -0.000642098
      3        6           0.001523403   -0.001891695   -0.001092995
      4        6           0.000189926    0.006286387   -0.003430825
      5        6          -0.008810366    0.007427261   -0.001872240
      6        6           0.001431392    0.000386516    0.003355537
      7        6           0.002470666    0.005244861    0.005125621
      8        6          -0.001025743   -0.003488996    0.000888002
      9        6           0.015460906   -0.003910386   -0.014770482
     10        7           0.000570223    0.003228201    0.007547079
     11        7           0.005042153    0.015607185    0.007186087
     12        7           0.002085718    0.003175654    0.012488247
     13        7           0.008978898    0.019180264   -0.019309319
     14        7          -0.000140218   -0.000555665   -0.005621781
     15        8          -0.016118028    0.010492622    0.001386122
     16        8          -0.007277005    0.001063825    0.015906299
     17        8           0.002456303    0.002410547   -0.009287297
     18       16           0.008265123   -0.011517758   -0.012293544
     19        1           0.000676777   -0.002768900    0.003054947
     20        1          -0.004833572    0.003165979   -0.003044319
     21        1           0.001640399   -0.002240495    0.002225852
     22        1          -0.003624643   -0.001133024    0.000130232
     23        1          -0.007507465   -0.001581914    0.005434945
     24        1           0.001753160    0.001890939   -0.000570238
     25        1          -0.000749190    0.000565509    0.000031838
     26        1          -0.000202930    0.001547115    0.000145004
     27        1          -0.000389783    0.000380349   -0.000404131
     28        1          -0.001805504    0.001293595    0.000014328
     29        1           0.001805405   -0.000974078   -0.001561981
     30        1          -0.003181707   -0.001437720    0.000298824
     31        1          -0.000264329   -0.005902808    0.001954485
     32        1           0.000250976    0.000157862   -0.002682849
     33        1           0.000325732    0.000888445   -0.002659460
     34        1          -0.002767003   -0.002809901   -0.005706650
     35        1           0.000869511    0.002234679    0.001599304
     36        1          -0.000446588   -0.000836242    0.003444138
     37        1          -0.000743976   -0.003491046   -0.005072427
     38        1          -0.005465062   -0.004864701    0.004634422
     39        1           0.000387394    0.000279250   -0.002482131
     40        1           0.000737798    0.001167561   -0.000685489
 -------------------------------------------------------------------
 Cartesian Forces:  Max     0.025776421 RMS     0.006482169

 GradGradGradGradGradGradGradGradGradGradGradGradGradGradGradGradGradGrad
 Berny optimization.
 Internal  Forces:  Max     0.025026028 RMS     0.004795221
 Search for a local minimum.
 Step number   1 out of a maximum of  206
 All quantities printed in internal units (Hartrees-Bohrs-Radians)
 Mixed Optimization -- RFO/linear search
 Second derivative matrix not updated -- first step.
 ITU=  0
     Eigenvalues ---    0.00230   0.00275   0.00357   0.00413   0.00513
     Eigenvalues ---    0.00623   0.00842   0.00861   0.00942   0.00947
     Eigenvalues ---    0.01182   0.01447   0.01714   0.01739   0.01792
     Eigenvalues ---    0.02437   0.02531   0.02578   0.02578   0.02583
     Eigenvalues ---    0.02583   0.03532   0.03657   0.04499   0.04768
     Eigenvalues ---    0.04790   0.04869   0.05184   0.05528   0.05999
     Eigenvalues ---    0.06243   0.06297   0.07348   0.07525   0.07656
     Eigenvalues ---    0.07745   0.08149   0.08216   0.08405   0.08863
     Eigenvalues ---    0.09133   0.12061   0.12119   0.12602   0.12972
     Eigenvalues ---    0.13739   0.16000   0.16000   0.16000   0.16000
     Eigenvalues ---    0.16000   0.16000   0.16000   0.16000   0.16000
     Eigenvalues ---    0.16000   0.16000   0.16000   0.16000   0.16000
     Eigenvalues ---    0.16860   0.17029   0.18317   0.21861   0.21878
     Eigenvalues ---    0.22000   0.22034   0.22536   0.24937   0.24964
     Eigenvalues ---    0.24992   0.25000   0.25000   0.25000   0.25000
     Eigenvalues ---    0.27435   0.27682   0.28778   0.29338   0.29731
     Eigenvalues ---    0.33545   0.33948   0.34023   0.34083   0.34227
     Eigenvalues ---    0.34228   0.34231   0.34337   0.34352   0.34357
     Eigenvalues ---    0.34405   0.34514   0.34537   0.34668   0.34678
     Eigenvalues ---    0.34725   0.34830   0.36434   0.37379   0.37431
     Eigenvalues ---    0.39982   0.43467   0.45277   0.45932   0.45954
     Eigenvalues ---    0.45957   0.46121   0.46905   0.56394   0.58796
     Eigenvalues ---    0.58895   0.87255   0.94913   0.95372
 RFO step:  Lambda=-1.92982889D-02 EMin= 2.30000000D-03
 Linear search not attempted -- first point.
 Iteration  1 RMS(Cart)=  0.17092174 RMS(Int)=  0.00671634
 Iteration  2 RMS(Cart)=  0.01536909 RMS(Int)=  0.00042915
 Iteration  3 RMS(Cart)=  0.00012450 RMS(Int)=  0.00042659
 Iteration  4 RMS(Cart)=  0.00000008 RMS(Int)=  0.00042659
 Variable       Old X    -DE/DX   Delta X   Delta X   Delta X     New X
                                 (Linear)    (Quad)   (Total)
    R1        2.93390  -0.00602   0.00000  -0.02049  -0.02049   2.91341
    R2        2.63124  -0.02503   0.00000  -0.05125  -0.05125   2.58000
    R3        2.34225  -0.01528   0.00000  -0.01714  -0.01714   2.32511
    R4        2.51906   0.01345   0.00000   0.02214   0.02214   2.54120
    R5        2.53914  -0.00716   0.00000  -0.01228  -0.01228   2.52686
    R6        2.51825   0.00733   0.00000   0.01205   0.01205   2.53030
    R7        2.75278   0.00205   0.00000   0.00521   0.00521   2.75799
    R8        2.06765   0.00258   0.00000   0.00713   0.00713   2.07478
    R9        2.06472  -0.00296   0.00000  -0.00812  -0.00812   2.05660
   R10        2.06739   0.00130   0.00000   0.00358   0.00358   2.07098
   R11        2.75201   0.00855   0.00000   0.02172   0.02172   2.77373
   R12        2.05952   0.00208   0.00000   0.00566   0.00566   2.06518
   R13        2.06652   0.00404   0.00000   0.01113   0.01113   2.07765
   R14        2.06732  -0.00215   0.00000  -0.00591  -0.00591   2.06141
   R15        3.36540   0.01229   0.00000   0.04150   0.04150   3.40690
   R16        2.06433   0.00069   0.00000   0.00188   0.00188   2.06622
   R17        2.06124   0.00073   0.00000   0.00200   0.00200   2.06324
   R18        2.06217   0.00015   0.00000   0.00040   0.00040   2.06257
   R19        2.89303   0.00389   0.00000   0.01243   0.01243   2.90546
   R20        2.88503   0.00252   0.00000   0.00796   0.00796   2.89299
   R21        2.07291   0.00163   0.00000   0.00454   0.00454   2.07745
   R22        2.07190   0.00076   0.00000   0.00212   0.00212   2.07402
   R23        2.90468   0.00096   0.00000   0.00313   0.00313   2.90781
   R24        2.06946   0.00088   0.00000   0.00244   0.00244   2.07190
   R25        2.07418  -0.00109   0.00000  -0.00303  -0.00303   2.07115
   R26        2.76708   0.00686   0.00000   0.01788   0.01788   2.78495
   R27        2.06942   0.00138   0.00000   0.00382   0.00382   2.07324
   R28        2.06948   0.00173   0.00000   0.00478   0.00478   2.07426
   R29        2.81404  -0.00686   0.00000  -0.01934  -0.01934   2.79471
   R30        2.06201  -0.00087   0.00000  -0.00238  -0.00238   2.05963
   R31        1.90884  -0.00030   0.00000  -0.00063  -0.00063   1.90821
   R32        1.90908  -0.00024   0.00000  -0.00050  -0.00050   1.90858
   R33        1.91655  -0.00208   0.00000  -0.00441  -0.00441   1.91213
   R34        3.15278   0.00903   0.00000   0.02155   0.02155   3.17433
   R35        1.93797  -0.00810   0.00000  -0.01784  -0.01784   1.92014
   R36        1.90880  -0.00011   0.00000  -0.00022  -0.00022   1.90857
   R37        1.90695   0.00029   0.00000   0.00059   0.00059   1.90754
   R38        2.74251   0.01446   0.00000   0.01486   0.01486   2.75738
   R39        2.74448   0.00790   0.00000   0.00816   0.00816   2.75263
    A1        2.07523  -0.00387   0.00000  -0.01421  -0.01428   2.06095
    A2        2.09968  -0.01075   0.00000  -0.03979  -0.03986   2.05982
    A3        2.10794   0.01463   0.00000   0.05452   0.05446   2.16239
    A4        2.08413   0.00443   0.00000   0.01647   0.01647   2.10060
    A5        2.07094   0.00510   0.00000   0.01893   0.01893   2.08987
    A6        2.12811  -0.00953   0.00000  -0.03540  -0.03540   2.09271
    A7        1.89562   0.00510   0.00000   0.03051   0.03034   1.92597
    A8        1.96085  -0.01026   0.00000  -0.05978  -0.05946   1.90140
    A9        1.89716   0.00545   0.00000   0.03083   0.03063   1.92779
   A10        1.89816   0.00213   0.00000   0.01081   0.01117   1.90932
   A11        1.91199  -0.00365   0.00000  -0.01494  -0.01560   1.89639
   A12        1.89973   0.00122   0.00000   0.00275   0.00304   1.90277
   A13        1.92450   0.00362   0.00000   0.02271   0.02164   1.94614
   A14        1.89518   0.01210   0.00000   0.07214   0.07141   1.96659
   A15        1.92463  -0.00578   0.00000  -0.03946  -0.03906   1.88557
   A16        1.91532  -0.00426   0.00000  -0.00928  -0.01118   1.90414
   A17        1.89132  -0.00118   0.00000  -0.01564  -0.01559   1.87573
   A18        1.91295  -0.00467   0.00000  -0.03135  -0.03064   1.88231
   A19        1.87959   0.00039   0.00000   0.00165   0.00164   1.88123
   A20        1.90638   0.00190   0.00000   0.01127   0.01125   1.91764
   A21        1.90152   0.00024   0.00000   0.00124   0.00123   1.90275
   A22        1.91161  -0.00101   0.00000  -0.00532  -0.00534   1.90628
   A23        1.91443  -0.00056   0.00000  -0.00454  -0.00454   1.90989
   A24        1.94895  -0.00090   0.00000  -0.00398  -0.00400   1.94495
   A25        1.94443   0.00228   0.00000   0.00744   0.00740   1.95182
   A26        1.91739  -0.00004   0.00000   0.00531   0.00529   1.92268
   A27        1.92774  -0.00210   0.00000  -0.01833  -0.01832   1.90942
   A28        1.90763  -0.00095   0.00000  -0.00030  -0.00035   1.90728
   A29        1.90413  -0.00058   0.00000  -0.00661  -0.00663   1.89750
   A30        1.86052   0.00134   0.00000   0.01273   0.01278   1.87330
   A31        1.95231   0.00585   0.00000   0.02062   0.02044   1.97275
   A32        1.89713  -0.00011   0.00000   0.01990   0.01976   1.91689
   A33        1.91088  -0.00104   0.00000  -0.00966  -0.00969   1.90119
   A34        1.92026  -0.00228   0.00000  -0.00529  -0.00576   1.91451
   A35        1.93171  -0.00553   0.00000  -0.05078  -0.05084   1.88087
   A36        1.84837   0.00301   0.00000   0.02655   0.02636   1.87473
   A37        1.93199  -0.00100   0.00000  -0.00118  -0.00119   1.93080
   A38        1.91520  -0.00040   0.00000  -0.00580  -0.00581   1.90940
   A39        1.91498   0.00055   0.00000   0.00341   0.00338   1.91836
   A40        1.89142   0.00116   0.00000   0.00835   0.00836   1.89978
   A41        1.89079   0.00099   0.00000   0.01039   0.01037   1.90116
   A42        1.91919  -0.00130   0.00000  -0.01512  -0.01516   1.90404
   A43        1.92211  -0.00940   0.00000  -0.03619  -0.03667   1.88543
   A44        1.83001   0.00070   0.00000   0.00906   0.00932   1.83933
   A45        1.94645   0.00324   0.00000   0.00194   0.00168   1.94813
   A46        1.90985   0.01215   0.00000   0.07482   0.07510   1.98495
   A47        1.91376   0.00205   0.00000   0.02120   0.02201   1.93577
   A48        1.94014  -0.00872   0.00000  -0.07047  -0.07108   1.86906
   A49        2.11496   0.00138   0.00000   0.00769   0.00769   2.12265
   A50        2.10593   0.00271   0.00000   0.01512   0.01512   2.12105
   A51        2.06230  -0.00409   0.00000  -0.02281  -0.02281   2.03949
   A52        2.16997   0.00200   0.00000   0.00836   0.00836   2.17833
   A53        2.01559   0.00459   0.00000   0.02702   0.02701   2.04259
   A54        2.09763  -0.00659   0.00000  -0.03537  -0.03538   2.06225
   A55        2.10199   0.00756   0.00000   0.04060   0.03895   2.14094
   A56        2.00050  -0.00097   0.00000   0.01553   0.01387   2.01438
   A57        1.99666  -0.00360   0.00000   0.00192  -0.00004   1.99662
   A58        2.09190  -0.00469   0.00000  -0.01684  -0.01701   2.07489
   A59        2.16331   0.00114   0.00000   0.00483   0.00467   2.16798
   A60        2.02596   0.00361   0.00000   0.01399   0.01383   2.03979
   A61        2.10502   0.00226   0.00000   0.01260   0.01259   2.11762
   A62        2.11701   0.00030   0.00000   0.00167   0.00166   2.11867
   A63        2.06116  -0.00256   0.00000  -0.01427  -0.01427   2.04688
   A64        1.82092   0.01864   0.00000   0.06429   0.06486   1.88578
   A65        1.90801  -0.00870   0.00000  -0.04433  -0.04405   1.86396
   A66        1.89764  -0.00721   0.00000  -0.02845  -0.02900   1.86864
   A67        1.88001  -0.00681   0.00000  -0.03021  -0.02921   1.85080
   A68        1.84499  -0.00293   0.00000   0.00167   0.00215   1.84714
   A69        2.09258   0.00933   0.00000   0.04450   0.04384   2.13641
    D1        2.43157  -0.00227   0.00000   0.05848   0.05903   2.49060
    D2       -1.79869   0.00775   0.00000   0.13347   0.13371  -1.66499
    D3        0.30271  -0.00056   0.00000   0.05533   0.05526   0.35798
    D4       -0.73804  -0.00152   0.00000   0.08014   0.08020  -0.65785
    D5        1.31488   0.00850   0.00000   0.15512   0.15488   1.46976
    D6       -2.86690   0.00019   0.00000   0.07698   0.07643  -2.79047
    D7       -3.05429  -0.00119   0.00000  -0.02749  -0.02702  -3.08131
    D8        0.01639   0.00003   0.00000   0.00770   0.00791   0.02429
    D9        0.11546  -0.00152   0.00000  -0.04768  -0.04789   0.06757
   D10       -3.09705  -0.00030   0.00000  -0.01249  -0.01297  -3.11001
   D11       -0.00049   0.00004   0.00000   0.00089   0.00087   0.00038
   D12       -3.14094  -0.00013   0.00000  -0.00283  -0.00285   3.13939
   D13        3.14085   0.00014   0.00000   0.00303   0.00305  -3.13929
   D14        0.00039  -0.00003   0.00000  -0.00068  -0.00066  -0.00027
   D15        3.13985   0.00011   0.00000   0.00330   0.00336  -3.13997
   D16       -0.00027  -0.00013   0.00000  -0.00395  -0.00404  -0.00431
   D17       -0.00148   0.00001   0.00000   0.00108   0.00117  -0.00031
   D18       -3.14159  -0.00023   0.00000  -0.00618  -0.00624   3.13536
   D19       -0.00054   0.00004   0.00000   0.00088   0.00089   0.00035
   D20        3.14105  -0.00023   0.00000  -0.00521  -0.00520   3.13585
   D21        3.14079   0.00014   0.00000   0.00308   0.00307  -3.13932
   D22       -0.00081  -0.00014   0.00000  -0.00301  -0.00302  -0.00382
   D23        2.07374  -0.00010   0.00000   0.01098   0.01050   2.08425
   D24       -1.00236  -0.00116   0.00000  -0.02127  -0.02162  -1.02398
   D25       -0.02677   0.00028   0.00000   0.01461   0.01457  -0.01220
   D26       -3.10288  -0.00079   0.00000  -0.01764  -0.01755  -3.12043
   D27       -2.13029   0.00158   0.00000   0.02828   0.02859  -2.10170
   D28        1.07678   0.00051   0.00000  -0.00397  -0.00353   1.07326
   D29        0.77301   0.00161   0.00000  -0.00464  -0.00405   0.76896
   D30       -2.43705   0.00249   0.00000   0.02820   0.02909  -2.40796
   D31       -1.32602  -0.00291   0.00000  -0.05199  -0.05315  -1.37917
   D32        1.74711  -0.00203   0.00000  -0.01916  -0.02001   1.72710
   D33        2.86098  -0.00123   0.00000  -0.03468  -0.03457   2.82641
   D34       -0.34908  -0.00035   0.00000  -0.00184  -0.00143  -0.35051
   D35        3.04715   0.00167   0.00000   0.02092   0.02097   3.06812
   D36       -1.22915  -0.00060   0.00000  -0.00102  -0.00146  -1.23061
   D37        1.08471  -0.00080   0.00000   0.00050   0.00087   1.08559
   D38       -1.16135   0.00174   0.00000   0.02178   0.02183  -1.13951
   D39        0.84554  -0.00053   0.00000  -0.00016  -0.00060   0.84495
   D40       -3.12378  -0.00073   0.00000   0.00136   0.00174  -3.12204
   D41        0.97179   0.00197   0.00000   0.02472   0.02478   0.99657
   D42        2.97868  -0.00030   0.00000   0.00278   0.00235   2.98103
   D43       -0.99064  -0.00050   0.00000   0.00431   0.00469  -0.98596
   D44       -3.12305  -0.00212   0.00000  -0.04588  -0.04602   3.11411
   D45       -0.99924  -0.00128   0.00000  -0.02568  -0.02557  -1.02481
   D46        1.01230   0.00167   0.00000   0.01167   0.01168   1.02398
   D47       -1.00654  -0.00185   0.00000  -0.03775  -0.03786  -1.04440
   D48        1.11726  -0.00100   0.00000  -0.01755  -0.01741   1.09985
   D49        3.12881   0.00195   0.00000   0.01980   0.01984  -3.13453
   D50        1.04098  -0.00149   0.00000  -0.02993  -0.03008   1.01090
   D51       -3.11840  -0.00065   0.00000  -0.00973  -0.00963  -3.12803
   D52       -1.10685   0.00231   0.00000   0.02762   0.02762  -1.07923
   D53        3.13176   0.00102   0.00000   0.01908   0.01908  -3.13234
   D54       -1.06461   0.00158   0.00000   0.02499   0.02498  -1.03962
   D55        1.04587   0.00007   0.00000   0.00478   0.00479   1.05066
   D56        1.00958   0.00023   0.00000   0.00777   0.00777   1.01734
   D57        3.09639   0.00079   0.00000   0.01368   0.01367   3.11006
   D58       -1.07631  -0.00072   0.00000  -0.00654  -0.00653  -1.08285
   D59       -1.01858  -0.00052   0.00000  -0.00361  -0.00361  -1.02219
   D60        1.06823   0.00004   0.00000   0.00230   0.00229   1.07053
   D61       -3.10447  -0.00147   0.00000  -0.01791  -0.01791  -3.12238
   D62       -1.24173   0.00288   0.00000   0.06647   0.06633  -1.17540
   D63        3.03861   0.00039   0.00000   0.03339   0.03402   3.07264
   D64        0.90639   0.00207   0.00000   0.05905   0.05841   0.96480
   D65        2.93102   0.00069   0.00000   0.03119   0.03118   2.96220
   D66        0.92818  -0.00180   0.00000  -0.00189  -0.00112   0.92706
   D67       -1.20405  -0.00012   0.00000   0.02377   0.02327  -1.18078
   D68        0.89426   0.00169   0.00000   0.03223   0.03210   0.92636
   D69       -1.10859  -0.00079   0.00000  -0.00085  -0.00020  -1.10879
   D70        3.04237   0.00089   0.00000   0.02481   0.02419   3.06656
   D71       -3.13382  -0.00059   0.00000  -0.01185  -0.01181   3.13755
   D72        0.00623  -0.00033   0.00000  -0.00422  -0.00428   0.00195
   D73        1.04831  -0.00023   0.00000  -0.00929  -0.00923   1.03908
   D74       -2.09482   0.00003   0.00000  -0.00166  -0.00170  -2.09653
   D75       -1.03344   0.00011   0.00000  -0.00181  -0.00176  -1.03520
   D76        2.10661   0.00037   0.00000   0.00582   0.00577   2.11238
   D77        2.42430  -0.00038   0.00000  -0.06490  -0.06537   2.35892
   D78       -1.36696   0.00274   0.00000   0.02539   0.02555  -1.34140
   D79       -1.79763  -0.00503   0.00000  -0.06568  -0.06475  -1.86238
   D80        0.69430  -0.00191   0.00000   0.02462   0.02617   0.72047
   D81        0.31871  -0.00001   0.00000  -0.03486  -0.03625   0.28246
   D82        2.81064   0.00311   0.00000   0.05544   0.05468   2.86532
   D83        1.13859   0.00224   0.00000   0.06812   0.06777   1.20636
   D84       -0.88792   0.00618   0.00000   0.10100   0.10109  -0.78683
   D85        3.13853   0.00093   0.00000   0.06444   0.06462  -3.08004
   D86       -1.35466  -0.00177   0.00000  -0.02666  -0.02696  -1.38162
   D87        2.90201   0.00217   0.00000   0.00622   0.00636   2.90838
   D88        0.64527  -0.00308   0.00000  -0.03034  -0.03011   0.61516
         Item               Value     Threshold  Converged?
 Maximum Force            0.025026     0.000450     NO 
 RMS     Force            0.004795     0.000300     NO 
 Maximum Displacement     0.814356     0.001800     NO 
 RMS     Displacement     0.181176     0.001200     NO 
 Predicted change in Energy=-1.151004D-02
 GradGradGradGradGradGradGradGradGradGradGradGradGradGradGradGradGradGrad

                          Input orientation:                          
 ---------------------------------------------------------------------
 Center     Atomic      Atomic             Coordinates (Angstroms)
 Number     Number       Type             X           Y           Z
 ---------------------------------------------------------------------
      1          6           0       -0.122360    2.567108   -1.530100
      2          6           0        0.876158    8.704249    0.726806
      3          6           0        0.437739    0.733533   -0.032374
      4          6           0       -1.963475    1.296621   -0.403929
      5          6           0       -3.673332    4.368395   -4.447720
      6          6           0       -0.422006    5.534013   -0.814814
      7          6           0       -0.605244    4.915866   -2.210608
      8          6           0        0.187714    6.936309   -0.888782
      9          6           0       -1.181078    3.489610   -2.166479
     10          7           0        0.997380    9.127474    1.997447
     11          7           0        0.363202    7.498048    0.462345
     12          7           0       -1.450295    2.914908   -3.502283
     13          7           0       -0.552736    1.568826   -0.704154
     14          7           0        1.273805    9.495376   -0.277615
     15          8           0        1.060124    2.770047   -1.802896
     16          8           0       -3.798394    2.162417   -3.027231
     17          8           0       -2.848815    2.059277   -5.397190
     18         16           0       -3.004105    2.728235   -4.112608
     19          1           0        0.335439    0.821435    1.057236
     20          1           0        1.433240    1.057944   -0.329265
     21          1           0        0.306070   -0.317584   -0.313169
     22          1           0       -2.579506    1.334241   -1.305820
     23          1           0       -2.378500    1.987091    0.344257
     24          1           0       -2.034000    0.285335   -0.001086
     25          1           0       -4.653651    4.240128   -4.914662
     26          1           0       -3.789968    4.919816   -3.512625
     27          1           0       -3.007843    4.889875   -5.137995
     28          1           0       -1.388430    5.585465   -0.293355
     29          1           0        0.238718    4.893767   -0.216414
     30          1           0       -1.253411    5.557335   -2.819288
     31          1           0        0.369751    4.867603   -2.708883
     32          1           0        1.167134    6.882380   -1.380189
     33          1           0       -0.468365    7.599205   -1.467544
     34          1           0       -2.119441    3.465910   -1.612570
     35          1           0        0.708525    8.553543    2.776436
     36          1           0        1.383996   10.034214    2.217465
     37          1           0        0.082002    6.934232    1.254111
     38          1           0       -0.741835    3.098922   -4.207029
     39          1           0        1.665987   10.409465   -0.102455
     40          1           0        1.198815    9.200849   -1.240203
 ---------------------------------------------------------------------
                    Distance matrix (angstroms):
                    1          2          3          4          5
     1  C    0.000000
     2  C    6.614768   0.000000
     3  C    2.432877   8.018783   0.000000
     4  C    2.504416   8.013427   2.494183   0.000000
     5  C    4.936248   8.140835   7.043324   5.358325   0.000000
     6  C    3.066586   3.756623   4.939230   4.527741   5.012763
     7  C    2.492576   5.017449   4.829537   4.267061   3.836347
     8  C    4.426890   2.491925   6.266609   6.055475   5.845332
     9  C    1.541711   6.308389   3.843298   2.920262   3.491082
    10  N    7.532318   1.344747   8.653995   8.709508   9.273864
    11  N    5.340391   1.337155   6.782991   6.679936   7.084989
    12  N    2.402890   7.537509   4.512576   3.532988   2.819285
    13  N    1.365275   7.416444   1.459467   1.467793   5.620497
    14  N    7.177667   1.338980   8.805059   8.815641   8.255294
    15  O    1.230395   6.453525   2.769387   3.642835   5.652912
    16  O    3.989787   8.873544   5.381050   3.316360   2.626741
    17  O    4.758764   9.774170   6.429641   5.128170   2.629324
    18  S    3.872953   8.613310   5.698548   4.109347   1.802855
    19  H    3.154561   7.908243   1.097926   2.765106   7.678262
    20  H    2.477795   7.738966   1.088306   3.405909   7.348322
    21  H    3.160050   9.099451   1.095914   2.786527   7.408681
    22  H    2.758228   8.389886   3.329607   1.092848   4.502675
    23  H    2.989950   7.473911   3.105554   1.099444   5.505474
    24  H    3.346451   8.937390   2.512240   1.090851   6.255505
    25  H    5.898038   9.073771   7.877512   6.020630   1.093395
    26  H    4.787169   7.353056   6.892794   5.111517   1.091821
    27  H    5.170896   8.001924   7.430652   6.034365   1.091466
    28  H    3.498993   3.986967   5.190785   4.328635   4.894975
    29  H    2.696200   3.976903   4.169057   4.221881   5.786545
    30  H    3.447136   5.197395   5.822023   4.948923   3.149823
    31  H    2.631346   5.174965   4.925328   4.848574   4.429365
    32  H    4.506311   2.800590   6.336951   6.477229   6.257793
    33  H    5.044367   2.800721   7.072354   6.564236   5.439797
    34  H    2.191569   6.471977   4.062274   2.488162   3.356655
    35  H    7.421188   2.061989   8.313561   8.361651   9.428922
    36  H    8.489466   2.061255   9.615605   9.717139  10.104591
    37  H    5.183181   2.010397   6.342733   6.222196   7.293623
    38  H    2.798665   7.640701   4.941073   4.382267   3.203618
    39  H    8.169390   2.054086   9.753829   9.813654   9.158831
    40  H    6.770234   2.054226   8.586823   8.554312   7.574866
                    6          7          8          9         10
     6  C    0.000000
     7  C    1.537506   0.000000
     8  C    1.530903   2.541298   0.000000
     9  C    2.565692   1.538746   3.922478   0.000000
    10  N    4.778748   6.165531   3.713096   7.339582   0.000000
    11  N    2.470853   3.840602   1.473733   5.036178   2.326747
    12  N    3.890961   2.527126   5.068050   1.478896   8.650671
    13  N    3.968885   3.670809   5.421460   2.494518   8.175247
    14  N    4.342437   5.314057   2.846391   6.757476   2.321135
    15  O    3.288241   2.746674   4.353670   2.381796   7.406985
    16  O    5.259510   4.294714   6.576631   3.058215   9.836608
    17  O    6.241904   4.831979   7.302856   3.907006  10.928554
    18  S    5.041337   3.762695   6.187783   2.773182   9.710557
    19  H    5.127054   5.322410   6.418761   4.450991   8.385252
    20  H    4.869588   4.751676   6.034863   4.015347   8.409570
    21  H    5.918017   5.640901   7.277658   4.487883   9.748126
    22  H    4.746996   4.188602   6.262156   2.709603   9.189133
    23  H    4.213309   4.271943   5.709694   3.161515   8.069366
    24  H    5.550612   5.325894   7.068201   3.960275   9.558599
    25  H    6.032389   4.915092   6.849520   4.491609  10.178289
    26  H    4.358737   3.440600   5.174239   3.265563   8.425199
    27  H    5.078520   3.787183   5.696954   3.758686   9.214857
    28  H    1.099337   2.176603   2.159525   2.818545   4.846204
    29  H    1.097522   2.165541   2.150967   2.791099   4.837460
    30  H    2.170184   1.096401   2.775836   2.169534   6.404131
    31  H    2.158352   1.096003   2.761422   2.144326   6.378869
    32  H    2.159423   2.774544   1.097111   4.200385   4.059272
    33  H    2.166385   2.787685   1.097651   4.229094   4.060810
    34  H    2.791908   2.180095   4.229717   1.089909   7.402710
    35  H    4.826255   6.311045   4.039865   7.324372   1.009782
    36  H    5.719105   7.054246   4.547183   8.284347   1.009979
    37  H    2.548546   4.068216   2.145500   5.016097   2.490136
    38  H    4.187969   2.702895   5.157554   2.123539   8.824049
    39  H    5.351374   6.307331   3.855699   7.762111   2.549535
    40  H    4.031588   4.749462   2.504788   6.256207   3.244740
                   11         12         13         14         15
    11  N    0.000000
    12  N    6.325520   0.000000
    13  N    6.111901   3.232194   0.000000
    14  N    2.316475   7.818041   8.145452   0.000000
    15  O    5.288762   3.034980   2.291611   6.899435   0.000000
    16  O    7.613473   2.511074   4.035262   9.330589   5.047119
    17  O    8.615766   2.505721   5.247581   9.924798   5.357606
    18  S    7.417551   1.679783   4.355572   8.877043   4.674877
    19  H    6.703120   5.325475   2.109489   8.826076   3.535903
    20  H    6.576212   4.672380   2.084620   8.439096   2.289564
    21  H    7.854220   4.868703   2.109255   9.860627   3.510178
    22  H    7.055384   2.932247   2.127165   9.083465   3.944050
    23  H    6.156421   4.064269   2.146516   8.372598   4.128853
    24  H    7.614760   4.417436   2.082257   9.789938   4.358201
    25  H    8.043324   3.743329   6.456139   9.179029   6.670191
    26  H    6.300514   3.081206   5.440249   7.552671   5.573873
    27  H    7.037777   3.000334   6.059362   7.947732   5.671412
    28  H    2.701346   4.175275   4.123169   4.730238   4.025010
    29  H    2.694158   4.191132   3.452466   4.716986   2.775216
    30  H    4.141125   2.736360   4.568692   5.324950   3.762243
    31  H    4.120191   2.784791   3.968860   5.305155   2.386874
    32  H    2.102448   5.205290   5.625729   2.838098   4.135385
    33  H    2.103855   5.200671   6.079091   2.836645   5.076367
    34  H    5.169809   2.079032   2.622730   7.046325   3.260380
    35  H    2.566776   8.710741   7.905160   3.245585   7.385305
    36  H    3.248786   9.562073   9.162401   2.554978   8.308810
    37  H    1.011858   6.412970   5.746762   3.213416   5.257609
    38  H    6.509721   1.016092   3.827151   7.772884   3.022427
    39  H    3.239228   8.799910   9.134641   1.009973   7.849795
    40  H    2.548813   7.186643   7.848761   1.009429   6.456862
                   16         17         18         19         20
    16  O    0.000000
    17  O    2.555200   0.000000
    18  S    1.459140   1.456630   0.000000
    19  H    5.964032   7.302831   6.443271   0.000000
    20  H    5.989063   6.709883   6.065772   1.784233   0.000000
    21  H    5.510278   6.438171   5.888125   1.782199   1.778440
    22  H    2.266014   4.163834   3.162525   3.787335   4.139098
    23  H    3.662481   5.761131   4.561176   3.038513   3.980743
    24  H    3.974176   5.738356   4.879906   2.649847   3.567405
    25  H    2.934407   2.871651   2.376996   8.499532   8.258475
    26  H    2.799808   3.552469   2.404285   7.395899   7.233929
    27  H    3.538266   2.846886   2.392514   8.130844   7.584906
    28  H    4.999926   6.373057   5.035957   5.243262   5.334937
    29  H    5.626655   6.663906   5.512329   4.267954   4.019099
    30  H    4.248017   4.628964   3.569512   6.323024   5.801968
    31  H    4.979238   5.047064   4.234412   5.527775   4.615960
    32  H    7.046082   7.451608   6.490167   6.585424   5.924466
    33  H    6.563565   7.197184   6.095301   7.277278   6.906509
    34  H    2.553281   4.102920   2.752633   4.488602   4.479588
    35  H    9.738653  11.028977   9.755858   7.929712   8.145832
    36  H   10.785601  11.810982  10.616148   9.344565   9.330685
    37  H    7.493836   8.751839   7.484394   6.121215   6.234074
    38  H    3.407569   2.633764   2.294383   5.836090   4.892197
    39  H   10.316374  10.869374   9.843393   9.749131   9.357166
    40  H    8.815050   9.201408   8.234682   8.731450   8.197052
                   21         22         23         24         25
    21  H    0.000000
    22  H    3.469932   0.000000
    23  H    3.598702   1.785881   0.000000
    24  H    2.436562   1.760713   1.770287   0.000000
    25  H    8.157531   5.076415   6.157005   6.829801   0.000000
    26  H    7.378645   4.380816   5.046647   6.073939   1.781470
    27  H    7.834450   5.245147   6.235168   6.966921   1.783462
    28  H    6.141474   4.529530   3.786169   5.347294   5.816191
    29  H    5.212684   4.668985   3.951323   5.142884   6.814401
    30  H    6.574746   4.677995   4.901070   6.028728   4.205622
    31  H    5.712238   4.811584   5.017160   5.840150   5.522115
    32  H    7.329354   6.695124   6.285625   7.461245   7.304487
    33  H    8.037902   6.613081   6.198956   7.621968   6.378294
    34  H    4.678287   2.202218   2.466412   3.566543   4.233845
    35  H    9.402367   8.921562   7.652679   9.143267  10.320440
    36  H   10.711011  10.188838   9.078627  10.566234  10.995083
    37  H    7.422627   6.707963   5.599652   7.089486   8.230332
    38  H    5.285145   3.861107   4.962766   5.222635   4.135868
    39  H   10.814959  10.091184   9.353813  10.779526  10.057628
    40  H    9.605048   8.727172   8.206461   9.564146   8.506572
                   26         27         28         29         30
    26  H    0.000000
    27  H    1.804008   0.000000
    28  H    4.071138   5.155277   0.000000
    29  H    5.205381   5.895942   1.769740   0.000000
    30  H    2.705784   2.983276   2.529696   3.072740   0.000000
    31  H    4.236978   4.160435   3.072671   2.496048   1.767081
    32  H    5.742107   5.960001   3.064981   2.484131   3.112200
    33  H    4.732285   5.221266   2.506071   3.063444   2.571525
    34  H    2.917998   3.904556   2.601388   3.090137   2.565198
    35  H    8.543576   9.480088   4.757134   4.750982   6.643688
    36  H    9.260718   9.992761   5.812223   5.801691   7.236522
    37  H    6.463110   7.388204   2.525073   2.520020   4.502417
    38  H    3.617868   3.034634   4.681648   4.484190   2.869030
    39  H    8.457715   8.812901   5.712871   5.698509   6.280703
    40  H    6.955509   7.174486   4.545478   4.529998   4.667131
                   31         32         33         34         35
    31  H    0.000000
    32  H    2.541766   0.000000
    33  H    3.115287   1.787828   0.000000
[...]
 04806,0.00005062,0.00004547,-0.00020027,-0.00005508,-0.00010963,-0.000
 00505,0.00000304,-0.00000776,0.00000242,-0.00001326,-0.00000158,-0.000
 00173,0.00001236,0.00000349,-0.00000595,-0.00000280,0.00000032,0.00000
 532,0.00000527,-0.00000736,0.00000690,0.00000691,0.00000448,0.00000108
 ,-0.00000177,0.00000510,-0.00000903,0.00000435,-0.00000419,-0.00000285
 ,-0.00000231,-0.00000380,-0.00000813,0.00000466,-0.00001776,0.00002643
 ,-0.00004827,-0.00000788,0.00000432,0.00000353,0.00001690,0.00001718,-
 0.00000470,0.00000546,0.00005200,0.00013055,0.00025251,0.00002704,0.00
 010496,-0.00002686,-0.00001523,0.00000329,-0.00000395,-0.00362620,-0.0
 0907389,-0.00598298,0.19344751,0.35059121,-0.00003628,-0.00004046,0.00
 000684,-0.01783536,-0.03255631,-0.00120522,0.00000903,-0.00000807,0.00
 000500,-0.00000839,-0.00000345,-0.00000006,0.00000066,-0.00000012,-0.0
 0000098,0.00004454,-0.00000789,-0.00041350,-0.00007636,-0.00013136,0.0
 0008069,0.00054879,-0.00091439,0.00080283,-0.00000097,0.00001067,-0.00
 004114,-0.03178717,-0.06683366,-0.09051442,-0.00017857,0.00082400,-0.0
 0575285,0.00000253,0.00000264,-0.00000758,0.00000687,0.00003067,-0.000
 00904,0.00064322,0.00073894,0.00178339,0.00002869,0.00003107,0.0000062
 4,0.00000447,0.00001288,0.00000367,0.00000179,0.00001886,0.00000404,-0
 .00001047,-0.00003706,-0.00000763,-0.00000006,0.00000072,-0.00000269,0
 .00000038,-0.00000361,0.00000073,-0.00000053,0.00000291,0.00000102,-0.
 00000100,-0.00000038,-0.00000002,0.00000127,0.00000050,-0.00000236,0.0
 0000142,0.00000086,0.00000154,0.00000025,-0.00000021,-0.00000062,-0.00
 000152,0.00000064,-0.00000040,-0.00000122,-0.00000107,-0.00000091,-0.0
 0001754,0.00000898,0.00000857,0.00002676,0.00000673,0.00000189,-0.0000
 0766,0.00000380,-0.00000226,0.00000532,0.00000562,0.00001456,-0.000022
 03,-0.00016190,-0.00014153,-0.00005455,0.00003934,0.00007745,-0.000002
 93,-0.00000162,0.00000037,0.01222254,0.02361145,0.01302097,0.03723220,
 0.07446993,0.08459158,0.00027385,-0.00009540,0.00007350,-0.00451364,-0
 .01250072,0.01113328,0.00006173,-0.00002831,0.00000314,0.00002089,-0.0
 0000495,-0.00000391,0.00000652,0.00000122,0.00001562,0.00175411,0.0002
 6661,0.00012211,-0.00062748,-0.00015576,-0.00010488,-0.00233747,0.0059
 2630,-0.00471803,-0.00005233,-0.00019775,-0.00002284,-0.00323786,0.002
 26349,0.00076894,-0.01042553,0.00817418,-0.02918024,0.00007708,0.00015
 076,0.00013777,-0.00010928,0.00002917,-0.00000019,0.00399178,-0.002615
 76,-0.00353007,-0.00028242,0.00007479,-0.00006599,0.00001386,0.0000513
 0,0.00009510,0.00002915,0.00007676,0.00007038,-0.00010990,-0.00008827,
 -0.00020446,0.00000258,0.00000839,-0.00000564,0.00000360,-0.00000345,0
 .00001239,-0.00000543,0.00001045,-0.00000237,-0.00001934,-0.00000177,-
 0.00001265,0.00000017,-0.00000958,-0.00000488,-0.00000975,-0.00000040,
 0.00000672,0.00000042,-0.00000418,0.00000148,-0.00000029,0.00000614,-0
 .00000912,0.00000023,-0.00000084,0.00000164,-0.00118204,-0.00004461,-0
 .00026923,0.00036368,-0.00008197,-0.00019548,0.00007949,0.00001952,0.0
 0010308,0.00002847,0.00010194,0.00033518,-0.00024339,0.00028858,0.0016
 1570,-0.00077093,-0.00063389,-0.00332262,-0.00005314,-0.00002879,-0.00
 002722,0.00197931,0.00019745,0.00033723,-0.00095875,0.00007893,-0.0001
 2252,0.01475826,-0.00052641,-0.00033241,-0.00007744,0.00192757,-0.0225
 4278,0.02944831,0.00004581,-0.00003771,0.00000582,-0.00009309,-0.00002
 761,-0.00002195,0.00003320,0.00000251,0.00001562,-0.00154567,0.0032196
 9,-0.00211106,0.00015337,-0.00105669,0.00011395,0.00046844,0.01238698,
 -0.00953525,-0.00007196,-0.00012385,-0.00014138,0.00101372,0.00244744,
 0.00088907,-0.00036156,-0.22192534,0.18298824,0.00015374,0.00003461,0.
 00013227,0.00012083,0.00019732,-0.00001615,-0.00076309,-0.00281145,-0.
 00415277,0.00031256,0.00030450,0.00032271,0.00008140,-0.00001892,0.000
 06495,0.00006383,0.00001766,0.00006853,-0.00027659,0.00000936,-0.00018
 276,-0.00001271,-0.00001288,-0.00000525,0.00001233,-0.00002854,-0.0000
 1567,0.00000450,0.00002328,0.00001478,-0.00000501,-0.00000240,-0.00001
 303,0.00001513,-0.00000006,-0.00000811,0.00001305,0.00001972,0.0000090
 5,0.00000050,-0.00000610,0.00001147,-0.00000672,0.00000490,-0.00000357
 ,-0.00000014,-0.00000137,-0.00000171,-0.00015637,0.00017944,0.00005507
 ,0.00142918,-0.00118500,0.00038110,0.00013786,0.00004256,0.00039651,-0
 .00006621,0.00010712,0.00010964,-0.00005232,-0.00060093,-0.00175833,-0
 .00059170,-0.00098095,-0.00226222,-0.00004363,-0.00002595,-0.00001297,
 0.00038445,-0.00131279,-0.00199542,-0.00024918,0.00016595,-0.00015160,
 -0.00059287,0.23382369,-0.00020720,-0.00026657,0.00007418,0.00290039,-
 0.00300373,0.01211476,0.00003871,-0.00002548,0.00003630,-0.00003929,-0
 .00000522,0.00000371,0.00002081,0.00000160,-0.00000032,0.00036696,0.00
 217652,0.00201939,0.00041132,-0.00012960,-0.00017487,-0.00211719,0.016
 56654,-0.01785626,-0.00009193,-0.00019544,0.00011119,-0.00054551,-0.00
 245433,-0.00181901,-0.02498017,0.18953381,-0.28629503,0.00014736,0.000
 14339,0.00008957,0.00004823,0.00015412,-0.00008738,-0.00195455,-0.0041
 2419,0.00117155,0.00014276,0.00020578,0.00003521,0.00006035,0.00000079
 ,-0.00001017,0.00005074,0.00004484,0.00002742,-0.00020548,-0.00002666,
 -0.00004268,0.00000056,0.00002014,-0.00001523,-0.00000020,-0.00001279,
 0.00001093,-0.00000713,0.00001140,-0.00000779,-0.00000304,-0.00000286,
 0.00001134,0.00000827,0.00001607,-0.00000794,0.00001228,0.00000276,-0.
 00000058,0.00000088,-0.00000278,0.00000606,-0.00000580,0.00000416,-0.0
 0000263,-0.00000144,-0.00000047,-0.00000363,-0.00020020,-0.00043370,0.
 00009293,-0.00004821,-0.00159251,0.00027554,0.00011313,0.00013498,0.00
 027441,-0.00002833,0.00006846,0.00006362,-0.00052098,-0.00007334,-0.00
 188084,0.00067396,-0.00180412,-0.00312141,-0.00000104,-0.00000384,-0.0
 0000268,0.00020781,-0.00159339,-0.00019500,0.00018753,0.00030239,-0.00
 015305,0.02599829,-0.19333185,0.29518937,0.00371083,-0.00121495,-0.002
 13961,0.00005721,0.00023328,-0.00001499,0.00011895,-0.00005138,0.00011
 579,0.00033633,0.00012558,0.00020089,-0.00137431,-0.00172889,-0.001001
 03,-0.00068907,-0.00069372,0.00018583,0.00021434,-0.00053545,-0.001895
 64,0.00003776,0.00007321,-0.00020215,0.00702201,-0.00847889,-0.0043767
 0,-0.00002684,-0.00008854,-0.00008149,-0.00015523,-0.00033589,-0.00005
 147,-0.16423493,0.16329294,0.05925458,-0.00035924,0.00028733,-0.000177
 08,-0.00004080,-0.00008764,0.00003781,-0.00210978,0.00008100,0.0007561
 5,-0.00608244,-0.00159172,0.00082094,0.00635085,-0.00222888,0.00025344
 ,-0.02202812,0.02967736,0.01008473,-0.00003031,0.00002639,0.00002968,-
 0.00006171,-0.00001743,-0.00009001,0.00000058,0.00011297,-0.00004418,-
 0.00025943,0.00019669,0.00011759,-0.00019802,-0.00006506,-0.00018139,-
 0.00007539,-0.00044931,0.00009525,0.00000509,0.00033710,-0.00035750,0.
 00019095,-0.00020165,0.00038568,-0.00007268,0.00029639,-0.00040473,0.0
 0000223,0.00006617,0.00011900,-0.00000721,0.00000349,-0.00003402,0.000
 01499,0.00024496,-0.00009766,-0.00034969,-0.00031369,0.00005940,-0.000
 02927,-0.00001988,-0.00001506,0.00000935,-0.00000159,-0.00000545,-0.00
 090821,-0.00055033,-0.00088554,0.00000111,0.00000209,0.00001797,0.0000
 1058,0.00001048,-0.00000300,0.00003238,0.00001479,0.00001608,0.1809398
 9,0.00210650,0.00324664,0.00004672,-0.00000337,0.00003109,-0.00007087,
 0.00019927,-0.00014350,0.00001902,-0.00014352,0.00025694,0.00055659,0.
 00073751,-0.00032804,-0.00045177,-0.00081188,-0.00051287,0.00021470,0.
 00025647,-0.00107105,-0.00244905,0.00001590,0.00000235,-0.00024594,0.0
 0165897,-0.00489061,0.00435195,0.00000314,-0.00001495,0.00002048,-0.00
 004487,-0.00012094,0.00001835,0.18986251,-0.25681374,-0.13265894,-0.00
 044414,-0.00091296,-0.00037144,-0.00000199,-0.00002449,0.00002888,-0.0
 0170678,-0.00071197,0.00035894,-0.00584784,0.00078645,0.00178411,0.000
 62181,-0.00169412,-0.00040926,-0.00858817,0.00638809,0.00422733,-0.000
 03187,0.00003511,-0.00006352,-0.00000392,0.00001979,0.00000508,0.00004
 855,-0.00008592,0.00006230,-0.00009302,0.00007887,-0.00006583,-0.00003
 620,-0.00004256,-0.00014452,-0.00025193,-0.00034314,0.00013339,-0.0000
 3660,-0.00000544,0.00033731,0.00003192,0.00000287,-0.00001720,0.000060
 24,0.00015057,0.00027329,0.00006310,0.00005128,0.00014646,-0.00001172,
 0.00003250,0.00001853,0.00006720,0.00029139,-0.00016497,-0.00045420,-0
 .00032994,-0.00016165,-0.00002657,-0.00000147,-0.00001332,0.00000694,-
 0.00001750,-0.00000389,-0.00072478,0.00020521,0.00185838,-0.00000394,0
 .00000618,-0.00000436,-0.00000026,-0.00000144,-0.00000566,-0.00000229,
 0.00001368,0.00000584,-0.17646662,0.25646861,-0.00067517,-0.00302804,0
 .00059521,0.00000114,0.00004878,0.00004515,-0.00049075,0.00057275,-0.0
 0022590,0.00080280,0.00018686,-0.00030348,-0.00234454,-0.00069926,-0.0
 0073847,0.00005275,-0.00052517,0.00035173,0.00015981,0.00077799,-0.001
 50690,-0.00008934,0.00003775,-0.00009832,0.01849142,-0.01995293,-0.011
 96627,-0.00000812,-0.00002719,-0.00005414,-0.00004350,-0.00009709,-0.0
 0001668,0.04378401,-0.10612859,-0.07489364,-0.00000600,0.00122776,0.00
 086183,0.00000229,-0.00000510,-0.00001989,0.00072858,0.00047488,-0.000
 41565,-0.00041400,-0.00072129,0.00131432,-0.00100760,-0.00066145,-0.00
 207756,0.00278545,0.00816627,0.00423945,0.00008068,-0.00016668,0.00008
 875,0.00003027,-0.00000358,-0.00000062,0.00003549,-0.00010298,-0.00005
 759,0.00001259,-0.00028355,-0.00017371,0.00005192,-0.00003567,0.000202
 58,0.00006913,0.00041600,-0.00015662,0.00007830,0.00031003,-0.00109639
 ,0.00004373,-0.00032679,0.00021780,-0.00031309,0.00024327,-0.00069729,
 -0.00005108,0.00007739,0.00005111,0.00001666,-0.00007606,-0.00007675,0
 .00002951,-0.00005910,0.00013710,0.00011771,-0.00000655,0.00032385,-0.
 00000111,-0.00002940,0.00001601,0.00000466,0.00001383,-0.00000014,-0.0
 0148096,-0.00246480,-0.00543206,-0.00000148,-0.00000790,0.00001244,0.0
 0000197,0.00000341,0.00000161,0.00001513,-0.00002170,0.00000710,-0.060
 46969,0.12285841,0.09152708,0.00004445,-0.00005529,0.00003453,-0.00670
 631,-0.00900805,-0.00059063,0.00002356,-0.00001372,0.00000675,0.000000
 86,-0.00000219,-0.00000122,-0.00000307,-0.00000345,-0.00000146,0.00020
 179,-0.00008537,0.00012977,-0.00001863,0.00002935,-0.00003237,-0.00052
 923,-0.00053961,-0.00019514,-0.00002803,-0.00004580,-0.00000948,-0.002
 86986,0.00154341,-0.00107858,0.00439930,0.00029638,0.00181271,0.000000
 60,0.00004297,0.00002563,-0.00002431,0.00003923,-0.00001629,-0.0043428
 8,-0.02472049,0.00609599,-0.00004418,0.00004501,-0.00001095,-0.0000100
 3,0.00003992,0.00002293,-0.00000210,0.00004853,0.00001800,0.00001034,-
 0.00008120,-0.00004212,-0.00000064,0.00000453,-0.00000356,0.00000135,-
 0.00000547,0.00000188,-0.00000071,0.00000611,-0.00000057,-0.00000380,-
 0.00000007,0.00000096,0.00000109,-0.00000001,-0.00000326,0.00000044,-0
 .00000128,0.00000236,0.00000029,-0.00000213,-0.00000286,0.00000280,0.0
 0000019,-0.00000421,-0.00000047,0.00000160,-0.00000019,-0.00005022,-0.
 00002400,0.00003297,-0.00006895,-0.00004167,-0.00005342,-0.00000953,-0
 .00000229,-0.00002513,0.00000865,0.00000788,0.00001881,-0.00027748,-0.
 00017924,0.00013188,0.00020208,0.00014544,0.00005205,-0.00000337,-0.00
 000382,-0.00000156,-0.00089085,0.00018311,0.00014858,0.00174518,-0.000
 14826,-0.00102613,0.00207350,-0.00145514,-0.00041251,0.00001056,-0.000
 00279,-0.00000070,0.00924331,-0.00011965,-0.00018771,0.00004682,-0.001
 97899,-0.01815927,-0.00104458,0.00003684,-0.00002330,0.00001074,-0.000
 04218,-0.00001535,-0.00000554,0.00002294,-0.00000186,0.00000970,-0.000
 08396,-0.00013040,0.00005522,0.00002033,0.00008202,-0.00012611,-0.0000
 2621,0.00006883,-0.00041833,-0.00005567,-0.00013998,-0.00003238,0.0011
 1479,0.00127897,-0.00352547,0.00135376,0.00281329,0.00215882,0.0001273
 5,0.00009197,0.00011066,0.00002479,0.00013320,-0.00003941,-0.02870447,
 -0.44959855,-0.06251105,0.00009808,0.00015029,0.00003395,0.00006353,0.
 00001483,0.00004567,0.00005429,0.00005494,0.00005624,-0.00022343,-0.00
 005345,-0.00014120,-0.00000511,0.00000418,-0.00000813,0.00000269,-0.00
 001398,-0.00000074,-0.00000207,0.00001366,0.00000318,-0.00000728,-0.00
 000290,-0.00000056,0.00000577,0.00000486,-0.00000751,0.00000643,0.0000
 0720,0.00000494,0.00000123,-0.00000205,0.00000550,-0.00000934,0.000005
 10,-0.00000590,-0.00000279,-0.00000190,-0.00000376,0.00002038,0.000016
 65,-0.00001209,0.00002197,-0.00000810,-0.00002348,0.00000444,-0.000002
 45,0.00001207,0.00000710,-0.00001347,0.00000308,0.00015487,0.00000445,
 0.00005780,-0.00008100,-0.00019019,0.00001764,-0.00001775,0.00000290,-
 0.00000509,-0.00020189,-0.00010231,0.00005068,0.00011699,0.00101410,0.
 00095128,-0.00110029,0.00000692,0.00001612,0.00001652,0.00000113,0.000
 00323,0.02957776,0.46530792,0.00001898,0.00000393,0.00000368,0.0007619
 1,0.03078061,0.01275780,0.00000104,-0.00000079,0.00000282,0.00000253,0
 .00000086,0.00000208,-0.00000327,0.00000027,-0.00000556,0.00009535,0.0
 0011981,0.00035799,0.00002579,0.00003105,0.00001098,-0.00078053,-0.000
 83008,-0.00075312,-0.00000357,0.00000681,0.00001568,0.00013020,-0.0010
 6452,-0.00005203,0.00064499,0.00255411,-0.00557157,-0.00001048,0.00000
 338,-0.00001873,-0.00000572,-0.00000189,-0.00000328,0.00708553,-0.0643
 1385,-0.08493826,-0.00001229,-0.00000877,-0.00001061,-0.00000397,0.000
 00566,-0.00001616,-0.00000485,0.00000892,-0.00000993,0.00002145,-0.000
 01908,0.00003595,0.00000080,0.00000090,-0.00000091,-0.00000024,0.00000
 028,0.00000114,-0.00000049,-0.00000048,-0.00000054,0.00000027,0.000000
 06,0.00000215,-0.00000084,0.00000068,-0.00000075,0.00000022,-0.0000017
 1,-0.00000012,-0.00000012,0.00000015,-0.00000115,0.00000036,-0.0000008
 1,0.00000193,-0.00000033,-0.00000072,-0.00000039,-0.00005285,-0.000093
 11,0.00000531,-0.00005069,-0.00011536,0.00000860,-0.00000097,0.0000079
 1,0.00000138,0.00000413,0.00000890,0.00000341,-0.00018099,0.00023363,0
 .00022133,0.00033371,-0.00018041,0.00014509,0.00000406,0.00000029,0.00
 000036,0.00012285,-0.00038121,-0.00002839,-0.00104457,0.00093534,-0.00
 214606,0.00110575,0.00078526,0.00047754,-0.00000168,-0.00000269,0.0000
 0201,-0.00443583,0.06281355,0.07565980,0.00004260,-0.00015105,0.000074
 34,-0.00485863,0.00494641,0.00135167,0.00005020,-0.00002455,0.00001410
 ,-0.00001191,-0.00000693,-0.00000293,0.00000514,-0.00000901,-0.0000047
 7,-0.00116213,0.00017442,-0.00052371,0.00012851,-0.00006376,-0.0001111
 3,0.00272223,-0.00081277,0.00113816,-0.00009515,-0.00012138,-0.0000294
 6,0.00342919,-0.00066275,0.00102972,-0.00240043,-0.00054207,0.00046300
 ,0.00003837,0.00010093,0.00006878,-0.00003905,0.00009674,-0.00004459,-
 0.00822385,0.00586416,0.05011920,-0.00007813,0.00014548,0.00001999,0.0
 0001392,0.00006002,0.00003113,0.00001536,0.00009026,0.00003600,-0.0000
 6612,-0.00013994,-0.00007450,-0.00000338,0.00001008,-0.00000801,0.0000
 0404,-0.00001137,0.00000321,-0.00000266,0.00001335,-0.00000171,-0.0000
 0900,-0.00000165,0.00000374,0.00000286,0.00000362,-0.00000717,0.000003
 29,-0.00000048,0.00000400,0.00000062,-0.00000134,-0.00000111,-0.000002
 97,0.00000095,-0.00000770,-0.00000076,0.00000197,-0.00000221,0.0000371
 1,-0.00007787,0.00002121,0.00026946,0.00034995,-0.00008866,-0.00005754
 ,-0.00000890,-0.00001812,-0.00000141,-0.00000049,0.00003103,0.00002794
 ,0.00043921,0.00032537,-0.00194848,-0.00083692,-0.00073324,-0.00001573
 ,-0.00000808,-0.00000294,0.00260360,-0.00099449,-0.00039107,-0.0006100
 1,0.00043706,0.00041351,-0.00061210,0.00048417,-0.00003628,0.00002671,
 -0.00000075,0.00000111,-0.00208551,-0.00019078,-0.00376565,0.01286378,
 -0.00016913,-0.00029490,0.00009124,0.00003746,0.01908014,0.02338435,0.
 00005795,-0.00003360,0.00002394,-0.00005880,-0.00001804,-0.00000382,0.
 00003593,-0.00000095,0.00001175,0.00004477,-0.00098244,-0.00070826,-0.
 00003572,0.00003767,-0.00019686,-0.00096698,0.00093465,0.00232752,-0.0
 0006902,-0.00020860,-0.00005453,-0.00209202,-0.00397610,0.00356326,-0.
 00070030,-0.00255695,-0.00039383,0.00018171,0.00013751,0.00014471,0.00
 003219,0.00020014,-0.00007511,0.00722235,-0.12180052,-0.12649994,0.000
 13117,0.00024052,0.00002234,0.00009917,0.00001297,0.00004653,0.0000792
 9,0.00007432,0.00007065,-0.00033419,-0.00006879,-0.00017218,-0.0000050
 4,0.00001237,-0.00001469,0.00000352,-0.00001943,0.00000475,-0.00000566
 ,0.00001895,0.00000027,-0.00001136,-0.00000469,0.00000340,0.00000856,0
 .00001133,-0.00001116,0.00001089,0.00000891,0.00000507,0.00000217,-0.0
 0000221,0.00000890,-0.00001547,0.00000824,-0.00000736,-0.00000426,-0.0
 0000322,-0.00000642,0.00024353,0.00041357,-0.00006779,0.00008380,0.000
 18036,-0.00007000,-0.00000545,-0.00001222,0.00002139,0.00001693,-0.000
 06595,-0.00000355,0.00081885,-0.00152775,-0.00087012,-0.00119679,-0.00
 061264,-0.00022031,-0.00002689,0.00001129,-0.00000547,0.00015735,0.000
 75425,0.00102022,0.00008250,-0.00035729,0.00008633,0.00046582,0.000026
 59,-0.00032702,0.00002278,-0.00000212,0.00001226,0.00440994,-0.0024301
 9,-0.03128688,-0.00855150,0.11281486,0.00008853,0.00007722,0.00000727,
 0.00153603,-0.00479709,-0.02379244,-0.00001110,0.00000728,0.00000438,0
 .00001856,0.00000800,0.00000941,-0.00000973,-0.00000009,-0.00001941,0.
 00008782,-0.00015146,-0.00022051,-0.00001288,-0.00003777,0.00022025,0.
 00018061,0.00068000,0.00218440,0.00002696,0.00007965,-0.00001944,0.002
 10549,0.00291555,0.00137798,-0.00167444,-0.00391421,0.00042142,-0.0000
 6610,-0.00003678,-0.00012426,-0.00002087,-0.00004619,-0.00000330,0.048
 44292,-0.12491788,-0.41038360,-0.00005477,-0.00008018,-0.00007632,-0.0
 0001460,0.00000315,-0.00007558,-0.00002583,0.00000806,-0.00005240,0.00
 009539,-0.00004728,0.00016901,0.00000469,0.00000316,-0.00000096,-0.000
 00248,0.00000680,0.00000629,-0.00000208,-0.00000718,-0.00000325,0.0000
 0319,0.00000082,0.00000804,-0.00000460,0.00000203,-0.00000004,-0.00000
 102,-0.00000735,-0.00000225,0.00000083,0.00000627,-0.00000566,-0.00000
 824,-0.00000217,0.00000992,-0.00000402,-0.00000640,-0.00000432,0.00005
 762,0.00002681,-0.00000014,-0.00007122,0.00005731,0.00000056,-0.000068
 32,-0.00000085,-0.00003413,0.00003181,-0.00004957,-0.00002235,0.000231
 38,-0.00031750,-0.00005015,-0.00041156,-0.00056642,0.00023752,0.000021
 51,0.00001629,0.00000267,-0.00051424,-0.00027462,-0.00045944,0.0000976
 1,-0.00021502,-0.00001065,-0.00015008,0.00000794,-0.00041575,-0.000020
 74,-0.00002118,0.00001293,-0.00058764,0.00144445,0.00384052,-0.0492943
 4,0.13014644,0.42726380\\0.00001090,-0.00000142,-0.00001813,0.00000337
 ,0.00001677,0.00001471,0.00000159,0.00000036,-0.00000115,0.00000049,0.
 00000406,0.00000871,-0.00000247,0.00000030,0.00000149,-0.00000024,0.00
 000023,-0.00000097,0.00000192,-0.00000077,0.00000133,0.00000212,0.0000
 0532,0.00000313,-0.00000500,0.00000105,0.00001776,0.00002382,-0.000021
 33,-0.00000975,-0.00000885,-0.00000161,0.00000027,0.00001824,0.0000101
 5,-0.00000733,-0.00000556,0.00000093,0.00001367,-0.00002107,-0.0000026
 1,-0.00000447,-0.00000377,0.00000002,-0.00000045,-0.00000096,-0.000003
 01,-0.00000436,-0.00000218,0.00000067,0.00000209,-0.00001741,-0.000000
 56,-0.00000026,-0.00000459,-0.00000273,-0.00000362,-0.00000035,0.00000
 131,0.00000150,0.00000573,-0.00000064,-0.00000347,0.00000058,-0.000003
 96,-0.00000264,-0.00000108,-0.00000045,-0.00000057,0.00000092,-0.00000
 041,-0.00000019,0.00000016,0.00000014,-0.00000084,0.00000045,-0.000000
 35,-0.00000015,0.00000053,-0.00000049,0.00000106,0.00000027,0.00000054
 ,0.00000066,0.00000089,-0.00000040,-0.00000062,-0.00000015,-0.00000029
 ,0.00000008,-0.00000002,-0.00000028,-0.00000071,0.00000069,-0.00000096
 ,-0.00000292,-0.00000165,-0.00000084,0.00000033,0.00000137,0.00000004,
 -0.00000158,-0.00000854,0.00000837,0.00000022,-0.00000782,0.00000017,0
 .00000286,0.00000364,-0.00000033,-0.00000287,-0.00000010,-0.00000410,-
 0.00000066,0.00000318,-0.00000244,-0.00000429,0.00001097,-0.00000045,0
 .00000213\\\@


 Spring appears, and we are once more children.
                                  -- Anonymous
 Job cpu time:  0 days  3 hours 52 minutes 11.7 seconds.
 File lengths (MBytes):  RWF=    494 Int=      0 D2E=      0 Chk=      8 Scr=      1
 Normal termination of Gaussian 09 at Fri Feb 16 23:57:20 2018.
