 Entering Gaussian System, Link 0=g09
 Initial command:
 /home/fb_chem/chemsoft/lx24-amd64/Gaussian_09_C.01_NBO_3.1_64_istanbul-64/g09/l1.exe /local/2399817.1.parallel_long/Gau-16029.inp -scrdir=/local/2399817.1.parallel_long/
 Entering Link 1 = /home/fb_chem/chemsoft/lx24-amd64/Gaussian_09_C.01_NBO_3.1_64_istanbul-64/g09/l1.exe PID=     16030.
  
 Copyright (c) 1988,1990,1992,1993,1995,1998,2003,2009,2011,
            Gaussian, Inc.  All Rights Reserved.
  
 This is part of the Gaussian(R) 09 program.  It is based on
 the Gaussian(R) 03 system (copyright 2003, Gaussian, Inc.),
 the Gaussian(R) 98 system (copyright 1998, Gaussian, Inc.),
 the Gaussian(R) 94 system (copyright 1995, Gaussian, Inc.),
 the Gaussian 92(TM) system (copyright 1992, Gaussian, Inc.),
 the Gaussian 90(TM) system (copyright 1990, Gaussian, Inc.),
 the Gaussian 88(TM) system (copyright 1988, Gaussian, Inc.),
 the Gaussian 86(TM) system (copyright 1986, Carnegie Mellon
 University), and the Gaussian 82(TM) system (copyright 1983,
 Carnegie Mellon University). Gaussian is a federally registered
 trademark of Gaussian, Inc.
  
 This software contains proprietary and confidential information,
 including trade secrets, belonging to Gaussian, Inc.
  
 This software is provided under written license and may be
 used, copied, transmitted, or stored only in accord with that
 written license.
  
 The following legend is applicable only to US Government
 contracts under FAR:
  
                    RESTRICTED RIGHTS LEGEND
  
 Use, reproduction and disclosure by the US Government is
 subject to restrictions as set forth in subparagraphs (a)
 and (c) of the Commercial Computer Software - Restricted
 Rights clause in FAR 52.227-19.
  
 Gaussian, Inc.
 340 Quinnipiac St., Bldg. 40, Wallingford CT 06492
  
  
 ---------------------------------------------------------------
 Warning -- This program may not be used in any manner that
 competes with the business of Gaussian, Inc. or will provide
 assistance to any competitor of Gaussian, Inc.  The licensee
 of this program is prohibited from giving any competitor of
 Gaussian, Inc. access to this program.  By using this program,
 the user acknowledges that Gaussian, Inc. is engaged in the
 business of creating and licensing software in the field of
 computational chemistry and represents and warrants to the
 licensee that it is not a competitor of Gaussian, Inc. and that
 it will not use this program in any manner prohibited above.
 ---------------------------------------------------------------
  

 Cite this work as:
 Gaussian 09, Revision C.01,
 M. J. Frisch, G. W. Trucks, H. B. Schlegel, G. E. Scuseria, 
 M. A. Robb, J. R. Cheeseman, G. Scalmani, V. Barone, B. Mennucci, 
 G. A. Petersson, H. Nakatsuji, M. Caricato, X. Li, H. P. Hratchian, 
 A. F. Izmaylov, J. Bloino, G. Zheng, J. L. Sonnenberg, M. Hada, 
 M. Ehara, K. Toyota, R. Fukuda, J. Hasegawa, M. Ishida, T. Nakajima, 
 Y. Honda, O. Kitao, H. Nakai, T. Vreven, J. A. Montgomery, Jr., 
 J. E. Peralta, F. Ogliaro, M. Bearpark, J. J. Heyd, E. Brothers, 
 K. N. Kudin, V. N. Staroverov, T. Keith, R. Kobayashi, J. Normand, 
 K. Raghavachari, A. Rendell, J. C. Burant, S. S. Iyengar, J. Tomasi, 
 M. Cossi, N. Rega, J. M. Millam, M. Klene, J. E. Knox, J. B. Cross, 
 V. Bakken, C. Adamo, J. Jaramillo, R. Gomperts, R. E. Stratmann, 
 O. Yazyev, A. J. Austin, R. Cammi, C. Pomelli, J. W. Ochterski, 
 R. L. Martin, K. Morokuma, V. G. Zakrzewski, G. A. Voth, 
 P. Salvador, J. J. Dannenberg, S. Dapprich, A. D. Daniels, 
 O. Farkas, J. B. Foresman, J. V. Ortiz, J. Cioslowski, 
 and D. J. Fox, Gaussian, Inc., Wallingford CT, 2010.
 
 ******************************************
 Gaussian 09:  AM64L-G09RevC.01 23-Sep-2011
                17-Feb-2018 
 ******************************************
 %nprocs=12
 Will use up to   12 processors via shared memory.
 %chk=frag2-conf1.chk
 --------------------------------------------------------------
 #B3LYP/6-31G* Integral=(Grid=UltraFine) freq Opt pop=none SCRF
 --------------------------------------------------------------
 1/14=-1,18=20,19=15,26=3,38=1/1,3;
 2/9=110,12=2,17=6,18=5,40=1/2;
 3/5=1,6=6,7=1,11=2,16=1,25=1,30=1,70=2201,71=1,72=1,74=-5,75=-5/1,2,3;
 4//1;
 5/5=2,38=5/2;
 7//1,2,3,16;
 1/14=-1,18=20,19=15/3(2);
 2/9=110/2;
 99//99;
 2/9=110/2;
 3/5=1,6=6,7=1,11=2,16=1,25=1,30=1,70=2205,71=1,74=-5,75=-5/1,2,3;
 4/5=5,16=3/1;
 5/5=2,38=5/2;
 7//1,2,3,16;
 1/14=-1,18=20,19=15/3(-5);
 2/9=110/2;
 99/9=1/99;
 ----------------------------
 Optimization for frag2-conf1
 ----------------------------
 Charge =  0 Multiplicity = 1
 Symbolic Z-Matrix:
 C                     3.55065  -4.9118   -0.47298 
 C                     7.03225  -2.15956  -1.5621 
 C                     2.39502  -5.73504  -6.14314 
 C                     1.25317  -5.04813  -5.40323 
 C                     3.41738  -6.31433  -5.17245 
 C                     1.77058  -3.98473  -4.43845 
 C                     3.93889  -5.25871  -4.19912 
 C                     2.79726  -4.55773  -3.44448 
 C                     3.57461  -7.04163   0.76977 
 C                     5.65865  -6.27851  -0.31936 
 C                     5.59806  -1.68589  -1.22575 
 C                     3.30996  -3.42716  -2.52228 
 C                     4.26835  -3.89442  -1.40996 
 N                     4.25853  -6.01827  -0.00972 
 N                     4.68173  -2.69879  -0.58002 
 O                     7.65079  -1.53603  -2.47241 
 O                     2.3873   -4.70027  -0.10076 
 O                     7.44978  -3.15604  -0.89246 
 H                     1.99594  -6.53312  -6.77917 
 H                     2.88808  -5.01358  -6.80621 
 H                     0.56965  -4.58838  -6.12593 
 H                     0.67457  -5.79575  -4.84684 
 H                     2.95941  -7.13521  -4.60678 
 H                     4.25567  -6.74296  -5.73327 
 H                     2.22499  -3.16776  -5.01369 
 H                     0.92282  -3.55446  -3.89183 
 H                     4.61991  -5.74814  -3.49518 
 H                     4.52928  -4.51702  -4.75189 
 H                     2.28026  -5.30822  -2.83263 
 H                     3.65362  -7.99553   0.23968 
 H                     2.51745  -6.81036   0.92065 
 H                     4.06234  -7.12341   1.74558 
 H                     6.07631  -6.99366   0.39542 
 H                     6.23628  -5.35633  -0.25874 
 H                     5.72173  -6.68995  -1.33028 
 H                     5.09235  -1.29348  -2.11126 
 H                     5.68297  -0.87133  -0.49834 
 H                     3.80782  -2.67987  -3.15106 
 H                     2.44518  -2.92265  -2.07059 
 H                     5.177    -4.31169  -1.84385 
 H                     5.20987  -3.07233   0.21888 
 H                     3.84929  -2.25412  -0.18103 
 

 GradGradGradGradGradGradGradGradGradGradGradGradGradGradGradGradGradGrad
 Berny optimization.
 Initialization pass.
                           ----------------------------
                           !    Initial Parameters    !
                           ! (Angstroms and Degrees)  !
 --------------------------                            --------------------------
 ! Name  Definition              Value          Derivative Info.                !
 --------------------------------------------------------------------------------
 ! R1    R(1,13)                 1.5582         estimate D2E/DX2                !
 ! R2    R(1,14)                 1.3928         estimate D2E/DX2                !
 ! R3    R(1,17)                 1.2396         estimate D2E/DX2                !
 ! R4    R(2,11)                 1.5474         estimate D2E/DX2                !
 ! R5    R(2,16)                 1.2649         estimate D2E/DX2                !
 ! R6    R(2,18)                 1.2711         estimate D2E/DX2                !
 ! R7    R(3,4)                  1.5242         estimate D2E/DX2                !
 ! R8    R(3,5)                  1.5242         estimate D2E/DX2                !
 ! R9    R(3,19)                 1.0958         estimate D2E/DX2                !
 ! R10   R(3,20)                 1.0969         estimate D2E/DX2                !
 ! R11   R(4,6)                  1.5262         estimate D2E/DX2                !
 ! R12   R(4,21)                 1.0958         estimate D2E/DX2                !
 ! R13   R(4,22)                 1.0969         estimate D2E/DX2                !
 ! R14   R(5,7)                  1.5276         estimate D2E/DX2                !
 ! R15   R(5,23)                 1.0971         estimate D2E/DX2                !
 ! R16   R(5,24)                 1.0959         estimate D2E/DX2                !
 ! R17   R(6,8)                  1.5396         estimate D2E/DX2                !
 ! R18   R(6,25)                 1.0976         estimate D2E/DX2                !
 ! R19   R(6,26)                 1.0966         estimate D2E/DX2                !
 ! R20   R(7,8)                  1.5376         estimate D2E/DX2                !
 ! R21   R(7,27)                 1.0949         estimate D2E/DX2                !
 ! R22   R(7,28)                 1.0974         estimate D2E/DX2                !
 ! R23   R(8,12)                 1.5464         estimate D2E/DX2                !
 ! R24   R(8,29)                 1.0977         estimate D2E/DX2                !
 ! R25   R(9,14)                 1.4569         estimate D2E/DX2                !
 ! R26   R(9,30)                 1.0942         estimate D2E/DX2                !
 ! R27   R(9,31)                 1.0926         estimate D2E/DX2                !
 ! R28   R(9,32)                 1.094          estimate D2E/DX2                !
 ! R29   R(10,14)                1.4574         estimate D2E/DX2                !
 ! R30   R(10,33)                1.094          estimate D2E/DX2                !
 ! R31   R(10,34)                1.0898         estimate D2E/DX2                !
 ! R32   R(10,35)                1.0933         estimate D2E/DX2                !
 ! R33   R(11,15)                1.5108         estimate D2E/DX2                !
 ! R34   R(11,36)                1.0926         estimate D2E/DX2                !
 ! R35   R(11,37)                1.0954         estimate D2E/DX2                !
 ! R36   R(12,13)                1.5408         estimate D2E/DX2                !
 ! R37   R(12,38)                1.0962         estimate D2E/DX2                !
 ! R38   R(12,39)                1.0984         estimate D2E/DX2                !
 ! R39   R(13,15)                1.513          estimate D2E/DX2                !
 ! R40   R(13,40)                1.09           estimate D2E/DX2                !
 ! R41   R(15,41)                1.028          estimate D2E/DX2                !
 ! R42   R(15,42)                1.0246         estimate D2E/DX2                !
 ! A1    A(13,1,14)            118.9855         estimate D2E/DX2                !
 ! A2    A(13,1,17)            120.0919         estimate D2E/DX2                !
 ! A3    A(14,1,17)            120.8399         estimate D2E/DX2                !
 ! A4    A(11,2,16)            117.3068         estimate D2E/DX2                !
 ! A5    A(11,2,18)            115.462          estimate D2E/DX2                !
 ! A6    A(16,2,18)            127.2242         estimate D2E/DX2                !
 ! A7    A(4,3,5)              111.3848         estimate D2E/DX2                !
 ! A8    A(4,3,19)             109.7046         estimate D2E/DX2                !
 ! A9    A(4,3,20)             109.4969         estimate D2E/DX2                !
 ! A10   A(5,3,19)             109.7029         estimate D2E/DX2                !
 ! A11   A(5,3,20)             109.4778         estimate D2E/DX2                !
 ! A12   A(19,3,20)            106.9704         estimate D2E/DX2                !
 ! A13   A(3,4,6)              111.5251         estimate D2E/DX2                !
 ! A14   A(3,4,21)             109.6462         estimate D2E/DX2                !
 ! A15   A(3,4,22)             109.5258         estimate D2E/DX2                !
 ! A16   A(6,4,21)             109.6352         estimate D2E/DX2                !
 ! A17   A(6,4,22)             109.4542         estimate D2E/DX2                !
 ! A18   A(21,4,22)            106.944          estimate D2E/DX2                !
 ! A19   A(3,5,7)              111.848          estimate D2E/DX2                !
 ! A20   A(3,5,23)             109.4364         estimate D2E/DX2                !
 ! A21   A(3,5,24)             109.6231         estimate D2E/DX2                !
 ! A22   A(7,5,23)             109.3317         estimate D2E/DX2                !
 ! A23   A(7,5,24)             109.5844         estimate D2E/DX2                !
 ! A24   A(23,5,24)            106.8894         estimate D2E/DX2                !
 ! A25   A(4,6,8)              112.0163         estimate D2E/DX2                !
 ! A26   A(4,6,25)             109.1261         estimate D2E/DX2                !
 ! A27   A(4,6,26)             109.0494         estimate D2E/DX2                !
 ! A28   A(8,6,25)             109.833          estimate D2E/DX2                !
 ! A29   A(8,6,26)             109.8606         estimate D2E/DX2                !
 ! A30   A(25,6,26)            106.8118         estimate D2E/DX2                !
 ! A31   A(5,7,8)              111.9788         estimate D2E/DX2                !
 ! A32   A(5,7,27)             108.2455         estimate D2E/DX2                !
 ! A33   A(5,7,28)             109.2546         estimate D2E/DX2                !
 ! A34   A(8,7,27)             110.4904         estimate D2E/DX2                !
 ! A35   A(8,7,28)             109.7884         estimate D2E/DX2                !
 ! A36   A(27,7,28)            106.9382         estimate D2E/DX2                !
 ! A37   A(6,8,7)              110.3611         estimate D2E/DX2                !
 ! A38   A(6,8,12)             109.5111         estimate D2E/DX2                !
 ! A39   A(6,8,29)             107.4719         estimate D2E/DX2                !
 ! A40   A(7,8,12)             112.3223         estimate D2E/DX2                !
 ! A41   A(7,8,29)             108.1544         estimate D2E/DX2                !
 ! A42   A(12,8,29)            108.8803         estimate D2E/DX2                !
 ! A43   A(14,9,30)            108.6192         estimate D2E/DX2                !
 ! A44   A(14,9,31)            112.2963         estimate D2E/DX2                !
 ! A45   A(14,9,32)            108.6907         estimate D2E/DX2                !
 ! A46   A(30,9,31)            108.7411         estimate D2E/DX2                !
 ! A47   A(30,9,32)            109.559          estimate D2E/DX2                !
 ! A48   A(31,9,32)            108.906          estimate D2E/DX2                !
 ! A49   A(14,10,33)           110.1633         estimate D2E/DX2                !
 ! A50   A(14,10,34)           110.2593         estimate D2E/DX2                !
 ! A51   A(14,10,35)           108.6086         estimate D2E/DX2                !
 ! A52   A(33,10,34)           108.3276         estimate D2E/DX2                !
 ! A53   A(33,10,35)           109.6408         estimate D2E/DX2                !
 ! A54   A(34,10,35)           109.8342         estimate D2E/DX2                !
 ! A55   A(2,11,15)            116.7323         estimate D2E/DX2                !
 ! A56   A(2,11,36)            111.2696         estimate D2E/DX2                !
 ! A57   A(2,11,37)            107.4662         estimate D2E/DX2                !
 ! A58   A(15,11,36)           107.8447         estimate D2E/DX2                !
 ! A59   A(15,11,37)           105.1732         estimate D2E/DX2                !
 ! A60   A(36,11,37)           107.8782         estimate D2E/DX2                !
 ! A61   A(8,12,13)            114.5197         estimate D2E/DX2                !
 ! A62   A(8,12,38)            107.872          estimate D2E/DX2                !
 ! A63   A(8,12,39)            108.6637         estimate D2E/DX2                !
 ! A64   A(13,12,38)           109.7744         estimate D2E/DX2                !
 ! A65   A(13,12,39)           109.3993         estimate D2E/DX2                !
 ! A66   A(38,12,39)           106.2807         estimate D2E/DX2                !
 ! A67   A(1,13,12)            110.2183         estimate D2E/DX2                !
 ! A68   A(1,13,15)            108.1764         estimate D2E/DX2                !
 ! A69   A(1,13,40)            111.9245         estimate D2E/DX2                !
 ! A70   A(12,13,15)           109.0434         estimate D2E/DX2                !
 ! A71   A(12,13,40)           110.3198         estimate D2E/DX2                !
 ! A72   A(15,13,40)           107.0449         estimate D2E/DX2                !
 ! A73   A(1,14,9)             119.8265         estimate D2E/DX2                !
 ! A74   A(1,14,10)            124.0179         estimate D2E/DX2                !
 ! A75   A(9,14,10)            116.0548         estimate D2E/DX2                !
 ! A76   A(11,15,13)           117.4551         estimate D2E/DX2                !
 ! A77   A(11,15,41)           105.3176         estimate D2E/DX2                !
 ! A78   A(11,15,42)           111.6062         estimate D2E/DX2                !
 ! A79   A(13,15,41)           106.2313         estimate D2E/DX2                !
 ! A80   A(13,15,42)           109.5466         estimate D2E/DX2                !
 ! A81   A(41,15,42)           105.812          estimate D2E/DX2                !
 ! D1    D(14,1,13,12)         140.0942         estimate D2E/DX2                !
 ! D2    D(14,1,13,15)        -100.7694         estimate D2E/DX2                !
 ! D3    D(14,1,13,40)          16.9226         estimate D2E/DX2                !
 ! D4    D(17,1,13,12)         -43.1857         estimate D2E/DX2                !
 ! D5    D(17,1,13,15)          75.9507         estimate D2E/DX2                !
 ! D6    D(17,1,13,40)        -166.3573         estimate D2E/DX2                !
 ! D7    D(13,1,14,9)         -174.6115         estimate D2E/DX2                !
 ! D8    D(13,1,14,10)           1.5896         estimate D2E/DX2                !
 ! D9    D(17,1,14,9)            8.6938         estimate D2E/DX2                !
 ! D10   D(17,1,14,10)        -175.1052         estimate D2E/DX2                !
 ! D11   D(16,2,11,15)         156.592          estimate D2E/DX2                !
 ! D12   D(16,2,11,36)          32.2419         estimate D2E/DX2                !
 ! D13   D(16,2,11,37)         -85.6524         estimate D2E/DX2                !
 ! D14   D(18,2,11,15)         -22.5168         estimate D2E/DX2                !
 ! D15   D(18,2,11,36)        -146.867          estimate D2E/DX2                !
 ! D16   D(18,2,11,37)          95.2387         estimate D2E/DX2                !
 ! D17   D(5,3,4,6)             54.8277         estimate D2E/DX2                !
 ! D18   D(5,3,4,21)           176.4526         estimate D2E/DX2                !
 ! D19   D(5,3,4,22)           -66.4869         estimate D2E/DX2                !
 ! D20   D(19,3,4,6)           176.4849         estimate D2E/DX2                !
 ! D21   D(19,3,4,21)          -61.8902         estimate D2E/DX2                !
 ! D22   D(19,3,4,22)           55.1703         estimate D2E/DX2                !
 ! D23   D(20,3,4,6)           -66.4055         estimate D2E/DX2                !
 ! D24   D(20,3,4,21)           55.2193         estimate D2E/DX2                !
 ! D25   D(20,3,4,22)          172.2798         estimate D2E/DX2                !
 ! D26   D(4,3,5,7)            -54.5991         estimate D2E/DX2                !
 ! D27   D(4,3,5,23)            66.7122         estimate D2E/DX2                !
 ! D28   D(4,3,5,24)          -176.3585         estimate D2E/DX2                !
 ! D29   D(19,3,5,7)          -176.2573         estimate D2E/DX2                !
 ! D30   D(19,3,5,23)          -54.946          estimate D2E/DX2                !
 ! D31   D(19,3,5,24)           61.9833         estimate D2E/DX2                !
 ! D32   D(20,3,5,7)            66.6453         estimate D2E/DX2                !
 ! D33   D(20,3,5,23)         -172.0434         estimate D2E/DX2                !
 ! D34   D(20,3,5,24)          -55.1141         estimate D2E/DX2                !
 ! D35   D(3,4,6,8)            -55.2613         estimate D2E/DX2                !
 ! D36   D(3,4,6,25)            66.5806         estimate D2E/DX2                !
 ! D37   D(3,4,6,26)          -177.0851         estimate D2E/DX2                !
 ! D38   D(21,4,6,8)          -176.8925         estimate D2E/DX2                !
 ! D39   D(21,4,6,25)          -55.0506         estimate D2E/DX2                !
 ! D40   D(21,4,6,26)           61.2838         estimate D2E/DX2                !
 ! D41   D(22,4,6,8)            66.095          estimate D2E/DX2                !
 ! D42   D(22,4,6,25)         -172.0631         estimate D2E/DX2                !
 ! D43   D(22,4,6,26)          -55.7288         estimate D2E/DX2                !
 ! D44   D(3,5,7,8)             54.6476         estimate D2E/DX2                !
 ! D45   D(3,5,7,27)           176.6881         estimate D2E/DX2                !
 ! D46   D(3,5,7,28)           -67.202          estimate D2E/DX2                !
 ! D47   D(23,5,7,8)           -66.7242         estimate D2E/DX2                !
 ! D48   D(23,5,7,27)           55.3163         estimate D2E/DX2                !
 ! D49   D(23,5,7,28)          171.4262         estimate D2E/DX2                !
 ! D50   D(24,5,7,8)           176.4293         estimate D2E/DX2                !
 ! D51   D(24,5,7,27)          -61.5302         estimate D2E/DX2                !
 ! D52   D(24,5,7,28)           54.5797         estimate D2E/DX2                !
 ! D53   D(4,6,8,7)             54.3461         estimate D2E/DX2                !
 ! D54   D(4,6,8,12)           178.4928         estimate D2E/DX2                !
 ! D55   D(4,6,8,29)           -63.3792         estimate D2E/DX2                !
 ! D56   D(25,6,8,7)           -67.09           estimate D2E/DX2                !
 ! D57   D(25,6,8,12)           57.0567         estimate D2E/DX2                !
 ! D58   D(25,6,8,29)          175.1847         estimate D2E/DX2                !
 ! D59   D(26,6,8,7)           175.7039         estimate D2E/DX2                !
 ! D60   D(26,6,8,12)          -60.1493         estimate D2E/DX2                !
 ! D61   D(26,6,8,29)           57.9786         estimate D2E/DX2                !
 ! D62   D(5,7,8,6)            -53.916          estimate D2E/DX2                !
 ! D63   D(5,7,8,12)          -176.4287         estimate D2E/DX2                !
 ! D64   D(5,7,8,29)            63.3883         estimate D2E/DX2                !
 ! D65   D(27,7,8,6)          -174.6633         estimate D2E/DX2                !
 ! D66   D(27,7,8,12)           62.824          estimate D2E/DX2                !
 ! D67   D(27,7,8,29)          -57.359          estimate D2E/DX2                !
 ! D68   D(28,7,8,6)            67.6272         estimate D2E/DX2                !
 ! D69   D(28,7,8,12)          -54.8855         estimate D2E/DX2                !
 ! D70   D(28,7,8,29)         -175.0685         estimate D2E/DX2                !
 ! D71   D(6,8,12,13)          175.6483         estimate D2E/DX2                !
 ! D72   D(6,8,12,38)          -61.8185         estimate D2E/DX2                !
 ! D73   D(6,8,12,39)           53.0049         estimate D2E/DX2                !
 ! D74   D(7,8,12,13)          -61.3598         estimate D2E/DX2                !
 ! D75   D(7,8,12,38)           61.1734         estimate D2E/DX2                !
 ! D76   D(7,8,12,39)          175.9968         estimate D2E/DX2                !
 ! D77   D(29,8,12,13)          58.4016         estimate D2E/DX2                !
 ! D78   D(29,8,12,38)        -179.0652         estimate D2E/DX2                !
 ! D79   D(29,8,12,39)         -64.2418         estimate D2E/DX2                !
 ! D80   D(30,9,14,1)          119.8608         estimate D2E/DX2                !
 ! D81   D(30,9,14,10)         -56.6346         estimate D2E/DX2                !
 ! D82   D(31,9,14,1)           -0.443          estimate D2E/DX2                !
 ! D83   D(31,9,14,10)        -176.9384         estimate D2E/DX2                !
 ! D84   D(32,9,14,1)         -121.0014         estimate D2E/DX2                !
 ! D85   D(32,9,14,10)          62.5032         estimate D2E/DX2                !
 ! D86   D(33,10,14,1)         161.4916         estimate D2E/DX2                !
 ! D87   D(33,10,14,9)         -22.1768         estimate D2E/DX2                !
 ! D88   D(34,10,14,1)          41.9795         estimate D2E/DX2                !
 ! D89   D(34,10,14,9)        -141.6888         estimate D2E/DX2                !
 ! D90   D(35,10,14,1)         -78.4119         estimate D2E/DX2                !
 ! D91   D(35,10,14,9)          97.9198         estimate D2E/DX2                !
 ! D92   D(2,11,15,13)         -66.557          estimate D2E/DX2                !
 ! D93   D(2,11,15,41)          51.4063         estimate D2E/DX2                !
 ! D94   D(2,11,15,42)         165.7587         estimate D2E/DX2                !
 ! D95   D(36,11,15,13)         59.5175         estimate D2E/DX2                !
 ! D96   D(36,11,15,41)        177.4807         estimate D2E/DX2                !
 ! D97   D(36,11,15,42)        -68.1668         estimate D2E/DX2                !
 ! D98   D(37,11,15,13)        174.4445         estimate D2E/DX2                !
 ! D99   D(37,11,15,41)        -67.5923         estimate D2E/DX2                !
 ! D100  D(37,11,15,42)         46.7601         estimate D2E/DX2                !
 ! D101  D(8,12,13,1)          -60.9267         estimate D2E/DX2                !
 ! D102  D(8,12,13,15)        -179.5337         estimate D2E/DX2                !
 ! D103  D(8,12,13,40)          63.1767         estimate D2E/DX2                !
 ! D104  D(38,12,13,1)         177.5774         estimate D2E/DX2                !
 ! D105  D(38,12,13,15)         58.9704         estimate D2E/DX2                !
 ! D106  D(38,12,13,40)        -58.3192         estimate D2E/DX2                !
 ! D107  D(39,12,13,1)          61.3175         estimate D2E/DX2                !
 ! D108  D(39,12,13,15)        -57.2894         estimate D2E/DX2                !
 ! D109  D(39,12,13,40)       -174.5791         estimate D2E/DX2                !
 ! D110  D(1,13,15,11)         169.9881         estimate D2E/DX2                !
 ! D111  D(1,13,15,41)          52.5162         estimate D2E/DX2                !
 ! D112  D(1,13,15,42)         -61.3441         estimate D2E/DX2                !
 ! D113  D(12,13,15,11)        -70.1349         estimate D2E/DX2                !
 ! D114  D(12,13,15,41)        172.3932         estimate D2E/DX2                !
 ! D115  D(12,13,15,42)         58.5329         estimate D2E/DX2                !
 ! D116  D(40,13,15,11)         49.2102         estimate D2E/DX2                !
 ! D117  D(40,13,15,41)        -68.2617         estimate D2E/DX2                !
 ! D118  D(40,13,15,42)        177.878          estimate D2E/DX2                !
 --------------------------------------------------------------------------------
 Trust Radius=3.00D-01 FncErr=1.00D-07 GrdErr=1.00D-06
 Number of steps in this run=    251 maximum allowed number of steps=    252.
 GradGradGradGradGradGradGradGradGradGradGradGradGradGradGradGradGradGrad

                          Input orientation:                          
 ---------------------------------------------------------------------
 Center     Atomic      Atomic             Coordinates (Angstroms)
 Number     Number       Type             X           Y           Z
 ---------------------------------------------------------------------
      1          6           0        3.550653   -4.911798   -0.472983
      2          6           0        7.032250   -2.159556   -1.562096
      3          6           0        2.395016   -5.735045   -6.143145
      4          6           0        1.253171   -5.048133   -5.403235
      5          6           0        3.417377   -6.314328   -5.172448
      6          6           0        1.770584   -3.984731   -4.438446
      7          6           0        3.938895   -5.258712   -4.199120
      8          6           0        2.797259   -4.557727   -3.444477
      9          6           0        3.574612   -7.041628    0.769774
     10          6           0        5.658651   -6.278515   -0.319364
     11          6           0        5.598064   -1.685886   -1.225749
     12          6           0        3.309956   -3.427157   -2.522275
     13          6           0        4.268351   -3.894421   -1.409961
     14          7           0        4.258531   -6.018267   -0.009716
     15          7           0        4.681725   -2.698788   -0.580017
     16          8           0        7.650789   -1.536027   -2.472408
     17          8           0        2.387304   -4.700269   -0.100761
     18          8           0        7.449778   -3.156038   -0.892464
     19          1           0        1.995940   -6.533125   -6.779168
     20          1           0        2.888076   -5.013576   -6.806206
     21          1           0        0.569651   -4.588382   -6.125926
     22          1           0        0.674565   -5.795746   -4.846843
     23          1           0        2.959414   -7.135207   -4.606782
     24          1           0        4.255666   -6.742964   -5.733274
     25          1           0        2.224992   -3.167764   -5.013687
     26          1           0        0.922821   -3.554463   -3.891829
     27          1           0        4.619914   -5.748136   -3.495176
     28          1           0        4.529281   -4.517019   -4.751889
     29          1           0        2.280258   -5.308216   -2.832627
     30          1           0        3.653617   -7.995535    0.239684
     31          1           0        2.517448   -6.810361    0.920651
     32          1           0        4.062342   -7.123410    1.745582
     33          1           0        6.076314   -6.993662    0.395416
     34          1           0        6.236282   -5.356331   -0.258738
     35          1           0        5.721730   -6.689946   -1.330278
     36          1           0        5.092347   -1.293477   -2.111263
     37          1           0        5.682965   -0.871325   -0.498337
     38          1           0        3.807817   -2.679870   -3.151056
     39          1           0        2.445177   -2.922651   -2.070587
     40          1           0        5.177004   -4.311694   -1.843854
     41          1           0        5.209872   -3.072334    0.218882
     42          1           0        3.849287   -2.254122   -0.181031
 ---------------------------------------------------------------------
                    Distance matrix (angstroms):
                    1          2          3          4          5
     1  C    0.000000
     2  C    4.569740   0.000000
     3  C    5.844995   7.434654   0.000000
     4  C    5.440992   7.516381   1.524180   0.000000
     5  C    4.906101   6.585141   1.524153   2.517995   0.000000
     6  C    4.444434   6.268157   2.521807   1.526223   2.945796
     7  C    3.762337   5.111508   2.527783   2.950821   1.527637
     8  C    3.085895   5.218212   2.971647   2.541936   2.540881
     9  C    2.466007   6.420865   7.133516   6.889786   5.988631
    10  C    2.516976   4.516302   6.697992   6.838701   5.345748
    11  C    3.894234   1.547379   7.129936   6.901752   6.461757
    12  C    2.541987   4.047745   4.390234   3.893309   3.920550
    13  C    1.558228   3.266809   5.412976   5.135036   4.553725
    14  N    1.392832   4.999305   6.416530   6.250072   5.239179
    15  N    2.487608   2.603885   6.737676   6.366932   5.980061
    16  O    5.674914   1.264929   7.663498   7.864740   6.931389
    17  O    1.239627   5.492381   6.130352   5.433553   5.421093
    18  O    4.296724   1.271106   7.731206   7.894619   6.674827
    19  H    6.694312   8.468198   1.095773   2.156409   2.156364
    20  H    6.368602   7.267758   1.096939   2.154631   2.154363
    21  H    6.398964   8.276046   2.155711   1.095835   3.463749
    22  H    5.308851   8.026930   2.155002   1.096942   2.810331
    23  H    4.730899   7.114438   2.153929   2.810957   1.097065
    24  H    5.614346   6.790860   2.155438   3.463575   1.095894
    25  H    5.041530   6.003307   2.809896   2.152201   3.368657
    26  H    4.520661   6.685698   3.462761   2.150472   3.934419
    27  H    3.313069   4.736462   3.458624   3.932639   2.140073
    28  H    4.407108   4.690124   2.823875   3.382193   2.154883
    29  H    2.709054   5.840355   3.339892   2.780391   2.789276
    30  H    3.166690   6.979988   6.887263   6.803812   5.672164
    31  H    2.571821   6.940998   7.146223   6.685460   6.179140
    32  H    3.174127   6.663402   8.181659   7.956368   6.994979
    33  H    3.386331   5.302287   7.608472   7.789233   6.207460
    34  H    2.730588   3.542835   7.037399   7.168837   5.745305
    35  H    2.934338   4.721826   5.928115   6.265185   4.495931
    36  H    4.260638   2.194289   6.577172   6.298713   6.114354
    37  H    4.568678   2.147485   8.144337   7.818364   7.523728
    38  H    3.495671   3.632147   4.503631   4.148155   4.177051
    39  H    2.780490   4.677833   4.949526   4.128571   4.697893
    40  H    2.210075   2.855350   5.315006   5.348644   4.264548
    41  H    2.572025   2.706678   7.449082   7.153143   6.541407
    42  H    2.690290   3.470956   7.055390   6.466663   6.448726
                    6          7          8          9         10
     6  C    0.000000
     7  C    2.526238   0.000000
     8  C    1.539598   1.537595   0.000000
     9  C    6.302752   5.291635   4.953176   0.000000
    10  C    6.111084   4.364639   4.573293   2.472202   0.000000
    11  C    5.500520   4.935470   4.584183   6.063039   4.681607
    12  C    2.520370   2.561633   1.546448   4.896124   4.301097
    13  C    3.926667   3.122377   2.596794   3.890685   2.967531
    14  N    5.471636   4.269684   4.008251   1.456921   1.457376
    15  N    5.001586   4.494765   3.900256   4.680587   3.719781
    16  O    6.666203   5.533360   5.799340   7.578826   5.576325
    17  O    4.439352   4.417673   3.371768   2.765771   3.638730
    18  O    6.746404   5.261323   5.488482   5.733913   3.645058
    19  H    3.467575   3.472153   3.957837   7.728992   7.430299
    20  H    2.813112   2.821562   3.393710   7.872726   7.166260
    21  H    2.157365   3.938747   3.486166   7.911946   7.903837
    22  H    2.155880   3.371023   2.829337   6.442738   6.750722
    23  H    3.371521   2.155645   2.832075   5.412447   5.138264
    24  H    3.931929   2.158003   3.484366   6.545432   5.611997
    25  H    1.097645   2.823658   2.172995   7.090607   6.595715
    26  H    1.096641   3.477872   2.172598   6.397098   6.527714
    27  H    3.481097   1.094925   2.177547   4.577726   3.383202
    28  H    2.827011   1.097369   2.170457   6.146040   4.901594
    29  H    2.142436   2.149611   1.097672   4.202067   4.321054
    30  H    6.443389   5.222506   5.111254   1.094155   2.698306
    31  H    6.104253   5.535357   4.920060   1.092631   3.418720
    32  H    7.303811   6.231518   5.926202   1.093970   2.743365
    33  H    7.138571   5.356153   5.606314   2.530012   1.093978
    34  H    6.268469   4.562250   4.755374   3.313993   1.089842
    35  H    5.708804   3.668404   4.191506   3.023908   1.093254
    36  H    4.867519   4.627385   4.207163   6.606446   5.327495
    37  H    6.365884   5.998895   5.531419   6.642732   5.410205
    38  H    2.740503   2.786763   2.152597   5.869602   4.939060
    39  H    2.681389   3.495573   2.164489   5.129254   4.965383
    40  H    4.294474   2.824364   2.878491   4.105028   2.534648
    41  H    5.861047   5.090616   4.631122   4.328147   3.281876
    42  H    5.043966   5.018030   4.130791   4.888730   4.414597
                   11         12         13         14         15
    11  C    0.000000
    12  C    3.154116   0.000000
    13  C    2.584511   1.540812   0.000000
    14  N    4.694956   3.731836   2.543915   0.000000
    15  N    1.510833   2.486893   1.513018   3.394595   0.000000
    16  O    2.406303   4.735155   4.258133   6.136997   3.707896
    17  O    4.545446   2.887184   2.429348   2.290611   3.082204
    18  O    2.387733   4.457345   3.306734   4.376718   2.822909
    19  H    8.204358   5.430912   6.399609   7.156108   7.768208
    20  H    7.039820   4.587676   5.681296   7.005700   6.880469
    21  H    7.597445   4.673758   6.033431   7.284260   7.157990
    22  H    7.365060   4.237819   5.323766   6.024294   6.622256
    23  H    6.934620   4.268218   4.736631   4.905943   6.234020
    24  H    6.906074   4.711630   5.177393   5.769256   6.564521
    25  H    5.284132   2.729755   4.205970   6.107403   5.090471
    26  H    5.697145   2.755049   4.179451   5.680502   5.082287
    27  H    4.754887   2.837158   2.812112   3.514541   4.219062
    28  H    4.646641   2.765091   3.409427   4.981491   4.553429
    29  H    5.168285   2.166790   2.824059   3.519455   4.201239
    30  H    6.763138   5.349449   4.462999   2.082717   5.457513
    31  H    6.352752   4.891613   4.123120   2.127055   4.882738
    32  H    6.383879   5.695874   4.519542   2.083483   5.036797
    33  H    5.570402   5.374535   4.016642   2.102347   4.619772
    34  H    3.848973   4.172373   2.708366   2.100398   3.095545
    35  H    5.006679   4.228866   3.151764   2.082304   4.192117
    36  H    1.092644   2.810416   2.817038   5.237880   2.118543
    37  H    1.095374   4.032341   3.459957   5.362721   2.085371
    38  H    2.810658   1.096207   2.172243   4.606089   2.715569
    39  H    3.490564   1.098359   2.169039   4.137425   2.697047
    40  H    2.730240   2.174518   1.089968   2.668342   2.108091
    41  H    2.039580   3.354031   2.053148   3.104163   1.027967
    42  H    2.114840   2.673633   2.092000   3.790200   1.024632
                   16         17         18         19         20
    16  O    0.000000
    17  O    6.583419   0.000000
    18  O    2.271797   5.351643   0.000000
    19  H    8.688871   6.936400   8.706455   0.000000
    20  H    7.318374   6.731414   7.696228   1.762290   0.000000
    21  H    8.532736   6.294363   8.762242   2.498610   2.453296
    22  H    8.511806   5.163219   8.276997   2.454311   3.057862
    23  H    7.610215   5.153684   7.056438   2.451539   3.056775
    24  H    7.019423   6.276033   6.819226   2.498857   2.451993
    25  H    6.209664   5.148957   6.654547   3.807236   2.657034
    26  H    7.166198   4.222533   7.194172   4.284943   3.805894
    27  H    5.289056   4.195786   4.636940   4.276219   3.808118
    28  H    4.881204   5.123928   5.027597   3.819995   2.675882
    29  H    6.572805   2.800741   5.926217   4.142031   4.030581
    30  H    8.065858   3.546580   6.254065   7.358724   7.689129
    31  H    8.104482   2.347915   6.400730   7.722437   7.941670
    32  H    7.866844   3.476542   5.845858   8.791463   8.886134
    33  H    6.363109   4.372029   4.274622   8.266572   8.120897
    34  H    4.636365   3.907685   2.591423   7.866470   7.361882
    35  H    5.620374   4.072950   3.958073   6.602765   6.389491
    36  H    2.595165   4.792244   3.242235   7.670136   6.382824
    37  H    2.865504   5.067569   2.914940   9.224910   8.047289
    38  H    4.066617   3.924815   4.311828   5.594075   4.433084
    39  H    5.402091   2.653957   5.146696   5.950469   5.195596
    40  H    3.770811   3.312369   2.721431   6.277838   5.509698
    41  H    3.944788   3.274024   2.501854   8.442697   7.649250
    42  H    4.496386   2.850872   3.779302   8.079614   7.240957
                   21         22         23         24         25
    21  H    0.000000
    22  H    1.762041   0.000000
    23  H    3.808554   2.659383   0.000000
    24  H    4.287552   3.808841   1.761565   0.000000
    25  H    2.448548   3.055806   4.055311   4.174146   0.000000
    26  H    2.486948   2.448884   4.180980   4.966419   1.761746
    27  H    4.966941   4.170736   2.432467   2.476176   3.834037
    28  H    4.191866   4.062388   3.056215   2.448022   2.683053
    29  H    3.780232   2.621640   2.635673   3.791371   3.056405
    30  H    7.851149   6.291786   4.970947   6.132506   7.276417
    31  H    7.641031   6.139189   5.554581   6.877548   6.969247
    32  H    8.976965   7.529926   6.447412   7.491022   8.044296
    33  H    8.867729   7.622019   5.895515   6.398317   7.663457
    34  H    8.192945   7.223329   5.727805   5.984659   6.594680
    35  H    7.345660   6.216083   4.308610   4.640962   6.180650
    36  H    6.886850   6.875363   6.700958   6.596659   4.489848
    37  H    8.463584   8.260962   7.970776   7.994866   6.133481
    38  H    4.793537   4.733037   4.763293   4.834993   2.492542
    39  H    4.768442   4.370050   4.943921   5.593563   2.961486
    40  H    6.296062   5.611800   4.530310   4.678411   4.480043
    41  H    8.005413   7.324448   6.697651   7.057776   6.024814
    42  H    7.179594   6.662714   6.648619   7.151381   5.179540
                   26         27         28         29         30
    26  H    0.000000
    27  H    4.317178   0.000000
    28  H    3.830505   1.761588   0.000000
    29  H    2.457681   2.471131   3.060664   0.000000
    30  H    6.652050   4.464719   6.146760   4.306611   0.000000
    31  H    6.025253   5.004818   6.440853   4.049666   1.777423
    32  H    7.373899   5.446816   7.016298   5.237438   1.787564
    33  H    7.534392   4.336951   5.917924   5.260326   2.626303
    34  H    6.684231   3.638775   4.879211   4.719888   3.726121
    35  H    6.278720   2.605338   4.225040   4.001244   2.906275
    36  H    5.066302   4.688538   4.204898   4.954426   7.246687
    37  H    6.432262   5.821889   5.719683   6.059152   7.444279
    38  H    3.104329   3.192519   2.541317   3.056638   6.306916
    39  H    2.456355   3.839570   3.751651   2.509746   5.703669
    40  H    4.781806   2.258446   2.986364   3.218985   4.498058
    41  H    5.958960   4.615429   5.221004   4.784717   5.163358
    42  H    4.901542   4.877043   5.145467   4.338237   5.760131
                   31         32         33         34         35
    31  H    0.000000
    32  H    1.779103   0.000000
    33  H    3.602082   2.428141   0.000000
    34  H    4.163518   3.444689   1.770412   0.000000
    35  H    3.917729   3.521701   1.787735   1.786475   0.000000
    36  H    6.801368   7.065712   6.304264   4.609471   5.488893
    37  H    6.877948   6.837408   6.199720   4.525355   5.877923
    38  H    5.941785   6.617167   6.027632   4.628865   4.801980
    39  H    4.905815   5.901250   5.986607   4.855726   5.047413
    40  H    4.578107   4.693855   3.607776   2.173920   2.493305
    41  H    4.659879   4.478711   4.019789   2.549173   3.968503
    42  H    4.873069   5.240915   5.268318   3.915033   4.950085
                   36         37         38         39         40
    36  H    0.000000
    37  H    1.768777   0.000000
    38  H    2.157144   3.718055   0.000000
    39  H    3.108596   4.142847   1.755889   0.000000
    40  H    3.031222   3.728612   2.499260   3.073065   0.000000
    41  H    2.933891   2.362765   3.671004   3.592716   2.406652
    42  H    2.488741   2.318445   3.000671   2.447218   2.959968
                   41         42
    41  H    0.000000
    42  H    1.637251   0.000000
 Stoichiometry    C13H24N2O3
 Framework group  C1[X(C13H24N2O3)]
 Deg. of freedom   120
 Full point group                 C1      NOp   1
 Largest Abelian subgroup         C1      NOp   1
 Largest concise Abelian subgroup C1      NOp   1
                         Standard orientation:                         
 ---------------------------------------------------------------------
 Center     Atomic      Atomic             Coordinates (Angstroms)
 Number     Number       Type             X           Y           Z
 ---------------------------------------------------------------------
      1          6           0        0.647359    1.664379   -0.653499
      2          6           0        3.019284   -2.094279    0.409039
      3          6           0       -4.318316   -1.000729    0.896739
      4          6           0       -4.286115   -0.629088   -0.581087
      5          6           0       -3.195215   -0.315908    1.666613
      6          6           0       -2.923828   -0.923602   -1.203016
      7          6           0       -1.827045   -0.600914    1.049719
      8          6           0       -1.779623   -0.229723   -0.441645
      9          6           0        0.802100    3.930753    0.306083
     10          6           0        1.614683    2.016765    1.643298
     11          6           0        2.512975   -1.735408   -1.008439
     12          6           0       -0.427079   -0.596572   -1.095518
     13          6           0        0.792852    0.121867   -0.487475
     14          7           0        1.038276    2.495756    0.393390
     15          7           0        2.040715   -0.316315   -1.222361
     16          8           0        2.986415   -3.313151    0.745664
     17          8           0        0.247028    2.139006   -1.726410
     18          8           0        3.409007   -1.111792    1.115119
     19          1           0       -5.286036   -0.719945    1.327315
     20          1           0       -4.224173   -2.088459    1.002843
     21          1           0       -5.063674   -1.184376   -1.117661
     22          1           0       -4.517481    0.436983   -0.696167
     23          1           0       -3.369192    0.767195    1.679693
     24          1           0       -3.205303   -0.652611    2.709452
     25          1           0       -2.760107   -2.008923   -1.213011
     26          1           0       -2.929063   -0.593977   -2.248932
     27          1           0       -1.074281   -0.036132    1.609386
     28          1           0       -1.587756   -1.664446    1.175650
     29          1           0       -1.934489    0.853404   -0.529599
     30          1           0        0.156032    4.229650    1.137006
     31          1           0        0.320892    4.215311   -0.632696
     32          1           0        1.762167    4.449417    0.383733
     33          1           0        2.132109    2.832388    2.156930
     34          1           0        2.335661    1.223454    1.446818
     35          1           0        0.808367    1.636789    2.276289
     36          1           0        1.710714   -2.406505   -1.324473
     37          1           0        3.352322   -1.865581   -1.700101
     38          1           0       -0.297170   -1.681959   -1.013500
     39          1           0       -0.483910   -0.373542   -2.169492
     40          1           0        0.919522   -0.164952    0.556421
     41          1           0        2.803095    0.278974   -0.874333
     42          1           0        1.947022   -0.095991   -2.218629
 ---------------------------------------------------------------------
 Rotational constants (GHZ):      0.4391266      0.2697290      0.2092372
 Standard basis: 6-31G(d) (6D, 7F)
 There are   318 symmetry adapted basis functions of A   symmetry.
 Integral buffers will be    131072 words long.
 Raffenetti 2 integral format.
 Two-electron integral symmetry is turned on.
   318 basis functions,   600 primitive gaussians,   318 cartesian basis functions
    70 alpha electrons       70 beta electrons
       nuclear repulsion energy      1439.0682158148 Hartrees.
 NAtoms=   42 NActive=   42 NUniq=   42 SFac= 1.00D+00 NAtFMM=   60 NAOKFM=F Big=F
 ------------------------------------------------------------------------------
 Polarizable Continuum Model (PCM)
 =================================
 Model                : PCM.
 Atomic radii         : UFF (Universal Force Field).
 Polarization charges : Total charges.
 Charge compensation  : None.
 Solution method      : Matrix inversion.
 Cavity type          : Scaled VdW (van der Waals Surface) (Alpha=1.100).
 Cavity algorithm     : GePol (No added spheres)
                        Default sphere list used, NSphG=   42.
                        Lebedev-Laikov grids with approx.  5.0 points / Ang**2.
                        Smoothing algorithm: Karplus/York (Gamma=1.0000).
                        Polarization charges: spherical gaussians, with
                                              point-specific exponents (IZeta= 3).
                        Self-potential: point-specific (ISelfS= 7).
                        Self-field    : sphere-specific E.n sum rule (ISelfD= 2).
 1st derivatives      : Analytical E(r).r(x)/FMM algorithm (CHGder, D1EAlg=3).
                        Cavity 1st derivative terms included.
 Solvent              : Water, Eps=  78.355300 Eps(inf)=   1.777849
 ------------------------------------------------------------------------------
 One-electron integrals computed using PRISM.
 PrsmSu:  requested number of processors reduced to:  10 ShMem   1 Linda.
 NBasis=   318 RedAO= T  NBF=   318
 NBsUse=   318 1.00D-06 NBFU=   318
 Harris functional with IExCor=  402 diagonalized for initial guess.
 ExpMin= 1.61D-01 ExpMax= 5.48D+03 ExpMxC= 8.25D+02 IAcc=3 IRadAn=         5 AccDes= 0.00D+00
 HarFok:  IExCor=  402 AccDes= 0.00D+00 IRadAn=         5 IDoV= 1
 ScaDFX=  1.000000  1.000000  1.000000  1.000000
 FoFCou: FMM=F IPFlag=           0 FMFlag=      100000 FMFlg1=           0
         NFxFlg=           0 DoJE=T BraDBF=F KetDBF=T FulRan=T
         Omega=  0.000000  0.000000  1.000000  0.000000  0.000000 ICntrl=     500 IOpCl=  0
         NMat0=    1 NMatS0=    1 NMatT0=    0 NMatD0=    1 NMtDS0=    0 NMtDT0=    0
         I1Cent=           4 NGrid=           0.
 Petite list used in FoFCou.
 Initial guess orbital symmetries:
       Occupied  (A) (A) (A) (A) (A) (A) (A) (A) (A) (A) (A) (A)
                 (A) (A) (A) (A) (A) (A) (A) (A) (A) (A) (A) (A)
                 (A) (A) (A) (A) (A) (A) (A) (A) (A) (A) (A) (A)
                 (A) (A) (A) (A) (A) (A) (A) (A) (A) (A) (A) (A)
                 (A) (A) (A) (A) (A) (A) (A) (A) (A) (A) (A) (A)
                 (A) (A) (A) (A) (A) (A) (A) (A) (A) (A)
       Virtual   (A) (A) (A) (A) (A) (A) (A) (A) (A) (A) (A) (A)
                 (A) (A) (A) (A) (A) (A) (A) (A) (A) (A) (A) (A)
                 (A) (A) (A) (A) (A) (A) (A) (A) (A) (A) (A) (A)
                 (A) (A) (A) (A) (A) (A) (A) (A) (A) (A) (A) (A)
                 (A) (A) (A) (A) (A) (A) (A) (A) (A) (A) (A) (A)
                 (A) (A) (A) (A) (A) (A) (A) (A) (A) (A) (A) (A)
                 (A) (A) (A) (A) (A) (A) (A) (A) (A) (A) (A) (A)
                 (A) (A) (A) (A) (A) (A) (A) (A) (A) (A) (A) (A)
                 (A) (A) (A) (A) (A) (A) (A) (A) (A) (A) (A) (A)
                 (A) (A) (A) (A) (A) (A) (A) (A) (A) (A) (A) (A)
                 (A) (A) (A) (A) (A) (A) (A) (A) (A) (A) (A) (A)
                 (A) (A) (A) (A) (A) (A) (A) (A) (A) (A) (A) (A)
                 (A) (A) (A) (A) (A) (A) (A) (A) (A) (A) (A) (A)
                 (A) (A) (A) (A) (A) (A) (A) (A) (A) (A) (A) (A)
                 (A) (A) (A) (A) (A) (A) (A) (A) (A) (A) (A) (A)
                 (A) (A) (A) (A) (A) (A) (A) (A) (A) (A) (A) (A)
                 (A) (A) (A) (A) (A) (A) (A) (A) (A) (A) (A) (A)
                 (A) (A) (A) (A) (A) (A) (A) (A) (A) (A) (A) (A)
                 (A) (A) (A) (A) (A) (A) (A) (A) (A) (A) (A) (A)
                 (A) (A) (A) (A) (A) (A) (A) (A) (A) (A) (A) (A)
                 (A) (A) (A) (A) (A) (A) (A) (A)
 The electronic state of the initial guess is 1-A.
 Requested convergence on RMS density matrix=1.00D-08 within 128 cycles.
 Requested convergence on MAX density matrix=1.00D-06.
 Requested convergence on             energy=1.00D-06.
 No special actions if energy rises.
 CoulSu:  requested number of processors reduced to:   4 ShMem   1 Linda.
 CoulSu:  requested number of processors reduced to:  11 ShMem   1 Linda.
 CoulSu:  requested number of processors reduced to:   4 ShMem   1 Linda.
 CoulSu:  requested number of processors reduced to:  11 ShMem   1 Linda.
 CoulSu:  requested number of processors reduced to:  11 ShMem   1 Linda.
 CoulSu:  requested number of processors reduced to:  11 ShMem   1 Linda.
 CoulSu:  requested number of processors reduced to:  11 ShMem   1 Linda.
 CoulSu:  requested number of processors reduced to:  11 ShMem   1 Linda.
 CoulSu:  requested number of processors reduced to:  11 ShMem   1 Linda.
 CoulSu:  requested number of processors reduced to:  11 ShMem   1 Linda.
 CoulSu:  requested number of processors reduced to:  11 ShMem   1 Linda.
 CoulSu:  requested number of processors reduced to:  11 ShMem   1 Linda.
 CoulSu:  requested number of processors reduced to:  11 ShMem   1 Linda.
 CoulSu:  requested number of processors reduced to:  11 ShMem   1 Linda.
 CoulSu:  requested number of processors reduced to:  11 ShMem   1 Linda.
 CoulSu:  requested number of processors reduced to:  11 ShMem   1 Linda.
 CoulSu:  requested number of processors reduced to:  11 ShMem   1 Linda.
 Error on total polarization charges =  0.00921
 SCF Done:  E(RB3LYP) =  -845.032980247     A.U. after   13 cycles
             Convg  =    0.7977D-08             -V/T =  2.0097
 PrsmSu:  requested number of processors reduced to:  10 ShMem   1 Linda.
 D1PCM: PCM CHGder 1st derivatives, ID1Alg=3 FixD1E=F DoIter=F DoCFld=F I1PDM=0.
 CoulSu:  requested number of processors reduced to:   8 ShMem   1 Linda.
 CoulSu:  requested number of processors reduced to:   8 ShMem   1 Linda.
 CoulSu:  requested number of processors reduced to:   8 ShMem   1 Linda.
 Calling FoFJK, ICntrl=      2127 FMM=F ISym2X=0 I1Cent= 0 IOpClX= 0 NMat=1 NMatS=1 NMatT=0.
 ***** Axes restored to original set *****
 -------------------------------------------------------------------
 Center     Atomic                   Forces (Hartrees/Bohr)
 Number     Number              X              Y              Z
 -------------------------------------------------------------------
      1        6           0.004025268   -0.019478401    0.025110169
      2        6           0.021588291   -0.021778537   -0.013014224
      3        6          -0.001789739   -0.003659955   -0.003405727
      4        6          -0.002552813    0.001327557   -0.002881614
      5        6           0.002703307   -0.002359593   -0.002294087
      6        6          -0.002715149    0.000359962    0.002898607
      7        6           0.000395592   -0.002094174    0.001836950
      8        6           0.003131167    0.005142615    0.000440685
      9        6          -0.001646223   -0.001128770    0.001546887
     10        6          -0.000712069    0.002803605   -0.006044446
     11        6          -0.005863259    0.019954817   -0.007924360
     12        6          -0.004008547   -0.002482456   -0.001794263
     13        6          -0.011079989   -0.004465158   -0.009989797
     14        7          -0.016320990    0.027176712   -0.009923988
     15        7           0.016591971   -0.012422045    0.009417552
     16        8          -0.019423889   -0.002659994    0.019922614
     17        8           0.008371098    0.004880766   -0.010113937
     18        8          -0.011186167    0.008752409    0.000052027
     19        1           0.000156561   -0.000403199   -0.002146515
     20        1           0.000807987    0.001281216   -0.001234106
     21        1          -0.002073605    0.000143995    0.000099051
     22        1          -0.001053755   -0.001260071    0.000797145
     23        1          -0.000672714   -0.001388649    0.000832968
     24        1           0.001067842   -0.001650456    0.000525441
     25        1           0.001732453    0.001301875   -0.000005385
     26        1           0.000439303    0.001908038    0.001449146
     27        1           0.002352506    0.000549996    0.001297359
     28        1           0.000618616    0.002133904   -0.000069426
     29        1          -0.000460811   -0.000194024    0.001314545
     30        1           0.000309887   -0.002668729    0.001621931
     31        1           0.003764608    0.003922945   -0.002997584
     32        1          -0.000515310   -0.002761560    0.001418173
     33        1          -0.002701228    0.000883373   -0.000855736
     34        1           0.004233652    0.000070372   -0.001307576
     35        1           0.007128635   -0.003398014   -0.001050324
     36        1           0.001052943   -0.000811678    0.001926718
     37        1          -0.002406390    0.000074689   -0.000466549
     38        1           0.002147336   -0.001057800    0.000912591
     39        1           0.001423622   -0.002108070    0.002258836
     40        1           0.001126170    0.003662574    0.003689525
     41        1           0.003626545    0.001865250    0.000536866
     42        1          -0.001612714    0.002034663   -0.002386144
 -------------------------------------------------------------------
 Cartesian Forces:  Max     0.027176712 RMS     0.006992411

 GradGradGradGradGradGradGradGradGradGradGradGradGradGradGradGradGradGrad
 Berny optimization.
 Internal  Forces:  Max     0.033494222 RMS     0.004714850
 Search for a local minimum.
 Step number   1 out of a maximum of  251
 All quantities printed in internal units (Hartrees-Bohrs-Radians)
 Mixed Optimization -- RFO/linear search
 Second derivative matrix not updated -- first step.
 ITU=  0
     Eigenvalues ---    0.00230   0.00230   0.00230   0.00230   0.00230
     Eigenvalues ---    0.00230   0.00231   0.00503   0.00568   0.00683
     Eigenvalues ---    0.00867   0.00933   0.00939   0.01173   0.01787
     Eigenvalues ---    0.01895   0.01959   0.02903   0.03250   0.03537
     Eigenvalues ---    0.03577   0.03703   0.03947   0.04214   0.04375
     Eigenvalues ---    0.04450   0.04657   0.04690   0.04710   0.04787
     Eigenvalues ---    0.04837   0.04895   0.05348   0.05357   0.05479
     Eigenvalues ---    0.05578   0.05954   0.06471   0.07353   0.07530
     Eigenvalues ---    0.07648   0.07744   0.08159   0.08175   0.08205
     Eigenvalues ---    0.08212   0.08224   0.08397   0.08588   0.08631
     Eigenvalues ---    0.09085   0.09735   0.12091   0.12131   0.12399
     Eigenvalues ---    0.12813   0.13181   0.14129   0.15874   0.15891
     Eigenvalues ---    0.16000   0.16000   0.16000   0.16000   0.16000
     Eigenvalues ---    0.16000   0.17332   0.17334   0.20739   0.21938
     Eigenvalues ---    0.21993   0.22086   0.24944   0.24967   0.24968
     Eigenvalues ---    0.25000   0.25000   0.25000   0.26963   0.27433
     Eigenvalues ---    0.27662   0.27875   0.27955   0.28323   0.28447
     Eigenvalues ---    0.29491   0.29551   0.29711   0.31049   0.31267
     Eigenvalues ---    0.33864   0.33941   0.33944   0.33975   0.34009
     Eigenvalues ---    0.34023   0.34023   0.34056   0.34105   0.34140
     Eigenvalues ---    0.34147   0.34154   0.34199   0.34250   0.34337
     Eigenvalues ---    0.34357   0.34358   0.34439   0.34509   0.34510
     Eigenvalues ---    0.34816   0.34831   0.37295   0.37352   0.43091
     Eigenvalues ---    0.43607   0.46829   0.75901   0.77956   0.87190
 RFO step:  Lambda=-2.09604237D-02 EMin= 2.30000000D-03
 Linear search not attempted -- first point.
 Iteration  1 RMS(Cart)=  0.10227090 RMS(Int)=  0.00454601
 Iteration  2 RMS(Cart)=  0.00651215 RMS(Int)=  0.00072875
 Iteration  3 RMS(Cart)=  0.00002200 RMS(Int)=  0.00072863
 Iteration  4 RMS(Cart)=  0.00000005 RMS(Int)=  0.00072863
 Variable       Old X    -DE/DX   Delta X   Delta X   Delta X     New X
                                 (Linear)    (Quad)   (Total)
    R1        2.94462  -0.01103   0.00000  -0.03794  -0.03794   2.90668
    R2        2.63207  -0.02891   0.00000  -0.05910  -0.05910   2.57297
    R3        2.34255  -0.01006   0.00000  -0.01127  -0.01127   2.33129
    R4        2.92412  -0.00507   0.00000  -0.01693  -0.01693   2.90719
    R5        2.39037  -0.02515   0.00000  -0.03141  -0.03141   2.35896
    R6        2.40204  -0.01051   0.00000  -0.01347  -0.01347   2.38857
    R7        2.88028   0.00637   0.00000   0.02084   0.02085   2.90113
    R8        2.88023   0.00637   0.00000   0.02057   0.02058   2.90081
    R9        2.07071   0.00148   0.00000   0.00409   0.00409   2.07480
   R10        2.07291   0.00195   0.00000   0.00540   0.00540   2.07832
   R11        2.88414   0.00646   0.00000   0.02015   0.02015   2.90429
   R12        2.07083   0.00129   0.00000   0.00355   0.00355   2.07438
   R13        2.07292   0.00182   0.00000   0.00504   0.00504   2.07796
   R14        2.88682   0.00639   0.00000   0.02026   0.02027   2.90708
   R15        2.07315   0.00175   0.00000   0.00485   0.00485   2.07800
   R16        2.07094   0.00119   0.00000   0.00329   0.00329   2.07423
   R17        2.90942   0.00156   0.00000   0.00435   0.00434   2.91376
   R18        2.07425   0.00169   0.00000   0.00469   0.00469   2.07893
   R19        2.07235   0.00113   0.00000   0.00313   0.00313   2.07548
   R20        2.90563   0.00355   0.00000   0.01053   0.01052   2.91615
   R21        2.06911   0.00205   0.00000   0.00564   0.00564   2.07475
   R22        2.07373   0.00181   0.00000   0.00502   0.00502   2.07874
   R23        2.92236  -0.00120   0.00000  -0.00398  -0.00398   2.91838
   R24        2.07430   0.00108   0.00000   0.00300   0.00300   2.07730
   R25        2.75318   0.00180   0.00000   0.00457   0.00457   2.75775
   R26        2.06765   0.00156   0.00000   0.00429   0.00429   2.07194
   R27        2.06477  -0.00323   0.00000  -0.00881  -0.00881   2.05596
   R28        2.06730   0.00124   0.00000   0.00341   0.00341   2.07071
   R29        2.75404   0.00954   0.00000   0.02422   0.02422   2.77826
   R30        2.06732  -0.00217   0.00000  -0.00595  -0.00595   2.06137
   R31        2.05950   0.00223   0.00000   0.00604   0.00604   2.06555
   R32        2.06595   0.00266   0.00000   0.00728   0.00728   2.07323
   R33        2.85506  -0.00769   0.00000  -0.02306  -0.02306   2.83200
   R34        2.06480  -0.00234   0.00000  -0.00639  -0.00639   2.05841
   R35        2.06996  -0.00044   0.00000  -0.00121  -0.00121   2.06874
   R36        2.91171  -0.00300   0.00000  -0.00981  -0.00981   2.90190
   R37        2.07153  -0.00027   0.00000  -0.00074  -0.00074   2.07079
   R38        2.07560  -0.00116   0.00000  -0.00323  -0.00323   2.07237
   R39        2.85919   0.00113   0.00000   0.00340   0.00340   2.86259
   R40        2.05974  -0.00193   0.00000  -0.00523  -0.00523   2.05451
   R41        1.94258   0.00160   0.00000   0.00355   0.00355   1.94612
   R42        1.93627   0.00126   0.00000   0.00277   0.00277   1.93904
    A1        2.07669  -0.00951   0.00000  -0.03444  -0.03470   2.04199
    A2        2.09600  -0.00631   0.00000  -0.02275  -0.02301   2.07299
    A3        2.10905   0.01587   0.00000   0.05930   0.05906   2.16811
    A4        2.04739  -0.01031   0.00000  -0.03720  -0.04291   2.00448
    A5        2.01519  -0.00618   0.00000  -0.02193  -0.02765   1.98754
    A6        2.22048   0.01655   0.00000   0.06193   0.05610   2.27659
    A7        1.94403  -0.00074   0.00000  -0.00105  -0.00105   1.94298
    A8        1.91471   0.00084   0.00000   0.00803   0.00800   1.92271
    A9        1.91108  -0.00015   0.00000  -0.00423  -0.00425   1.90683
   A10        1.91468   0.00064   0.00000   0.00642   0.00638   1.92106
   A11        1.91075  -0.00003   0.00000  -0.00351  -0.00352   1.90722
   A12        1.86699  -0.00056   0.00000  -0.00589  -0.00586   1.86112
   A13        1.94648  -0.00002   0.00000   0.00274   0.00272   1.94920
   A14        1.91369   0.00071   0.00000   0.00847   0.00845   1.92213
   A15        1.91159  -0.00013   0.00000  -0.00354  -0.00353   1.90806
   A16        1.91350  -0.00001   0.00000   0.00105   0.00101   1.91451
   A17        1.91034  -0.00012   0.00000  -0.00305  -0.00305   1.90729
   A18        1.86652  -0.00044   0.00000  -0.00607  -0.00606   1.86047
   A19        1.95212  -0.00047   0.00000   0.00182   0.00183   1.95394
   A20        1.91003   0.00015   0.00000  -0.00253  -0.00253   1.90749
   A21        1.91328   0.00075   0.00000   0.00845   0.00843   1.92172
   A22        1.90820   0.00000   0.00000  -0.00276  -0.00276   1.90544
   A23        1.91261   0.00006   0.00000   0.00050   0.00045   1.91306
   A24        1.86557  -0.00050   0.00000  -0.00586  -0.00585   1.85972
   A25        1.95505   0.00101   0.00000   0.00548   0.00548   1.96053
   A26        1.90461   0.00028   0.00000   0.00286   0.00288   1.90749
   A27        1.90327   0.00105   0.00000   0.01391   0.01392   1.91720
   A28        1.91695  -0.00110   0.00000  -0.01209  -0.01211   1.90483
   A29        1.91743  -0.00120   0.00000  -0.00666  -0.00676   1.91067
   A30        1.86422  -0.00007   0.00000  -0.00373  -0.00384   1.86037
   A31        1.95440   0.00099   0.00000   0.00470   0.00467   1.95907
   A32        1.88924   0.00060   0.00000   0.00948   0.00945   1.89869
   A33        1.90685   0.00020   0.00000   0.00291   0.00293   1.90978
   A34        1.92842  -0.00049   0.00000   0.00054   0.00047   1.92889
   A35        1.91617  -0.00107   0.00000  -0.01166  -0.01166   1.90450
   A36        1.86642  -0.00026   0.00000  -0.00616  -0.00620   1.86023
   A37        1.92616   0.00036   0.00000   0.00256   0.00253   1.92870
   A38        1.91133  -0.00079   0.00000  -0.00209  -0.00215   1.90918
   A39        1.87574   0.00006   0.00000  -0.00206  -0.00209   1.87365
   A40        1.96039   0.00129   0.00000   0.01143   0.01145   1.97184
   A41        1.88765  -0.00024   0.00000   0.00032   0.00036   1.88801
   A42        1.90032  -0.00073   0.00000  -0.01093  -0.01094   1.88938
   A43        1.89576   0.00414   0.00000   0.02412   0.02399   1.91975
   A44        1.95994  -0.00922   0.00000  -0.05301  -0.05278   1.90716
   A45        1.89701   0.00481   0.00000   0.02732   0.02721   1.92422
   A46        1.89789   0.00199   0.00000   0.00941   0.00963   1.90752
   A47        1.91217  -0.00314   0.00000  -0.01302  -0.01348   1.89869
   A48        1.90077   0.00142   0.00000   0.00534   0.00559   1.90636
   A49        1.92271  -0.00627   0.00000  -0.04038  -0.03994   1.88278
   A50        1.92439   0.00501   0.00000   0.03045   0.02962   1.95401
   A51        1.89558   0.01051   0.00000   0.06100   0.06036   1.95594
   A52        1.89067  -0.00081   0.00000  -0.01008  -0.00984   1.88084
   A53        1.91359  -0.00376   0.00000  -0.02653  -0.02591   1.88769
   A54        1.91697  -0.00485   0.00000  -0.01538  -0.01704   1.89993
   A55        2.03736  -0.03349   0.00000  -0.14570  -0.14558   1.89179
   A56        1.94202   0.01020   0.00000   0.04216   0.04202   1.98404
   A57        1.87564   0.01050   0.00000   0.04289   0.04073   1.91637
   A58        1.88224   0.01173   0.00000   0.04671   0.04708   1.92933
   A59        1.83562   0.00649   0.00000   0.01187   0.01173   1.84735
   A60        1.88283  -0.00430   0.00000   0.00924   0.00728   1.89011
   A61        1.99874   0.00215   0.00000   0.00640   0.00644   2.00518
   A62        1.88272  -0.00002   0.00000   0.00506   0.00506   1.88778
   A63        1.89654   0.00044   0.00000   0.00557   0.00557   1.90211
   A64        1.91592  -0.00159   0.00000  -0.01142  -0.01144   1.90448
   A65        1.90938  -0.00249   0.00000  -0.02011  -0.02013   1.88925
   A66        1.85495   0.00154   0.00000   0.01587   0.01572   1.87066
   A67        1.92367   0.00077   0.00000   0.01085   0.01122   1.93489
   A68        1.88803  -0.00644   0.00000  -0.04032  -0.04065   1.84738
   A69        1.95345   0.00214   0.00000   0.00794   0.00680   1.96025
   A70        1.90317   0.00643   0.00000   0.03339   0.03362   1.93679
   A71        1.92544  -0.00060   0.00000   0.01602   0.01615   1.94159
   A72        1.86829  -0.00232   0.00000  -0.02925  -0.02973   1.83856
   A73        2.09137  -0.00337   0.00000  -0.01255  -0.01255   2.07882
   A74        2.16452   0.00091   0.00000   0.00329   0.00329   2.16781
   A75        2.02554   0.00245   0.00000   0.00896   0.00896   2.03449
   A76        2.04998  -0.00374   0.00000  -0.01972  -0.01978   2.03020
   A77        1.83814  -0.00198   0.00000  -0.01892  -0.01873   1.81941
   A78        1.94790   0.00119   0.00000  -0.00113  -0.00121   1.94669
   A79        1.85409   0.00365   0.00000   0.02584   0.02563   1.87971
   A80        1.91195   0.00068   0.00000   0.00080   0.00057   1.91252
   A81        1.84677   0.00067   0.00000   0.01822   0.01805   1.86481
    D1        2.44510  -0.00232   0.00000  -0.04013  -0.03957   2.40553
    D2       -1.75876   0.00203   0.00000  -0.01768  -0.01722  -1.77598
    D3        0.29536  -0.00360   0.00000  -0.07417  -0.07392   0.22143
    D4       -0.75373  -0.00076   0.00000   0.00356   0.00328  -0.75045
    D5        1.32559   0.00359   0.00000   0.02601   0.02563   1.35122
    D6       -2.90348  -0.00204   0.00000  -0.03047  -0.03107  -2.93455
    D7       -3.04754  -0.00117   0.00000  -0.01842  -0.01783  -3.06538
    D8        0.02774  -0.00126   0.00000  -0.02362  -0.02300   0.00474
    D9        0.15173  -0.00198   0.00000  -0.05965  -0.06026   0.09147
   D10       -3.05616  -0.00206   0.00000  -0.06484  -0.06543  -3.12159
   D11        2.73305   0.00416   0.00000   0.15006   0.14995   2.88300
   D12        0.56273   0.00630   0.00000   0.16727   0.16762   0.73035
   D13       -1.49492  -0.00060   0.00000   0.10634   0.10506  -1.38985
   D14       -0.39299  -0.00001   0.00000  -0.02943  -0.02885  -0.42185
   D15       -2.56331   0.00212   0.00000  -0.01222  -0.01118  -2.57450
   D16        1.66223  -0.00478   0.00000  -0.07315  -0.07374   1.58849
   D17        0.95692  -0.00081   0.00000  -0.01073  -0.01074   0.94619
   D18        3.07968  -0.00035   0.00000  -0.00180  -0.00179   3.07789
   D19       -1.16042  -0.00055   0.00000  -0.00629  -0.00629  -1.16671
   D20        3.08024   0.00009   0.00000   0.00214   0.00215   3.08239
   D21       -1.08019   0.00055   0.00000   0.01107   0.01110  -1.06909
   D22        0.96290   0.00035   0.00000   0.00658   0.00659   0.96949
   D23       -1.15899  -0.00019   0.00000  -0.00279  -0.00281  -1.16181
   D24        0.96376   0.00027   0.00000   0.00613   0.00614   0.96990
   D25        3.00685   0.00007   0.00000   0.00165   0.00163   3.00848
   D26       -0.95293   0.00077   0.00000   0.01020   0.01021  -0.94273
   D27        1.16435   0.00057   0.00000   0.00619   0.00619   1.17054
   D28       -3.07804   0.00049   0.00000   0.00251   0.00250  -3.07554
   D29       -3.07627  -0.00024   0.00000  -0.00361  -0.00361  -3.07988
   D30       -0.95899  -0.00044   0.00000  -0.00762  -0.00763  -0.96662
   D31        1.08181  -0.00052   0.00000  -0.01130  -0.01132   1.07049
   D32        1.16318   0.00009   0.00000   0.00184   0.00186   1.16504
   D33       -3.00272  -0.00011   0.00000  -0.00217  -0.00216  -3.00488
   D34       -0.96192  -0.00019   0.00000  -0.00585  -0.00585  -0.96778
   D35       -0.96449   0.00034   0.00000   0.00683   0.00685  -0.95764
   D36        1.16205  -0.00019   0.00000  -0.00286  -0.00287   1.15918
   D37       -3.09072   0.00047   0.00000   0.00203   0.00201  -3.08870
   D38       -3.08736  -0.00053   0.00000  -0.00639  -0.00637  -3.09372
   D39       -0.96081  -0.00106   0.00000  -0.01608  -0.01609  -0.97690
   D40        1.06960  -0.00040   0.00000  -0.01119  -0.01120   1.05840
   D41        1.15358   0.00008   0.00000   0.00210   0.00212   1.15570
   D42       -3.00307  -0.00045   0.00000  -0.00759  -0.00760  -3.01067
   D43       -0.97265   0.00021   0.00000  -0.00269  -0.00271  -0.97536
   D44        0.95378  -0.00032   0.00000  -0.00650  -0.00651   0.94727
   D45        3.08379   0.00011   0.00000   0.00367   0.00368   3.08747
   D46       -1.17290   0.00025   0.00000   0.00313   0.00313  -1.16976
   D47       -1.16456  -0.00021   0.00000  -0.00261  -0.00263  -1.16719
   D48        0.96545   0.00022   0.00000   0.00755   0.00756   0.97301
   D49        2.99195   0.00036   0.00000   0.00702   0.00702   2.99897
   D50        3.07927   0.00036   0.00000   0.00576   0.00574   3.08502
   D51       -1.07390   0.00079   0.00000   0.01592   0.01594  -1.05797
   D52        0.95259   0.00093   0.00000   0.01539   0.01539   0.96799
   D53        0.94852  -0.00062   0.00000  -0.00627  -0.00627   0.94225
   D54        3.11529   0.00071   0.00000   0.00850   0.00849   3.12378
   D55       -1.10618  -0.00056   0.00000  -0.00686  -0.00686  -1.11304
   D56       -1.17094  -0.00089   0.00000  -0.00519  -0.00515  -1.17609
   D57        0.99583   0.00044   0.00000   0.00958   0.00961   1.00544
   D58        3.05755  -0.00083   0.00000  -0.00578  -0.00575   3.05180
   D59        3.06661   0.00055   0.00000   0.01044   0.01040   3.07701
   D60       -1.04980   0.00188   0.00000   0.02521   0.02516  -1.02464
   D61        1.01192   0.00061   0.00000   0.00985   0.00981   1.02172
   D62       -0.94101   0.00035   0.00000   0.00568   0.00569  -0.93532
   D63       -3.07926   0.00021   0.00000  -0.00151  -0.00152  -3.08078
   D64        1.10634   0.00049   0.00000   0.00482   0.00481   1.11114
   D65       -3.04845  -0.00074   0.00000  -0.00993  -0.00990  -3.05835
   D66        1.09649  -0.00088   0.00000  -0.01712  -0.01711   1.07937
   D67       -1.00110  -0.00061   0.00000  -0.01079  -0.01079  -1.01189
   D68        1.18032   0.00052   0.00000   0.00442   0.00442   1.18474
   D69       -0.95793   0.00038   0.00000  -0.00277  -0.00279  -0.96073
   D70       -3.05552   0.00066   0.00000   0.00356   0.00353  -3.05199
   D71        3.06564  -0.00092   0.00000  -0.01567  -0.01566   3.04998
   D72       -1.07894  -0.00153   0.00000  -0.02229  -0.02229  -1.10123
   D73        0.92511   0.00049   0.00000   0.00181   0.00184   0.92695
   D74       -1.07093  -0.00014   0.00000  -0.00601  -0.00600  -1.07693
   D75        1.06768  -0.00076   0.00000  -0.01263  -0.01264   1.05504
   D76        3.07172   0.00127   0.00000   0.01147   0.01150   3.08323
   D77        1.01930  -0.00012   0.00000  -0.00572  -0.00576   1.01354
   D78       -3.12528  -0.00074   0.00000  -0.01235  -0.01239  -3.13767
   D79       -1.12123   0.00129   0.00000   0.01175   0.01175  -1.10949
   D80        2.09196  -0.00061   0.00000  -0.00608  -0.00635   2.08562
   D81       -0.98846  -0.00049   0.00000  -0.00115  -0.00143  -0.98989
   D82       -0.00773  -0.00007   0.00000  -0.00066  -0.00067  -0.00840
   D83       -3.08816   0.00005   0.00000   0.00426   0.00424  -3.08392
   D84       -2.11187   0.00076   0.00000   0.00783   0.00813  -2.10375
   D85        1.09089   0.00088   0.00000   0.01276   0.01304   1.10393
   D86        2.81856  -0.00051   0.00000  -0.01906  -0.01889   2.79967
   D87       -0.38706  -0.00079   0.00000  -0.02482  -0.02468  -0.41174
   D88        0.73268   0.00130   0.00000  -0.00027   0.00048   0.73316
   D89       -2.47294   0.00101   0.00000  -0.00603  -0.00531  -2.47825
   D90       -1.36855  -0.00237   0.00000  -0.03804  -0.03891  -1.40745
   D91        1.70902  -0.00265   0.00000  -0.04380  -0.04470   1.66432
   D92       -1.16164  -0.00093   0.00000  -0.01895  -0.01838  -1.18002
   D93        0.89721   0.00007   0.00000  -0.01156  -0.01085   0.88636
   D94        2.89304   0.00032   0.00000  -0.00122  -0.00064   2.89239
   D95        1.03878  -0.00266   0.00000  -0.03321  -0.03352   1.00525
   D96        3.09762  -0.00167   0.00000  -0.02582  -0.02599   3.07163
   D97       -1.18974  -0.00142   0.00000  -0.01548  -0.01578  -1.20552
   D98        3.04463   0.00081   0.00000   0.00401   0.00361   3.04824
   D99       -1.17971   0.00181   0.00000   0.01140   0.01114  -1.16857
   D100       0.81612   0.00206   0.00000   0.02174   0.02135   0.83746
   D101      -1.06337  -0.00222   0.00000  -0.02116  -0.02107  -1.08444
   D102      -3.13345   0.00127   0.00000   0.00130   0.00134  -3.13211
   D103       1.10264   0.00062   0.00000   0.00765   0.00750   1.11014
   D104       3.09931  -0.00250   0.00000  -0.02362  -0.02349   3.07582
   D105       1.02923   0.00099   0.00000  -0.00117  -0.00108   1.02815
   D106      -1.01786   0.00033   0.00000   0.00519   0.00508  -1.01279
   D107       1.07019  -0.00203   0.00000  -0.02470  -0.02463   1.04556
   D108      -0.99989   0.00147   0.00000  -0.00224  -0.00222  -1.00211
   D109      -3.04698   0.00081   0.00000   0.00412   0.00394  -3.04304
   D110       2.96685  -0.00198   0.00000  -0.03546  -0.03506   2.93180
   D111       0.91658   0.00009   0.00000  -0.01856  -0.01792   0.89866
   D112      -1.07066  -0.00290   0.00000  -0.05349  -0.05305  -1.12370
   D113      -1.22408  -0.00113   0.00000  -0.02678  -0.02687  -1.25096
   D114       3.00883   0.00094   0.00000  -0.00989  -0.00973   2.99910
   D115       1.02159  -0.00205   0.00000  -0.04481  -0.04486   0.97673
   D116       0.85888   0.00034   0.00000  -0.00611  -0.00670   0.85218
   D117      -1.19139   0.00241   0.00000   0.01078   0.01044  -1.18096
   D118       3.10456  -0.00058   0.00000  -0.02414  -0.02469   3.07986
         Item               Value     Threshold  Converged?
 Maximum Force            0.033494     0.000450     NO 
 RMS     Force            0.004715     0.000300     NO 
 Maximum Displacement     0.559274     0.001800     NO 
 RMS     Displacement     0.102714     0.001200     NO 
 Predicted change in Energy=-1.233851D-02
 GradGradGradGradGradGradGradGradGradGradGradGradGradGradGradGradGradGrad

                          Input orientation:                          
 ---------------------------------------------------------------------
 Center     Atomic      Atomic             Coordinates (Angstroms)
 Number     Number       Type             X           Y           Z
 ---------------------------------------------------------------------
      1          6           0        3.558406   -4.856210   -0.462892
      2          6           0        6.958506   -2.394931   -1.404527
      3          6           0        2.376624   -5.766161   -6.164418
      4          6           0        1.228665   -5.083792   -5.407162
      5          6           0        3.427083   -6.328733   -5.196739
      6          6           0        1.747123   -4.009059   -4.438574
      7          6           0        3.942946   -5.256847   -4.221289
      8          6           0        2.796614   -4.564208   -3.454794
      9          6           0        3.650089   -6.948782    0.773787
     10          6           0        5.675904   -6.191195   -0.464142
     11          6           0        5.599665   -1.704375   -1.196159
     12          6           0        3.288416   -3.426273   -2.533801
     13          6           0        4.247172   -3.866630   -1.418005
     14          7           0        4.288063   -5.930860   -0.054763
     15          7           0        4.662046   -2.687089   -0.562881
     16          8           0        7.737228   -1.798280   -2.176453
     17          8           0        2.400733   -4.626722   -0.103650
     18          8           0        7.163743   -3.366768   -0.622832
     19          1           0        1.984514   -6.568654   -6.802950
     20          1           0        2.854007   -5.035887   -6.834016
     21          1           0        0.523288   -4.632711   -6.117055
     22          1           0        0.665075   -5.840291   -4.842172
     23          1           0        2.986093   -7.156805   -4.623146
     24          1           0        4.269789   -6.751537   -5.758780
     25          1           0        2.193371   -3.185114   -5.014987
     26          1           0        0.908249   -3.579138   -3.874913
     27          1           0        4.646291   -5.725571   -3.520565
     28          1           0        4.513168   -4.499065   -4.778663
     29          1           0        2.295426   -5.318839   -2.832123
     30          1           0        3.675505   -7.918350    0.262474
[...]
 00848749,-0.01517963,0.01056210,-0.00031934,0.00018717,0.00036282,0.00
 037307,-0.00013618,-0.00017627,0.00053461,-0.00042873,-0.00043963,0.05
 985022,0.10302214,-0.12908073,0.00975751,0.01632959,-0.01560527,0.0006
 6778,0.00116400,-0.00111052,0.00112771,0.00025095,0.00086235,0.0003066
 4,0.00000893,0.00000670,-0.00012646,0.00083785,-0.00045053,0.00034594,
 -0.00040304,0.00026963,0.00000710,0.00000505,0.00001861,-0.00000025,-0
 .00000214,-0.00000770,0.00003700,0.00007158,-0.00000456,0.00001192,0.0
 0010689,-0.00009722,0.00007914,0.00007700,-0.00010855,0.00003638,0.000
 09593,0.00002397,0.00013025,0.00031715,-0.00021728,-0.00002920,0.00002
 602,-0.00006357,0.00008068,0.00000892,-0.00009649,0.00002617,0.0003568
 8,-0.00009699,-0.00136025,-0.00319311,-0.00198140,0.00006329,0.0001461
 0,-0.00013496,0.00000064,-0.00005868,0.00002502,0.00001133,0.00007311,
 -0.00009455,-0.00004999,0.00005317,-0.00000872,-0.00000490,-0.00000376
 ,0.00005975,-0.00007770,0.00001123,0.00005305,-0.00095314,-0.00026168,
 0.00041994,-0.00011648,-0.00003435,0.00007570,-0.06210844,-0.11227143,
 0.14307217,-0.00285314,-0.00027307,0.00221346,0.00026527,0.00002690,-0
 .00006639,0.00016743,-0.00006332,-0.00001735,0.00023353,0.00005634,0.0
 0008021,0.00032039,-0.00023465,-0.00049942,0.00093536,-0.00100421,-0.0
 0122324,-0.00041057,-0.00124566,-0.00137375,0.00838771,-0.00359645,-0.
 00498490,-0.00000823,-0.00000263,0.00004853,-0.00023995,0.00004890,-0.
 00015523,-0.00022163,-0.00008490,0.00011714,-0.21686672,0.07885146,0.0
 9613235,-0.02182429,0.01079152,0.00727867,0.00034751,-0.00016146,-0.00
 006248,0.00115926,0.00032191,0.00121888,-0.00007597,-0.00001057,0.0000
 2484,0.00219545,-0.00218972,0.00117727,0.00003384,-0.00004599,-0.00005
 961,-0.00000734,0.00000164,0.00001634,0.00000271,-0.00000187,-0.000006
 33,0.00001422,0.00003341,0.00003174,0.00000224,0.00001151,0.00001065,0
 .00000335,0.00002591,0.00003422,-0.00003965,-0.00010952,-0.00013430,-0
 .00003550,0.00012257,0.00008078,0.00004472,-0.00018010,0.00012857,-0.0
 0001249,-0.00006701,0.00004027,0.00001990,0.00001302,-0.00010912,0.000
 29216,0.00046532,0.00031793,0.00002560,0.00000593,-0.00001589,0.000037
 41,0.00002562,-0.00002393,0.00000697,0.00000466,0.00000214,0.00007603,
 0.00008318,-0.00003349,0.00014613,0.00008148,0.00006567,0.00002515,-0.
 00007340,-0.00002544,0.00011423,0.00016167,-0.00008180,-0.00002739,-0.
 00003365,-0.00005237,-0.00993001,0.00463639,0.00533290,0.23984678,0.00
 303260,-0.00093875,-0.00174693,0.00003061,-0.00014334,-0.00004671,0.00
 017193,-0.00003209,0.00018222,-0.00003145,-0.00017415,0.00028424,0.001
 56241,0.00011725,-0.00075497,0.00128043,0.00095773,0.00108419,-0.00370
 019,-0.00314182,-0.00176231,0.02024022,-0.01061799,-0.01409568,-0.0000
 5237,-0.00001512,0.00009722,0.00016815,-0.00007601,-0.00002092,-0.0004
 1896,-0.00016668,0.00014069,0.07774674,-0.08691180,-0.04316985,0.00926
 671,-0.00591445,-0.00415255,-0.00046137,0.00066726,0.00004953,-0.00101
 703,0.00111100,0.00052174,0.00000158,0.00001501,-0.00000099,-0.0017873
 3,0.00079000,-0.00021530,0.00003946,0.00007403,-0.00001379,-0.00011586
 ,0.00003062,-0.00003863,-0.00001513,0.00003203,-0.00001836,-0.00001536
 ,0.00004738,0.00005845,0.00000800,-0.00002275,-0.00001459,-0.00003839,
 -0.00000605,0.00008883,-0.00017125,-0.00047072,-0.00046617,-0.00016614
 ,0.00006973,-0.00004350,-0.00074986,0.00035138,-0.00004271,-0.00004443
 ,0.00007254,0.00029914,0.00010169,0.00026261,-0.00021347,0.00020092,0.
 00052784,0.00068132,-0.00000625,0.00004073,-0.00001280,-0.00002440,-0.
 00005466,0.00002975,-0.00000175,0.00001455,-0.00002924,-0.00007343,-0.
 00002337,0.00003927,-0.00010427,0.00001339,-0.00004249,-0.00004888,0.0
 0006736,0.00005235,0.00017702,0.00009546,-0.00003698,0.00001885,0.0000
 0839,-0.00005006,-0.01974782,0.01040945,0.01030679,-0.08630847,0.09205
 704,-0.00109521,0.00099490,0.00119458,0.00000711,0.00012923,-0.0000776
 7,0.00026824,0.00002627,0.00019959,-0.00021626,0.00009143,0.00017530,0
 .00132998,-0.00017261,-0.00030746,0.00151174,-0.00021819,0.00018594,-0
 .00298587,-0.00326678,-0.00152432,0.01499392,-0.00698252,-0.01077264,0
 .00004151,-0.00002240,-0.00009270,-0.00019284,0.00002757,0.00004786,0.
 00010696,-0.00001063,-0.00015579,0.09820122,-0.04601162,-0.10345523,-0
 .02240558,0.00980406,0.00941466,0.00035628,-0.00057515,0.00011612,0.00
 044066,0.00076988,0.00205127,-0.00003204,-0.00002392,0.00003931,0.0004
 9398,0.00017892,-0.00133836,0.00002718,-0.00017156,-0.00002985,-0.0001
 2256,0.00003151,-0.00000890,-0.00001306,0.00002606,-0.00001621,-0.0000
 2358,0.00000459,0.00001681,0.00002511,0.00002772,0.00001153,-0.0000631
 1,-0.00010044,-0.00000338,-0.00013956,-0.00038103,-0.00037905,0.000000
 02,0.00007102,-0.00004831,-0.00091462,0.00001755,-0.00006647,0.0001645
 5,-0.00008722,0.00012821,-0.00032834,0.00017746,0.00027573,-0.00033305
 ,0.00018075,0.00061267,0.00001295,-0.00003735,0.00001273,0.00002365,0.
 00006399,-0.00003678,-0.00000669,-0.00000236,0.00001881,0.00014601,0.0
 0006300,-0.00006305,0.00013487,0.00001997,0.00009018,-0.00002503,-0.00
 004327,-0.00006338,-0.00001001,0.00003892,0.00003909,-0.00001937,-0.00
 001262,0.00002152,0.01374704,-0.00726303,-0.00809415,-0.10028484,0.051
 52790,0.11577706,-0.00956902,0.00771526,0.00160594,-0.00004260,-0.0003
 3143,0.00009233,0.00000424,0.00016657,0.00006862,-0.00001704,0.0000222
 7,-0.00000627,0.00031453,-0.00040671,0.00003746,-0.00004857,-0.0001084
 0,-0.00009159,-0.00042013,0.00040158,-0.00027480,0.00018696,0.00061148
 ,0.00083802,0.00007229,-0.00008257,-0.00011959,-0.00089464,0.00180088,
 -0.00121193,0.00085554,0.00004468,0.00006490,-0.01654456,0.00734082,0.
 00714506,-0.24568388,0.09115001,0.09797129,0.00002098,-0.00095490,0.00
 040112,0.01049260,-0.00833273,-0.00717428,0.00019627,0.00007711,-0.000
 08480,-0.00145354,-0.00228256,0.00310056,-0.00009899,0.00018869,0.0000
 6864,0.00007759,-0.00001769,0.00004438,-0.00000270,-0.00000935,-0.0000
 0128,0.00000557,-0.00001189,-0.00001711,0.00000130,-0.00000312,-0.0000
 0659,0.00001528,0.00003509,-0.00000777,-0.00002599,-0.00000147,0.00000
 519,0.00002067,0.00000442,0.00002851,0.00014419,-0.00005316,-0.0000201
 6,0.00070218,-0.00054652,-0.00012022,0.00002433,-0.00007552,0.00006856
 ,-0.00006718,-0.00009412,-0.00005571,-0.00000814,-0.00005675,0.0000068
 7,-0.00000174,0.00014704,-0.00006045,0.00003011,-0.00000093,0.00002509
 ,0.00029253,0.00039783,-0.00031445,-0.00002922,0.00181688,-0.00122180,
 0.00001034,-0.00004952,-0.00027901,0.00013143,0.00011957,0.00003033,0.
 00003884,-0.00001273,-0.00013943,0.00090966,-0.00009906,-0.00015181,-0
 .00145948,0.00111558,-0.00276233,0.26186305,-0.01588204,0.01524746,0.0
 0457988,-0.00083887,-0.00045366,-0.00014239,-0.00003192,0.00004482,-0.
 00000326,-0.00002589,-0.00000822,0.00000350,0.00001333,-0.00008329,0.0
 0009909,0.00007281,-0.00007164,-0.00000556,-0.00040333,0.00004994,-0.0
 0050412,-0.00024497,0.00020851,-0.00002017,0.00003083,-0.00003516,-0.0
 0008513,0.00068461,-0.00180871,0.00247936,0.00151615,0.00128867,-0.000
 61182,0.00843356,-0.00282277,-0.00201809,0.08496404,-0.09086754,-0.039
 23775,0.00093554,-0.00058141,-0.00048988,0.02272150,-0.02075666,-0.018
 24064,0.00024193,0.00005005,-0.00004959,-0.00474661,-0.00342071,0.0051
 6634,-0.00019939,0.00025398,0.00037653,0.00001355,-0.00000333,0.000005
 50,-0.00000160,-0.00000206,0.00000178,0.00000826,-0.00000212,0.0000007
 8,0.00000082,0.00000321,-0.00000169,-0.00000899,-0.00000900,-0.0000148
 1,-0.00000294,0.00001165,0.00001227,0.00000432,-0.00000419,0.00000181,
 -0.00001839,0.00001154,0.00001007,-0.00015083,-0.00052377,-0.00091538,
 0.00005206,-0.00005568,0.00011345,-0.00001455,0.00001057,0.00003746,-0
 .00002193,-0.00003223,0.00000233,0.00008042,0.00015839,-0.00011434,0.0
 0001194,-0.00000300,-0.00000163,0.00011556,-0.00033672,-0.00007754,0.0
 0090706,-0.00131527,0.00123295,0.00044490,-0.00093285,-0.00001786,-0.0
 0009300,-0.00043985,0.00052973,-0.00000976,0.00018956,0.00029576,-0.00
 022001,0.00021488,-0.00043078,0.00066937,0.00024212,0.00137421,-0.0971
 9940,0.10997405,0.01524721,-0.01201830,-0.00474454,-0.00015833,-0.0011
 3631,0.00093403,-0.00004504,0.00012881,0.00000851,0.00007619,-0.000034
 61,0.00001799,0.00021440,-0.00032104,0.00002688,0.00004775,0.00004528,
 -0.00007121,-0.00057148,0.00003689,-0.00067389,0.00066885,-0.00013658,
 0.00113898,0.00000422,0.00015150,-0.00003371,0.00070484,0.00132317,-0.
 00004071,0.00059064,0.00114770,0.00040295,-0.02079777,0.01021182,0.011
 80443,0.08824814,-0.03969869,-0.09390875,-0.00082498,0.00045143,0.0001
 7672,0.01437233,-0.01233108,-0.01063888,0.00011470,0.00025400,-0.00033
 465,0.00353536,0.00334808,-0.00330129,0.00004647,0.00115078,0.00010120
 ,0.00006944,-0.00002448,0.00001882,-0.00000105,-0.00001017,0.00000404,
 0.00001116,0.00000692,-0.00000225,0.00000110,-0.00000063,-0.00000612,0
 .00002337,0.00005099,0.00000058,-0.00002393,0.00000913,0.00001399,0.00
 000038,0.00000814,0.00002312,0.00018386,-0.00003347,0.00001442,-0.0000
 9588,-0.00113070,-0.00121368,0.00004104,0.00000809,-0.00004567,-0.0000
 2148,-0.00013876,-0.00007037,0.00000820,-0.00001136,0.00002366,-0.0000
 6954,-0.00016487,0.00010500,-0.00003214,-0.00004737,0.00001823,-0.0004
 2237,-0.00032381,0.00017066,-0.00140832,0.00090078,-0.00129203,-0.0001
 7320,0.00007815,0.00016250,-0.00015113,0.00017137,0.00019446,-0.000004
 45,0.00007495,0.00003772,0.00092657,-0.00011634,0.00079327,-0.00362761
 ,0.00159127,-0.00366331,-0.09610752,0.04870270,0.10538198,-0.00122010,
 -0.00353568,0.00151571,-0.00773586,-0.02782469,0.02970328,0.00002502,0
 .00006242,-0.00004488,0.00011494,-0.00018771,0.00007708,-0.00008946,-0
 .00010845,0.00004039,-0.00011025,0.00054072,0.00017014,0.00020659,0.00
 013350,-0.00007361,0.00052172,-0.00075289,0.00022036,-0.00066328,-0.00
 013515,0.00018119,0.00117119,-0.00017560,-0.00040431,0.01468590,-0.000
 50290,0.01122277,0.00004000,0.00146722,0.00038420,-0.00458090,-0.00720
 086,-0.00762181,0.00009403,0.00130532,-0.00098189,-0.11044496,0.042356
 77,-0.08101936,0.00501489,0.00924164,-0.00910540,0.00026233,0.00132497
 ,-0.00025298,0.01673098,0.01117876,-0.01381549,0.00001403,0.00001765,0
 .00004617,-0.00000824,-0.00001685,0.00000765,0.00006494,0.00006559,0.0
 0009394,-0.00000102,0.00002556,-0.00000826,0.00001969,0.00001749,-0.00
 000626,-0.00000600,0.00006650,0.00007350,-0.00000330,-0.00003824,0.000
 02295,0.00001473,-0.00001824,-0.00002376,0.00005886,-0.00007752,-0.000
 05095,-0.00001743,-0.00003850,0.00004372,-0.00002101,0.00007666,-0.000
 02708,0.00008955,0.00019322,-0.00012078,0.00000010,-0.00009935,0.00005
 476,0.00009041,0.00018510,-0.00022452,-0.00016242,0.00001451,-0.000039
 13,-0.00016918,0.00079171,0.00031864,-0.00026861,-0.00015270,0.0001006
 9,-0.00430769,-0.00255569,0.00156905,-0.00197491,-0.00086753,0.0002627
 8,-0.00013602,-0.00010867,-0.00004543,0.00005806,-0.00011317,0.0000106
 1,0.00058505,0.00117797,0.00114019,0.10416246,-0.00205249,0.00109464,-
 0.00178554,-0.00697081,-0.00025370,0.00158832,-0.00002807,-0.00001921,
 0.00005376,-0.00018325,0.00024122,-0.00010392,0.00010509,0.00004497,-0
 .00002073,0.00007784,-0.00079395,-0.00031109,-0.00025571,-0.00001694,0
 .00007054,-0.00116323,0.00158713,-0.00088328,-0.00009678,-0.00024476,0
 .00035231,-0.00018788,-0.00056969,-0.00032836,-0.00044589,-0.01434794,
 0.02508630,-0.00051924,-0.00649301,-0.00264191,-0.01798050,0.01102486,
 -0.02223524,0.00032612,-0.00027250,0.00062570,0.05048676,-0.08425687,0
 .05295691,0.00077772,-0.00007087,0.00204407,0.00013108,-0.00037659,0.0
 0032969,0.00243556,-0.01059524,-0.00016903,0.00000135,-0.00001740,-0.0
 0003055,0.00000758,0.00001136,-0.00000730,-0.00006191,-0.00008502,-0.0
 0010123,-0.00000022,-0.00002299,0.00001037,-0.00001384,-0.00001121,0.0
 0000487,0.00000342,-0.00005040,-0.00005203,0.00002033,0.00004016,-0.00
 001920,-0.00001685,0.00001609,0.00003361,0.00005048,0.00000417,0.00003
 154,0.00002523,0.00001701,-0.00002320,-0.00000327,-0.00006758,0.000077
 47,0.00003690,0.00008225,-0.00007400,0.00003637,0.00002730,-0.00004333
 ,-0.00000832,0.00002495,-0.00008019,0.00009579,0.00020980,0.00004106,0
 .00078074,-0.00075570,-0.00024325,0.00005383,0.00019422,0.00006895,-0.
 00054204,-0.00187830,0.00030639,-0.00018801,-0.00072990,0.00063388,0.0
 0036675,-0.00000075,0.00017687,0.00008272,0.00002290,0.00027820,0.0003
 4374,0.00023724,-0.00021714,-0.03233133,0.11268415,-0.00027827,-0.0005
 9249,0.00321446,0.00835723,-0.00404204,0.00484247,0.00000607,0.0000462
 9,-0.00001493,0.00001787,-0.00004766,0.00001624,-0.00004200,-0.0000740
 2,0.00003501,-0.00005182,0.00010723,0.00001254,0.00007838,0.00016551,0
 .00000067,-0.00022976,0.00002600,0.00006134,-0.00040392,-0.00020573,-0
 .00001947,0.00017932,-0.00017541,-0.00016281,0.00288021,0.01999723,-0.
 02366192,0.00001996,-0.00136795,-0.00027372,-0.00926905,-0.00059948,-0
 .01316841,0.00001935,0.00072168,-0.00071035,-0.09372897,0.05252558,-0.
 18879078,-0.00158846,0.00360618,-0.00177678,0.00047397,0.00063946,-0.0
 0070148,0.00097107,0.00143687,-0.01401296,0.00001416,0.00000701,0.0000
 2663,-0.00000353,-0.00000937,0.00000310,0.00002951,0.00001723,0.000034
 31,0.00000042,0.00001325,-0.00000161,0.00001141,0.00001227,-0.00000343
 ,-0.00000225,0.00003797,0.00004265,0.00000182,-0.00001200,0.00000755,0
 .00000741,-0.00001107,-0.00000463,0.00008032,-0.00007041,-0.00002332,0
 .00000012,-0.00002401,0.00002355,-0.00001362,0.00003977,-0.00000824,0.
 00001560,0.00008683,-0.00003178,0.00002119,-0.00004680,0.00001118,0.00
 007975,0.00014618,-0.00014502,0.00002129,0.00013312,-0.00002362,0.0002
 8553,-0.00008554,0.00011332,-0.00006045,-0.00003928,0.00006522,-0.0000
 4258,0.00183953,-0.00052680,-0.00027087,-0.00015910,-0.00059857,0.0002
 2150,-0.00005776,0.00013530,-0.00014543,-0.00003286,0.00004995,0.00036
 516,0.00071771,-0.00003919,0.08284179,-0.06863717,0.21738004,0.0032746
 0,-0.00091946,-0.00147854,-0.00089488,-0.00051106,0.00055462,-0.000005
 21,-0.00002401,-0.00001187,-0.00001852,0.00001100,-0.00000682,-0.00005
 724,0.00007338,-0.00000260,-0.00002775,-0.00005200,-0.00005943,0.00008
 772,-0.00004568,-0.00000957,-0.00030079,0.00014523,0.00004920,0.000026
 89,-0.00002416,0.00005687,0.00004091,0.00012255,-0.00007876,-0.0111766
 0,0.00688974,0.00307814,0.00225527,-0.00105680,-0.00048764,0.01282438,
 -0.00556202,-0.00470137,-0.00068423,0.00035254,0.00021528,-0.28098370,
 0.13723208,0.10391358,-0.00141988,-0.00043279,0.00017871,-0.00137006,0
 .00163836,0.00050687,-0.00092355,-0.00064724,-0.00021262,-0.00001031,0
 .00000272,-0.00000607,0.00000073,0.00000133,0.00000001,-0.00000384,-0.
 00000444,-0.00000500,-0.00000018,-0.00000072,0.00000106,-0.00000151,-0
 .00000424,0.00000141,0.00000534,0.00000366,0.00000110,-0.00000336,-0.0
 0000159,0.00000027,-0.00002833,0.00000251,-0.00000484,-0.00010572,0.00
 008772,0.00002368,0.00000072,0.00000860,-0.00001234,0.00001788,0.00000
 266,0.00000875,-0.00002073,0.00001035,0.00000356,-0.00003616,-0.000050
 58,0.00003786,-0.00001637,-0.00000551,-0.00000411,-0.00008960,-0.00001
 779,0.00004473,-0.00008077,-0.00003551,-0.00002983,-0.00003231,0.00006
 637,0.00001678,-0.00048531,-0.00012705,-0.00032813,0.00148633,-0.00030
 301,-0.00034351,-0.00007770,0.00014109,0.00011578,-0.00074910,0.000050
 65,-0.00006960,-0.00062810,-0.00298608,-0.00174021,-0.01210479,0.00680
 425,0.00913058,0.29231582,0.00476497,-0.00342508,-0.00183309,0.0001847
 7,-0.00344054,0.00464344,0.00000157,-0.00002187,-0.00002340,0.00003873
 ,-0.00004928,0.00001546,-0.00009540,0.00004429,0.00000491,-0.00003763,
 0.00013829,0.00005877,0.00021257,-0.00002292,0.00009704,0.00002641,-0.
 00038237,0.00017596,-0.00021368,-0.00009486,0.00015998,0.00034404,-0.0
 0000971,-0.00014213,-0.01911883,0.01321675,0.00710713,0.00039274,0.001
 61571,0.00128090,0.02138428,-0.01556851,-0.01100179,-0.00085552,0.0010
 4205,-0.00019715,0.13699284,-0.13919220,-0.06384403,-0.00248789,0.0000
 8735,-0.00109679,-0.00153398,0.00324710,0.00119335,0.00103747,0.001342
 67,-0.00043605,-0.00000814,0.00000565,0.00000057,-0.00000076,-0.000001
 93,0.00000256,0.00001119,0.00001675,0.00002168,-0.00000172,0.00000290,
 -0.00000204,0.00000146,-0.00000291,-0.00000134,0.00000562,0.00001769,0
 .00001803,0.00000092,-0.00001064,0.00001217,-0.00000713,-0.00000167,-0
 .00001021,-0.00011015,0.00007267,-0.00004501,-0.00002020,0.00000860,-0
 .00000946,-0.00000065,-0.00002245,-0.00002436,-0.00000362,0.00009337,-
 0.00003770,-0.00003667,-0.00011266,0.00007525,0.00001551,0.00006425,-0
 .00008663,-0.00012466,0.00000889,0.00005449,-0.00013251,0.00000035,-0.
 00001841,-0.00011992,0.00011544,0.00008903,-0.00180726,-0.00084474,0.0
 0078282,-0.00072862,0.00032231,0.00064190,-0.00012976,0.00007535,0.000
 01228,-0.00083480,0.00061197,-0.00054239,-0.00276899,-0.00362679,-0.00
 195621,0.00659844,-0.00563390,-0.00603273,-0.14083505,0.15031464,-0.00
 065142,0.00097777,0.00081982,-0.00019139,0.00353542,-0.00400872,0.0000
 0574,0.00000315,-0.00004213,0.00005889,-0.00010820,0.00003381,-0.00016
 611,0.00001763,0.00003739,-0.00009063,0.00029105,0.00003508,0.00033482
 ,0.00011199,0.00006800,-0.00026198,-0.00047025,0.00009078,-0.00001088,
 0.00004201,-0.00000188,0.00001142,-0.00012147,0.00005534,0.01129510,-0
 .00757426,-0.00596642,0.00171404,0.00061653,0.00041031,0.01561294,-0.0
 1286664,-0.00831533,0.00032573,-0.00001133,-0.00006014,0.10394066,-0.0
 6349377,-0.10532568,0.00021405,-0.00077979,0.00119249,0.00003055,-0.00
 006430,-0.00077871,-0.00489506,-0.00222587,0.00015291,-0.00000344,0.00
 001283,0.00001900,-0.00000344,-0.00000811,0.00000482,0.00003368,0.0000
 3488,0.00005224,-0.00000026,0.00001410,-0.00000357,0.00000886,0.000003
 99,-0.00000463,0.00000778,0.00005031,0.00005420,-0.00000983,-0.0000260
 9,0.00000713,-0.00001263,-0.00001425,-0.00001804,-0.00010587,0.0000578
 0,-0.00002356,-0.00001722,-0.00001285,-0.00000011,0.00005602,0.0001518
 5,0.00002920,0.00000480,0.00000293,-0.00001005,0.00000103,0.00000449,-
 0.00000418,-0.00000477,0.00000367,0.00000139,0.00001429,0.00001741,0.0
 0002007,0.00003297,-0.00013638,-0.00004068,0.00001973,0.00004782,0.000
 01407,0.00172210,0.00071314,-0.00064587,-0.00125766,-0.00011608,0.0015
 4310,-0.00007213,-0.00003741,-0.00034276,-0.00136964,-0.00001304,-0.00
 028191,-0.00173911,-0.00276075,-0.00149389,-0.01623568,0.01323688,0.01
 862431,-0.10834602,0.07089318,0.10410282\\-0.00000501,0.00000090,0.000
 00776,0.00000254,0.00000708,-0.00000251,-0.00000059,0.00000052,-0.0000
 0016,0.00000088,0.00000027,-0.00000085,0.00000043,0.00000122,0.0000013
 0,0.00000130,-0.00000132,0.00000002,0.00000216,-0.00000147,-0.00000133
 ,-0.00000390,0.00000197,0.00000217,0.00000103,0.00000040,-0.00000159,0
 .00000143,0.00000008,0.00000264,0.00000206,-0.00000376,-0.00000469,-0.
 00000131,0.00000090,-0.00000313,0.00000548,0.00000193,0.00000252,-0.00
 000104,-0.00000170,-0.00000752,-0.00000553,-0.00000441,-0.00000026,-0.
 00000301,-0.00000187,0.00000277,0.00000403,-0.00000136,-0.00000123,-0.
 00000058,-0.00000345,0.00000429,0.00000020,0.00000037,-0.00000040,0.00
 000017,0.00000040,0.00000014,0.00000010,-0.00000017,-0.00000012,0.0000
 0053,-0.00000018,-0.00000022,0.00000072,0.00000022,-0.00000086,0.00000
 046,0.00000114,-0.00000043,-0.00000101,0.00000040,-0.00000009,-0.00000
 050,-0.00000060,-0.00000013,0.00000087,0.00000161,0.00000189,-0.000000
 81,0.00000113,0.00000051,0.00000089,-0.00000076,-0.00000069,0.00000192
 ,-0.00000080,-0.00000008,0.00000010,-0.00000216,-0.00000108,0.00000033
 ,-0.00000074,0.00000060,0.00000106,0.00000052,-0.00000020,-0.00000038,
 -0.00000014,-0.00000092,0.00000008,-0.00000015,-0.00000089,-0.00000306
 ,0.00000264,0.00000124,-0.00000081,0.00000106,0.00000305,-0.00000022,-
 0.00000059,0.00000141,-0.00000077,-0.00000066,0.00000064,0.00000004,-0
 .00000083,-0.00000127,0.00000064,0.00000216,-0.00000323,-0.00000091,0.
 00000020,0.00000092\\\@


 IF MATHEMATICALLY YOU END UP WITH THE INCORRECT ANSWER,
 TRY MULTIPLYING BY THE PAGE NUMBER.
 Job cpu time:  0 days  6 hours 56 minutes 43.2 seconds.
 File lengths (MBytes):  RWF=    627 Int=      0 D2E=      0 Chk=     19 Scr=      1
 Normal termination of Gaussian 09 at Sat Feb 17 20:56:09 2018.
