 Entering Gaussian System, Link 0=g09
 Initial command:
 /home/fb_chem/chemsoft/lx24-amd64/Gaussian_09_C.01_NBO_3.1_64_istanbul-64/g09/l1.exe /local/2401515.1.parallel_long/Gau-17685.inp -scrdir=/local/2401515.1.parallel_long/
 Entering Link 1 = /home/fb_chem/chemsoft/lx24-amd64/Gaussian_09_C.01_NBO_3.1_64_istanbul-64/g09/l1.exe PID=     17686.
  
 Copyright (c) 1988,1990,1992,1993,1995,1998,2003,2009,2011,
            Gaussian, Inc.  All Rights Reserved.
  
 This is part of the Gaussian(R) 09 program.  It is based on
 the Gaussian(R) 03 system (copyright 2003, Gaussian, Inc.),
 the Gaussian(R) 98 system (copyright 1998, Gaussian, Inc.),
 the Gaussian(R) 94 system (copyright 1995, Gaussian, Inc.),
 the Gaussian 92(TM) system (copyright 1992, Gaussian, Inc.),
 the Gaussian 90(TM) system (copyright 1990, Gaussian, Inc.),
 the Gaussian 88(TM) system (copyright 1988, Gaussian, Inc.),
 the Gaussian 86(TM) system (copyright 1986, Carnegie Mellon
 University), and the Gaussian 82(TM) system (copyright 1983,
 Carnegie Mellon University). Gaussian is a federally registered
 trademark of Gaussian, Inc.
  
 This software contains proprietary and confidential information,
 including trade secrets, belonging to Gaussian, Inc.
  
 This software is provided under written license and may be
 used, copied, transmitted, or stored only in accord with that
 written license.
  
 The following legend is applicable only to US Government
 contracts under FAR:
  
                    RESTRICTED RIGHTS LEGEND
  
 Use, reproduction and disclosure by the US Government is
 subject to restrictions as set forth in subparagraphs (a)
 and (c) of the Commercial Computer Software - Restricted
 Rights clause in FAR 52.227-19.
  
 Gaussian, Inc.
 340 Quinnipiac St., Bldg. 40, Wallingford CT 06492
  
  
 ---------------------------------------------------------------
 Warning -- This program may not be used in any manner that
 competes with the business of Gaussian, Inc. or will provide
 assistance to any competitor of Gaussian, Inc.  The licensee
 of this program is prohibited from giving any competitor of
 Gaussian, Inc. access to this program.  By using this program,
 the user acknowledges that Gaussian, Inc. is engaged in the
 business of creating and licensing software in the field of
 computational chemistry and represents and warrants to the
 licensee that it is not a competitor of Gaussian, Inc. and that
 it will not use this program in any manner prohibited above.
 ---------------------------------------------------------------
  

 Cite this work as:
 Gaussian 09, Revision C.01,
 M. J. Frisch, G. W. Trucks, H. B. Schlegel, G. E. Scuseria, 
 M. A. Robb, J. R. Cheeseman, G. Scalmani, V. Barone, B. Mennucci, 
 G. A. Petersson, H. Nakatsuji, M. Caricato, X. Li, H. P. Hratchian, 
 A. F. Izmaylov, J. Bloino, G. Zheng, J. L. Sonnenberg, M. Hada, 
 M. Ehara, K. Toyota, R. Fukuda, J. Hasegawa, M. Ishida, T. Nakajima, 
 Y. Honda, O. Kitao, H. Nakai, T. Vreven, J. A. Montgomery, Jr., 
 J. E. Peralta, F. Ogliaro, M. Bearpark, J. J. Heyd, E. Brothers, 
 K. N. Kudin, V. N. Staroverov, T. Keith, R. Kobayashi, J. Normand, 
 K. Raghavachari, A. Rendell, J. C. Burant, S. S. Iyengar, J. Tomasi, 
 M. Cossi, N. Rega, J. M. Millam, M. Klene, J. E. Knox, J. B. Cross, 
 V. Bakken, C. Adamo, J. Jaramillo, R. Gomperts, R. E. Stratmann, 
 O. Yazyev, A. J. Austin, R. Cammi, C. Pomelli, J. W. Ochterski, 
 R. L. Martin, K. Morokuma, V. G. Zakrzewski, G. A. Voth, 
 P. Salvador, J. J. Dannenberg, S. Dapprich, A. D. Daniels, 
 O. Farkas, J. B. Foresman, J. V. Ortiz, J. Cioslowski, 
 and D. J. Fox, Gaussian, Inc., Wallingford CT, 2010.
 
 ******************************************
 Gaussian 09:  AM64L-G09RevC.01 23-Sep-2011
                18-Feb-2018 
 ******************************************
 %nprocs=2
 Will use up to    2 processors via shared memory.
 %chk=frag2-conf1.chk
 ----------------------------------------------------------------------
 #HF/6-31G* Geom=AllCheck Guess=Read Pop=(MK,ReadRadii) Integral=(Grid=
 UltraFine) iop(6/33=2)
 ----------------------------------------------------------------------
 1/29=7,38=1/1;
 2/12=2,40=1/2;
 3/5=1,6=6,7=1,11=9,14=-4,16=1,25=1,30=1,75=-5,116=-2/1,2,3;
 4/5=1/1;
 5/5=2,38=6/2;
 6/7=2,8=2,9=2,10=2,15=8,20=101,28=1,33=2/1,2;
 99/5=1,9=1/99;
 Structure from the checkpoint file:  frag2-conf1.chk
 ----------------------------
 Optimization for frag2-conf1
 ----------------------------
 Charge =  0 Multiplicity = 1
 Redundant internal coordinates found in file.
 C,0,3.6007553064,-4.8125554481,-0.447704048
 C,0,7.135060858,-2.1436564159,-0.7774629588
 C,0,2.2756779343,-5.7585813666,-6.1946687298
 C,0,1.1404854145,-5.2240354567,-5.3095560326
 C,0,3.4622398561,-6.2347838096,-5.3446649601
 C,0,1.6377172263,-4.1264415211,-4.3571936474
 C,0,3.9562359063,-5.1339724669,-4.3919581867
 C,0,2.8239837622,-4.5982491981,-3.4918965286
 C,0,3.5824661326,-6.8850785646,0.8157822526
 C,0,5.5903206944,-6.3194047687,-0.5518984376
 C,0,5.7299987595,-1.7706810706,-1.3574505394
 C,0,3.2793633808,-3.4548815354,-2.5632097558
 C,0,4.2740823735,-3.878014003,-1.476277469
 N,0,4.2385838263,-5.9559165922,-0.1046065386
 N,0,4.7443102484,-2.6815799994,-0.6817143565
 O,0,8.1112858228,-1.5753767053,-1.2872599295
 O,0,2.5161057267,-4.4553412969,0.0267512155
 O,0,7.0883277352,-2.9898965823,0.1707464984
 H,0,1.9109483954,-6.5759647949,-6.8297114462
 H,0,2.6132231886,-4.9602657009,-6.8721428028
 H,0,0.321873442,-4.8372188597,-5.9296681272
 H,0,0.7215475055,-6.0519380943,-4.7187373169
 H,0,3.1565581423,-7.1112788228,-4.7545681079
 H,0,4.2863536179,-6.5647720327,-5.9896704514
 H,0,1.9528048695,-3.2505923412,-4.9448889197
 H,0,0.8186222231,-3.7895297782,-3.7083909776
 H,0,4.7868968581,-5.5224389193,-3.7886218814
 H,0,4.3638361193,-4.2983460235,-4.981137877
 H,0,2.4626885387,-5.4291440644,-2.8659274713
 H,0,3.5771387237,-7.8901364731,0.3818582739
 H,0,2.5601330973,-6.551630834,0.9833485196
 H,0,4.1159030992,-6.9166069582,1.7726935669
 H,0,5.9538141747,-7.11676956,0.0982413497
 H,0,6.2799811058,-5.4764944186,-0.4597514795
 H,0,5.5931760831,-6.6927338347,-1.5820484936
 H,0,5.6957842528,-1.9048580374,-2.4380908761
 H,0,5.4743551372,-0.736646327,-1.1205901032
 H,0,3.7282986935,-2.6597669618,-3.1709379378
 H,0,2.4036211549,-3.0287845823,-2.0605327912
 H,0,5.1760004969,-4.3044151956,-1.9114556157
 H,0,5.3729851194,-3.0257347444,0.1038003162
 H,0,3.9322007628,-2.1918275307,-0.2960528765
 Recover connectivity data from disk.
                          Input orientation:                          
 ---------------------------------------------------------------------
 Center     Atomic      Atomic             Coordinates (Angstroms)
 Number     Number       Type             X           Y           Z
 ---------------------------------------------------------------------
      1          6           0        3.600755   -4.812555   -0.447704
      2          6           0        7.135061   -2.143656   -0.777463
      3          6           0        2.275678   -5.758581   -6.194669
      4          6           0        1.140485   -5.224035   -5.309556
      5          6           0        3.462240   -6.234784   -5.344665
      6          6           0        1.637717   -4.126442   -4.357194
      7          6           0        3.956236   -5.133972   -4.391958
      8          6           0        2.823984   -4.598249   -3.491897
      9          6           0        3.582466   -6.885079    0.815782
     10          6           0        5.590321   -6.319405   -0.551898
     11          6           0        5.729999   -1.770681   -1.357451
     12          6           0        3.279363   -3.454882   -2.563210
     13          6           0        4.274082   -3.878014   -1.476277
     14          7           0        4.238584   -5.955917   -0.104607
     15          7           0        4.744310   -2.681580   -0.681714
     16          8           0        8.111286   -1.575377   -1.287260
     17          8           0        2.516106   -4.455341    0.026751
     18          8           0        7.088328   -2.989897    0.170746
     19          1           0        1.910948   -6.575965   -6.829711
     20          1           0        2.613223   -4.960266   -6.872143
     21          1           0        0.321873   -4.837219   -5.929668
     22          1           0        0.721548   -6.051938   -4.718737
     23          1           0        3.156558   -7.111279   -4.754568
     24          1           0        4.286354   -6.564772   -5.989670
     25          1           0        1.952805   -3.250592   -4.944889
     26          1           0        0.818622   -3.789530   -3.708391
     27          1           0        4.786897   -5.522439   -3.788622
     28          1           0        4.363836   -4.298346   -4.981138
     29          1           0        2.462689   -5.429144   -2.865927
     30          1           0        3.577139   -7.890136    0.381858
     31          1           0        2.560133   -6.551631    0.983349
     32          1           0        4.115903   -6.916607    1.772694
     33          1           0        5.953814   -7.116770    0.098241
     34          1           0        6.279981   -5.476494   -0.459751
     35          1           0        5.593176   -6.692734   -1.582048
     36          1           0        5.695784   -1.904858   -2.438091
     37          1           0        5.474355   -0.736646   -1.120590
     38          1           0        3.728299   -2.659767   -3.170938
     39          1           0        2.403621   -3.028785   -2.060533
     40          1           0        5.176000   -4.304415   -1.911456
     41          1           0        5.372985   -3.025735    0.103800
     42          1           0        3.932201   -2.191828   -0.296053
 ---------------------------------------------------------------------
                    Distance matrix (angstroms):
                    1          2          3          4          5
     1  C    0.000000
     2  C    4.441067   0.000000
     3  C    5.973140   8.125725   0.000000
     4  C    5.464417   8.121794   1.535521   0.000000
     5  C    5.101191   7.147466   1.535319   2.532467   0.000000
     6  C    4.428135   6.853225   2.539132   1.535886   2.957886
     7  C    3.973263   5.666700   2.542475   2.962861   1.537357
     8  C    3.149033   5.654959   2.991987   2.555320   2.553109
     9  C    2.427362   6.135181   7.219634   6.800155   6.195841
    10  C    2.497964   4.458024   6.568275   6.605768   5.244664
    11  C    3.822868   1.565150   7.157818   6.971974   6.400689
    12  C    2.534154   4.446865   4.416097   3.904756   3.936724
    13  C    1.544247   3.417826   5.458330   5.130812   4.601942
    14  N    1.353446   4.834836   6.401625   6.101259   5.304591
    15  N    2.429719   2.452390   6.778993   6.392852   6.001006
    16  O    5.615075   1.239294   8.696906   8.836494   7.732156
    17  O    1.236598   5.227370   6.360999   5.564117   5.737046
    18  O    3.983432   1.271773   8.446640   8.390585   7.355105
    19  H    6.833380   9.141467   1.097462   2.175362   2.174459
    20  H    6.501573   8.094778   1.100098   2.163379   2.162964
    21  H    6.387770   8.956563   2.176347   1.097402   3.486735
    22  H    5.297889   8.481831   2.163274   1.099999   2.817199
    23  H    4.902093   7.504873   2.163245   2.816780   1.099954
    24  H    5.852666   7.404627   2.175956   3.486634   1.097309
    25  H    5.037871   6.741552   2.820675   2.165023   3.368028
    26  H    4.406691   7.155182   3.490237   2.173737   3.955423
    27  H    3.615605   5.098737   3.485835   3.962146   2.164121
    28  H    4.625876   5.476610   2.822295   3.369681   2.166753
    29  H    2.742842   6.081708   3.350227   2.785967   2.791469
    30  H    3.187513   6.857468   7.034773   6.740740   5.962085
    31  H    2.480965   6.592470   7.227294   6.586240   6.399839
    32  H    3.102028   6.196747   8.258711   7.866141   7.179760
    33  H    3.338315   5.185948   7.414451   7.482971   6.050708
    34  H    2.760292   3.455418   7.000235   7.070980   5.690083
    35  H    2.965055   4.870202   5.758012   5.989811   4.348320
    36  H    4.099450   2.210481   6.376534   6.325583   5.673196
    37  H    4.536098   2.203487   7.822892   7.514421   7.219483
    38  H    3.473725   4.195369   4.566805   4.224445   4.192448
    39  H    2.686296   4.981590   4.955728   4.119562   4.710056
    40  H    2.209564   3.129335   5.373303   5.355200   4.295373
    41  H    2.576370   2.158610   7.532096   7.214638   6.605658
    42  H    2.645953   3.239196   7.089391   6.490237   6.484971
                    6          7          8          9         10
     6  C    0.000000
     7  C    2.528212   0.000000
     8  C    1.542261   1.542435   0.000000
     9  C    6.176715   5.506963   4.935684   0.000000
    10  C    5.908674   4.338380   4.388460   2.494397   0.000000
    11  C    5.594179   4.864792   4.582131   5.957508   4.621614
    12  C    2.522771   2.573290   1.541791   4.824491   4.194209
    13  C    3.913031   3.190557   2.585391   3.843736   2.923585
    14  N    5.309989   4.374551   3.913833   1.463198   1.469485
    15  N    5.024708   4.516769   3.906200   4.611050   3.737159
    16  O    7.605229   6.290246   6.477171   7.288754   5.422345
    17  O    4.483159   4.696755   3.534981   2.768270   3.641479
    18  O    7.176568   5.935093   5.846912   5.280112   3.721809
    19  H    3.491155   3.493592   3.985725   7.832183   7.281108
    20  H    2.823445   2.825805   3.406103   7.984268   7.117293
    21  H    2.170098   3.957424   3.501484   7.767000   7.672928
    22  H    2.162780   3.378262   2.835240   6.285689   6.413972
    23  H    3.372542   2.163495   2.832007   5.591187   4.920640
    24  H    3.952937   2.169988   3.499230   6.849251   5.597312
    25  H    1.100808   2.804744   2.164791   7.003615   6.476689
    26  H    1.097894   3.481294   2.173102   6.139169   6.255623
    27  H    3.491334   1.097688   2.189795   4.950553   3.428852
    28  H    2.801889   1.100701   2.163083   6.395780   5.020668
    29  H    2.145108   2.155593   1.101253   4.114442   3.991162
    30  H    6.354948   5.525349   5.139041   1.094742   2.718824
    31  H    5.937490   5.731735   4.890106   1.088316   3.404842
    32  H    7.176486   6.419206   5.895740   1.096006   2.816786
    33  H    6.886338   5.299405   5.387752   2.488340   1.091146
    34  H    6.209937   4.580323   4.680720   3.299649   1.092987
    35  H    5.471101   3.606231   3.962677   3.135210   1.095715
    36  H    5.008622   4.155816   4.075794   6.313193   4.801778
    37  H    6.056906   5.687092   5.249718   6.718035   5.612847
    38  H    2.815825   2.768490   2.162987   5.811064   4.870261
    39  H    2.658216   3.503994   2.165347   4.953167   4.822781
    40  H    4.304969   2.885981   2.848880   4.078848   2.465814
    41  H    5.921507   5.163689   4.679663   4.313631   3.365329
    42  H    5.049777   5.043137   4.151196   4.835814   4.455526
                   11         12         13         14         15
    11  C    0.000000
    12  C    3.208738   0.000000
    13  C    2.564111   1.532948   0.000000
    14  N    4.616290   3.635933   2.490064   0.000000
    15  N    1.502644   2.506809   1.511257   3.363048   0.000000
    16  O    2.390313   5.339294   4.479062   5.965368   3.595399
    17  O    4.410501   2.879476   2.383880   2.288212   2.934799
    18  O    2.380532   4.711575   3.379559   4.122394   2.513198
    19  H    8.223232   5.460472   6.443803   7.143485   7.809740
    20  H    7.092219   4.612681   5.748485   7.030837   6.932196
    21  H    7.717295   4.689418   6.030980   7.107985   7.193452
    22  H    7.396756   4.234787   5.278257   5.802497   6.621139
    23  H    6.832641   4.264548   4.738149   4.912004   6.223450
    24  H    6.820915   4.735618   5.252574   5.916668   6.592670
    25  H    5.415445   2.733841   4.220575   5.997658   5.127469
    26  H    5.807262   2.734717   4.114652   5.420021   5.079306
    27  H    4.568996   2.837091   2.883409   3.749736   4.210127
    28  H    4.624565   2.780987   3.531116   5.152066   4.609093
    29  H    5.131780   2.157848   2.760123   3.325084   4.186370
    30  H    6.716229   5.332315   4.476106   2.101277   5.442659
    31  H    6.195552   4.762901   4.016915   2.087036   4.745562
    32  H    6.235676   5.611007   4.451279   2.112400   4.935025
    33  H    5.545250   5.257892   3.973682   2.081043   4.662846
    34  H    3.852453   4.185112   2.759002   2.126800   3.196733
    35  H    4.929074   4.098792   3.110280   2.135569   4.197681
    36  H    1.089476   2.873555   2.615275   4.896903   2.143235
    37  H    1.091185   3.779940   3.381621   5.458950   2.123286
    38  H    2.843592   1.096852   2.157285   4.530715   2.688678
    39  H    3.625181   1.095978   2.135690   3.969992   2.738707
    40  H    2.652102   2.178009   1.088418   2.621242   2.081397
    41  H    1.959049   3.417654   2.104902   3.149010   1.063347
    42  H    2.129790   2.676098   2.086394   3.781387   1.023774
                   16         17         18         19         20
    16  O    0.000000
    17  O    6.428597   0.000000
    18  O    2.274443   4.803486   0.000000
    19  H    9.704063   7.202384   9.416557   0.000000
    20  H    8.536808   6.918029   8.573868   1.762235   0.000000
    21  H    9.636727   6.359199   9.295836   2.521602   2.480662
    22  H    9.296390   5.318761   8.591801   2.479010   3.067139
    23  H    8.198644   5.506832   7.530161   2.478775   3.066952
    24  H    7.850913   6.616707   7.653857   2.519592   2.480436
    25  H    7.356051   5.146449   7.253364   3.822618   2.659594
    26  H    7.996705   4.156446   7.415951   4.324354   3.821065
    27  H    5.734778   4.566428   5.233255   4.316158   3.814315
    28  H    5.924751   5.340197   5.973007   3.823798   2.660579
    29  H    7.017860   3.052660   6.047136   4.163076   4.036368
    30  H    7.951141   3.612438   6.032028   7.517312   7.882500
    31  H    7.793206   2.304658   5.818146   7.840022   8.015236
    32  H    7.338606   3.415479   5.178861   8.887026   8.989912
    33  H    6.105844   4.348120   4.280591   8.039513   8.024731
    34  H    4.388299   3.930165   2.689632   7.802158   7.404753
    35  H    5.710965   4.130681   4.361052   6.411739   6.314005
    36  H    2.695852   4.763483   3.150003   7.445170   6.204717
    37  H    2.772120   4.888387   3.057711   8.910083   7.688003
    38  H    4.892312   3.862475   4.750330   5.659151   4.498289
    39  H    5.940352   2.530706   5.189084   5.964082   5.189041
    40  H    4.056251   3.294611   3.117775   6.325326   5.621956
    41  H    3.396598   3.195539   1.717023   8.524284   7.747418
    42  H    4.339038   2.689428   3.288762   8.123719   7.255957
                   21         22         23         24         25
    21  H    0.000000
    22  H    1.761146   0.000000
    23  H    3.819378   2.655704   0.000000
    24  H    4.324944   3.819177   1.760848   0.000000
    25  H    2.479337   3.068335   4.048474   4.185786   0.000000
    26  H    2.505690   2.479660   4.194574   4.993132   1.762314
    27  H    4.999004   4.203873   2.472947   2.486286   3.811865
    28  H    4.186592   4.050951   3.069437   2.481900   2.629101
    29  H    3.784174   2.617699   2.622593   3.791197   3.054202
    30  H    7.729969   6.127761   5.212138   6.546446   7.248315
    31  H    7.465843   6.011977   5.795914   7.183523   6.812467
    32  H    8.834302   7.376176   6.600256   7.772203   7.952646
    33  H    8.558668   7.191228   5.601288   6.336229   7.509232
    34  H    8.113428   7.026114   5.556414   5.978202   6.617821
    35  H    7.080351   5.829425   4.022085   4.599053   6.034015
    36  H    7.047607   6.866051   6.238634   6.026194   4.701588
    37  H    8.154140   7.986750   7.695058   7.686764   5.774643
    38  H    4.894448   4.789892   4.759278   4.848272   2.578440
    39  H    4.751244   4.362898   4.948889   5.611240   2.927788
    40  H    6.323959   5.547686   4.476597   4.746843   4.549863
    41  H    8.074524   7.351915   6.723687   7.129933   6.102250
    42  H    7.195150   6.690956   6.684383   7.187861   5.162428
                   26         27         28         29         30
    26  H    0.000000
    27  H    4.330891   0.000000
    28  H    3.800963   1.760534   0.000000
    29  H    2.470027   2.502401   3.060585   0.000000
    30  H    6.415179   4.945949   6.502429   4.224523   0.000000
    31  H    5.716160   5.365577   6.626140   4.010785   1.785410
    32  H    7.119899   5.772536   7.247827   5.144168   1.781137
    33  H    7.206329   4.360194   6.022594   4.880813   2.515377
    34  H    6.574644   3.648670   5.050008   4.512610   3.720125
    35  H    5.978820   2.624622   4.335687   3.611780   3.058612
    36  H    5.380740   3.966976   3.737641   4.801723   6.947253
    37  H    6.139435   5.522210   5.368686   5.842591   7.551768
    38  H    3.167244   3.114009   2.523029   3.060106   6.324711
    39  H    2.409646   3.858057   3.739540   2.532563   5.565533
    40  H    4.741395   2.271285   3.175311   3.088380   4.546762
    41  H    5.988189   4.661328   5.338026   4.802654   5.192763
    42  H    4.887850   4.901175   5.154973   4.386792   5.749466
                   31         32         33         34         35
    31  H    0.000000
    32  H    1.782328   0.000000
    33  H    3.552445   2.494348   0.000000
    34  H    4.132278   3.426510   1.763021   0.000000
    35  H    3.974987   3.672431   1.770096   1.791784   0.000000
    36  H    6.567424   6.733822   5.802033   4.124524   4.864884
    37  H    6.836175   6.957614   6.513172   4.853030   5.975118
    38  H    5.811137   6.535321   5.958634   4.668572   4.718809
    39  H    4.658343   5.721949   5.828876   4.855919   4.881263
    40  H    4.502514   4.638999   3.543051   2.167946   2.446755
    41  H    4.595398   4.416373   4.132065   2.673285   4.041961
    42  H    4.746296   5.161104   5.338300   4.040780   4.966969
                   36         37         38         39         40
    36  H    0.000000
    37  H    1.774699   0.000000
    38  H    2.231132   3.309234   0.000000
    39  H    3.499157   3.945478   1.767468   0.000000
    40  H    2.511054   3.666532   2.527252   3.055412   0.000000
    41  H    2.796744   2.597948   3.682776   3.674435   2.394803
    42  H    2.789427   2.275006   2.919847   2.480008   2.935914
                   41         42
    41  H    0.000000
    42  H    1.712058   0.000000
 Stoichiometry    C13H24N2O3
 Framework group  C1[X(C13H24N2O3)]
 Deg. of freedom   120
 Full point group                 C1      NOp   1
 Largest Abelian subgroup         C1      NOp   1
 Largest concise Abelian subgroup C1      NOp   1
                         Standard orientation:                         
 ---------------------------------------------------------------------
 Center     Atomic      Atomic             Coordinates (Angstroms)
 Number     Number       Type             X           Y           Z
 ---------------------------------------------------------------------
      1          6           0        0.659705    1.529385   -0.649636
      2          6           0        3.526808   -1.715171    0.338116
      3          6           0       -4.552680   -0.993091    0.815477
      4          6           0       -4.437654   -0.439210   -0.612043
      5          6           0       -3.387356   -0.511146    1.691235
      6          6           0       -3.075916   -0.774277   -1.238416
      7          6           0       -2.026243   -0.847199    1.060437
      8          6           0       -1.898416   -0.285688   -0.370462
      9          6           0        0.821938    3.790270    0.218788
     10          6           0        1.284337    1.871906    1.744593
     11          6           0        2.382464   -1.882645   -0.716458
     12          6           0       -0.563234   -0.654171   -1.047683
     13          6           0        0.670406    0.002662   -0.417897
     14          7           0        0.896789    2.341168    0.407064
     15          7           0        1.938215   -0.492576   -1.074630
     16          8           0        3.963521   -2.756434    0.848902
     17          8           0        0.453343    1.932632   -1.800280
     18          8           0        3.875000   -0.506644    0.526879
     19          1           0       -5.510831   -0.698625    1.262309
     20          1           0       -4.547146   -2.092566    0.778869
     21          1           0       -5.245191   -0.833958   -1.241607
     22          1           0       -4.564855    0.653143   -0.587918
     23          1           0       -3.462374    0.577822    1.826958
     24          1           0       -3.452384   -0.955654    2.692371
     25          1           0       -2.993642   -1.864360   -1.367754
     26          1           0       -3.002706   -0.333894   -2.241449
     27          1           0       -1.223753   -0.465815    1.705010
     28          1           0       -1.902162   -1.940239    1.022870
     29          1           0       -1.966347    0.812033   -0.314314
     30          1           0        0.161754    4.225766    0.975729
     31          1           0        0.428323    3.996369   -0.774701
     32          1           0        1.816294    4.240779    0.316396
     33          1           0        1.690601    2.723678    2.292346
     34          1           0        2.066678    1.110751    1.687966
     35          1           0        0.426842    1.484336    2.305917
     36          1           0        1.549649   -2.458184   -0.313803
     37          1           0        2.752829   -2.377202   -1.615861
     38          1           0       -0.440979   -1.743943   -1.024588
     39          1           0       -0.597265   -0.350088   -2.100082
     40          1           0        0.768208   -0.267239    0.631980
     41          1           0        2.760977    0.038673   -0.660449
     42          1           0        1.882589   -0.327908   -2.083543
 ---------------------------------------------------------------------
 Rotational constants (GHZ):      0.5033826      0.2388214      0.1982132
 Standard basis: 6-31G(d) (6D, 7F)
 There are   318 symmetry adapted basis functions of A   symmetry.
 Integral buffers will be    131072 words long.
 Raffenetti 1 integral format.
 Two-electron integral symmetry is turned on.
   318 basis functions,   600 primitive gaussians,   318 cartesian basis functions
    70 alpha electrons       70 beta electrons
       nuclear repulsion energy      1436.2348729282 Hartrees.
 NAtoms=   42 NActive=   42 NUniq=   42 SFac= 1.00D+00 NAtFMM=   60 NAOKFM=F Big=F
 One-electron integrals computed using PRISM.
 NBasis=   318 RedAO= T  NBF=   318
 NBsUse=   318 1.00D-06 NBFU=   318
 Initial guess read from the checkpoint file:  frag2-conf1.chk
 B after Tr=     0.000000    0.000000    0.000000
         Rot=    1.000000    0.000000    0.000000    0.000000 Ang=   0.00 deg.
 Initial guess orbital symmetries:
       Occupied  (A) (A) (A) (A) (A) (A) (A) (A) (A) (A) (A) (A)
                 (A) (A) (A) (A) (A) (A) (A) (A) (A) (A) (A) (A)
                 (A) (A) (A) (A) (A) (A) (A) (A) (A) (A) (A) (A)
                 (A) (A) (A) (A) (A) (A) (A) (A) (A) (A) (A) (A)
                 (A) (A) (A) (A) (A) (A) (A) (A) (A) (A) (A) (A)
                 (A) (A) (A) (A) (A) (A) (A) (A) (A) (A)
       Virtual   (A) (A) (A) (A) (A) (A) (A) (A) (A) (A) (A) (A)
                 (A) (A) (A) (A) (A) (A) (A) (A) (A) (A) (A) (A)
                 (A) (A) (A) (A) (A) (A) (A) (A) (A) (A) (A) (A)
                 (A) (A) (A) (A) (A) (A) (A) (A) (A) (A) (A) (A)
                 (A) (A) (A) (A) (A) (A) (A) (A) (A) (A) (A) (A)
                 (A) (A) (A) (A) (A) (A) (A) (A) (A) (A) (A) (A)
                 (A) (A) (A) (A) (A) (A) (A) (A) (A) (A) (A) (A)
                 (A) (A) (A) (A) (A) (A) (A) (A) (A) (A) (A) (A)
                 (A) (A) (A) (A) (A) (A) (A) (A) (A) (A) (A) (A)
                 (A) (A) (A) (A) (A) (A) (A) (A) (A) (A) (A) (A)
                 (A) (A) (A) (A) (A) (A) (A) (A) (A) (A) (A) (A)
                 (A) (A) (A) (A) (A) (A) (A) (A) (A) (A) (A) (A)
                 (A) (A) (A) (A) (A) (A) (A) (A) (A) (A) (A) (A)
                 (A) (A) (A) (A) (A) (A) (A) (A) (A) (A) (A) (A)
                 (A) (A) (A) (A) (A) (A) (A) (A) (A) (A) (A) (A)
                 (A) (A) (A) (A) (A) (A) (A) (A) (A) (A) (A) (A)
                 (A) (A) (A) (A) (A) (A) (A) (A) (A) (A) (A) (A)
                 (A) (A) (A) (A) (A) (A) (A) (A) (A) (A) (A) (A)
                 (A) (A) (A) (A) (A) (A) (A) (A) (A) (A) (A) (A)
                 (A) (A) (A) (A) (A) (A) (A) (A) (A) (A) (A) (A)
                 (A) (A) (A) (A) (A) (A) (A) (A)
 Requested convergence on RMS density matrix=1.00D-08 within 128 cycles.
 Requested convergence on MAX density matrix=1.00D-06.
 Requested convergence on             energy=1.00D-06.
 No special actions if energy rises.
 SCF Done:  E(RHF) =  -839.733639599     A.U. after   13 cycles
             Convg  =    0.9770D-08             -V/T =  2.0023

 **********************************************************************

            Population analysis using the SCF density.

 **********************************************************************

 Orbital symmetries:
 BldTbl:  Degeneracy threshold= 1.00D-02
       Occupied  (A) (A) (A) (A) (A) (A) (A) (A) (A) (A) (A) (A)
                 (A) (A) (A) (A) (A) (A) (A) (A) (A) (A) (A) (A)
                 (A) (A) (A) (A) (A) (A) (A) (A) (A) (A) (A) (A)
                 (A) (A) (A) (A) (A) (A) (A) (A) (A) (A) (A) (A)
                 (A) (A) (A) (A) (A) (A) (A) (A) (A) (A) (A) (A)
                 (A) (A) (A) (A) (A) (A) (A) (A) (A) (A)
       Virtual   (A) (A) (A) (A) (A) (A) (A) (A) (A) (A) (A) (A)
                 (A) (A) (A) (A) (A) (A) (A) (A) (A) (A) (A) (A)
                 (A) (A) (A) (A) (A) (A) (A) (A) (A) (A) (A) (A)
                 (A) (A) (A) (A) (A) (A) (A) (A) (A) (A) (A) (A)
                 (A) (A) (A) (A) (A) (A) (A) (A) (A) (A) (A) (A)
                 (A) (A) (A) (A) (A) (A) (A) (A) (A) (A) (A) (A)
                 (A) (A) (A) (A) (A) (A) (A) (A) (A) (A) (A) (A)
                 (A) (A) (A) (A) (A) (A) (A) (A) (A) (A) (A) (A)
                 (A) (A) (A) (A) (A) (A) (A) (A) (A) (A) (A) (A)
                 (A) (A) (A) (A) (A) (A) (A) (A) (A) (A) (A) (A)
                 (A) (A) (A) (A) (A) (A) (A) (A) (A) (A) (A) (A)
                 (A) (A) (A) (A) (A) (A) (A) (A) (A) (A) (A) (A)
                 (A) (A) (A) (A) (A) (A) (A) (A) (A) (A) (A) (A)
                 (A) (A) (A) (A) (A) (A) (A) (A) (A) (A) (A) (A)
                 (A) (A) (A) (A) (A) (A) (A) (A) (A) (A) (A) (A)
                 (A) (A) (A) (A) (A) (A) (A) (A) (A) (A) (A) (A)
                 (A) (A) (A) (A) (A) (A) (A) (A) (A) (A) (A) (A)
                 (A) (A) (A) (A) (A) (A) (A) (A) (A) (A) (A) (A)
                 (A) (A) (A) (A) (A) (A) (A) (A) (A) (A) (A) (A)
                 (A) (A) (A) (A) (A) (A) (A) (A) (A) (A) (A) (A)
                 (A) (A) (A) (A) (A) (A) (A) (A)
 The electronic state is 1-A.
 Alpha  occ. eigenvalues --  -20.55535 -20.48724 -20.46825 -15.70006 -15.62687
 Alpha  occ. eigenvalues --  -11.38824 -11.33424 -11.32484 -11.29537 -11.28699
 Alpha  occ. eigenvalues --  -11.27829 -11.26669 -11.25760 -11.24455 -11.24007
 Alpha  occ. eigenvalues --  -11.23785 -11.23526 -11.23387  -1.40819  -1.36045
 Alpha  occ. eigenvalues --   -1.31732  -1.27157  -1.24741  -1.14816  -1.09179
 Alpha  occ. eigenvalues --   -1.03127  -1.02137  -0.99385  -0.97469  -0.96910
 Alpha  occ. eigenvalues --   -0.90156  -0.85139  -0.83225  -0.79505  -0.78287
 Alpha  occ. eigenvalues --   -0.76829  -0.74296  -0.70558  -0.69556  -0.68199
 Alpha  occ. eigenvalues --   -0.66399  -0.66125  -0.65358  -0.64172  -0.62187
 Alpha  occ. eigenvalues --   -0.61758  -0.60751  -0.59791  -0.58826  -0.58630
 Alpha  occ. eigenvalues --   -0.58575  -0.57066  -0.56452  -0.55122  -0.54943
 Alpha  occ. eigenvalues --   -0.54512  -0.54350  -0.52939  -0.51328  -0.50855
 Alpha  occ. eigenvalues --   -0.50170  -0.49521  -0.47084  -0.45280  -0.44643
 Alpha  occ. eigenvalues --   -0.44500  -0.39704  -0.39672  -0.37143  -0.36497
 Alpha virt. eigenvalues --    0.13834   0.17922   0.18638   0.20479   0.21728
 Alpha virt. eigenvalues --    0.23017   0.24067   0.24744   0.25266   0.26406
 Alpha virt. eigenvalues --    0.27339   0.27862   0.28281   0.28592   0.28760
 Alpha virt. eigenvalues --    0.29645   0.30062   0.30331   0.30606   0.31640
 Alpha virt. eigenvalues --    0.31963   0.32329   0.32617   0.32763   0.33059
 Alpha virt. eigenvalues --    0.33744   0.34465   0.36112   0.37028   0.38287
 Alpha virt. eigenvalues --    0.39907   0.40469   0.40899   0.41753   0.43055
 Alpha virt. eigenvalues --    0.43453   0.45058   0.45361   0.47129   0.47879
 Alpha virt. eigenvalues --    0.50769   0.55031   0.59422   0.62409   0.67235
 Alpha virt. eigenvalues --    0.68261   0.68661   0.69422   0.71770   0.72266
 Alpha virt. eigenvalues --    0.73061   0.73931   0.74147   0.75707   0.77037
 Alpha virt. eigenvalues --    0.78600   0.79585   0.80826   0.83138   0.84965
 Alpha virt. eigenvalues --    0.86622   0.87138   0.87891   0.88976   0.89837
 Alpha virt. eigenvalues --    0.90501   0.91130   0.92563   0.93402   0.94320
 Alpha virt. eigenvalues --    0.95672   0.96481   0.96889   0.97845   0.98248
 Alpha virt. eigenvalues --    1.00285   1.01528   1.02908   1.04128   1.05003
 Alpha virt. eigenvalues --    1.05700   1.06464   1.07960   1.08674   1.09467
 Alpha virt. eigenvalues --    1.10044   1.10052   1.10404   1.10968   1.11604
 Alpha virt. eigenvalues --    1.13115   1.13558   1.13858   1.14143   1.14904
 Alpha virt. eigenvalues --    1.15307   1.16908   1.17649   1.17984   1.18244
 Alpha virt. eigenvalues --    1.18875   1.19312   1.20485   1.20699   1.21986
 Alpha virt. eigenvalues --    1.22637   1.22935   1.23422   1.24397   1.26008
 Alpha virt. eigenvalues --    1.27729   1.29242   1.32642   1.33324   1.34524
 Alpha virt. eigenvalues --    1.35679   1.37945   1.38744   1.41245   1.41898
 Alpha virt. eigenvalues --    1.42128   1.44461   1.46605   1.50119   1.51374
 Alpha virt. eigenvalues --    1.56303   1.57796   1.59954   1.61423   1.62989
 Alpha virt. eigenvalues --    1.63223   1.63984   1.66532   1.68306   1.70571
 Alpha virt. eigenvalues --    1.75077   1.76453   1.78294   1.79284   1.82923
 Alpha virt. eigenvalues --    1.83101   1.86993   1.89183   1.91309   1.94020
 Alpha virt. eigenvalues --    1.95974   1.98452   1.99451   2.02080   2.02647
 Alpha virt. eigenvalues --    2.03725   2.05972   2.07930   2.09665   2.11022
 Alpha virt. eigenvalues --    2.13608   2.14798   2.15510   2.15803   2.17379
 Alpha virt. eigenvalues --    2.17716   2.18255   2.19060   2.20365   2.21327
 Alpha virt. eigenvalues --    2.22373   2.23943   2.24775   2.25515   2.26395
 Alpha virt. eigenvalues --    2.27951   2.28384   2.29726   2.30992   2.31383
 Alpha virt. eigenvalues --    2.32378   2.34093   2.35249   2.37078   2.38074
 Alpha virt. eigenvalues --    2.39587   2.40215   2.41756   2.42395   2.45365
 Alpha virt. eigenvalues --    2.46278   2.48942   2.49678   2.52088   2.53886
 Alpha virt. eigenvalues --    2.55833   2.58168   2.59760   2.61084   2.62805
 Alpha virt. eigenvalues --    2.64684   2.66627   2.68508   2.69036   2.70711
 Alpha virt. eigenvalues --    2.71021   2.72361   2.73900   2.77396   2.77476
 Alpha virt. eigenvalues --    2.80108   2.81340   2.82804   2.87334   2.89639
 Alpha virt. eigenvalues --    2.92003   2.93965   2.96146   2.96653   3.01074
 Alpha virt. eigenvalues --    3.03606   3.04212   3.05855   3.08879   3.10549
 Alpha virt. eigenvalues --    3.11898   3.17974   3.20426   3.24268   3.28375
 Alpha virt. eigenvalues --    3.31629   3.36090   3.38668   3.52598   3.55881
 Alpha virt. eigenvalues --    4.30064   4.38987   4.42792   4.54685   4.59831
 Alpha virt. eigenvalues --    4.63305   4.63722   4.67067   4.67501   4.70813
 Alpha virt. eigenvalues --    4.78586   4.79755   4.87543   4.94947   4.96892
 Alpha virt. eigenvalues --    4.97932   5.04555   5.09548
          Condensed to atoms (all electrons):
              1          2          3          4          5          6
     1  C    4.198471  -0.000265   0.000001  -0.000001  -0.000016  -0.000080
     2  C   -0.000265   4.003562   0.000000   0.000000   0.000000   0.000000
     3  C    0.000001   0.000000   5.105116   0.338971   0.340537  -0.055887
     4  C   -0.000001   0.000000   0.338971   5.096133  -0.057810   0.339905
     5  C   -0.000016   0.000000   0.340537  -0.057810   5.093810  -0.004432
     6  C   -0.000080   0.000000  -0.055887   0.339905  -0.004432   5.117914
     7  C    0.000236  -0.000001  -0.055006  -0.003443   0.339086  -0.055941
     8  C   -0.002014  -0.000002  -0.004571  -0.049024  -0.046883   0.353773
     9  C   -0.031961   0.000000   0.000000   0.000000   0.000000   0.000000
    10  C   -0.024902  -0.000051   0.000000   0.000000   0.000005   0.000000
    11  C    0.002940   0.284156   0.000000   0.000000   0.000000   0.000000
    12  C   -0.048977   0.000253  -0.000362   0.004076   0.003908  -0.056525
    13  C    0.340232  -0.000422   0.000005  -0.000084   0.000000   0.004250
    14  N    0.313433  -0.000009   0.000000   0.000000  -0.000001   0.000007
    15  N   -0.053051  -0.033235   0.000000   0.000000   0.000000  -0.000047
    16  O    0.000000   0.557865   0.000000   0.000000   0.000000   0.000000
    17  O    0.549199  -0.000003   0.000000   0.000001   0.000000  -0.000066
    18  O   -0.000559   0.436534   0.000000   0.000000   0.000000   0.000000
    19  H    0.000000   0.000000   0.403980  -0.037032  -0.037290   0.004370
    20  H    0.000000   0.000000   0.395791  -0.043055  -0.043400  -0.002991
    21  H    0.000000   0.000000  -0.036374   0.403655   0.004341  -0.037731
    22  H   -0.000004   0.000000  -0.043339   0.397274  -0.002875  -0.043570
    23  H   -0.000005   0.000000  -0.042759  -0.002880   0.396422   0.000476
    24  H    0.000000   0.000000  -0.036162   0.004305   0.404307  -0.000350
    25  H   -0.000006   0.000000  -0.002994  -0.040353   0.000402   0.393461
    26  H    0.000042   0.000000   0.004062  -0.033836  -0.000324   0.401589
    27  H    0.000263  -0.000002   0.004126  -0.000328  -0.036441   0.004076
    28  H    0.000006   0.000000  -0.002716   0.000314  -0.039048  -0.002943
    29  H    0.004181   0.000000   0.000112  -0.002157  -0.001837  -0.040995
    30  H    0.001768   0.000000   0.000000   0.000000   0.000000   0.000000
    31  H   -0.003337   0.000000   0.000000   0.000000   0.000000   0.000000
    32  H    0.000446   0.000000   0.000000   0.000000   0.000000   0.000000
    33  H    0.001586   0.000000   0.000000   0.000000   0.000000   0.000000
    34  H   -0.001339   0.000328   0.000000   0.000000   0.000000   0.000000
    35  H   -0.000994   0.000002   0.000000   0.000000   0.000008  -0.000001
    36  H    0.000082  -0.018377   0.000000   0.000000   0.000000   0.000002
    37  H   -0.000125  -0.016225   0.000000   0.000000   0.000000   0.000000
    38  H    0.004545   0.000085   0.000010  -0.000046  -0.000043  -0.002692
    39  H   -0.006372  -0.000006   0.000002   0.000042  -0.000069  -0.004495
    40  H   -0.034508   0.000965   0.000001   0.000000  -0.000026  -0.000040
    41  H   -0.004062  -0.010592   0.000000   0.000000   0.000000   0.000001
    42  H   -0.002356   0.001812   0.000000   0.000000   0.000000  -0.000005
              7          8          9         10         11         12
     1  C    0.000236  -0.002014  -0.031961  -0.024902   0.002940  -0.048977
     2  C   -0.000001  -0.000002   0.000000  -0.000051   0.284156   0.000253
     3  C   -0.055006  -0.004571   0.000000   0.000000   0.000000  -0.000362
     4  C   -0.003443  -0.049024   0.000000   0.000000   0.000000   0.004076
     5  C    0.339086  -0.046883   0.000000   0.000005   0.000000   0.003908
     6  C   -0.055941   0.353773   0.000000   0.000000   0.000000  -0.056525
     7  C    5.153102   0.333869   0.000000  -0.000425  -0.000005  -0.058789
     8  C    0.333869   5.115299  -0.000008   0.000091   0.000061   0.350822
     9  C    0.000000  -0.000008   4.971554  -0.034722   0.000002  -0.000085
    10  C   -0.000425   0.000091  -0.034722   5.051282  -0.000046   0.000119
    11  C   -0.000005   0.000061   0.000002  -0.000046   5.480791  -0.005943
    12  C   -0.058789   0.350822  -0.000085   0.000119  -0.005943   5.163342
    13  C   -0.002323  -0.041854   0.003719  -0.003352  -0.021902   0.329517
    14  N   -0.000048   0.000383   0.203429   0.180310  -0.000111   0.000232
    15  N   -0.000014   0.002397  -0.000133  -0.000103   0.061459  -0.056027
    16  O    0.000000   0.000000   0.000000   0.000004  -0.102405  -0.000001
    17  O    0.000032  -0.001301  -0.005591   0.001541   0.000014  -0.000837
    18  O    0.000000   0.000000   0.000000  -0.004149  -0.132798   0.000024
    19  H    0.004355  -0.000249   0.000000   0.000000   0.000000   0.000010
    20  H   -0.003089   0.000254   0.000000   0.000000   0.000000  -0.000052
    21  H   -0.000367   0.004297   0.000000   0.000000   0.000000  -0.000088
    22  H    0.000446  -0.003981   0.000000   0.000000   0.000000  -0.000106
    23  H   -0.044214  -0.003770   0.000000   0.000001   0.000000  -0.000089
    24  H   -0.038073   0.004139   0.000000   0.000000   0.000000  -0.000086
    25  H   -0.003386  -0.045801   0.000000   0.000000  -0.000001  -0.004358
    26  H    0.004235  -0.038673   0.000000   0.000000   0.000000  -0.004369
    27  H    0.399998  -0.039540   0.000000  -0.000055  -0.000003  -0.003854
    28  H    0.392067  -0.044901   0.000000   0.000005  -0.000013  -0.003584
    29  H   -0.046444   0.402765   0.000064  -0.000015  -0.000007  -0.044019
    30  H    0.000000   0.000000   0.399273  -0.002288   0.000000   0.000012
    31  H    0.000000  -0.000004   0.396021   0.002851   0.000000  -0.000006
    32  H    0.000000   0.000001   0.401298  -0.001606   0.000000  -0.000003
    33  H    0.000004  -0.000001  -0.004295   0.401679   0.000000  -0.000007
    34  H   -0.000007   0.000015   0.002005   0.382546   0.000199   0.000164
    35  H    0.000058  -0.000112   0.001523   0.392822  -0.000003   0.000217
    36  H    0.000078  -0.000031   0.000000   0.000035   0.386943  -0.001975
    37  H    0.000000   0.000001   0.000000  -0.000002   0.386064   0.000079
    38  H   -0.004026  -0.032943   0.000002   0.000003   0.000302   0.392531
    39  H    0.003801  -0.031577  -0.000003  -0.000025   0.000096   0.395036
    40  H    0.001653  -0.001636  -0.000106  -0.004284  -0.000867  -0.030089
    41  H    0.000001  -0.000024  -0.000057   0.000053  -0.044430   0.001757
    42  H   -0.000001  -0.000015   0.000000  -0.000067  -0.014291  -0.000831
             13         14         15         16         17         18
     1  C    0.340232   0.313433  -0.053051   0.000000   0.549199  -0.000559
     2  C   -0.000422  -0.000009  -0.033235   0.557865  -0.000003   0.436534
     3  C    0.000005   0.000000   0.000000   0.000000   0.000000   0.000000
     4  C   -0.000084   0.000000   0.000000   0.000000   0.000001   0.000000
     5  C    0.000000  -0.000001   0.000000   0.000000   0.000000   0.000000
     6  C    0.004250   0.000007  -0.000047   0.000000  -0.000066   0.000000
     7  C   -0.002323  -0.000048  -0.000014   0.000000   0.000032   0.000000
     8  C   -0.041854   0.000383   0.002397   0.000000  -0.001301   0.000000
     9  C    0.003719   0.203429  -0.000133   0.000000  -0.005591   0.000000
    10  C   -0.003352   0.180310  -0.000103   0.000004   0.001541  -0.004149
    11  C   -0.021902  -0.000111   0.061459  -0.102405   0.000014  -0.132798
    12  C    0.329517   0.000232  -0.056027  -0.000001  -0.000837   0.000024
    13  C    5.229689  -0.092446   0.170841   0.000028  -0.086499   0.001415
    14  N   -0.092446   7.383165  -0.001095   0.000000  -0.089962   0.000085
    15  N    0.170841  -0.001095   7.370523   0.001688   0.001913  -0.053353
    16  O    0.000028   0.000000   0.001688   8.277520   0.000000  -0.070779
    17  O   -0.086499  -0.089962   0.001913   0.000000   8.254111   0.000001
    18  O    0.001415   0.000085  -0.053353  -0.070779   0.000001   8.468232
    19  H    0.000000   0.000000   0.000000   0.000000   0.000000   0.000000
    20  H    0.000001   0.000000   0.000000   0.000000   0.000000   0.000000
    21  H    0.000001   0.000000   0.000000   0.000000   0.000000   0.000000
    22  H    0.000004   0.000000   0.000000   0.000000   0.000000   0.000000
    23  H    0.000001   0.000000   0.000000   0.000000   0.000000   0.000000
    24  H   -0.000001   0.000000   0.000000   0.000000   0.000000   0.000000
    25  H   -0.000009   0.000000  -0.000001   0.000000   0.000000   0.000000
    26  H   -0.000116  -0.000001  -0.000002   0.000000   0.000009   0.000000
    27  H    0.000151  -0.000041   0.000035   0.000000  -0.000002  -0.000001
    28  H    0.000107   0.000000  -0.000025   0.000000   0.000000   0.000000
    29  H   -0.005963  -0.000084  -0.000017   0.000000   0.000879   0.000000
    30  H   -0.000048  -0.046162  -0.000002   0.000000   0.000412   0.000000
    31  H    0.000519  -0.031421  -0.000012   0.000000   0.008778   0.000000
    32  H   -0.000145  -0.045552   0.000020   0.000000   0.000430   0.000000
    33  H    0.000148  -0.034288   0.000007   0.000000  -0.000039   0.000009
    34  H   -0.004304  -0.036186   0.000931  -0.000046   0.000053   0.013812
    35  H   -0.001543  -0.047831  -0.000064   0.000000  -0.000012   0.000032
    36  H    0.001300  -0.000009  -0.037215   0.002940  -0.000002   0.001309
    37  H    0.001919   0.000001  -0.032913   0.001044   0.000001   0.001315
    38  H   -0.044067  -0.000070  -0.002252  -0.000003   0.000123   0.000004
    39  H   -0.039552   0.000358  -0.001606   0.000000   0.008342   0.000001
    40  H    0.396499   0.003840  -0.036696  -0.000076   0.002337   0.002126
    41  H   -0.011836   0.002238   0.207806   0.001902  -0.000152   0.097398
    42  H   -0.022520   0.000335   0.301401  -0.000024   0.007452   0.000734
             19         20         21         22         23         24
     1  C    0.000000   0.000000   0.000000  -0.000004  -0.000005   0.000000
     2  C    0.000000   0.000000   0.000000   0.000000   0.000000   0.000000
     3  C    0.403980   0.395791  -0.036374  -0.043339  -0.042759  -0.036162
     4  C   -0.037032  -0.043055   0.403655   0.397274  -0.002880   0.004305
     5  C   -0.037290  -0.043400   0.004341  -0.002875   0.396422   0.404307
     6  C    0.004370  -0.002991  -0.037731  -0.043570   0.000476  -0.000350
     7  C    0.004355  -0.003089  -0.000367   0.000446  -0.044214  -0.038073
     8  C   -0.000249   0.000254   0.004297  -0.003981  -0.003770   0.004139
     9  C    0.000000   0.000000   0.000000   0.000000   0.000000   0.000000
    10  C    0.000000   0.000000   0.000000   0.000000   0.000001   0.000000
    11  C    0.000000   0.000000   0.000000   0.000000   0.000000   0.000000
    12  C    0.000010  -0.000052  -0.000088  -0.000106  -0.000089  -0.000086
    13  C    0.000000   0.000001   0.000001   0.000004   0.000001  -0.000001
    14  N    0.000000   0.000000   0.000000   0.000000   0.000000   0.000000
    15  N    0.000000   0.000000   0.000000   0.000000   0.000000   0.000000
    16  O    0.000000   0.000000   0.000000   0.000000   0.000000   0.000000
    17  O    0.000000   0.000000   0.000000   0.000000   0.000000   0.000000
    18  O    0.000000   0.000000   0.000000   0.000000   0.000000   0.000000
    19  H    0.530900  -0.027582  -0.002199  -0.003046  -0.003108  -0.002174
    20  H   -0.027582   0.559766  -0.003056   0.004519   0.004550  -0.003040
    21  H   -0.002199  -0.003056   0.530649  -0.027623  -0.000084  -0.000085
    22  H   -0.003046   0.004519  -0.027623   0.557854   0.002827  -0.000083
    23  H   -0.003108   0.004550  -0.000084   0.002827   0.561985  -0.027924
    24  H   -0.002174  -0.003040  -0.000085  -0.000083  -0.027924   0.528898
    25  H   -0.000085   0.002799  -0.003064   0.004465   0.000076  -0.000038
    26  H   -0.000079  -0.000085  -0.002446  -0.002937  -0.000041   0.000011
    27  H   -0.000083  -0.000094   0.000011  -0.000045  -0.003036  -0.002570
    28  H   -0.000084   0.002784  -0.000040   0.000076   0.004425  -0.003048
    29  H   -0.000051   0.000080  -0.000068   0.002810   0.002805  -0.000076
    30  H    0.000000   0.000000   0.000000   0.000000   0.000000   0.000000
    31  H    0.000000   0.000000   0.000000   0.000000   0.000000   0.000000
    32  H    0.000000   0.000000   0.000000   0.000000   0.000000   0.000000
    33  H    0.000000   0.000000   0.000000   0.000000   0.000000   0.000000
    34  H    0.000000   0.000000   0.000000   0.000000   0.000000   0.000000
    35  H    0.000000   0.000000   0.000000   0.000000   0.000028  -0.000002
    36  H    0.000000   0.000000   0.000000   0.000000   0.000000   0.000000
    37  H    0.000000   0.000000   0.000000   0.000000   0.000000   0.000000
    38  H    0.000000  -0.000005   0.000002  -0.000002   0.000001  -0.000001
    39  H    0.000000   0.000001  -0.000007   0.000007   0.000001   0.000001
    40  H    0.000000   0.000000   0.000000   0.000000   0.000006   0.000001
    41  H    0.000000   0.000000   0.000000   0.000000   0.000000   0.000000
    42  H    0.000000   0.000000   0.000000   0.000000   0.000000   0.000000
             25         26         27         28         29         30
     1  C   -0.000006   0.000042   0.000263   0.000006   0.004181   0.001768
     2  C    0.000000   0.000000  -0.000002   0.000000   0.000000   0.000000
     3  C   -0.002994   0.004062   0.004126  -0.002716   0.000112   0.000000
     4  C   -0.040353  -0.033836  -0.000328   0.000314  -0.002157   0.000000
     5  C    0.000402  -0.000324  -0.036441  -0.039048  -0.001837   0.000000
     6  C    0.393461   0.401589   0.004076  -0.002943  -0.040995   0.000000
     7  C   -0.003386   0.004235   0.399998   0.392067  -0.046444   0.000000
     8  C   -0.045801  -0.038673  -0.039540  -0.044901   0.402765   0.000000
     9  C    0.000000   0.000000   0.000000   0.000000   0.000064   0.399273
    10  C    0.000000   0.000000  -0.000055   0.000005  -0.000015  -0.002288
    11  C   -0.000001   0.000000  -0.000003  -0.000013  -0.000007   0.000000
    12  C   -0.004358  -0.004369  -0.003854  -0.003584  -0.044019   0.000012
    13  C   -0.000009  -0.000116   0.000151   0.000107  -0.005963  -0.000048
    14  N    0.000000  -0.000001  -0.000041   0.000000  -0.000084  -0.046162
    15  N   -0.000001  -0.000002   0.000035  -0.000025  -0.000017  -0.000002
    16  O    0.000000   0.000000   0.000000   0.000000   0.000000   0.000000
    17  O    0.000000   0.000009  -0.000002   0.000000   0.000879   0.000412
    18  O    0.000000   0.000000  -0.000001   0.000000   0.000000   0.000000
    19  H   -0.000085  -0.000079  -0.000083  -0.000084  -0.000051   0.000000
    20  H    0.002799  -0.000085  -0.000094   0.002784   0.000080   0.000000
    21  H   -0.003064  -0.002446   0.000011  -0.000040  -0.000068   0.000000
    22  H    0.004465  -0.002937  -0.000045   0.000076   0.002810   0.000000
    23  H    0.000076  -0.000041  -0.003036   0.004425   0.002805   0.000000
    24  H   -0.000038   0.000011  -0.002570  -0.003048  -0.000076   0.000000
    25  H    0.562964  -0.028027  -0.000091   0.002974   0.004630   0.000000
    26  H   -0.028027   0.527193  -0.000088  -0.000086  -0.002702   0.000000
    27  H   -0.000091  -0.000088   0.550078  -0.028788  -0.002324   0.000000
    28  H    0.002974  -0.000086  -0.028788   0.555071   0.004554   0.000000
    29  H    0.004630  -0.002702  -0.002324   0.004554   0.545850   0.000000
    30  H    0.000000   0.000000   0.000000   0.000000   0.000000   0.529016
    31  H    0.000000   0.000000   0.000000   0.000000   0.000005  -0.021490
    32  H    0.000000   0.000000   0.000000   0.000000   0.000000  -0.036317
    33  H    0.000000   0.000000  -0.000004   0.000000   0.000001  -0.001551
    34  H    0.000000   0.000000  -0.000035   0.000000   0.000002  -0.000045
    35  H    0.000000   0.000000   0.001313  -0.000001   0.000012   0.001110
    36  H   -0.000004   0.000000   0.000033   0.000053  -0.000001   0.000000
    37  H    0.000000   0.000000   0.000000   0.000000   0.000000   0.000000
    38  H    0.002186   0.000218   0.000218   0.003102   0.003984   0.000000
    39  H    0.000221   0.002478  -0.000124  -0.000036  -0.001063   0.000000
    40  H    0.000008  -0.000006   0.000200   0.000174   0.000317  -0.000011
    41  H    0.000000   0.000000   0.000002   0.000000   0.000000   0.000002
    42  H    0.000001  -0.000002  -0.000003   0.000001   0.000006   0.000000
             31         32         33         34         35         36
     1  C   -0.003337   0.000446   0.001586  -0.001339  -0.000994   0.000082
     2  C    0.000000   0.000000   0.000000   0.000328   0.000002  -0.018377
     3  C    0.000000   0.000000   0.000000   0.000000   0.000000   0.000000
     4  C    0.000000   0.000000   0.000000   0.000000   0.000000   0.000000
     5  C    0.000000   0.000000   0.000000   0.000000   0.000008   0.000000
     6  C    0.000000   0.000000   0.000000   0.000000  -0.000001   0.000002
     7  C    0.000000   0.000000   0.000004  -0.000007   0.000058   0.000078
     8  C   -0.000004   0.000001  -0.000001   0.000015  -0.000112  -0.000031
     9  C    0.396021   0.401298  -0.004295   0.002005   0.001523   0.000000
    10  C    0.002851  -0.001606   0.401679   0.382546   0.392822   0.000035
    11  C    0.000000   0.000000   0.000000   0.000199  -0.000003   0.386943
    12  C   -0.000006  -0.000003  -0.000007   0.000164   0.000217  -0.001975
    13  C    0.000519  -0.000145   0.000148  -0.004304  -0.001543   0.001300
    14  N   -0.031421  -0.045552  -0.034288  -0.036186  -0.047831  -0.000009
    15  N   -0.000012   0.000020   0.000007   0.000931  -0.000064  -0.037215
    16  O    0.000000   0.000000   0.000000  -0.000046   0.000000   0.002940
    17  O    0.008778   0.000430  -0.000039   0.000053  -0.000012  -0.000002
    18  O    0.000000   0.000000   0.000009   0.013812   0.000032   0.001309
    19  H    0.000000   0.000000   0.000000   0.000000   0.000000   0.000000
    20  H    0.000000   0.000000   0.000000   0.000000   0.000000   0.000000
    21  H    0.000000   0.000000   0.000000   0.000000   0.000000   0.000000
    22  H    0.000000   0.000000   0.000000   0.000000   0.000000   0.000000
    23  H    0.000000   0.000000   0.000000   0.000000   0.000028   0.000000
    24  H    0.000000   0.000000   0.000000   0.000000  -0.000002   0.000000
    25  H    0.000000   0.000000   0.000000   0.000000   0.000000  -0.000004
    26  H    0.000000   0.000000   0.000000   0.000000   0.000000   0.000000
    27  H    0.000000   0.000000  -0.000004  -0.000035   0.001313   0.000033
    28  H    0.000000   0.000000   0.000000   0.000000  -0.000001   0.000053
    29  H    0.000005   0.000000   0.000001   0.000002   0.000012  -0.000001
    30  H   -0.021490  -0.036317  -0.001551  -0.000045   0.001110   0.000000
    31  H    0.434769  -0.022361   0.000225  -0.000097  -0.000086   0.000000
    32  H   -0.022361   0.517399   0.001061   0.000243  -0.000233   0.000000
    33  H    0.000225   0.001061   0.477187  -0.018969  -0.028049   0.000000
    34  H   -0.000097   0.000243  -0.018969   0.447769  -0.028870  -0.000086
    35  H   -0.000086  -0.000233  -0.028049  -0.028870   0.531284  -0.000001
    36  H    0.000000   0.000000   0.000000  -0.000086  -0.000001   0.454569
    37  H    0.000000   0.000000   0.000000   0.000005   0.000000  -0.018705
    38  H    0.000000   0.000000   0.000000   0.000003   0.000004   0.001566
    39  H   -0.000002   0.000000   0.000000  -0.000006   0.000000   0.000018
    40  H   -0.000015   0.000000   0.000320  -0.000850  -0.001068  -0.000846
    41  H    0.000000  -0.000012  -0.000016  -0.000537   0.000056   0.003216
    42  H   -0.000004   0.000001   0.000002   0.000037  -0.000003   0.000435
             37         38         39         40         41         42
     1  C   -0.000125   0.004545  -0.006372  -0.034508  -0.004062  -0.002356
     2  C   -0.016225   0.000085  -0.000006   0.000965  -0.010592   0.001812
     3  C    0.000000   0.000010   0.000002   0.000001   0.000000   0.000000
     4  C    0.000000  -0.000046   0.000042   0.000000   0.000000   0.000000
     5  C    0.000000  -0.000043  -0.000069  -0.000026   0.000000   0.000000
     6  C    0.000000  -0.002692  -0.004495  -0.000040   0.000001  -0.000005
     7  C    0.000000  -0.004026   0.003801   0.001653   0.000001  -0.000001
     8  C    0.000001  -0.032943  -0.031577  -0.001636  -0.000024  -0.000015
     9  C    0.000000   0.000002  -0.000003  -0.000106  -0.000057   0.000000
    10  C   -0.000002   0.000003  -0.000025  -0.004284   0.000053  -0.000067
    11  C    0.386064   0.000302   0.000096  -0.000867  -0.044430  -0.014291
    12  C    0.000079   0.392531   0.395036  -0.030089   0.001757  -0.000831
    13  C    0.001919  -0.044067  -0.039552   0.396499  -0.011836  -0.022520
    14  N    0.000001  -0.000070   0.000358   0.003840   0.002238   0.000335
    15  N   -0.032913  -0.002252  -0.001606  -0.036696   0.207806   0.301401
    16  O    0.001044  -0.000003   0.000000  -0.000076   0.001902  -0.000024
    17  O    0.000001   0.000123   0.008342   0.002337  -0.000152   0.007452
    18  O    0.001315   0.000004   0.000001   0.002126   0.097398   0.000734
    19  H    0.000000   0.000000   0.000000   0.000000   0.000000   0.000000
    20  H    0.000000  -0.000005   0.000001   0.000000   0.000000   0.000000
    21  H    0.000000   0.000002  -0.000007   0.000000   0.000000   0.000000
    22  H    0.000000  -0.000002   0.000007   0.000000   0.000000   0.000000
    23  H    0.000000   0.000001   0.000001   0.000006   0.000000   0.000000
    24  H    0.000000  -0.000001   0.000001   0.000001   0.000000   0.000000
    25  H    0.000000   0.002186   0.000221   0.000008   0.000000   0.000001
    26  H    0.000000   0.000218   0.002478  -0.000006   0.000000  -0.000002
    27  H    0.000000   0.000218  -0.000124   0.000200   0.000002  -0.000003
    28  H    0.000000   0.003102  -0.000036   0.000174   0.000000   0.000001
    29  H    0.000000   0.003984  -0.001063   0.000317   0.000000   0.000006
    30  H    0.000000   0.000000   0.000000  -0.000011   0.000002   0.000000
    31  H    0.000000   0.000000  -0.000002  -0.000015   0.000000  -0.000004
    32  H    0.000000   0.000000   0.000000   0.000000  -0.000012   0.000001
    33  H    0.000000   0.000000   0.000000   0.000320  -0.000016   0.000002
    34  H    0.000005   0.000003  -0.000006  -0.000850  -0.000537   0.000037
    35  H    0.000000   0.000004   0.000000  -0.001068   0.000056  -0.000003
    36  H   -0.018705   0.001566   0.000018  -0.000846   0.003216   0.000435
    37  H    0.449962  -0.000135  -0.000008   0.000134   0.001386  -0.002480
    38  H   -0.000135   0.523498  -0.025350  -0.002296  -0.000038  -0.000119
    39  H   -0.000008  -0.025350   0.484934   0.003316  -0.000050   0.003359
    40  H    0.000134  -0.002296   0.003316   0.446679  -0.000957   0.003305
    41  H    0.001386  -0.000038  -0.000050  -0.000957   0.267694  -0.005790
    42  H   -0.002480  -0.000119   0.003359   0.003305  -0.005790   0.291560
 Mulliken atomic charges:
              1
     1  C    0.797503
     2  C    0.793630
     3  C   -0.312544
     4  C   -0.314627
     5  C   -0.312329
     6  C   -0.311035
     7  C   -0.317419
     8  C   -0.179251
     9  C   -0.301930
    10  C   -0.337254
    11  C   -0.280203
    12  C   -0.321038
    13  C   -0.101359
    14  N   -0.662502
    15  N   -0.811160
    16  O   -0.669657
    17  O   -0.651159
    18  O   -0.761390
    19  H    0.169450
    20  H    0.155906
    21  H    0.170276
    22  H    0.157329
    23  H    0.154310
    24  H    0.172052
    25  H    0.154035
    26  H    0.173982
    27  H    0.157048
    28  H    0.159602
    29  H    0.174769
    30  H    0.176321
    31  H    0.235663
    32  H    0.185330
    33  H    0.204988
    34  H    0.243264
    35  H    0.180402
    36  H    0.224672
    37  H    0.228684
    38  H    0.181700
    39  H    0.208335
    40  H    0.252494
    41  H    0.495043
    42  H    0.438071
 Sum of Mulliken atomic charges =   0.00000
 Mulliken charges with hydrogens summed into heavy atoms:
              1
     1  C    0.797503
     2  C    0.793630
     3  C    0.012812
     4  C    0.012978
     5  C    0.014032
     6  C    0.016982
     7  C   -0.000768
     8  C   -0.004482
     9  C    0.295384
    10  C    0.291400
    11  C    0.173153
    12  C    0.068997
    13  C    0.151135
    14  N   -0.662502
    15  N    0.121954
    16  O   -0.669657
    17  O   -0.651159
    18  O   -0.761390
 Sum of Mulliken charges with hydrogens summed into heavy atoms =   0.00000
 DipInt: DoE/N= T F RetVal/Mat= T F Init=T NMatP=  1 IDeriv=0 Min/MaxMlt=  0  4
 Entering OneElI...
 OneElI was handed    33293311 working-precision words.
 Multipole integrals L=0 to 4 MinM= 0 MaxM= 0.
 Requested accuracy = 0.1000D-12
 PrsmSu:  NPrtUS=   1 ThrOK=F IAlg=1 NPAlg=1 LenDen=           0.
 Prism:   IPart=     0 DynPar=F LinDyn=F Incr=          59.
 PRISM was handed    32816879 working-precision words and  5983 shell-pairs
 IPart=  0 NShTot=        5983 NBatch=          81 AvBLen=        73.9
 PrSmSu:  NxtVal=             60.
 Electronic moments (au):
       -140.00000000         -3.27131575          1.44123427         -0.85102980
      -3708.58552268      -1535.68069041       -689.08880622         16.28809199
        -12.77570018         13.23608342       5052.71023415      -3014.64131375
       -153.98343960      -3365.12033982       6478.04436727      -1935.98275526
        630.55407757       -257.29051480       -537.96414396        -20.38471601
    -201873.94298614     -48006.03895679      -8172.71254832       9119.36966831
      -2344.89433983       2359.06889665       -516.72769596       1303.95338869
       -109.50698561     -29578.30961104     -15827.03959120      -6248.69599392
       4713.70242748      -2898.42238098      -1794.49815834
 Electronic spatial extent (au):  <R**2>=           5933.3550
 DipInt: DoE/N= F T RetVal/Mat= T F Init=T NMatP=  1 IDeriv=0 Min/MaxMlt=  0  4
 Nuclear    moments (au):
        140.00000000          0.00000000          0.00000000          0.00000000
       3595.99176207       1448.88485436        606.54872864          0.00000000
          0.00000000          0.00000000      -5314.29972509       3122.90226268
        152.46656482       3312.20403080      -6352.13325398       1837.36121721
       -610.28256001        248.75889933        534.20543636         75.08959246
     186521.07224158      42770.95816304       5836.89122840      -8175.01566668
       1659.40792348      -1838.10934559        758.62507324      -1346.14140479
        214.64215211      25900.57181769      13250.63538690       4908.03971008
      -4374.45894882       2736.10420137       1808.20851360
 Total      moments (au):
          0.00000000         -3.27131575          1.44123427         -0.85102980
       -112.59376061        -86.79583605        -82.54007759         16.28809199
        -12.77570018         13.23608342       -261.58949093        108.26094893
         -1.51687478        -52.91630902        125.91111328        -98.62153805
         20.27151756         -8.53161546         -3.75870760         54.70487645
     -15352.87074456      -5235.08079374      -2335.82131992        944.35400162
       -685.48641635        520.95955107        241.89737728        -42.18801610
        105.13516650      -3677.73779335      -2576.40420430      -1340.65628384
        339.24347866       -162.31817960         13.71035526
 Traceless Quadrup. (au):
        -18.61720253          7.18072204         11.43648050         16.28809199
        -12.77570018         13.23608342
 Charge=              0.0000 electrons
 Dipole moment (field-independent basis, Debye):
    X=             -8.3149    Y=              3.6633    Z=             -2.1631  Tot=              9.3400
 Quadrupole moment (field-independent basis, Debye-Ang):
   XX=           -151.4425   YY=           -116.7434   ZZ=           -111.0192
   XY=             21.9080   XZ=            -17.1838   YZ=             17.8030
 Traceless Quadrupole moment (field-independent basis, Debye-Ang):
   XX=            -25.0408   YY=              9.6583   ZZ=             15.3825
   XY=             21.9080   XZ=            -17.1838   YZ=             17.8030
 Octapole moment (field-independent basis, Debye-Ang**2):
  XXX=           -186.1893  YYY=             77.0560  ZZZ=             -1.0797  XYY=            -37.6638
  XXY=             89.6187  XXZ=            -70.1950  XZZ=             14.4285  YZZ=             -6.0725
  YYZ=             -2.6753  XYZ=             38.9368
 Hexadecapole moment (field-independent basis, Debye-Ang**3):
 XXXX=          -5782.6269 YYYY=          -1971.7823 ZZZZ=           -879.7823 XXXY=            355.6890
 XXXZ=           -258.1870 YYYX=            196.2183 YYYZ=             91.1101 ZZZX=            -15.8900
 ZZZY=             39.5989 XXYY=          -1385.2123 XXZZ=           -970.3973 YYZZ=           -504.9554
 XXYZ=            127.7754 YYXZ=            -61.1368 ZZXY=              5.1640
 N-N= 1.436234872928D+03 E-N=-4.835507807308D+03  KE= 8.377664372823D+02
 Entering OneElI...
 OneElI was handed    33089695 working-precision words.
 Calculate electrostatic properties
    NBasis =   318  MinDer = 0  MaxDer = 0
    NGrid  =    42  NMatD  =   1
 Requested accuracy = 0.1000D-12
 PrsmSu:  NPrtUS=   2 ThrOK=T IAlg=1 NPAlg=1 LenDen=           0.
 Prism:   IPart=     0 DynPar=F LinDyn=F Incr=         512.
 PRISM was handed    16259392 working-precision words and  5334 shell-pairs
 PRISM was handed    16259392 working-precision words and  5334 shell-pairs
 IPart=  1 NShTot=      111636 NBatch=        2658 AvBLen=        42.0
 IPart=  0 NShTot=      112392 NBatch=        2676 AvBLen=        42.0
 PrSmSu:  NxtVal=           1025.
 --------------------------------------------------------
       Center         ----      EFG at Nuclei      ----
                      3XX-RR        3YY-RR        3ZZ-RR
 --------------------------------------------------------
     1   Atom       -0.496039      0.250021      0.246017
     2   Atom       -0.157162      0.353813     -0.196651
     3   Atom        0.001030      0.002645     -0.003676
     4   Atom       -0.011602      0.007850      0.003752
     5   Atom       -0.016507      0.008074      0.008433
     6   Atom        0.000265      0.003418     -0.003684
     7   Atom        0.003996      0.000380     -0.004377
     8   Atom       -0.039705      0.022277      0.017428
     9   Atom        0.130579     -0.322024      0.191445
    10   Atom        0.120320      0.139203     -0.259523
    11   Atom        0.171870     -0.364910      0.193040
    12   Atom       -0.040844      0.004962      0.035882
    13   Atom       -0.165822      0.056666      0.109156
    14   Atom        0.868671     -0.467508     -0.401163
    15   Atom        0.052002      0.051282     -0.103284
    16   Atom        0.309341     -0.293464     -0.015877
    17   Atom       -0.562002      1.363510     -0.801508
    18   Atom        0.488699     -0.941903      0.453204
    19   Atom       -0.187059      0.116510      0.070549
    20   Atom        0.144389     -0.285489      0.141100
    21   Atom       -0.091389      0.091375      0.000014
    22   Atom        0.137742     -0.280183      0.142441
    23   Atom        0.138262     -0.278033      0.139770
    24   Atom        0.140197      0.076242     -0.216439
    25   Atom        0.135775     -0.276106      0.140331
    26   Atom        0.137195      0.078271     -0.215466
    27   Atom       -0.092893      0.097049     -0.004156
    28   Atom        0.137620     -0.277878      0.140258
    29   Atom        0.132228     -0.275205      0.142976
    30   Atom       -0.005231      0.066532     -0.061301
    31   Atom        0.095124      0.115284     -0.210409
    32   Atom       -0.211754      0.062001      0.149753
    33   Atom        0.098669     -0.125587      0.026918
    34   Atom       -0.061450     -0.062913      0.124363
    35   Atom       -0.123430      0.097025      0.026405
    36   Atom       -0.119378      0.019209      0.100169
    37   Atom        0.108080      0.049871     -0.157951
    38   Atom        0.129141     -0.281150      0.152010
    39   Atom        0.129963      0.122164     -0.252127
    40   Atom        0.138572      0.118200     -0.256771
    41   Atom       -0.063217     -0.023127      0.086344
    42   Atom        0.169580      0.164875     -0.334455
 --------------------------------------------------------
                        XY            XZ            YZ
 --------------------------------------------------------
     1   Atom        0.003339      0.154170     -0.069018
     2   Atom       -0.003831      0.322020     -0.093281
     3   Atom       -0.012424     -0.007210      0.003817
     4   Atom        0.012579      0.011290      0.004279
     5   Atom        0.007471      0.015158     -0.012938
     6   Atom       -0.007198     -0.020802     -0.020105
     7   Atom       -0.002129     -0.012162      0.012468
     8   Atom        0.018303      0.041287     -0.006951
     9   Atom        0.025064      0.028363      0.041879
    10   Atom        0.004705     -0.121115      0.125084
    11   Atom        0.220598      0.000700      0.174649
    12   Atom       -0.054951     -0.060953     -0.057325
    13   Atom        0.169137      0.247662     -0.083867
    14   Atom        0.038920     -0.367456     -0.030824
    15   Atom        0.200574      0.142950      0.054531
    16   Atom        0.887440      0.639043      0.776212
    17   Atom        0.287949      0.037847      0.725096
    18   Atom       -0.464674      0.529912     -0.329505
    19   Atom        0.103489      0.153608     -0.048257
    20   Atom        0.002924     -0.001757     -0.014561
    21   Atom       -0.116785     -0.181946     -0.090905
    22   Atom        0.048707      0.003590     -0.009610
    23   Atom        0.028272      0.003618     -0.052311
    24   Atom       -0.010441      0.023195      0.162623
    25   Atom        0.032417      0.002364     -0.049364
    26   Atom       -0.012694      0.026292      0.160392
    27   Atom       -0.115914     -0.183327     -0.089195
    28   Atom        0.048002      0.004946     -0.015568
    29   Atom        0.023747      0.002723     -0.023409
    30   Atom        0.105046      0.187200     -0.115132
    31   Atom        0.032578     -0.147873      0.085532
    32   Atom       -0.158608     -0.038304     -0.012861
    33   Atom       -0.128470     -0.088434     -0.164661
    34   Atom        0.209496      0.011109     -0.017545
    35   Atom       -0.123901      0.168356      0.081015
    36   Atom       -0.169532      0.129587      0.088806
    37   Atom        0.073347      0.124366     -0.155148
    38   Atom        0.048430     -0.003884      0.010545
    39   Atom        0.001937     -0.013351      0.110416
    40   Atom        0.016167     -0.031377      0.097768
    41   Atom       -0.135952     -0.058637     -0.066722
    42   Atom        0.011974     -0.024555      0.075933
 --------------------------------------------------------


 ---------------------------------------------------------------------------------
              Nuclear Quadrupole in Principal Axis System
 ---------------------------------------------------------------------------------

       Atom             a.u.   MegaHertz   Gauss  10(-4) cm-1        Axes

              Baa    -0.5272   -70.740   -25.242   -23.596  0.9801 -0.0217 -0.1974
     1 C(13)  Bbb     0.1953    26.204     9.350     8.741  0.1419  0.7722  0.6194
              Bcc     0.3319    44.535    15.891    14.855  0.1389 -0.6350  0.7599
 
              Baa    -0.5045   -67.705   -24.159   -22.584 -0.6774  0.0765  0.7316
     2 C(13)  Bbb     0.1267    17.002     6.067     5.671  0.7198  0.2741  0.6378
              Bcc     0.3778    50.703    18.092    16.913 -0.1518  0.9587 -0.2407
 
              Baa    -0.0118    -1.585    -0.566    -0.529  0.7426  0.5300  0.4094
     3 C(13)  Bbb    -0.0054    -0.720    -0.257    -0.240 -0.0844 -0.5323  0.8423
              Bcc     0.0172     2.305     0.823     0.769  0.6644 -0.6601 -0.3505
 
              Baa    -0.0208    -2.794    -0.997    -0.932  0.8774 -0.3334 -0.3450
     4 C(13)  Bbb     0.0012     0.167     0.060     0.056  0.0661 -0.6282  0.7752
              Bcc     0.0196     2.627     0.937     0.876  0.4752  0.7030  0.5292
 
              Baa    -0.0280    -3.763    -1.343    -1.255  0.8220 -0.3350 -0.4605
     5 C(13)  Bbb     0.0058     0.778     0.278     0.260  0.5385  0.7201  0.4376
              Bcc     0.0222     2.985     1.065     0.996  0.1850 -0.6077  0.7723
 
              Baa    -0.0335    -4.496    -1.604    -1.500  0.5316  0.4826  0.6961
     6 C(13)  Bbb     0.0091     1.215     0.434     0.405  0.7121 -0.6996 -0.0588
              Bcc     0.0245     3.281     1.171     1.095 -0.4586 -0.5270  0.7156
 
              Baa    -0.0181    -2.425    -0.865    -0.809  0.3855 -0.4857  0.7845
     7 C(13)  Bbb     0.0001     0.008     0.003     0.003  0.6942  0.7128  0.1001
              Bcc     0.0180     2.417     0.863     0.806 -0.6078  0.5061  0.6119
 
              Baa    -0.0656    -8.809    -3.143    -2.938  0.8670 -0.2160 -0.4490
     8 C(13)  Bbb     0.0262     3.512     1.253     1.171  0.1081  0.9612 -0.2536
              Bcc     0.0395     5.297     1.890     1.767  0.4864  0.1713  0.8568
 
              Baa    -0.3265   -43.820   -15.636   -14.617 -0.0498  0.9957 -0.0778
     9 C(13)  Bbb     0.1195    16.042     5.724     5.351  0.9267  0.0170 -0.3755
              Bcc     0.2070    27.778     9.912     9.266  0.3725  0.0908  0.9236
 
              Baa    -0.3266   -43.830   -15.639   -14.620  0.2555 -0.2531  0.9331
    10 C(13)  Bbb     0.1328    17.826     6.361     5.946  0.8049  0.5903 -0.0603
              Bcc     0.1938    26.004     9.279     8.674 -0.5355  0.7665  0.3546
 
              Baa    -0.4840   -64.952   -23.177   -21.666 -0.3095  0.9209 -0.2372
    11 C(13)  Bbb     0.1834    24.614     8.783     8.210 -0.6763 -0.0378  0.7357
              Bcc     0.3006    40.338    14.394    13.455  0.6685  0.3881  0.6345
 
              Baa    -0.1212   -16.258    -5.801    -5.423  0.7127  0.5230  0.4675
    12 C(13)  Bbb     0.0382     5.124     1.828     1.709 -0.6706  0.7036  0.2351
              Bcc     0.0830    11.135     3.973     3.714 -0.2060 -0.4811  0.8521
 
              Baa    -0.3909   -52.452   -18.716   -17.496  0.7984 -0.3880 -0.4605
    13 C(13)  Bbb     0.1346    18.064     6.446     6.025  0.2810  0.9164 -0.2849
              Bcc     0.2563    34.388    12.271    11.471  0.5326  0.0981  0.8407
 
              Baa    -0.5094   -19.646    -7.010    -6.553  0.2202  0.4371  0.8720
    14 N(14)  Bbb    -0.4594   -17.718    -6.322    -5.910 -0.1411  0.8988 -0.4149
              Bcc     0.9688    37.364    13.332    12.463  0.9652  0.0317 -0.2596
 
              Baa    -0.2097    -8.086    -2.885    -2.697 -0.6415  0.3505  0.6824
    15 N(14)  Bbb    -0.0918    -3.542    -1.264    -1.181 -0.3155  0.6903 -0.6511
              Bcc     0.3015    11.627     4.149     3.879  0.6993  0.6330  0.3322
 
              Baa    -1.0489    75.901    27.083    25.318 -0.3551  0.8396 -0.4112
    16 O(17)  Bbb    -0.5072    36.697    13.095    12.241 -0.6671  0.0805  0.7406
              Bcc     1.5561  -112.598   -40.178   -37.559  0.6549  0.5373  0.5315
 
              Baa    -1.0271    74.322    26.520    24.791  0.1089 -0.3005  0.9475
    17 O(17)  Bbb    -0.5944    43.010    15.347    14.347  0.9855 -0.0921 -0.1425
              Bcc     1.6215  -117.332   -41.867   -39.138  0.1301  0.9493  0.2861
 
              Baa    -1.0999    79.591    28.400    26.549  0.2409  0.9628  0.1221
    18 O(17)  Bbb    -0.0530     3.836     1.369     1.280 -0.6651  0.0722  0.7432
              Bcc     1.1530   -83.427   -29.769   -27.828  0.7068 -0.2602  0.6578
 
              Baa    -0.2907  -155.123   -55.352   -51.743  0.8726 -0.2700 -0.4071
    19 H(1)   Bbb     0.1422    75.876    27.074    25.310  0.4220 -0.0029  0.9066
              Bcc     0.1485    79.247    28.277    26.434  0.2459  0.9629 -0.1114
 
              Baa    -0.2860  -152.598   -54.451   -50.901 -0.0067  0.9994  0.0340
    20 H(1)   Bbb     0.1407    75.057    26.782    25.036  0.4450 -0.0275  0.8951
              Bcc     0.1453    77.542    27.669    25.865  0.8955  0.0211 -0.4446
 
              Baa    -0.2906  -155.062   -55.330   -51.723  0.7354  0.3613  0.5734
    21 H(1)   Bbb     0.1419    75.715    27.017    25.256 -0.6094 -0.0175  0.7927
              Bcc     0.1487    79.347    28.313    26.467 -0.2964  0.9323 -0.2073
 
              Baa    -0.2860  -152.604   -54.453   -50.903 -0.1144  0.9932  0.0232
    22 H(1)   Bbb     0.1405    74.973    26.752    25.008 -0.6514 -0.0926  0.7531
              Bcc     0.1455    77.631    27.701    25.895  0.7501  0.0710  0.6575
 
              Baa    -0.2864  -152.807   -54.525   -50.971 -0.0670  0.9903  0.1221
    23 H(1)   Bbb     0.1402    74.789    26.687    24.947  0.9975  0.0691 -0.0132
              Bcc     0.1462    78.018    27.839    26.024  0.0215 -0.1209  0.9924
 
              Baa    -0.2904  -154.930   -55.283   -51.679 -0.0590 -0.4062  0.9119
    24 H(1)   Bbb     0.1417    75.603    26.977    25.219  0.9982 -0.0108  0.0597
              Bcc     0.1487    79.327    28.306    26.460 -0.0144  0.9137  0.4061
 
              Baa    -0.2844  -151.736   -54.143   -50.614 -0.0771  0.9903  0.1155
    25 H(1)   Bbb     0.1380    73.650    26.280    24.567  0.9821  0.0554  0.1802
              Bcc     0.1463    78.085    27.863    26.046 -0.1720 -0.1273  0.9768
 
              Baa    -0.2881  -153.704   -54.845   -51.270 -0.0684 -0.4021  0.9130
    26 H(1)   Bbb     0.1391    74.212    26.481    24.754  0.9923  0.0677  0.1042
              Bcc     0.1490    79.492    28.365    26.516 -0.1037  0.9131  0.3944
 
              Baa    -0.2921  -155.855   -55.613   -51.988  0.7364  0.3518  0.5778
    27 H(1)   Bbb     0.1399    74.652    26.638    24.901 -0.5793 -0.1132  0.8072
              Bcc     0.1522    81.203    28.975    27.086 -0.3494  0.9292 -0.1204
 
              Baa    -0.2840  -151.506   -54.061   -50.537 -0.1135  0.9928  0.0378
    28 H(1)   Bbb     0.1386    73.971    26.395    24.674 -0.5700 -0.0962  0.8160
              Bcc     0.1453    77.535    27.666    25.863  0.8138  0.0711  0.5768
 
              Baa    -0.2779  -148.274   -52.908   -49.459 -0.0581  0.9968  0.0558
    29 H(1)   Bbb     0.1334    71.196    25.405    23.748  0.9902  0.0646 -0.1240
              Bcc     0.1445    77.078    27.503    25.710  0.1272 -0.0481  0.9907
 
              Baa    -0.2905  -155.015   -55.313   -51.707 -0.6012  0.3999  0.6918
    30 H(1)   Bbb     0.1338    71.367    25.466    23.805  0.1207  0.9013 -0.4161
              Bcc     0.1568    83.648    29.848    27.902  0.7899  0.1667  0.5901
 
              Baa    -0.2909  -155.195   -55.378   -51.768  0.3651 -0.2198  0.9046
    31 H(1)   Bbb     0.1357    72.416    25.840    24.155  0.1705  0.9711  0.1671
              Bcc     0.1551    82.779    29.538    27.612  0.9152 -0.0932 -0.3920
 
              Baa    -0.2881  -153.700   -54.844   -51.269  0.9058  0.4137  0.0914
    32 H(1)   Bbb     0.1337    71.346    25.458    23.798 -0.3888  0.8973 -0.2090
              Bcc     0.1544    82.354    29.386    27.470 -0.1685  0.1538  0.9736
 
              Baa    -0.2929  -156.257   -55.756   -52.122  0.3699  0.7804  0.5041
[...]
  821 Fit      -0.008958
  822 Fit      -0.003046
  823 Fit       0.000846
  824 Fit      -0.012618
  825 Fit      -0.016550
  826 Fit      -0.016937
  827 Fit      -0.017002
  828 Fit      -0.014135
  829 Fit      -0.005654
  830 Fit      -0.007807
  831 Fit      -0.017251
  832 Fit      -0.018599
  833 Fit      -0.014095
  834 Fit      -0.003239
  835 Fit       0.003962
  836 Fit      -0.013074
  837 Fit      -0.050117
  838 Fit      -0.064635
  839 Fit      -0.047604
  840 Fit      -0.069565
  841 Fit      -0.057118
  842 Fit      -0.041678
  843 Fit      -0.066335
  844 Fit      -0.056818
  845 Fit      -0.045187
  846 Fit      -0.028832
  847 Fit      -0.056063
  848 Fit      -0.049058
  849 Fit      -0.038153
  850 Fit      -0.021244
  851 Fit      -0.038624
  852 Fit      -0.032767
  853 Fit      -0.016345
  854 Fit      -0.010831
  855 Fit       0.011939
  856 Fit       0.012282
  857 Fit       0.011444
  858 Fit       0.010423
  859 Fit       0.013529
  860 Fit       0.012697
  861 Fit       0.012031
  862 Fit       0.010849
  863 Fit       0.009353
  864 Fit       0.013313
  865 Fit       0.012388
  866 Fit       0.011765
  867 Fit       0.010725
  868 Fit       0.009304
  869 Fit       0.011362
  870 Fit       0.010819
  871 Fit       0.010460
  872 Fit       0.009790
  873 Fit       0.011614
  874 Fit       0.013770
  875 Fit       0.010184
  876 Fit       0.011947
  877 Fit       0.013955
  878 Fit       0.017119
  879 Fit       0.012120
  880 Fit       0.014185
  881 Fit       0.017611
  882 Fit       0.014835
  883 Fit       0.009567
  884 Fit       0.010678
  885 Fit       0.011531
  886 Fit       0.012030
  887 Fit       0.012821
  888 Fit       0.009634
  889 Fit       0.010954
  890 Fit       0.012074
  891 Fit       0.012727
  892 Fit       0.013461
  893 Fit       0.010812
  894 Fit       0.011867
  895 Fit       0.012827
  896 Fit       0.012456
  897 Fit       0.019742
  898 Fit       0.016139
  899 Fit       0.013784
  900 Fit       0.012713
  901 Fit       0.015118
  902 Fit       0.013391
  903 Fit       0.011659
  904 Fit       0.010299
  905 Fit       0.012575
  906 Fit       0.011960
  907 Fit       0.010650
  908 Fit       0.009260
  909 Fit       0.011747
  910 Fit       0.010241
  911 Fit       0.015920
  912 Fit       0.013315
  913 Fit       0.024311
  914 Fit       0.020098
  915 Fit       0.016813
  916 Fit       0.014347
  917 Fit       0.012941
  918 Fit       0.024552
  919 Fit       0.020301
  920 Fit       0.017322
  921 Fit       0.015362
  922 Fit       0.019803
  923 Fit       0.012267
  924 Fit       0.013172
  925 Fit       0.013048
  926 Fit       0.011789
  927 Fit       0.011767
  928 Fit       0.012015
  929 Fit       0.012216
  930 Fit       0.011606
  931 Fit       0.011510
  932 Fit       0.011648
  933 Fit       0.012012
  934 Fit       0.012223
  935 Fit       0.013084
  936 Fit       0.013805
  937 Fit       0.019352
  938 Fit       0.015556
  939 Fit       0.016659
  940 Fit       0.019028
  941 Fit       0.024460
  942 Fit       0.014605
  943 Fit       0.016358
  944 Fit       0.019721
  945 Fit       0.014254
  946 Fit       0.017278
  947 Fit       0.008321
  948 Fit       0.004997
  949 Fit       0.009535
  950 Fit       0.011428
  951 Fit       0.012082
  952 Fit       0.016552
  953 Fit       0.011444
  954 Fit       0.011943
  955 Fit       0.012721
  956 Fit       0.013459
  957 Fit       0.016061
  958 Fit       0.013716
  959 Fit       0.017819
  960 Fit       0.020565
  961 Fit       0.014509
  962 Fit       0.017449
  963 Fit       0.013782
  964 Fit       0.011783
  965 Fit       0.015182
  966 Fit       0.013747
  967 Fit       0.012574
  968 Fit       0.013379
  969 Fit       0.017051
  970 Fit       0.016840
  971 Fit       0.018529
  972 Fit       0.021722
  973 Fit       0.026004
  974 Fit       0.023210
  975 Fit       0.016800
  976 Fit       0.017504
  977 Fit       0.006747
  978 Fit       0.013738
  979 Fit       0.026189
  980 Fit       0.023013
  981 Fit       0.022399
  982 Fit       0.024302
  983 Fit       0.020332
  984 Fit       0.020064
  985 Fit       0.020644
  986 Fit       0.021812
  987 Fit       0.024128
  988 Fit       0.019183
  989 Fit       0.018691
  990 Fit       0.018788
  991 Fit       0.019468
  992 Fit       0.021339
  993 Fit       0.014562
  994 Fit       0.012817
  995 Fit       0.009902
  996 Fit       0.010987
  997 Fit       0.009874
  998 Fit       0.005575
  999 Fit       0.001182
 1000 Fit       0.001938
 1001 Fit       0.020626
 1002 Fit       0.013079
 1003 Fit       0.015136
 1004 Fit       0.016878
 1005 Fit       0.009234
 1006 Fit       0.012272
 1007 Fit       0.014303
 1008 Fit       0.016084
 1009 Fit       0.006118
 1010 Fit       0.008172
 1011 Fit       0.010646
 1012 Fit       0.012638
 1013 Fit       0.007369
 1014 Fit       0.005681
 1015 Fit       0.008784
 1016 Fit       0.016967
 1017 Fit       0.011803
 1018 Fit       0.017266
 1019 Fit       0.020601
 1020 Fit       0.005774
 1021 Fit       0.013559
 1022 Fit       0.019470
 1023 Fit       0.023141
 1024 Fit       0.025284
 1025 Fit       0.000957
 1026 Fit       0.012136
 1027 Fit       0.020339
 1028 Fit      -0.003814
 1029 Fit      -0.005363
 1030 Fit      -0.025445
 1031 Fit       0.004288
 1032 Fit      -0.013467
 1033 Fit       0.018641
 1034 Fit       0.021377
 1035 Fit       0.021631
 1036 Fit       0.020043
 1037 Fit       0.015455
 1038 Fit       0.024294
 1039 Fit       0.024378
 1040 Fit       0.025324
 1041 Fit       0.022696
 1042 Fit       0.027232
 1043 Fit       0.027396
 1044 Fit       0.021919
 1045 Fit       0.001958
 1046 Fit       0.015561
 1047 Fit      -0.003539
 1048 Fit       0.025908
 1049 Fit       0.012778
 1050 Fit      -0.003509
 1051 Fit       0.027119
 1052 Fit       0.016405
 1053 Fit      -0.002737
 1054 Fit      -0.014389
 1055 Fit      -0.019108
 1056 Fit       0.008059
 1057 Fit       0.019979
 1058 Fit       0.024115
 1059 Fit       0.015002
 1060 Fit       0.008027
 1061 Fit       0.004918
 1062 Fit       0.022059
 1063 Fit       0.039348
 1064 Fit       0.039886
 1065 Fit       0.026294
 1066 Fit       0.019696
 1067 Fit       0.032297
 1068 Fit       0.027104
 1069 Fit       0.025894
 1070 Fit       0.027251
 1071 Fit       0.026104
 1072 Fit       0.030432
 1073 Fit       0.025814
 1074 Fit       0.032380
 1075 Fit       0.030240
 1076 Fit       0.005865
 1077 Fit       0.007868
 1078 Fit       0.018116
 1079 Fit       0.022255
 1080 Fit       0.029280
 1081 Fit       0.019047
 1082 Fit       0.013496
 1083 Fit       0.023962
 1084 Fit      -0.003219
 1085 Fit       0.005373
 1086 Fit       0.016773
 1087 Fit       0.034460
 1088 Fit       0.030028
 1089 Fit       0.018720
 1090 Fit       0.037206
 1091 Fit       0.028612
 1092 Fit       0.020302
 1093 Fit       0.034558
 1094 Fit       0.043020
 1095 Fit       0.042932
 1096 Fit       0.036675
 1097 Fit      -0.026646
 1098 Fit      -0.011127
 1099 Fit      -0.052125
 1100 Fit      -0.033945
 1101 Fit      -0.012985
 1102 Fit      -0.013044
 1103 Fit       0.009399
 1104 Fit       0.010773
 1105 Fit       0.008704
 1106 Fit       0.009390
 1107 Fit       0.010644
 1108 Fit       0.010698
 1109 Fit       0.009405
 1110 Fit       0.009060
 1111 Fit       0.010249
 1112 Fit       0.009448
 1113 Fit       0.011061
 1114 Fit       0.018003
 1115 Fit       0.015687
 1116 Fit       0.011353
 1117 Fit       0.011003
 1118 Fit       0.012080
 1119 Fit       0.012509
 1120 Fit       0.012669
 1121 Fit       0.010488
 1122 Fit       0.019679
 1123 Fit       0.017260
 1124 Fit       0.015889
 1125 Fit       0.016751
 1126 Fit       0.021005
 1127 Fit       0.014090
 1128 Fit       0.014633
 1129 Fit       0.014824
 1130 Fit       0.014520
 1131 Fit       0.014266
 1132 Fit       0.015773
 1133 Fit       0.011254
 1134 Fit       0.012375
 1135 Fit      -0.000195
 1136 Fit       0.003956
 1137 Fit       0.013982
 1138 Fit       0.009080
 1139 Fit       0.017857
 1140 Fit       0.008448
 1141 Fit       0.002200
 1142 Fit       0.020929
 1143 Fit       0.001506
 1144 Fit      -0.003035
 1145 Fit      -0.007415
 1146 Fit       0.023831
 1147 Fit       0.013649
 1148 Fit      -0.001072
 1149 Fit       0.007609
 1150 Fit      -0.006400
 1151 Fit       0.020514
 1152 Fit       0.024380
 1153 Fit       0.032058
 1154 Fit       0.025211
 1155 Fit       0.022914
 1156 Fit      -0.003003
 1157 Fit       0.013975
 1158 Fit       0.015312
 1159 Fit       0.017173
 1160 Fit      -0.051308
 1161 Fit      -0.058521
 1162 Fit      -0.057228
 1163 Fit      -0.045283
 1164 Fit      -0.040345
 1165 Fit      -0.047450
 1166 Fit      -0.054459
 1167 Fit      -0.062235
 1168 Fit      -0.065791
 1169 Fit      -0.024881
 1170 Fit      -0.034753
 1171 Fit      -0.043940
 1172 Fit      -0.050564
 1173 Fit      -0.055255
 1174 Fit      -0.058967
 1175 Fit      -0.062395
 1176 Fit      -0.067868
 1177 Fit      -0.027894
 1178 Fit      -0.039726
 1179 Fit      -0.047351
 1180 Fit      -0.052287
 1181 Fit      -0.055924
 1182 Fit      -0.059080
 1183 Fit      -0.058745
 1184 Fit      -0.063879
 1185 Fit      -0.029496
 1186 Fit      -0.040173
 1187 Fit      -0.046618
 1188 Fit      -0.050721
 1189 Fit      -0.053668
 1190 Fit      -0.056117
 1191 Fit      -0.050724
 1192 Fit      -0.024660
 1193 Fit      -0.036749
 1194 Fit      -0.043415
 1195 Fit      -0.047153
 1196 Fit      -0.049285
 1197 Fit      -0.037176
 1198 Fit      -0.027251
 1199 Fit      -0.034984
 1200 Fit      -0.037809
 1201 Fit       0.003106
 1202 Fit       0.000190
 1203 Fit       0.009058
 1204 Fit      -0.003614
 1205 Fit      -0.007457
 1206 Fit      -0.007183
 1207 Fit      -0.007890
 1208 Fit      -0.004813
 1209 Fit       0.002086
 1210 Fit      -0.008266
 1211 Fit      -0.012130
 1212 Fit      -0.012955
 1213 Fit      -0.012928
 1214 Fit      -0.011427
 1215 Fit      -0.006812
 1216 Fit      -0.004159
 1217 Fit      -0.011972
 1218 Fit      -0.013100
 1219 Fit      -0.009019
 1220 Fit      -0.000079
 1221 Fit       0.005111
 1222 Fit      -0.008088
 1223 Fit      -0.042182
 1224 Fit      -0.054588
 1225 Fit      -0.039403
 1226 Fit      -0.060020
 1227 Fit      -0.049360
 1228 Fit      -0.036988
 1229 Fit      -0.059462
 1230 Fit      -0.050343
 1231 Fit      -0.040306
 1232 Fit      -0.026776
 1233 Fit      -0.053726
 1234 Fit      -0.046854
 1235 Fit      -0.038766
 1236 Fit      -0.027868
 1237 Fit      -0.012799
 1238 Fit      -0.043169
 1239 Fit      -0.037681
 1240 Fit      -0.028967
 1241 Fit      -0.015448
 1242 Fit      -0.027097
 1243 Fit      -0.022555
 1244 Fit      -0.010510
 1245 Fit      -0.002725
 1246 Fit       0.011442
 1247 Fit       0.010625
 1248 Fit       0.010167
 1249 Fit       0.012633
 1250 Fit       0.011673
 1251 Fit       0.010937
 1252 Fit       0.010024
 1253 Fit       0.009132
 1254 Fit       0.013153
 1255 Fit       0.011863
 1256 Fit       0.011168
 1257 Fit       0.010441
 1258 Fit       0.009500
 1259 Fit       0.008645
 1260 Fit       0.011628
 1261 Fit       0.010937
 1262 Fit       0.010367
 1263 Fit       0.009631
 1264 Fit       0.009199
 1265 Fit       0.010497
 1266 Fit       0.012340
 1267 Fit       0.008720
 1268 Fit       0.009633
 1269 Fit       0.010929
 1270 Fit       0.012617
 1271 Fit       0.009697
 1272 Fit       0.010577
 1273 Fit       0.012000
 1274 Fit       0.014110
 1275 Fit       0.018033
 1276 Fit       0.012040
 1277 Fit       0.013760
 1278 Fit       0.010434
 1279 Fit       0.010658
 1280 Fit       0.011074
 1281 Fit       0.009687
 1282 Fit       0.010426
 1283 Fit       0.010995
 1284 Fit       0.011526
 1285 Fit       0.012537
 1286 Fit       0.009478
 1287 Fit       0.010240
 1288 Fit       0.011048
 1289 Fit       0.011694
 1290 Fit       0.012545
 1291 Fit       0.010460
 1292 Fit       0.010978
 1293 Fit       0.011842
 1294 Fit       0.011773
 1295 Fit       0.015909
 1296 Fit       0.013607
 1297 Fit       0.015962
 1298 Fit       0.013766
 1299 Fit       0.012142
 1300 Fit       0.011049
 1301 Fit       0.012988
 1302 Fit       0.011990
 1303 Fit       0.010824
 1304 Fit       0.009767
 1305 Fit       0.010633
 1306 Fit       0.010524
 1307 Fit       0.009754
 1308 Fit       0.014871
 1309 Fit       0.012613
 1310 Fit       0.022099
 1311 Fit       0.018354
 1312 Fit       0.015310
 1313 Fit       0.013158
 1314 Fit       0.024210
 1315 Fit       0.019612
 1316 Fit       0.016428
 1317 Fit       0.014387
 1318 Fit       0.013404
 1319 Fit       0.020673
 1320 Fit       0.017489
 1321 Fit       0.015663
 1322 Fit       0.011091
 1323 Fit       0.011823
 1324 Fit       0.012115
 1325 Fit       0.011125
 1326 Fit       0.010788
 1327 Fit       0.010743
 1328 Fit       0.010843
 1329 Fit       0.014069
 1330 Fit       0.010857
 1331 Fit       0.010673
 1332 Fit       0.010623
 1333 Fit       0.010686
 1334 Fit       0.010705
 1335 Fit       0.011451
 1336 Fit       0.010690
 1337 Fit       0.011346
 1338 Fit       0.011750
 1339 Fit       0.016398
 1340 Fit       0.018886
 1341 Fit       0.014173
 1342 Fit       0.015296
 1343 Fit       0.017741
 1344 Fit       0.023142
 1345 Fit       0.013465
 1346 Fit       0.014902
 1347 Fit       0.017913
 1348 Fit       0.013577
 1349 Fit       0.016246
 1350 Fit       0.003052
 1351 Fit       0.009170
 1352 Fit       0.004766
 1353 Fit       0.008477
 1354 Fit       0.010439
 1355 Fit       0.011303
 1356 Fit       0.012161
 1357 Fit       0.014664
 1358 Fit       0.010435
 1359 Fit       0.010825
 1360 Fit       0.011751
 1361 Fit       0.012711
 1362 Fit       0.014862
 1363 Fit       0.012496
 1364 Fit       0.016144
 1365 Fit       0.017489
 1366 Fit       0.012959
 1367 Fit       0.012803
 1368 Fit       0.011690
 1369 Fit       0.010010
 1370 Fit       0.010038
 1371 Fit       0.013770
 1372 Fit       0.012792
 1373 Fit       0.012802
 1374 Fit       0.016944
 1375 Fit       0.017591
 1376 Fit       0.021861
 1377 Fit       0.023521
 1378 Fit       0.018935
 1379 Fit       0.018981
 1380 Fit       0.012364
 1381 Fit       0.010978
 1382 Fit       0.024066
 1383 Fit       0.021400
 1384 Fit       0.020628
 1385 Fit       0.022467
 1386 Fit       0.018894
 1387 Fit       0.018522
 1388 Fit       0.019093
 1389 Fit       0.020399
 1390 Fit       0.022943
 1391 Fit       0.017589
 1392 Fit       0.017323
 1393 Fit       0.017602
 1394 Fit       0.018365
 1395 Fit       0.020005
 1396 Fit       0.023100
 1397 Fit       0.016234
 1398 Fit       0.016413
 1399 Fit       0.017488
 1400 Fit       0.012396
 1401 Fit       0.011743
 1402 Fit       0.010233
 1403 Fit       0.007396
 1404 Fit       0.003606
 1405 Fit       0.006795
 1406 Fit       0.007813
 1407 Fit       0.006669
 1408 Fit       0.002228
 1409 Fit      -0.001161
 1410 Fit      -0.000651
 1411 Fit       0.019814
 1412 Fit       0.012340
 1413 Fit       0.013939
 1414 Fit       0.015723
 1415 Fit       0.007478
 1416 Fit       0.010649
 1417 Fit       0.012807
 1418 Fit       0.014602
 1419 Fit       0.003610
 1420 Fit       0.006202
 1421 Fit       0.009118
 1422 Fit       0.011232
 1423 Fit       0.013003
 1424 Fit       0.003424
 1425 Fit       0.005966
 1426 Fit       0.008152
 1427 Fit       0.010151
 1428 Fit       0.014569
 1429 Fit       0.009922
 1430 Fit       0.014574
 1431 Fit       0.017803
 1432 Fit       0.004579
 1433 Fit       0.011086
 1434 Fit       0.016251
 1435 Fit       0.019649
 1436 Fit       0.021664
 1437 Fit      -0.000794
 1438 Fit       0.008559
 1439 Fit       0.015459
 1440 Fit       0.020048
 1441 Fit       0.009564
 1442 Fit      -0.020001
 1443 Fit       0.000833
 1444 Fit      -0.023217
 1445 Fit       0.016253
 1446 Fit       0.018985
 1447 Fit       0.018884
 1448 Fit       0.017034
 1449 Fit       0.013007
 1450 Fit       0.021626
 1451 Fit       0.021485
 1452 Fit       0.021721
 1453 Fit       0.017591
 1454 Fit       0.024035
 1455 Fit       0.016580
 1456 Fit      -0.001843
 1457 Fit       0.010492
 1458 Fit      -0.008405
 1459 Fit       0.015874
 1460 Fit       0.002344
 1461 Fit      -0.018411
 1462 Fit       0.020793
 1463 Fit       0.010043
 1464 Fit      -0.006622
 1465 Fit       0.008771
 1466 Fit      -0.000357
 1467 Fit      -0.007374
 1468 Fit      -0.009917
 1469 Fit       0.009201
 1470 Fit       0.019377
 1471 Fit       0.022568
 1472 Fit       0.014654
 1473 Fit       0.008882
 1474 Fit       0.006473
 1475 Fit       0.020169
 1476 Fit       0.033995
 1477 Fit       0.035290
 1478 Fit       0.023920
 1479 Fit       0.018086
 1480 Fit       0.028592
 1481 Fit       0.023013
 1482 Fit       0.022914
 1483 Fit       0.024418
 1484 Fit       0.023800
 1485 Fit       0.028016
 1486 Fit       0.032019
 1487 Fit       0.025199
 1488 Fit       0.007474
 1489 Fit       0.008029
 1490 Fit       0.016042
 1491 Fit       0.020116
 1492 Fit       0.025657
 1493 Fit       0.017057
 1494 Fit       0.009791
 1495 Fit       0.016838
 1496 Fit      -0.000442
 1497 Fit       0.009321
 1498 Fit       0.028830
 1499 Fit       0.024540
 1500 Fit       0.015107
 1501 Fit       0.030923
 1502 Fit       0.023856
 1503 Fit       0.018257
 1504 Fit       0.028961
 1505 Fit       0.036047
 1506 Fit       0.035750
 1507 Fit       0.030521
 -----------------------------------------------------------------
 Leave Link  602 at Sun Feb 18 17:08:46 2018, MaxMem=   33554432 cpu:       0.8

 Test job not archived.
 1\1\GINC-NODE053\SP\RHF\6-31G(d)\C13H24N2O3\WULSDORT\18-Feb-2018\0\\#H
 F/6-31G* Geom=AllCheck Guess=Read Pop=(MK,ReadRadii) Integral=(Grid=Ul
 traFine) iop(6/33=2)\\Optimization for frag2-conf1\\0,1\C,0,3.60075530
 64,-4.8125554481,-0.447704048\C,0,7.135060858,-2.1436564159,-0.7774629
 588\C,0,2.2756779343,-5.7585813666,-6.1946687298\C,0,1.1404854145,-5.2
 240354567,-5.3095560326\C,0,3.4622398561,-6.2347838096,-5.3446649601\C
 ,0,1.6377172263,-4.1264415211,-4.3571936474\C,0,3.9562359063,-5.133972
 4669,-4.3919581867\C,0,2.8239837622,-4.5982491981,-3.4918965286\C,0,3.
 5824661326,-6.8850785646,0.8157822526\C,0,5.5903206944,-6.3194047687,-
 0.5518984376\C,0,5.7299987595,-1.7706810706,-1.3574505394\C,0,3.279363
 3808,-3.4548815354,-2.5632097558\C,0,4.2740823735,-3.878014003,-1.4762
 77469\N,0,4.2385838263,-5.9559165922,-0.1046065386\N,0,4.7443102484,-2
 .6815799994,-0.6817143565\O,0,8.1112858228,-1.5753767053,-1.2872599295
 \O,0,2.5161057267,-4.4553412969,0.0267512155\O,0,7.0883277352,-2.98989
 65823,0.1707464984\H,0,1.9109483954,-6.5759647949,-6.8297114462\H,0,2.
 6132231886,-4.9602657009,-6.8721428028\H,0,0.321873442,-4.8372188597,-
 5.9296681272\H,0,0.7215475055,-6.0519380943,-4.7187373169\H,0,3.156558
 1423,-7.1112788228,-4.7545681079\H,0,4.2863536179,-6.5647720327,-5.989
 6704514\H,0,1.9528048695,-3.2505923412,-4.9448889197\H,0,0.8186222231,
 -3.7895297782,-3.7083909776\H,0,4.7868968581,-5.5224389193,-3.78862188
 14\H,0,4.3638361193,-4.2983460235,-4.981137877\H,0,2.4626885387,-5.429
 1440644,-2.8659274713\H,0,3.5771387237,-7.8901364731,0.3818582739\H,0,
 2.5601330973,-6.551630834,0.9833485196\H,0,4.1159030992,-6.9166069582,
 1.7726935669\H,0,5.9538141747,-7.11676956,0.0982413497\H,0,6.279981105
 8,-5.4764944186,-0.4597514795\H,0,5.5931760831,-6.6927338347,-1.582048
 4936\H,0,5.6957842528,-1.9048580374,-2.4380908761\H,0,5.4743551372,-0.
 736646327,-1.1205901032\H,0,3.7282986935,-2.6597669618,-3.1709379378\H
 ,0,2.4036211549,-3.0287845823,-2.0605327912\H,0,5.1760004969,-4.304415
 1956,-1.9114556157\H,0,5.3729851194,-3.0257347444,0.1038003162\H,0,3.9
 322007628,-2.1918275307,-0.2960528765\\Version=AM64L-G09RevC.01\State=
 1-A\HF=-839.7336396\RMSD=9.770e-09\Dipole=-3.0934711,-1.6252129,-1.136
 6768\Quadrupole=-24.4275702,14.7618153,9.6657549,-18.631147,-6.2901174
 ,-5.2426226\PG=C01 [X(C13H24N2O3)]\\@


 ALL SCIENCE IS EITHER PHYSICS, OR STAMP COLLECTING.
   --ERNEST RUTHERFORD, 1871-1937.
 Job cpu time:  0 days  0 hours  6 minutes  2.5 seconds.
 File lengths (MBytes):  RWF=     57 Int=      0 D2E=      0 Chk=     19 Scr=      1
 Normal termination of Gaussian 09 at Sun Feb 18 17:08:46 2018.
