 Entering Gaussian System, Link 0=g09
 Initial command:
 /home/fb_chem/chemsoft/lx24-amd64/Gaussian_09_C.01_NBO_3.1_64_istanbul-64/g09/l1.exe /local/2400075.1.parallel_long/Gau-6421.inp -scrdir=/local/2400075.1.parallel_long/
 Entering Link 1 = /home/fb_chem/chemsoft/lx24-amd64/Gaussian_09_C.01_NBO_3.1_64_istanbul-64/g09/l1.exe PID=      6422.
  
 Copyright (c) 1988,1990,1992,1993,1995,1998,2003,2009,2011,
            Gaussian, Inc.  All Rights Reserved.
  
 This is part of the Gaussian(R) 09 program.  It is based on
 the Gaussian(R) 03 system (copyright 2003, Gaussian, Inc.),
 the Gaussian(R) 98 system (copyright 1998, Gaussian, Inc.),
 the Gaussian(R) 94 system (copyright 1995, Gaussian, Inc.),
 the Gaussian 92(TM) system (copyright 1992, Gaussian, Inc.),
 the Gaussian 90(TM) system (copyright 1990, Gaussian, Inc.),
 the Gaussian 88(TM) system (copyright 1988, Gaussian, Inc.),
 the Gaussian 86(TM) system (copyright 1986, Carnegie Mellon
 University), and the Gaussian 82(TM) system (copyright 1983,
 Carnegie Mellon University). Gaussian is a federally registered
 trademark of Gaussian, Inc.
  
 This software contains proprietary and confidential information,
 including trade secrets, belonging to Gaussian, Inc.
  
 This software is provided under written license and may be
 used, copied, transmitted, or stored only in accord with that
 written license.
  
 The following legend is applicable only to US Government
 contracts under FAR:
  
                    RESTRICTED RIGHTS LEGEND
  
 Use, reproduction and disclosure by the US Government is
 subject to restrictions as set forth in subparagraphs (a)
 and (c) of the Commercial Computer Software - Restricted
 Rights clause in FAR 52.227-19.
  
 Gaussian, Inc.
 340 Quinnipiac St., Bldg. 40, Wallingford CT 06492
  
  
 ---------------------------------------------------------------
 Warning -- This program may not be used in any manner that
 competes with the business of Gaussian, Inc. or will provide
 assistance to any competitor of Gaussian, Inc.  The licensee
 of this program is prohibited from giving any competitor of
 Gaussian, Inc. access to this program.  By using this program,
 the user acknowledges that Gaussian, Inc. is engaged in the
 business of creating and licensing software in the field of
 computational chemistry and represents and warrants to the
 licensee that it is not a competitor of Gaussian, Inc. and that
 it will not use this program in any manner prohibited above.
 ---------------------------------------------------------------
  

 Cite this work as:
 Gaussian 09, Revision C.01,
 M. J. Frisch, G. W. Trucks, H. B. Schlegel, G. E. Scuseria, 
 M. A. Robb, J. R. Cheeseman, G. Scalmani, V. Barone, B. Mennucci, 
 G. A. Petersson, H. Nakatsuji, M. Caricato, X. Li, H. P. Hratchian, 
 A. F. Izmaylov, J. Bloino, G. Zheng, J. L. Sonnenberg, M. Hada, 
 M. Ehara, K. Toyota, R. Fukuda, J. Hasegawa, M. Ishida, T. Nakajima, 
 Y. Honda, O. Kitao, H. Nakai, T. Vreven, J. A. Montgomery, Jr., 
 J. E. Peralta, F. Ogliaro, M. Bearpark, J. J. Heyd, E. Brothers, 
 K. N. Kudin, V. N. Staroverov, T. Keith, R. Kobayashi, J. Normand, 
 K. Raghavachari, A. Rendell, J. C. Burant, S. S. Iyengar, J. Tomasi, 
 M. Cossi, N. Rega, J. M. Millam, M. Klene, J. E. Knox, J. B. Cross, 
 V. Bakken, C. Adamo, J. Jaramillo, R. Gomperts, R. E. Stratmann, 
 O. Yazyev, A. J. Austin, R. Cammi, C. Pomelli, J. W. Ochterski, 
 R. L. Martin, K. Morokuma, V. G. Zakrzewski, G. A. Voth, 
 P. Salvador, J. J. Dannenberg, S. Dapprich, A. D. Daniels, 
 O. Farkas, J. B. Foresman, J. V. Ortiz, J. Cioslowski, 
 and D. J. Fox, Gaussian, Inc., Wallingford CT, 2010.
 
 ******************************************
 Gaussian 09:  AM64L-G09RevC.01 23-Sep-2011
                17-Feb-2018 
 ******************************************
 %nprocs=2
 Will use up to    2 processors via shared memory.
 %chk=frag41-conf2.chk
 ----------------------------------------------------------------------
 #HF/6-31G* Geom=AllCheck Guess=Read Pop=(MK,ReadRadii) Integral=(Grid=
 UltraFine) iop(6/33=2)
 ----------------------------------------------------------------------
 1/29=7,38=1/1;
 2/12=2,40=1/2;
 3/5=1,6=6,7=1,11=9,14=-4,16=1,25=1,30=1,75=-5,116=-2/1,2,3;
 4/5=1/1;
 5/5=2,38=6/2;
 6/7=2,8=2,9=2,10=2,15=8,20=101,28=1,33=2/1,2;
 99/5=1,9=1/99;
 Structure from the checkpoint file:  frag41-conf2.chk
 -----------------------------
 Optimization for frag41-conf2
 -----------------------------
 Charge =  1 Multiplicity = 1
 Redundant internal coordinates found in file.
 C,0,5.8264604972,-1.8991012796,-0.0958105024
 C,0,3.6580232299,-4.7717297466,-2.9869703155
 C,0,-0.8216919392,-1.8382987772,-2.3321979509
 C,0,0.1507823167,-1.4512373865,-1.210486299
 C,0,-0.5637071501,-3.2700406538,-2.8194763719
 C,0,1.6145816186,-1.6616465407,-1.6327111449
 C,0,0.9005842838,-3.4744312425,-3.2446856775
 C,0,1.8673491237,-3.1151331076,-2.0964824246
 C,0,7.2959601049,-0.5122803255,1.2456061975
 C,0,8.2651235665,-1.8630330691,-0.5901187819
 C,0,3.8923723479,-6.4213840764,-4.7465297321
 C,0,3.484228729,-4.0773898961,-5.3919972915
 C,0,5.6080594636,-2.9079676463,-1.2544893381
 C,0,3.3618998475,-3.3412634182,-2.4580916966
 N,0,7.071415993,-1.4627031697,0.1508545108
 N,0,3.6777816357,-5.0368653412,-4.3071931375
 N,0,4.1650755452,-3.2948615964,-1.1787328713
 O,0,4.8194913402,-1.5488316484,0.5328066691
 O,0,3.865540405,-5.6263976807,-2.1122806012
 H,0,-1.8562119392,-1.7385408409,-1.9853672677
 H,0,-0.7053518476,-1.1395456651,-3.1731307261
 H,0,0.0056086526,-0.4053440232,-0.9179331079
 H,0,-0.0567323071,-2.0565516056,-0.3168567202
 H,0,-0.8068070621,-3.9820334901,-2.0182334133
 H,0,-1.2211181671,-3.513620723,-3.661663498
 H,0,1.8543190207,-0.9838837885,-2.4660218136
 H,0,2.2729705895,-1.3730081675,-0.8022595872
 H,0,1.0497583041,-4.5127819848,-3.5618007642
 H,0,1.1129742591,-2.8347726231,-4.1132356909
 H,0,1.6464581284,-3.8001121726,-1.2627102322
 H,0,7.9977877563,-0.9429973191,1.9674892784
 H,0,6.3471505101,-0.3027997665,1.7354703512
 H,0,7.7198439678,0.4159845684,0.8481128625
 H,0,8.761958996,-0.9752939425,-0.9963805893
 H,0,8.0236382513,-2.527448918,-1.4196765118
 H,0,8.9665335102,-2.3785280485,0.075519862
 H,0,3.0316124311,-6.7589261106,-5.3336515672
 H,0,4.0148847218,-7.0585617264,-3.8734208844
 H,0,4.7889616257,-6.4736745702,-5.3735339055
 H,0,4.3379207072,-4.1281696126,-6.0767659097
 H,0,3.3953144068,-3.0572029553,-5.0239216194
 H,0,2.5758645433,-4.3200328025,-5.9541516689
 H,0,5.8063508741,-2.4437515117,-2.2238970532
 H,0,6.2198529751,-3.8070842415,-1.1648591048
 H,0,3.7296860524,-2.5416601143,-3.1032898455
 H,0,4.0863991497,-4.2768116924,-0.8406317868
 H,0,3.7738618976,-2.6356773433,-0.4684265155
 Recover connectivity data from disk.
                          Input orientation:                          
 ---------------------------------------------------------------------
 Center     Atomic      Atomic             Coordinates (Angstroms)
 Number     Number       Type             X           Y           Z
 ---------------------------------------------------------------------
      1          6           0        5.826460   -1.899101   -0.095811
      2          6           0        3.658023   -4.771730   -2.986970
      3          6           0       -0.821692   -1.838299   -2.332198
      4          6           0        0.150782   -1.451237   -1.210486
      5          6           0       -0.563707   -3.270041   -2.819476
      6          6           0        1.614582   -1.661647   -1.632711
      7          6           0        0.900584   -3.474431   -3.244686
      8          6           0        1.867349   -3.115133   -2.096482
      9          6           0        7.295960   -0.512280    1.245606
     10          6           0        8.265124   -1.863033   -0.590119
     11          6           0        3.892372   -6.421384   -4.746530
     12          6           0        3.484229   -4.077390   -5.391997
     13          6           0        5.608059   -2.907968   -1.254489
     14          6           0        3.361900   -3.341263   -2.458092
     15          7           0        7.071416   -1.462703    0.150855
     16          7           0        3.677782   -5.036865   -4.307193
     17          7           0        4.165076   -3.294862   -1.178733
     18          8           0        4.819491   -1.548832    0.532807
     19          8           0        3.865540   -5.626398   -2.112281
     20          1           0       -1.856212   -1.738541   -1.985367
     21          1           0       -0.705352   -1.139546   -3.173131
     22          1           0        0.005609   -0.405344   -0.917933
     23          1           0       -0.056732   -2.056552   -0.316857
     24          1           0       -0.806807   -3.982033   -2.018233
     25          1           0       -1.221118   -3.513621   -3.661663
     26          1           0        1.854319   -0.983884   -2.466022
     27          1           0        2.272971   -1.373008   -0.802260
     28          1           0        1.049758   -4.512782   -3.561801
     29          1           0        1.112974   -2.834773   -4.113236
     30          1           0        1.646458   -3.800112   -1.262710
     31          1           0        7.997788   -0.942997    1.967489
     32          1           0        6.347151   -0.302800    1.735470
     33          1           0        7.719844    0.415985    0.848113
     34          1           0        8.761959   -0.975294   -0.996381
     35          1           0        8.023638   -2.527449   -1.419677
     36          1           0        8.966534   -2.378528    0.075520
     37          1           0        3.031612   -6.758926   -5.333652
     38          1           0        4.014885   -7.058562   -3.873421
     39          1           0        4.788962   -6.473675   -5.373534
     40          1           0        4.337921   -4.128170   -6.076766
     41          1           0        3.395314   -3.057203   -5.023922
     42          1           0        2.575865   -4.320033   -5.954152
     43          1           0        5.806351   -2.443752   -2.223897
     44          1           0        6.219853   -3.807084   -1.164859
     45          1           0        3.729686   -2.541660   -3.103290
     46          1           0        4.086399   -4.276812   -0.840632
     47          1           0        3.773862   -2.635677   -0.468427
 ---------------------------------------------------------------------
                    Distance matrix (angstroms):
                    1          2          3          4          5
     1  C    0.000000
     2  C    4.616592   0.000000
     3  C    7.014489   5.394589   0.000000
     4  C    5.801414   5.146096   1.534197   0.000000
     5  C    7.080401   4.483986   1.534236   2.531282   0.000000
     6  C    4.489808   3.960087   2.540850   1.537938   2.956397
     7  C    6.054861   3.058246   2.544759   2.965381   1.538417
     8  C    4.599564   2.596882   2.986103   2.549537   2.541014
     9  C    2.425304   7.020840   8.969687   7.613645   9.268468
    10  C    2.488517   5.952377   9.252333   8.148433   9.214009
    11  C    6.769116   2.423289   7.004004   7.155799   5.788017
    12  C    6.187131   2.509276   5.737321   5.957649   4.863688
    13  C    1.551788   3.205892   6.606614   5.648528   6.377381
    14  C    3.705977   1.553588   4.447156   3.929376   3.942849
    15  N    1.342088   5.696214   8.282981   7.053265   8.389543
    16  N    5.674339   1.346728   5.863164   5.906441   4.829617
    17  N    2.425091   2.389135   5.321645   4.417523   5.005401
    18  O    1.237673   4.911712   6.333640   4.984520   6.571087
    19  O    4.669486   1.240404   6.030606   5.660797   5.066634
    20  H    7.913259   6.372616   1.095662   2.170486   2.170668
    21  H    7.260261   5.680357   1.099527   2.163814   2.164288
    22  H    6.065436   6.056928   2.176679   1.095699   3.485179
    23  H    5.889449   5.319879   2.166656   1.099109   2.827134
    24  H    7.213498   4.636462   2.166655   2.823891   1.099100
    25  H    8.061659   5.083706   2.175712   3.484796   1.095810
    26  H    4.715234   4.227590   2.812289   2.167216   3.346385
    27  H    3.661029   4.271140   3.483410   2.162511   3.964169
    28  H    6.454556   2.683380   3.488138   3.963571   2.167654
    29  H    6.263556   3.390804   2.812115   3.356477   2.162067
    30  H    4.737923   2.821969   3.329306   2.785137   2.754873
    31  H    3.144201   7.618361   9.852517   8.481352  10.081139
    32  H    2.484529   7.035921   8.384270   6.956475   8.792725
    33  H    3.136162   7.623558   9.389036   8.063191   9.780348
    34  H    3.206493   6.665248   9.714708   8.626977   9.775356
    35  H    2.641029   5.152844   8.918940   7.948827   8.732318
    36  H    3.181079   6.579251  10.094469   8.957184  10.000064
    37  H    7.672291   3.138193   6.933199   7.312403   5.605330
    38  H    6.646215   2.478456   7.281414   7.311949   6.035495
    39  H    7.060984   3.141866   7.887704   8.004283   6.740738
    40  H    6.554107   3.228508   6.773987   6.955485   5.947460
    41  H    5.615866   2.675404   5.149199   5.258175   4.536379
    42  H    7.123724   3.190496   5.551661   6.050898   4.559121
    43  H    2.196771   3.258385   6.656520   5.830741   6.450977
    44  H    2.222166   3.288404   7.404198   6.510431   7.003061
    45  H    3.722133   2.234251   4.669512   4.192884   4.363979
    46  H    3.039092   2.243929   5.679830   4.858986   5.152951
    47  H    2.212363   3.304421   5.022805   3.883331   4.974370
                    6          7          8          9         10
     6  C    0.000000
     7  C    2.528723   0.000000
     8  C    1.546479   1.543405   0.000000
     9  C    6.471771   8.356907   6.885798   0.000000
    10  C    6.734780   7.992482   6.690919   2.476630   0.000000
    11  C    6.126932   4.459917   4.696250   9.077864   7.561433
    12  C    4.843927   3.413169   3.794820   8.443760   7.128700
    13  C    4.200504   5.142187   3.839894   3.852117   2.931427
    14  C    2.560369   2.587381   1.554213   6.098963   5.451247
    15  N    5.744365   7.325019   5.904520   1.467040   1.460905
    16  N    4.775118   3.359010   3.443539   8.024753   6.703250
    17  N    3.062435   3.867468   2.480749   4.839692   4.382578
    18  O    3.869579   5.773666   4.252247   2.777664   3.637591
    19  O    4.584327   3.834614   3.209278   7.014084   5.986336
    20  H    3.489511   3.492724   3.971430   9.782901  10.217810
    21  H    2.833297   2.834756   3.417734   9.161861   9.362949
    22  H    2.162868   3.953992   3.492565   7.605364   8.393563
    23  H    2.163496   3.391021   2.826615   7.673861   8.328590
    24  H    3.375788   2.162644   2.812250   9.399291   9.424946
    25  H    3.948120   2.162644   3.485285  10.277644  10.106810
    26  H    1.100565   2.778265   2.163089   6.603791   6.737235
    27  H    1.098380   3.502123   2.207836   5.492270   6.015898
    28  H    3.488465   1.095896   2.183812   8.839130   8.240968
    29  H    2.789415   1.099387   2.171400   8.505320   8.031804
    30  H    2.170473   2.142574   1.101438   7.001311   6.929025
    31  H    7.363642   9.162163   7.669180   1.095077   2.731171
    32  H    5.965595   8.032825   6.531593   1.088158   3.394306
    33  H    6.909795   8.853736   7.442522   1.095150   2.749502
    34  H    7.208398   8.549958   7.302382   2.718463   1.095434
    35  H    6.470781   7.413861   6.221200   3.419671   1.089922
    36  H    7.581766   8.791149   7.460469   2.764561   1.095804
    37  H    6.456562   4.437676   5.011188  10.024564   8.594214
    38  H    6.317351   4.789589   4.829084   8.934411   7.472491
    39  H    6.872122   5.352283   5.527629   9.253987   7.498185
    40  H    5.766276   4.501481   4.792976   8.685723   7.117378
    41  H    4.076628   3.092481   3.302716   7.810163   6.693257
    42  H    5.163907   3.295878   4.103095   9.413543   8.196180
    43  H    4.304895   5.115746   3.997840   4.241105   3.008659
    44  H    5.101991   5.721097   4.504554   4.221858   2.879721
    45  H    2.722259   2.982259   2.193361   5.979096   5.229413
    46  H    3.684611   4.070959   2.801935   5.368926   4.832269
    47  H    2.639467   4.082505   2.552496   4.455547   4.558862
                   11         12         13         14         15
    11  C    0.000000
    12  C    2.465262   0.000000
    13  C    5.242330   4.795537   0.000000
    14  C    3.873692   3.027317   2.584886   0.000000
    15  N    7.660235   7.101247   2.491022   4.908778   0.000000
    16  N    1.468318   1.461115   4.192515   2.528641   6.645719
    17  N    4.751703   4.339067   1.495871   1.511292   3.683941
    18  O    7.243805   6.578741   2.379815   3.779267   2.285710
    19  O    2.751725   3.647104   3.340964   2.365392   5.721518
    20  H    7.911969   6.752455   7.590592   5.479131   9.183794
    21  H    7.177219   5.577354   6.831373   4.679891   8.463535
    22  H    8.121442   6.752923   6.145230   4.717669   7.223984
    23  H    7.366763   6.509934   5.804647   4.233488   7.168117
    24  H    5.956200   5.459337   6.548850   4.240540   8.550928
    25  H    5.981622   5.045015   7.266290   4.741555   9.354554
    26  H    6.238653   4.559355   4.388676   2.798232   5.856228
    27  H    6.608012   5.463197   3.699112   2.793130   4.893010
    28  H    3.623093   3.076659   5.355112   2.817202   7.703710
    29  H    4.581473   2.966846   5.327624   2.837904   7.454399
    30  H    4.904304   4.528277   4.060822   2.140612   6.073863
    31  H    9.588806   9.184698   4.466884   6.843165   2.104381
    32  H    9.245503   8.558309   4.033982   5.977453   2.093070
    33  H    9.628041   8.778942   4.464216   6.636232   2.106204
    34  H    8.211966   7.536503   3.707955   6.074130   2.100393
    35  H    6.580125   6.227992   2.450939   4.844833   2.122965
    36  H    8.083561   7.926887   3.650833   6.225590   2.106153
    37  H    1.095242   2.720092   6.173129   4.478655   8.628430
    38  H    1.087807   3.387485   5.159888   4.030863   7.539948
    39  H    1.095327   2.728525   5.509239   4.510910   7.799891
    40  H    2.688285   1.095571   5.133858   3.829705   7.304790
    41  H    3.411998   1.088194   4.373458   2.581722   6.544804
    42  H    2.758119   1.095454   5.768445   3.714603   8.102186
    43  H    5.084147   4.254161   1.092963   2.614520   2.863964
    44  H    5.008003   5.042361   1.091208   3.171330   2.819997
    45  H    4.216511   2.767110   2.660927   1.091290   4.787563
    46  H    4.460143   4.595357   2.088172   2.004077   4.220495
    47  H    5.713824   5.138480   2.014030   2.150891   3.554327
                   16         17         18         19         20
    16  N    0.000000
    17  N    3.613765   0.000000
    18  O    6.074165   2.531057   0.000000
    19  O    2.280448   2.529287   4.953085   0.000000
    20  H    6.847985   6.271260   7.137381   6.918814   0.000000
    21  H    5.973865   5.687185   6.665237   6.492326   1.758993
    22  H    6.813437   5.071340   5.156130   6.601889   2.526501
    23  H    6.225082   4.483292   4.975667   5.599247   2.474507
    24  H    5.144273   5.088869   6.639541   4.954151   2.477012
    25  H    5.170706   5.934971   7.612026   5.721758   2.522741
    26  H    4.810570   3.512453   4.254925   5.071793   3.816880
    27  H    5.261359   2.723107   2.880639   4.726918   4.310859
    28  H    2.781507   4.107012   6.305688   3.357064   4.315810
    29  H    3.386011   4.258910   6.080923   4.401547   3.813871
    30  H    3.863251   2.570168   4.284890   2.996901   4.128075
    31  H    8.648344   5.488138   3.539339   7.460176  10.647031
    32  H    8.127158   4.712374   2.309272   7.021700   9.121466
    33  H    8.523439   5.524026   3.517381   7.754352  10.216234
    34  H    7.301144   5.152182   4.267366   6.844919  10.691408
    35  H    5.789766   3.941508   3.877685   5.231918   9.927428
    36  H    7.365177   5.046466   4.253877   6.430805  11.035790
    37  H    2.106334   5.527009   8.047169   3.515009   7.765700
    38  H    2.095007   4.631343   7.100659   2.274865   8.144762
    39  H    2.106235   5.300042   7.690245   3.493760   8.835129
    40  H    2.095924   4.971419   7.111353   4.264384   7.798535
    41  H    2.124276   3.928675   5.931331   3.911461   6.208882
    42  H    2.107259   5.136262   7.402300   4.257913   6.485264
    43  H    3.949072   2.123803   3.061730   3.729402   7.698642
    44  H    4.224778   2.117705   3.153218   3.122546   8.377048
    45  H    2.770943   2.112060   3.923593   3.242863   5.753000
    46  H    3.572352   1.041503   3.140960   1.867418   6.562611
    47  H    4.528914   1.045039   1.810260   3.413952   5.899466
                   21         22         23         24         25
    21  H    0.000000
    22  H    2.475971   0.000000
    23  H    3.069187   1.758313   0.000000
    24  H    3.069824   3.829280   2.676710   0.000000
    25  H    2.478086   4.323690   3.829697   1.758388   0.000000
    26  H    2.660103   2.479721   3.069470   4.033734   4.157817
    27  H    3.813914   2.467931   2.475957   4.215523   4.996706
    28  H    3.822329   4.995131   4.217470   2.472070   2.482977
    29  H    2.657800   4.163933   4.048004   3.064442   2.472396
    30  H    4.032286   3.786253   2.614479   2.573406   3.749673
    31  H   10.109859   8.514086   8.445918  10.131269  11.103319
    32  H    8.633209   6.875043   6.949634   8.877283   9.834486
    33  H    9.464354   7.956314   8.242920  10.013105  10.757355
    34  H    9.715719   8.775230   8.910678  10.081962  10.639956
    35  H    9.010890   8.309264   8.168864   8.969440   9.563711
    36  H   10.277849   9.229224   9.037530  10.122906  10.910693
    37  H    7.085915   8.308025   7.537800   5.782438   5.604754
    38  H    7.603012   8.311108   7.365278   6.012941   6.326703
    39  H    7.967571   8.919500   8.280200   6.984192   6.914729
    40  H    6.541985   7.696877   7.535325   6.554484   6.092069
    41  H    4.890634   5.948244   5.922364   5.248552   4.834823
    42  H    5.349388   6.877100   6.620650   5.200785   4.508091
    43  H    6.708522   6.285639   6.177578   6.792825   7.252387
    44  H    7.688132   7.088698   6.571073   7.080452   7.854184
    45  H    4.651920   4.817508   4.726151   4.881782   5.076116
    46  H    6.184163   5.625575   4.729634   5.041538   6.058912
    47  H    5.442168   4.401838   3.877088   5.019672   5.993110
                   26         27         28         29         30
    26  H    0.000000
    27  H    1.759202   0.000000
    28  H    3.781689   4.355398   0.000000
    29  H    2.586251   3.800646   1.767425   0.000000
    30  H    3.069578   2.548601   2.479872   3.056465   0.000000
    31  H    7.576272   6.374163   9.570346   9.378416   7.677023
    32  H    6.188857   4.917760   8.593451   8.247112   6.581549
    33  H    6.880952   5.965958   9.393089   8.878802   7.688762
    34  H    7.062252   6.504063   8.864155   8.466370   7.660345
    35  H    6.444993   5.897806   7.560770   7.423408   6.504824
    36  H    7.680369   6.825346   8.969976   8.912476   7.575966
    37  H    6.554421   7.079348   3.480282   4.535369   5.219751
    38  H    6.599282   6.692669   3.920469   5.130204   4.800286
    39  H    6.870484   7.296818   4.594466   5.323800   5.824271
    40  H    5.393726   6.298837   4.157522   3.991066   5.525100
    41  H    3.635405   4.681730   3.123802   2.467367   4.213920
    42  H    4.880325   5.942953   2.844204   2.781190   4.810794
    43  H    4.219999   3.956301   5.356869   5.074474   4.479766
    44  H    5.359232   4.651246   5.742231   5.976498   4.574447
    45  H    2.519877   2.963530   3.358209   2.820122   3.051438
    46  H    4.297377   3.423751   4.084315   4.650878   2.521647
    47  H    3.225439   1.989586   4.529153   4.517145   2.551988
                   31         32         33         34         35
    31  H    0.000000
    32  H    1.785578   0.000000
    33  H    1.782439   1.785593   0.000000
    34  H    3.060968   3.707635   2.534525   0.000000
    35  H    3.739525   4.208875   3.728131   1.770164   0.000000
    36  H    2.564910   3.731655   3.156016   1.777607   1.773934
    37  H   10.573296  10.131478  10.567548   9.224922   7.625282
    38  H    9.347720   9.085122   9.585846   8.235182   6.528549
    39  H    9.735275   9.541781   9.734802   8.073188   6.455139
    40  H    9.394147   8.927569   8.946546   7.437947   6.151041
    41  H    8.633218   7.873338   8.077461   7.025404   5.890043
    42  H   10.176149   9.459971   9.755060   8.604332   7.311160
    43  H    4.962094   4.533512   4.612677   3.521191   2.360114
    44  H    4.601701   4.550618   4.912875   3.809163   2.226216
    45  H    6.818007   5.939463   6.346858   5.675944   4.612243
    46  H    5.856520   5.247863   6.170585   5.725831   4.347116
    47  H    5.161434   4.113550   5.159137   5.283628   4.356282
                   36         37         38         39         40
    36  H    0.000000
    37  H    9.147148   0.000000
    38  H    7.875003   1.785743   0.000000
    39  H    7.994656   1.780796   1.786513   0.000000
    40  H    7.895310   3.029776   3.680527   2.489853   0.000000
    41  H    7.583099   3.732421   4.209322   3.706313   1.773121
    42  H    8.998168   2.557524   3.728238   3.142147   1.776707
    43  H    3.908750   5.999206   5.217926   5.214937   4.454004
    44  H    3.335201   6.021385   4.771823   5.183734   5.269876
    45  H    6.128296   4.821530   4.590952   4.662275   3.424693
    46  H    5.315875   5.240295   4.115952   5.085961   5.244279
    47  H    5.227413   6.420477   5.586948   6.310367   5.830880
                   41         42         43         44         45
    41  H    0.000000
    42  H    1.769623   0.000000
    43  H    3.745605   5.279325   0.000000
    44  H    4.840734   6.039792   1.775168   0.000000
    45  H    2.016535   3.552651   2.257311   3.399962   0.000000
    46  H    4.411911   5.332135   2.869105   2.208482   2.873607
    47  H    4.590590   5.862204   2.692494   2.800015   2.636910
                   46         47
    46  H    0.000000
    47  H    1.711589   0.000000
 Stoichiometry    C14H28N3O2(1+)
 Framework group  C1[X(C14H28N3O2)]
 Deg. of freedom   135
 Full point group                 C1      NOp   1
 Largest Abelian subgroup         C1      NOp   1
 Largest concise Abelian subgroup C1      NOp   1
                         Standard orientation:                         
 ---------------------------------------------------------------------
 Center     Atomic      Atomic             Coordinates (Angstroms)
 Number     Number       Type             X           Y           Z
 ---------------------------------------------------------------------
      1          6           0        3.050243   -0.499457   -0.137519
      2          6           0       -0.981666    1.723487   -0.476856
      3          6           0       -3.493429   -2.978609    0.349546
      4          6           0       -2.033261   -3.291603   -0.002171
      5          6           0       -3.936176   -1.642587   -0.261112
      6          6           0       -1.096008   -2.138141    0.393225
      7          6           0       -2.998220   -0.491256    0.140636
      8          6           0       -1.537923   -0.802942   -0.249856
      9          6           0        5.318003   -1.314844    0.135438
     10          6           0        4.826381    1.058712    0.643608
     11          6           0       -2.127934    3.854949   -0.353295
     12          6           0       -2.095305    2.429730    1.657974
     13          6           0        2.011290    0.650924   -0.065078
     14          6           0       -0.550384    0.345862    0.097409
     15          7           0        4.322213   -0.239635    0.202753
     16          7           0       -1.686628    2.598585    0.265376
     17          7           0        0.748057    0.082557   -0.629727
     18          8           0        2.630342   -1.604817   -0.503166
     19          8           0       -0.633428    1.940837   -1.647365
     20          1           0       -4.146466   -3.786935    0.002234
     21          1           0       -3.604159   -2.935330    1.442626
     22          1           0       -1.705139   -4.210939    0.495536
     23          1           0       -1.944615   -3.473340   -1.082521
     24          1           0       -3.952972   -1.725211   -1.356973
     25          1           0       -4.958923   -1.399037    0.047875
     26          1           0       -1.107599   -2.018076    1.487159
     27          1           0       -0.065046   -2.404651    0.123915
     28          1           0       -3.332831    0.438130   -0.333984
     29          1           0       -3.060610   -0.342562    1.228133
     30          1           0       -1.512702   -0.908276   -1.345956
     31          1           0        6.122055   -1.028083   -0.550465
     32          1           0        4.837244   -2.223553   -0.221223
     33          1           0        5.743534   -1.487329    1.129685
     34          1           0        5.295852    0.957047    1.628106
     35          1           0        4.029372    1.798076    0.721364
     36          1           0        5.577943    1.430383   -0.061942
     37          1           0       -3.220997    3.916595   -0.322165
     38          1           0       -1.787014    3.884000   -1.385891
     39          1           0       -1.711212    4.703651    0.199686
     40          1           0       -1.741616    3.284349    2.245175
     41          1           0       -1.691547    1.518353    2.094482
     42          1           0       -3.187698    2.390097    1.729571
     43          1           0        1.836962    0.960030    0.968668
     44          1           0        2.296334    1.527245   -0.649500
     45          1           0       -0.329337    0.356993    1.166019
     46          1           0        0.561971    0.508732   -1.561647
     47          1           0        0.964744   -0.934417   -0.734221
 ---------------------------------------------------------------------
 Rotational constants (GHZ):      0.4362736      0.2183833      0.1581491
 Standard basis: 6-31G(d) (6D, 7F)
 There are   341 symmetry adapted basis functions of A   symmetry.
 Integral buffers will be    131072 words long.
 Raffenetti 1 integral format.
 Two-electron integral symmetry is turned on.
   341 basis functions,   644 primitive gaussians,   341 cartesian basis functions
    74 alpha electrons       74 beta electrons
       nuclear repulsion energy      1582.3834084583 Hartrees.
 NAtoms=   47 NActive=   47 NUniq=   47 SFac= 1.00D+00 NAtFMM=   60 NAOKFM=F Big=F
 One-electron integrals computed using PRISM.
 NBasis=   341 RedAO= T  NBF=   341
 NBsUse=   341 1.00D-06 NBFU=   341
 Initial guess read from the checkpoint file:  frag41-conf2.chk
 B after Tr=     0.000000    0.000000    0.000000
         Rot=    1.000000    0.000000    0.000000    0.000000 Ang=   0.00 deg.
 Initial guess orbital symmetries:
       Occupied  (A) (A) (A) (A) (A) (A) (A) (A) (A) (A) (A) (A)
                 (A) (A) (A) (A) (A) (A) (A) (A) (A) (A) (A) (A)
                 (A) (A) (A) (A) (A) (A) (A) (A) (A) (A) (A) (A)
                 (A) (A) (A) (A) (A) (A) (A) (A) (A) (A) (A) (A)
                 (A) (A) (A) (A) (A) (A) (A) (A) (A) (A) (A) (A)
                 (A) (A) (A) (A) (A) (A) (A) (A) (A) (A) (A) (A)
                 (A) (A)
       Virtual   (A) (A) (A) (A) (A) (A) (A) (A) (A) (A) (A) (A)
                 (A) (A) (A) (A) (A) (A) (A) (A) (A) (A) (A) (A)
                 (A) (A) (A) (A) (A) (A) (A) (A) (A) (A) (A) (A)
                 (A) (A) (A) (A) (A) (A) (A) (A) (A) (A) (A) (A)
                 (A) (A) (A) (A) (A) (A) (A) (A) (A) (A) (A) (A)
                 (A) (A) (A) (A) (A) (A) (A) (A) (A) (A) (A) (A)
                 (A) (A) (A) (A) (A) (A) (A) (A) (A) (A) (A) (A)
                 (A) (A) (A) (A) (A) (A) (A) (A) (A) (A) (A) (A)
                 (A) (A) (A) (A) (A) (A) (A) (A) (A) (A) (A) (A)
                 (A) (A) (A) (A) (A) (A) (A) (A) (A) (A) (A) (A)
                 (A) (A) (A) (A) (A) (A) (A) (A) (A) (A) (A) (A)
                 (A) (A) (A) (A) (A) (A) (A) (A) (A) (A) (A) (A)
                 (A) (A) (A) (A) (A) (A) (A) (A) (A) (A) (A) (A)
                 (A) (A) (A) (A) (A) (A) (A) (A) (A) (A) (A) (A)
                 (A) (A) (A) (A) (A) (A) (A) (A) (A) (A) (A) (A)
                 (A) (A) (A) (A) (A) (A) (A) (A) (A) (A) (A) (A)
                 (A) (A) (A) (A) (A) (A) (A) (A) (A) (A) (A) (A)
                 (A) (A) (A) (A) (A) (A) (A) (A) (A) (A) (A) (A)
                 (A) (A) (A) (A) (A) (A) (A) (A) (A) (A) (A) (A)
                 (A) (A) (A) (A) (A) (A) (A) (A) (A) (A) (A) (A)
                 (A) (A) (A) (A) (A) (A) (A) (A) (A) (A) (A) (A)
                 (A) (A) (A) (A) (A) (A) (A) (A) (A) (A) (A) (A)
                 (A) (A) (A)
 Requested convergence on RMS density matrix=1.00D-08 within 128 cycles.
 Requested convergence on MAX density matrix=1.00D-06.
 Requested convergence on             energy=1.00D-06.
 No special actions if energy rises.
 SCF Done:  E(RHF) =  -859.352214127     A.U. after   13 cycles
             Convg  =    0.6889D-08             -V/T =  2.0023

 **********************************************************************

            Population analysis using the SCF density.

 **********************************************************************

 Orbital symmetries:
 BldTbl:  Degeneracy threshold= 1.00D-02
       Occupied  (A) (A) (A) (A) (A) (A) (A) (A) (A) (A) (A) (A)
                 (A) (A) (A) (A) (A) (A) (A) (A) (A) (A) (A) (A)
                 (A) (A) (A) (A) (A) (A) (A) (A) (A) (A) (A) (A)
                 (A) (A) (A) (A) (A) (A) (A) (A) (A) (A) (A) (A)
                 (A) (A) (A) (A) (A) (A) (A) (A) (A) (A) (A) (A)
                 (A) (A) (A) (A) (A) (A) (A) (A) (A) (A) (A) (A)
                 (A) (A)
       Virtual   (A) (A) (A) (A) (A) (A) (A) (A) (A) (A) (A) (A)
                 (A) (A) (A) (A) (A) (A) (A) (A) (A) (A) (A) (A)
                 (A) (A) (A) (A) (A) (A) (A) (A) (A) (A) (A) (A)
                 (A) (A) (A) (A) (A) (A) (A) (A) (A) (A) (A) (A)
                 (A) (A) (A) (A) (A) (A) (A) (A) (A) (A) (A) (A)
                 (A) (A) (A) (A) (A) (A) (A) (A) (A) (A) (A) (A)
                 (A) (A) (A) (A) (A) (A) (A) (A) (A) (A) (A) (A)
                 (A) (A) (A) (A) (A) (A) (A) (A) (A) (A) (A) (A)
                 (A) (A) (A) (A) (A) (A) (A) (A) (A) (A) (A) (A)
                 (A) (A) (A) (A) (A) (A) (A) (A) (A) (A) (A) (A)
                 (A) (A) (A) (A) (A) (A) (A) (A) (A) (A) (A) (A)
                 (A) (A) (A) (A) (A) (A) (A) (A) (A) (A) (A) (A)
                 (A) (A) (A) (A) (A) (A) (A) (A) (A) (A) (A) (A)
                 (A) (A) (A) (A) (A) (A) (A) (A) (A) (A) (A) (A)
                 (A) (A) (A) (A) (A) (A) (A) (A) (A) (A) (A) (A)
                 (A) (A) (A) (A) (A) (A) (A) (A) (A) (A) (A) (A)
                 (A) (A) (A) (A) (A) (A) (A) (A) (A) (A) (A) (A)
                 (A) (A) (A) (A) (A) (A) (A) (A) (A) (A) (A) (A)
                 (A) (A) (A) (A) (A) (A) (A) (A) (A) (A) (A) (A)
                 (A) (A) (A) (A) (A) (A) (A) (A) (A) (A) (A) (A)
                 (A) (A) (A) (A) (A) (A) (A) (A) (A) (A) (A) (A)
                 (A) (A) (A) (A) (A) (A) (A) (A) (A) (A) (A) (A)
                 (A) (A) (A)
 The electronic state is 1-A.
 Alpha  occ. eigenvalues --  -20.67683 -20.67080 -15.82062 -15.73786 -15.73731
 Alpha  occ. eigenvalues --  -11.51067 -11.50420 -11.45563 -11.45175 -11.39703
 Alpha  occ. eigenvalues --  -11.39532 -11.37781 -11.37155 -11.37148 -11.34571
 Alpha  occ. eigenvalues --  -11.34380 -11.32322 -11.32264 -11.31500  -1.53668
 Alpha  occ. eigenvalues --   -1.52614  -1.44590  -1.38672  -1.38228  -1.24926
 Alpha  occ. eigenvalues --   -1.18560  -1.13813  -1.11719  -1.09951  -1.09886
 Alpha  occ. eigenvalues --   -1.09605  -1.06173  -1.03992  -0.95754  -0.94654
 Alpha  occ. eigenvalues --   -0.92887  -0.89182  -0.87633  -0.86867  -0.84313
 Alpha  occ. eigenvalues --   -0.82388  -0.82166  -0.79313  -0.79003  -0.78637
 Alpha  occ. eigenvalues --   -0.76779  -0.76586  -0.74784  -0.73129  -0.71815
 Alpha  occ. eigenvalues --   -0.71198  -0.70937  -0.70133  -0.69716  -0.68646
 Alpha  occ. eigenvalues --   -0.68181  -0.68096  -0.67562  -0.66424  -0.65848
 Alpha  occ. eigenvalues --   -0.65569  -0.65490  -0.63999  -0.63246  -0.62774
 Alpha  occ. eigenvalues --   -0.60338  -0.59471  -0.57895  -0.57166  -0.56041
 Alpha  occ. eigenvalues --   -0.54511  -0.53961  -0.50842  -0.50603
 Alpha virt. eigenvalues --    0.03138   0.04223   0.07139   0.09353   0.09499
 Alpha virt. eigenvalues --    0.10963   0.12572   0.13255   0.14204   0.14643
 Alpha virt. eigenvalues --    0.15855   0.16859   0.17973   0.18144   0.18184
 Alpha virt. eigenvalues --    0.18950   0.19442   0.19647   0.19725   0.20081
 Alpha virt. eigenvalues --    0.20642   0.21141   0.21412   0.21633   0.22294
 Alpha virt. eigenvalues --    0.22752   0.22845   0.23421   0.23735   0.24132
 Alpha virt. eigenvalues --    0.24713   0.25248   0.25474   0.26283   0.27172
 Alpha virt. eigenvalues --    0.28391   0.28920   0.29757   0.31506   0.31974
 Alpha virt. eigenvalues --    0.32614   0.35264   0.35834   0.37544   0.38405
 Alpha virt. eigenvalues --    0.38912   0.41247   0.44302   0.48537   0.54638
 Alpha virt. eigenvalues --    0.55703   0.56731   0.57053   0.58868   0.60649
 Alpha virt. eigenvalues --    0.61216   0.62337   0.62615   0.63653   0.64208
 Alpha virt. eigenvalues --    0.64682   0.65840   0.66450   0.67650   0.67953
 Alpha virt. eigenvalues --    0.70598   0.73210   0.73892   0.75144   0.75933
 Alpha virt. eigenvalues --    0.77405   0.78258   0.78664   0.79650   0.81027
 Alpha virt. eigenvalues --    0.81956   0.83107   0.83635   0.84781   0.85294
 Alpha virt. eigenvalues --    0.86154   0.87911   0.88185   0.89642   0.89944
 Alpha virt. eigenvalues --    0.90461   0.92157   0.92604   0.93345   0.94084
 Alpha virt. eigenvalues --    0.94853   0.95867   0.96492   0.97448   0.98163
 Alpha virt. eigenvalues --    0.98450   0.99472   0.99918   1.00488   1.02544
 Alpha virt. eigenvalues --    1.02902   1.02976   1.03711   1.04120   1.04683
 Alpha virt. eigenvalues --    1.04979   1.05679   1.06469   1.06855   1.07574
 Alpha virt. eigenvalues --    1.08068   1.08643   1.09185   1.09361   1.10291
 Alpha virt. eigenvalues --    1.11558   1.11982   1.12611   1.13542   1.14056
 Alpha virt. eigenvalues --    1.14732   1.15048   1.15588   1.17595   1.17911
 Alpha virt. eigenvalues --    1.19881   1.21222   1.22185   1.24902   1.27512
 Alpha virt. eigenvalues --    1.28602   1.29335   1.31169   1.34725   1.36378
 Alpha virt. eigenvalues --    1.38639   1.41368   1.43464   1.46026   1.46771
 Alpha virt. eigenvalues --    1.48224   1.50204   1.50863   1.53915   1.54663
 Alpha virt. eigenvalues --    1.55966   1.56438   1.57383   1.58269   1.60278
 Alpha virt. eigenvalues --    1.62700   1.65790   1.66692   1.69881   1.72677
 Alpha virt. eigenvalues --    1.77130   1.77402   1.81241   1.81890   1.86264
 Alpha virt. eigenvalues --    1.86919   1.88290   1.89010   1.89820   1.91290
 Alpha virt. eigenvalues --    1.93311   1.96160   1.97561   1.99042   2.00674
 Alpha virt. eigenvalues --    2.02009   2.02520   2.04919   2.05944   2.06899
 Alpha virt. eigenvalues --    2.08034   2.08862   2.09495   2.11323   2.11912
 Alpha virt. eigenvalues --    2.12147   2.13770   2.14450   2.14900   2.15957
 Alpha virt. eigenvalues --    2.19074   2.19337   2.20597   2.21788   2.22158
 Alpha virt. eigenvalues --    2.23884   2.25251   2.25974   2.26652   2.27230
 Alpha virt. eigenvalues --    2.28605   2.28706   2.29906   2.30480   2.33034
 Alpha virt. eigenvalues --    2.35240   2.35610   2.40489   2.41431   2.41586
 Alpha virt. eigenvalues --    2.42410   2.46855   2.47482   2.48963   2.52458
 Alpha virt. eigenvalues --    2.53061   2.54298   2.54965   2.56064   2.56368
 Alpha virt. eigenvalues --    2.59618   2.60556   2.61123   2.63019   2.63905
 Alpha virt. eigenvalues --    2.65481   2.66017   2.67528   2.69427   2.71046
 Alpha virt. eigenvalues --    2.73171   2.76437   2.78479   2.82436   2.83425
 Alpha virt. eigenvalues --    2.84292   2.85762   2.86132   2.87234   2.90071
 Alpha virt. eigenvalues --    2.93320   2.93893   2.95838   2.98947   3.02732
 Alpha virt. eigenvalues --    3.06292   3.09809   3.17255   3.17960   3.24871
 Alpha virt. eigenvalues --    3.25589   3.42411   3.42731   4.23610   4.30241
 Alpha virt. eigenvalues --    4.32494   4.38114   4.45845   4.48822   4.50926
 Alpha virt. eigenvalues --    4.53784   4.59443   4.60419   4.62084   4.63707
 Alpha virt. eigenvalues --    4.68387   4.71471   4.81817   4.84582   4.89243
 Alpha virt. eigenvalues --    4.89614   5.03329
          Condensed to atoms (all electrons):
              1          2          3          4          5          6
     1  C    4.106795   0.000101   0.000000   0.000000   0.000000   0.000022
     2  C    0.000101   4.169975   0.000004  -0.000057  -0.000007   0.003184
     3  C    0.000000   0.000004   5.109970   0.337379   0.335544  -0.056506
     4  C    0.000000  -0.000057   0.337379   5.097072  -0.058651   0.327935
     5  C    0.000000  -0.000007   0.335544  -0.058651   5.102053  -0.004908
     6  C    0.000022   0.003184  -0.056506   0.327935  -0.004908   5.203877
     7  C    0.000001  -0.000311  -0.055677  -0.005110   0.331222  -0.049817
     8  C   -0.000168  -0.042900  -0.004998  -0.044971  -0.045679   0.318655
     9  C   -0.031698   0.000000   0.000000   0.000000   0.000000   0.000000
    10  C   -0.033537   0.000001   0.000000   0.000000   0.000000   0.000000
    11  C    0.000000  -0.032680   0.000000   0.000000  -0.000003   0.000002
    12  C    0.000000  -0.027286   0.000001   0.000000  -0.000028   0.000014
    13  C    0.343832  -0.002863   0.000000   0.000003   0.000001  -0.000137
    14  C    0.001506   0.343222  -0.000376   0.003804   0.003932  -0.058432
    15  N    0.364257  -0.000001   0.000000   0.000000   0.000000  -0.000002
    16  N   -0.000001   0.336081  -0.000002   0.000000   0.000105  -0.000079
    17  N   -0.037893  -0.057695  -0.000005   0.000016  -0.000053  -0.003568
    18  O    0.539591  -0.000051   0.000000   0.000016   0.000000  -0.001466
    19  O    0.000068   0.529370   0.000000   0.000001  -0.000008  -0.000019
    20  H    0.000000   0.000000   0.406159  -0.035838  -0.035581   0.004382
    21  H    0.000000   0.000000   0.397316  -0.043164  -0.043099  -0.003295
    22  H    0.000000   0.000001  -0.034172   0.405889   0.004160  -0.037800
    23  H    0.000000   0.000001  -0.041026   0.399465  -0.002518  -0.045208
    24  H    0.000000   0.000000  -0.041222  -0.002509   0.399840   0.000417
    25  H    0.000000  -0.000003  -0.034105   0.004179   0.405817  -0.000314
    26  H    0.000007  -0.000128  -0.002563  -0.035410   0.000399   0.390831
    27  H   -0.000067  -0.000075   0.003677  -0.030959  -0.000306   0.397707
    28  H    0.000000   0.004764   0.003772  -0.000341  -0.032091   0.003723
    29  H    0.000000  -0.001052  -0.002671   0.000423  -0.037106  -0.003129
    30  H   -0.000016  -0.002654  -0.000040  -0.000841  -0.002208  -0.040569
    31  H    0.001102   0.000000   0.000000   0.000000   0.000000   0.000000
    32  H   -0.003997   0.000000   0.000000   0.000000   0.000000   0.000000
    33  H    0.001035   0.000000   0.000000   0.000000   0.000000   0.000000
    34  H    0.001074   0.000000   0.000000   0.000000   0.000000   0.000000
    35  H   -0.005135  -0.000002   0.000000   0.000000   0.000000   0.000000
    36  H    0.001090   0.000000   0.000000   0.000000   0.000000   0.000000
    37  H    0.000000   0.001355   0.000000   0.000000  -0.000002   0.000000
    38  H    0.000000  -0.004247   0.000000   0.000000   0.000000   0.000000
    39  H    0.000000   0.001051   0.000000   0.000000   0.000000   0.000000
    40  H    0.000000   0.000762   0.000000   0.000000   0.000000   0.000000
    41  H    0.000000  -0.003095  -0.000001  -0.000001  -0.000019   0.000049
    42  H    0.000000   0.000806   0.000001   0.000000  -0.000052  -0.000002
    43  H   -0.025145  -0.000573   0.000000   0.000000   0.000000   0.000027
    44  H   -0.022727   0.001116   0.000000   0.000000   0.000000  -0.000005
    45  H   -0.000377  -0.031846   0.000002   0.000003  -0.000039  -0.003222
    46  H    0.000019  -0.011048   0.000000   0.000001   0.000002  -0.000040
    47  H   -0.009332   0.002350   0.000012  -0.000271  -0.000009   0.006109
              7          8          9         10         11         12
     1  C    0.000001  -0.000168  -0.031698  -0.033537   0.000000   0.000000
     2  C   -0.000311  -0.042900   0.000000   0.000001  -0.032680  -0.027286
     3  C   -0.055677  -0.004998   0.000000   0.000000   0.000000   0.000001
     4  C   -0.005110  -0.044971   0.000000   0.000000   0.000000   0.000000
     5  C    0.331222  -0.045679   0.000000   0.000000  -0.000003  -0.000028
     6  C   -0.049817   0.318655   0.000000   0.000000   0.000002   0.000014
     7  C    5.158172   0.329039   0.000000   0.000000  -0.000026  -0.004250
     8  C    0.329039   5.205542   0.000000   0.000000  -0.000099   0.000760
     9  C    0.000000   0.000000   5.012399  -0.043973   0.000000   0.000000
    10  C    0.000000   0.000000  -0.043973   4.982793   0.000000   0.000000
    11  C   -0.000026  -0.000099   0.000000   0.000000   5.015719  -0.046282
    12  C   -0.004250   0.000760   0.000000   0.000000  -0.046282   4.984009
    13  C   -0.000046   0.003265   0.003384   0.001871  -0.000003  -0.000010
    14  C   -0.047544   0.326689   0.000001  -0.000006   0.003120  -0.001705
    15  N    0.000000   0.000000   0.185828   0.207555   0.000000   0.000000
    16  N    0.000251  -0.001963   0.000000   0.000000   0.190322   0.202558
    17  N    0.002494  -0.054955  -0.000052   0.000405  -0.000073   0.000296
    18  O   -0.000001  -0.000171  -0.005424   0.001441   0.000000   0.000000
    19  O   -0.000613   0.001905   0.000000   0.000000  -0.006673   0.001533
    20  H    0.004295  -0.000185   0.000000   0.000000   0.000000   0.000000
    21  H   -0.003249   0.000221   0.000000   0.000000   0.000000  -0.000001
    22  H   -0.000299   0.004179   0.000000   0.000000   0.000000   0.000000
    23  H    0.000475  -0.004200   0.000000   0.000000   0.000000   0.000000
    24  H   -0.044789  -0.004672   0.000000   0.000000   0.000000  -0.000002
    25  H   -0.038326   0.004308   0.000000   0.000000   0.000000   0.000001
    26  H   -0.003213  -0.045971   0.000000   0.000000   0.000000  -0.000021
    27  H    0.003477  -0.041999   0.000001   0.000000   0.000000   0.000000
    28  H    0.403207  -0.039126   0.000000   0.000000   0.000081  -0.000991
    29  H    0.394216  -0.048781   0.000000   0.000000   0.000009  -0.001565
    30  H   -0.036079   0.402678   0.000000   0.000000   0.000002  -0.000047
    31  H    0.000000   0.000000   0.398720  -0.001697   0.000000   0.000000
    32  H    0.000000   0.000000   0.395507   0.002638   0.000000   0.000000
    33  H    0.000000   0.000000   0.398711  -0.002048   0.000000   0.000000
    34  H    0.000000   0.000000  -0.001464   0.398931   0.000000   0.000000
    35  H    0.000000   0.000000   0.003097   0.395603   0.000000   0.000000
    36  H    0.000000   0.000000  -0.001091   0.399013   0.000000   0.000000
    37  H    0.000017   0.000025   0.000000   0.000000   0.398938  -0.001836
    38  H   -0.000001  -0.000013   0.000000   0.000000   0.395128   0.002696
    39  H    0.000002  -0.000005   0.000000   0.000000   0.398326  -0.002163
    40  H    0.000144  -0.000073   0.000000   0.000000  -0.001955   0.400153
    41  H   -0.000773  -0.000406   0.000000   0.000000   0.003236   0.396344
    42  H   -0.000344   0.000357   0.000000   0.000000  -0.000962   0.400298
    43  H   -0.000004   0.000001  -0.000109  -0.001150   0.000000   0.000009
    44  H    0.000001  -0.000073  -0.000089  -0.001788   0.000005   0.000000
    45  H   -0.000778  -0.024720   0.000000   0.000000  -0.000075  -0.002611
    46  H   -0.000065   0.000778   0.000001   0.000000  -0.000012  -0.000058
    47  H    0.000148  -0.003741  -0.000019  -0.000061   0.000001   0.000000
             13         14         15         16         17         18
     1  C    0.343832   0.001506   0.364257  -0.000001  -0.037893   0.539591
     2  C   -0.002863   0.343222  -0.000001   0.336081  -0.057695  -0.000051
     3  C    0.000000  -0.000376   0.000000  -0.000002  -0.000005   0.000000
     4  C    0.000003   0.003804   0.000000   0.000000   0.000016   0.000016
     5  C    0.000001   0.003932   0.000000   0.000105  -0.000053   0.000000
     6  C   -0.000137  -0.058432  -0.000002  -0.000079  -0.003568  -0.001466
     7  C   -0.000046  -0.047544   0.000000   0.000251   0.002494  -0.000001
     8  C    0.003265   0.326689   0.000000  -0.001963  -0.054955  -0.000171
     9  C    0.003384   0.000001   0.185828   0.000000  -0.000052  -0.005424
    10  C    0.001871  -0.000006   0.207555   0.000000   0.000405   0.001441
    11  C   -0.000003   0.003120   0.000000   0.190322  -0.000073   0.000000
    12  C   -0.000010  -0.001705   0.000000   0.202558   0.000296   0.000000
    13  C    5.217451  -0.027374  -0.099909  -0.000043   0.159556  -0.084629
    14  C   -0.027374   5.285682   0.000005  -0.089611   0.161080   0.001095
    15  N   -0.099909   0.000005   7.320412   0.000000   0.000644  -0.081110
    16  N   -0.000043  -0.089611   0.000000   7.351859   0.000205   0.000000
    17  N    0.159556   0.161080   0.000644   0.000205   7.349794  -0.034269
    18  O   -0.084629   0.001095  -0.081110   0.000000  -0.034269   8.258707
    19  O    0.000968  -0.090290   0.000000  -0.086735  -0.032441   0.000000
    20  H    0.000000   0.000010   0.000000   0.000000   0.000000   0.000000
    21  H    0.000000  -0.000038   0.000000   0.000000   0.000000   0.000000
    22  H    0.000000  -0.000090   0.000000   0.000000  -0.000001   0.000000
    23  H    0.000000  -0.000111   0.000000   0.000000   0.000024   0.000000
    24  H    0.000000  -0.000088   0.000000   0.000003   0.000001   0.000000
    25  H    0.000000  -0.000076   0.000000   0.000000   0.000000   0.000000
    26  H   -0.000010  -0.005125   0.000000   0.000010   0.000592  -0.000001
    27  H    0.000138  -0.003389  -0.000005   0.000000  -0.000863   0.003261
    28  H   -0.000002  -0.006248   0.000000  -0.001637  -0.000056   0.000000
    29  H    0.000002  -0.002513   0.000000   0.000273  -0.000021   0.000000
    30  H    0.000140  -0.049881   0.000000   0.000206  -0.002919   0.000002
    31  H   -0.000070   0.000000  -0.043803   0.000000   0.000002   0.000385
    32  H    0.000460   0.000000  -0.028481   0.000000  -0.000003   0.006007
    33  H   -0.000073   0.000000  -0.043833   0.000000   0.000001   0.000369
    34  H   -0.000272   0.000000  -0.044792   0.000000  -0.000006  -0.000008
    35  H    0.001617   0.000000  -0.034840   0.000000   0.000289   0.000063
    36  H   -0.000266   0.000000  -0.045554   0.000000  -0.000002  -0.000006
    37  H    0.000000  -0.000059   0.000000  -0.044498   0.000000   0.000000
    38  H   -0.000001   0.000468   0.000000  -0.028202  -0.000005   0.000000
    39  H   -0.000001  -0.000100   0.000000  -0.043986   0.000005   0.000000
    40  H    0.000000  -0.000065   0.000000  -0.043989   0.000005   0.000000
    41  H   -0.000007   0.000010   0.000000  -0.035555   0.000178   0.000000
    42  H    0.000000  -0.000395   0.000000  -0.046125  -0.000010   0.000000
    43  H    0.390574   0.001015   0.000247  -0.000042  -0.037510   0.000956
    44  H    0.388264  -0.000655   0.001521  -0.000071  -0.029346   0.001031
    45  H   -0.000053   0.393467  -0.000008   0.003223  -0.038272   0.000115
    46  H   -0.012229  -0.028473   0.000006   0.001845   0.262979   0.000313
    47  H   -0.034249  -0.015512   0.001791  -0.000058   0.248278   0.053143
             19         20         21         22         23         24
     1  C    0.000068   0.000000   0.000000   0.000000   0.000000   0.000000
     2  C    0.529370   0.000000   0.000000   0.000001   0.000001   0.000000
     3  C    0.000000   0.406159   0.397316  -0.034172  -0.041026  -0.041222
     4  C    0.000001  -0.035838  -0.043164   0.405889   0.399465  -0.002509
     5  C   -0.000008  -0.035581  -0.043099   0.004160  -0.002518   0.399840
     6  C   -0.000019   0.004382  -0.003295  -0.037800  -0.045208   0.000417
     7  C   -0.000613   0.004295  -0.003249  -0.000299   0.000475  -0.044789
     8  C    0.001905  -0.000185   0.000221   0.004179  -0.004200  -0.004672
     9  C    0.000000   0.000000   0.000000   0.000000   0.000000   0.000000
    10  C    0.000000   0.000000   0.000000   0.000000   0.000000   0.000000
    11  C   -0.006673   0.000000   0.000000   0.000000   0.000000   0.000000
    12  C    0.001533   0.000000  -0.000001   0.000000   0.000000  -0.000002
    13  C    0.000968   0.000000   0.000000   0.000000   0.000000   0.000000
    14  C   -0.090290   0.000010  -0.000038  -0.000090  -0.000111  -0.000088
    15  N    0.000000   0.000000   0.000000   0.000000   0.000000   0.000000
    16  N   -0.086735   0.000000   0.000000   0.000000   0.000000   0.000003
    17  N   -0.032441   0.000000   0.000000  -0.000001   0.000024   0.000001
    18  O    0.000000   0.000000   0.000000   0.000000   0.000000   0.000000
    19  O    8.289761   0.000000   0.000000   0.000000   0.000000  -0.000002
    20  H    0.000000   0.497368  -0.024949  -0.002059  -0.003041  -0.002979
    21  H    0.000000  -0.024949   0.547290  -0.002937   0.004261   0.004246
    22  H    0.000000  -0.002059  -0.002937   0.498770  -0.024807  -0.000076
    23  H    0.000000  -0.003041   0.004261  -0.024807   0.537923   0.002591
    24  H   -0.000002  -0.002979   0.004246  -0.000076   0.002591   0.535782
    25  H    0.000000  -0.002114  -0.002924  -0.000075  -0.000081  -0.024828
    26  H   -0.000002  -0.000082   0.002756  -0.002925   0.004180   0.000077
    27  H    0.000005  -0.000069  -0.000086  -0.002735  -0.002462  -0.000038
    28  H   -0.000009  -0.000070  -0.000081   0.000010  -0.000037  -0.002629
    29  H    0.000001  -0.000087   0.002819  -0.000040   0.000072   0.004272
    30  H    0.002209  -0.000060   0.000078  -0.000053   0.002512   0.002775
    31  H    0.000000   0.000000   0.000000   0.000000   0.000000   0.000000
    32  H    0.000000   0.000000   0.000000   0.000000   0.000000   0.000000
    33  H    0.000000   0.000000   0.000000   0.000000   0.000000   0.000000
    34  H    0.000000   0.000000   0.000000   0.000000   0.000000   0.000000
    35  H    0.000000   0.000000   0.000000   0.000000   0.000000   0.000000
    36  H    0.000000   0.000000   0.000000   0.000000   0.000000   0.000000
    37  H    0.000413   0.000000   0.000000   0.000000   0.000000   0.000000
    38  H    0.006537   0.000000   0.000000   0.000000   0.000000   0.000000
    39  H    0.000424   0.000000   0.000000   0.000000   0.000000   0.000000
    40  H   -0.000010   0.000000   0.000000   0.000000   0.000000   0.000000
    41  H    0.000034   0.000000   0.000000   0.000000   0.000000   0.000000
    42  H   -0.000014   0.000000   0.000000   0.000000   0.000000  -0.000001
    43  H   -0.000035   0.000000   0.000000   0.000000   0.000000   0.000000
    44  H    0.001731   0.000000   0.000000   0.000000   0.000000   0.000000
    45  H    0.001965   0.000000  -0.000004  -0.000002   0.000001  -0.000004
    46  H    0.049003   0.000000   0.000000   0.000000  -0.000002  -0.000001
    47  H    0.000027   0.000000   0.000000   0.000004   0.000006   0.000000
             25         26         27         28         29         30
     1  C    0.000000   0.000007  -0.000067   0.000000   0.000000  -0.000016
     2  C   -0.000003  -0.000128  -0.000075   0.004764  -0.001052  -0.002654
     3  C   -0.034105  -0.002563   0.003677   0.003772  -0.002671  -0.000040
     4  C    0.004179  -0.035410  -0.030959  -0.000341   0.000423  -0.000841
     5  C    0.405817   0.000399  -0.000306  -0.032091  -0.037106  -0.002208
     6  C   -0.000314   0.390831   0.397707   0.003723  -0.003129  -0.040569
     7  C   -0.038326  -0.003213   0.003477   0.403207   0.394216  -0.036079
     8  C    0.004308  -0.045971  -0.041999  -0.039126  -0.048781   0.402678
     9  C    0.000000   0.000000   0.000001   0.000000   0.000000   0.000000
    10  C    0.000000   0.000000   0.000000   0.000000   0.000000   0.000000
    11  C    0.000000   0.000000   0.000000   0.000081   0.000009   0.000002
    12  C    0.000001  -0.000021   0.000000  -0.000991  -0.001565  -0.000047
    13  C    0.000000  -0.000010   0.000138  -0.000002   0.000002   0.000140
    14  C   -0.000076  -0.005125  -0.003389  -0.006248  -0.002513  -0.049881
    15  N    0.000000   0.000000  -0.000005   0.000000   0.000000   0.000000
    16  N    0.000000   0.000010   0.000000  -0.001637   0.000273   0.000206
    17  N    0.000000   0.000592  -0.000863  -0.000056  -0.000021  -0.002919
    18  O    0.000000  -0.000001   0.003261   0.000000   0.000000   0.000002
    19  O    0.000000  -0.000002   0.000005  -0.000009   0.000001   0.002209
    20  H   -0.002114  -0.000082  -0.000069  -0.000070  -0.000087  -0.000060
    21  H   -0.002924   0.002756  -0.000086  -0.000081   0.002819   0.000078
    22  H   -0.000075  -0.002925  -0.002735   0.000010  -0.000040  -0.000053
    23  H   -0.000081   0.004180  -0.002462  -0.000037   0.000072   0.002512
    24  H   -0.024828   0.000077  -0.000038  -0.002629   0.004272   0.002775
    25  H    0.501768  -0.000043   0.000010  -0.002513  -0.002951  -0.000039
    26  H   -0.000043   0.544057  -0.026506  -0.000065   0.003139   0.004133
    27  H    0.000010  -0.026506   0.506526  -0.000072  -0.000070  -0.001623
    28  H   -0.002513  -0.000065  -0.000072   0.508945  -0.027252  -0.001933
    29  H   -0.002951   0.003139  -0.000070  -0.027252   0.551717   0.004333
    30  H   -0.000039   0.004133  -0.001623  -0.001933   0.004333   0.514622
    31  H    0.000000   0.000000   0.000000   0.000000   0.000000   0.000000
    32  H    0.000000   0.000000   0.000000   0.000000   0.000000   0.000000
    33  H    0.000000   0.000000   0.000000   0.000000   0.000000   0.000000
    34  H    0.000000   0.000000   0.000000   0.000000   0.000000   0.000000
    35  H    0.000000   0.000000   0.000000   0.000000   0.000000   0.000000
    36  H    0.000000   0.000000   0.000000   0.000000   0.000000   0.000000
    37  H    0.000000   0.000000   0.000000   0.000056  -0.000003   0.000000
    38  H    0.000000   0.000000   0.000000  -0.000007   0.000000   0.000000
    39  H    0.000000   0.000000   0.000000   0.000002   0.000000   0.000000
    40  H    0.000000   0.000000   0.000000   0.000038   0.000056   0.000000
    41  H    0.000000  -0.000001  -0.000001  -0.000152   0.000465  -0.000009
    42  H    0.000003   0.000000   0.000000  -0.000011   0.000189   0.000006
    43  H    0.000000  -0.000002  -0.000022   0.000000  -0.000001  -0.000003
    44  H    0.000000   0.000001   0.000002   0.000000   0.000000  -0.000002
    45  H    0.000002   0.003167   0.000421   0.000171   0.000628   0.003596
    46  H    0.000000  -0.000004   0.000164   0.000012  -0.000002   0.001660
    47  H    0.000000  -0.000333   0.008152  -0.000001  -0.000003  -0.000568
             31         32         33         34         35         36
     1  C    0.001102  -0.003997   0.001035   0.001074  -0.005135   0.001090
     2  C    0.000000   0.000000   0.000000   0.000000  -0.000002   0.000000
     3  C    0.000000   0.000000   0.000000   0.000000   0.000000   0.000000
     4  C    0.000000   0.000000   0.000000   0.000000   0.000000   0.000000
     5  C    0.000000   0.000000   0.000000   0.000000   0.000000   0.000000
     6  C    0.000000   0.000000   0.000000   0.000000   0.000000   0.000000
     7  C    0.000000   0.000000   0.000000   0.000000   0.000000   0.000000
     8  C    0.000000   0.000000   0.000000   0.000000   0.000000   0.000000
     9  C    0.398720   0.395507   0.398711  -0.001464   0.003097  -0.001091
    10  C   -0.001697   0.002638  -0.002048   0.398931   0.395603   0.399013
    11  C    0.000000   0.000000   0.000000   0.000000   0.000000   0.000000
    12  C    0.000000   0.000000   0.000000   0.000000   0.000000   0.000000
    13  C   -0.000070   0.000460  -0.000073  -0.000272   0.001617  -0.000266
    14  C    0.000000   0.000000   0.000000   0.000000   0.000000   0.000000
    15  N   -0.043803  -0.028481  -0.043833  -0.044792  -0.034840  -0.045554
    16  N    0.000000   0.000000   0.000000   0.000000   0.000000   0.000000
    17  N    0.000002  -0.000003   0.000001  -0.000006   0.000289  -0.000002
    18  O    0.000385   0.006007   0.000369  -0.000008   0.000063  -0.000006
    19  O    0.000000   0.000000   0.000000   0.000000   0.000000   0.000000
    20  H    0.000000   0.000000   0.000000   0.000000   0.000000   0.000000
    21  H    0.000000   0.000000   0.000000   0.000000   0.000000   0.000000
    22  H    0.000000   0.000000   0.000000   0.000000   0.000000   0.000000
    23  H    0.000000   0.000000   0.000000   0.000000   0.000000   0.000000
    24  H    0.000000   0.000000   0.000000   0.000000   0.000000   0.000000
    25  H    0.000000   0.000000   0.000000   0.000000   0.000000   0.000000
    26  H    0.000000   0.000000   0.000000   0.000000   0.000000   0.000000
    27  H    0.000000   0.000000   0.000000   0.000000   0.000000   0.000000
    28  H    0.000000   0.000000   0.000000   0.000000   0.000000   0.000000
    29  H    0.000000   0.000000   0.000000   0.000000   0.000000   0.000000
    30  H    0.000000   0.000000   0.000000   0.000000   0.000000   0.000000
    31  H    0.494885  -0.019697  -0.032682  -0.000845  -0.000028   0.003163
    32  H   -0.019697   0.416145  -0.019954  -0.000022  -0.000082  -0.000040
    33  H   -0.032682  -0.019954   0.497215   0.003313  -0.000035  -0.000665
    34  H   -0.000845  -0.000022   0.003313   0.485970  -0.023885  -0.032410
    35  H   -0.000028  -0.000082  -0.000035  -0.023885   0.507430  -0.024250
    36  H    0.003163  -0.000040  -0.000665  -0.032410  -0.024250   0.484958
    37  H    0.000000   0.000000   0.000000   0.000000   0.000000   0.000000
    38  H    0.000000   0.000000   0.000000   0.000000   0.000000   0.000000
    39  H    0.000000   0.000000   0.000000   0.000000   0.000000   0.000000
    40  H    0.000000   0.000000   0.000000   0.000000   0.000000   0.000000
    41  H    0.000000   0.000000   0.000000   0.000000   0.000000   0.000000
    42  H    0.000000   0.000000   0.000000   0.000000   0.000000   0.000000
    43  H   -0.000002  -0.000009   0.000011   0.000148  -0.001355  -0.000008
    44  H    0.000006  -0.000007  -0.000002   0.000029  -0.001840   0.000163
    45  H    0.000000   0.000000   0.000000   0.000000   0.000003   0.000000
    46  H    0.000000   0.000000   0.000000   0.000000   0.000004   0.000000
    47  H    0.000001  -0.000012   0.000000   0.000001  -0.000013   0.000002
             37         38         39         40         41         42
     1  C    0.000000   0.000000   0.000000   0.000000   0.000000   0.000000
     2  C    0.001355  -0.004247   0.001051   0.000762  -0.003095   0.000806
     3  C    0.000000   0.000000   0.000000   0.000000  -0.000001   0.000001
     4  C    0.000000   0.000000   0.000000   0.000000  -0.000001   0.000000
     5  C   -0.000002   0.000000   0.000000   0.000000  -0.000019  -0.000052
     6  C    0.000000   0.000000   0.000000   0.000000   0.000049  -0.000002
     7  C    0.000017  -0.000001   0.000002   0.000144  -0.000773  -0.000344
     8  C    0.000025  -0.000013  -0.000005  -0.000073  -0.000406   0.000357
     9  C    0.000000   0.000000   0.000000   0.000000   0.000000   0.000000
    10  C    0.000000   0.000000   0.000000   0.000000   0.000000   0.000000
    11  C    0.398938   0.395128   0.398326  -0.001955   0.003236  -0.000962
    12  C   -0.001836   0.002696  -0.002163   0.400153   0.396344   0.400298
    13  C    0.000000  -0.000001  -0.000001   0.000000  -0.000007   0.000000
    14  C   -0.000059   0.000468  -0.000100  -0.000065   0.000010  -0.000395
    15  N    0.000000   0.000000   0.000000   0.000000   0.000000   0.000000
    16  N   -0.044498  -0.028202  -0.043986  -0.043989  -0.035555  -0.046125
    17  N    0.000000  -0.000005   0.000005   0.000005   0.000178  -0.000010
    18  O    0.000000   0.000000   0.000000   0.000000   0.000000   0.000000
    19  O    0.000413   0.006537   0.000424  -0.000010   0.000034  -0.000014
    20  H    0.000000   0.000000   0.000000   0.000000   0.000000   0.000000
    21  H    0.000000   0.000000   0.000000   0.000000   0.000000   0.000000
    22  H    0.000000   0.000000   0.000000   0.000000   0.000000   0.000000
    23  H    0.000000   0.000000   0.000000   0.000000   0.000000   0.000000
    24  H    0.000000   0.000000   0.000000   0.000000   0.000000  -0.000001
    25  H    0.000000   0.000000   0.000000   0.000000   0.000000   0.000003
    26  H    0.000000   0.000000   0.000000   0.000000  -0.000001   0.000000
    27  H    0.000000   0.000000   0.000000   0.000000  -0.000001   0.000000
    28  H    0.000056  -0.000007   0.000002   0.000038  -0.000152  -0.000011
    29  H   -0.000003   0.000000   0.000000   0.000056   0.000465   0.000189
    30  H    0.000000   0.000000   0.000000   0.000000  -0.000009   0.000006
    31  H    0.000000   0.000000   0.000000   0.000000   0.000000   0.000000
    32  H    0.000000   0.000000   0.000000   0.000000   0.000000   0.000000
    33  H    0.000000   0.000000   0.000000   0.000000   0.000000   0.000000
    34  H    0.000000   0.000000   0.000000   0.000000   0.000000   0.000000
    35  H    0.000000   0.000000   0.000000   0.000000   0.000000   0.000000
    36  H    0.000000   0.000000   0.000000   0.000000   0.000000   0.000000
    37  H    0.497083  -0.019607  -0.033200  -0.000873  -0.000038   0.003247
    38  H   -0.019607   0.413759  -0.019885  -0.000010  -0.000081  -0.000040
    39  H   -0.033200  -0.019885   0.502489   0.003426  -0.000024  -0.000718
    40  H   -0.000873  -0.000010   0.003426   0.489108  -0.023614  -0.032725
    41  H   -0.000038  -0.000081  -0.000024  -0.023614   0.508329  -0.025173
    42  H    0.003247  -0.000040  -0.000718  -0.032725  -0.025173   0.489055
    43  H    0.000000   0.000000   0.000000   0.000001   0.000030   0.000000
    44  H    0.000000   0.000000   0.000001   0.000001  -0.000002   0.000000
    45  H   -0.000002  -0.000009   0.000000   0.000074  -0.000280   0.000064
    46  H    0.000000  -0.000010   0.000000   0.000002  -0.000008   0.000001
    47  H    0.000000   0.000000   0.000000   0.000000   0.000001   0.000000
             43         44         45         46         47
     1  C   -0.025145  -0.022727  -0.000377   0.000019  -0.009332
     2  C   -0.000573   0.001116  -0.031846  -0.011048   0.002350
     3  C    0.000000   0.000000   0.000002   0.000000   0.000012
     4  C    0.000000   0.000000   0.000003   0.000001  -0.000271
     5  C    0.000000   0.000000  -0.000039   0.000002  -0.000009
     6  C    0.000027  -0.000005  -0.003222  -0.000040   0.006109
     7  C   -0.000004   0.000001  -0.000778  -0.000065   0.000148
     8  C    0.000001  -0.000073  -0.024720   0.000778  -0.003741
     9  C   -0.000109  -0.000089   0.000000   0.000001  -0.000019
    10  C   -0.001150  -0.001788   0.000000   0.000000  -0.000061
    11  C    0.000000   0.000005  -0.000075  -0.000012   0.000001
    12  C    0.000009   0.000000  -0.002611  -0.000058   0.000000
    13  C    0.390574   0.388264  -0.000053  -0.012229  -0.034249
    14  C    0.001015  -0.000655   0.393467  -0.028473  -0.015512
    15  N    0.000247   0.001521  -0.000008   0.000006   0.001791
    16  N   -0.000042  -0.000071   0.003223   0.001845  -0.000058
    17  N   -0.037510  -0.029346  -0.038272   0.262979   0.248278
    18  O    0.000956   0.001031   0.000115   0.000313   0.053143
    19  O   -0.000035   0.001731   0.001965   0.049003   0.000027
    20  H    0.000000   0.000000   0.000000   0.000000   0.000000
    21  H    0.000000   0.000000  -0.000004   0.000000   0.000000
    22  H    0.000000   0.000000  -0.000002   0.000000   0.000004
    23  H    0.000000   0.000000   0.000001  -0.000002   0.000006
    24  H    0.000000   0.000000  -0.000004  -0.000001   0.000000
    25  H    0.000000   0.000000   0.000002   0.000000   0.000000
    26  H   -0.000002   0.000001   0.003167  -0.000004  -0.000333
    27  H   -0.000022   0.000002   0.000421   0.000164   0.008152
    28  H    0.000000   0.000000   0.000171   0.000012  -0.000001
    29  H   -0.000001   0.000000   0.000628  -0.000002  -0.000003
    30  H   -0.000003  -0.000002   0.003596   0.001660  -0.000568
    31  H   -0.000002   0.000006   0.000000   0.000000   0.000001
    32  H   -0.000009  -0.000007   0.000000   0.000000  -0.000012
    33  H    0.000011  -0.000002   0.000000   0.000000   0.000000
    34  H    0.000148   0.000029   0.000000   0.000000   0.000001
    35  H   -0.001355  -0.001840   0.000003   0.000004  -0.000013
    36  H   -0.000008   0.000163   0.000000   0.000000   0.000002
    37  H    0.000000   0.000000  -0.000002   0.000000   0.000000
    38  H    0.000000   0.000000  -0.000009  -0.000010   0.000000
    39  H    0.000000   0.000001   0.000000   0.000000   0.000000
    40  H    0.000001   0.000001   0.000074   0.000002   0.000000
    41  H    0.000030  -0.000002  -0.000280  -0.000008   0.000001
    42  H    0.000000   0.000000   0.000064   0.000001   0.000000
    43  H    0.437037  -0.017884   0.001089   0.001386   0.001930
    44  H   -0.017884   0.410249   0.000098  -0.002055   0.002217
    45  H    0.001089   0.000098   0.456118   0.002863  -0.000488
    46  H    0.001386  -0.002055   0.002863   0.243577  -0.005102
    47  H    0.001930   0.002217  -0.000488  -0.005102   0.225249
 Mulliken atomic charges:
              1
     1  C    0.809592
     2  C    0.824430
     3  C   -0.320472
     4  C   -0.318064
     5  C   -0.320710
     6  C   -0.348418
     7  C   -0.335846
     8  C   -0.188533
     9  C   -0.313728
    10  C   -0.305993
    11  C   -0.316047
    12  C   -0.299815
    13  C   -0.249279
    14  C   -0.096949
    15  N   -0.659927
    16  N   -0.664345
    17  N   -0.856827
    18  O   -0.659359
    19  O   -0.669103
    20  H    0.194898
    21  H    0.164839
    22  H    0.195060
    23  H    0.171984
    24  H    0.173835
    25  H    0.192306
    26  H    0.169058
    27  H    0.187804
    28  H    0.190543
    29  H    0.164633
    30  H    0.200592
    31  H    0.200562
    32  H    0.251547
    33  H    0.198638
    34  H    0.214238
    35  H    0.183359
    36  H    0.215904
    37  H    0.198984
    38  H    0.253529
    39  H    0.194356
    40  H    0.209543
    41  H    0.180564
    42  H    0.212544
    43  H    0.249394
    44  H    0.270110
    45  H    0.235723
    46  H    0.494497
    47  H    0.520349
 Sum of Mulliken atomic charges =   1.00000
 Mulliken charges with hydrogens summed into heavy atoms:
              1
     1  C    0.809592
     2  C    0.824430
     3  C    0.039265
     4  C    0.048979
     5  C    0.045431
     6  C    0.008444
     7  C    0.019331
     8  C    0.012059
     9  C    0.337019
    10  C    0.307508
    11  C    0.330822
    12  C    0.302836
    13  C    0.270226
    14  C    0.138774
    15  N   -0.659927
    16  N   -0.664345
    17  N    0.158019
    18  O   -0.659359
    19  O   -0.669103
 Sum of Mulliken charges with hydrogens summed into heavy atoms =   1.00000
 DipInt: DoE/N= T F RetVal/Mat= T F Init=T NMatP=  1 IDeriv=0 Min/MaxMlt=  0  4
 Entering OneElI...
 OneElI was handed    33254779 working-precision words.
 Multipole integrals L=0 to 4 MinM= 0 MaxM= 0.
 Requested accuracy = 0.1000D-12
 PrsmSu:  NPrtUS=   1 ThrOK=F IAlg=1 NPAlg=1 LenDen=           0.
 Prism:   IPart=     0 DynPar=F LinDyn=F Incr=          68.
 PRISM was handed    32717115 working-precision words and  6860 shell-pairs
 IPart=  0 NShTot=        6860 NBatch=          86 AvBLen=        79.8
 PrSmSu:  NxtVal=             69.
 Electronic moments (au):
       -148.00000000          1.35697288          1.51214613          1.35171767
      -4483.82476114      -2177.05276861       -396.60653337          1.72740920
          0.12008354          4.80062862     -12942.49604936      -1194.63675557
       -120.76142300       6005.55802814       4023.90764359      -1527.89292931
        444.65003408       -699.86153247       -192.39165252       -158.14133823
    -288492.70296106     -75901.79343794      -3882.80569929      -6599.32200788
      -9419.72645465       2115.30670584       1412.73150582        635.05362185
       -526.34763901     -52999.76065555      -8904.81478833      -6508.62967341
      -2471.13026150       1749.84674045       1528.75336822
 Electronic spatial extent (au):  <R**2>=           7057.4841
 DipInt: DoE/N= F T RetVal/Mat= T F Init=T NMatP=  1 IDeriv=0 Min/MaxMlt=  0  4
 Nuclear    moments (au):
        149.00000000          0.00000000          0.00000000          0.00000000
       4438.98242718       2102.80942403        311.53363967          0.00000000
          0.00000000          0.00000000      13216.95036068       1270.06788546
        128.99435553      -6054.40792967      -3991.33976627       1559.14759841
       -432.74138720        703.50372866        212.52270903        144.14791471
     276299.80797885      69009.81205989       2585.27242116       6428.86838891
       9620.78461023      -2405.27148411      -1379.13250425       -662.39668204
        596.33627412      49584.29508403       6144.55000182       5029.64130737
       2496.71988288      -1748.10206953      -1565.07699328
 Total      moments (au):
          1.00000000          1.35697288          1.51214613          1.35171767
        -44.84233395        -74.24334458        -85.07289370          1.72740920
          0.12008354          4.80062862        274.45431131         75.43112988
          8.23293253        -48.84990154         32.56787733         31.25466909
         11.90864688          3.64219619         20.13105652        -13.99342352
     -12192.89498221      -6891.98137804      -1297.53327813       -170.45361897
        201.05815558       -289.96477828         33.59900157        -27.34306019
         69.98863511      -3415.46557152      -2760.26478652      -1478.98836604
         25.58962138          1.74467092        -36.32362506
 Traceless Quadrup. (au):
         23.21052346         -6.19048717        -17.02003629          1.72740920
          0.12008354          4.80062862
 Charge=              1.0000 electrons
 Dipole moment (field-independent basis, Debye):
    X=              3.4491    Y=              3.8435    Z=              3.4357  Tot=              6.2026
 Quadrupole moment (field-independent basis, Debye-Ang):
   XX=            -60.3145   YY=            -99.8598   ZZ=           -114.4259
   XY=              2.3234   XZ=              0.1615   YZ=              6.4570
 Traceless Quadrupole moment (field-independent basis, Debye-Ang):
   XX=             31.2189   YY=             -8.3264   ZZ=            -22.8925
   XY=              2.3234   XZ=              0.1615   YZ=              6.4570
 Octapole moment (field-independent basis, Debye-Ang**2):
  XXX=            195.3460  YYY=             53.6890  ZZZ=              5.8599  XYY=            -34.7695
  XXY=             23.1806  XXZ=             22.2459  XZZ=              8.4761  YZZ=              2.5924
  YYZ=             14.3285  XYZ=             -9.9600
 Hexadecapole moment (field-independent basis, Debye-Ang**3):
 XXXX=          -4592.4286 YYYY=          -2595.8505 ZZZZ=           -488.7132 XXXY=            -64.2010
 XXXZ=             75.7281 YYYX=           -109.2146 YYYZ=             12.6550 ZZZX=            -10.2987
 ZZZY=             26.3611 XXYY=          -1286.4280 XXZZ=          -1039.6480 YYZZ=           -557.0579
 XXYZ=              9.6383 YYXZ=              0.6571 ZZXY=            -13.6812
 N-N= 1.582383408458D+03 E-N=-5.151557280155D+03  KE= 8.573631765871D+02
 Entering OneElI...
 OneElI was handed    33020701 working-precision words.
 Calculate electrostatic properties
    NBasis =   341  MinDer = 0  MaxDer = 0
    NGrid  =    47  NMatD  =   1
 Requested accuracy = 0.1000D-12
 PrsmSu:  NPrtUS=   2 ThrOK=T IAlg=1 NPAlg=1 LenDen=           0.
 Prism:   IPart=     0 DynPar=F LinDyn=F Incr=         512.
 PRISM was handed    16193110 working-precision words and  5941 shell-pairs
 PRISM was handed    16193110 working-precision words and  5941 shell-pairs
 IPart=  1 NShTot=      139073 NBatch=        2959 AvBLen=        47.0
 IPart=  0 NShTot=      140154 NBatch=        2982 AvBLen=        47.0
 PrSmSu:  NxtVal=           1025.
 --------------------------------------------------------
       Center         ----      EFG at Nuclei      ----
                      3XX-RR        3YY-RR        3ZZ-RR
 --------------------------------------------------------
     1   Atom        0.182201      0.254448     -0.436649
     2   Atom       -0.313468      0.096417      0.217050
     3   Atom       -0.010887      0.001491      0.009396
     4   Atom       -0.006185     -0.020154      0.026339
     5   Atom        0.001678     -0.024085      0.022407
     6   Atom        0.019453     -0.018830     -0.000624
     7   Atom       -0.059377      0.045038      0.014339
     8   Atom        0.007718     -0.065250      0.057532
     9   Atom       -0.074868     -0.081385      0.156252
    10   Atom        0.088678     -0.221160      0.132482
    11   Atom        0.107250     -0.237190      0.129940
    12   Atom        0.130568      0.146203     -0.276771
    13   Atom       -0.245428      0.120289      0.125139
    14   Atom       -0.224489      0.153998      0.070491
    15   Atom       -0.446659     -0.335932      0.782591
    16   Atom        0.528090     -0.184055     -0.344035
    17   Atom       -0.232280      0.170096      0.062184
    18   Atom        1.005093     -0.562828     -0.442265
    19   Atom       -0.118478      1.103963     -0.985485
    20   Atom       -0.011037     -0.092999      0.104036
    21   Atom        0.138324      0.142337     -0.280661
    22   Atom        0.102773     -0.160297      0.057524
    23   Atom        0.138276      0.132867     -0.271143
    24   Atom        0.144449      0.137888     -0.282337
    25   Atom       -0.233015      0.119099      0.113916
    26   Atom        0.146413      0.130424     -0.276837
    27   Atom       -0.233192      0.111500      0.121692
    28   Atom        0.098983     -0.167777      0.068794
    29   Atom        0.136933      0.138293     -0.275226
    30   Atom        0.132750      0.135028     -0.267778
    31   Atom       -0.087815      0.105135     -0.017320
    32   Atom        0.059952     -0.168146      0.108194
    33   Atom        0.081513      0.131073     -0.212585
    34   Atom        0.072796      0.127388     -0.200184
    35   Atom       -0.103424     -0.056871      0.160294
    36   Atom       -0.052275      0.085888     -0.033613
    37   Atom       -0.284994      0.135415      0.149579
    38   Atom        0.110775      0.136823     -0.247598
    39   Atom        0.087634     -0.119335      0.031702
    40   Atom        0.105284     -0.116724      0.011440
    41   Atom        0.093244     -0.164775      0.071531
    42   Atom       -0.281664      0.151212      0.130452
    43   Atom        0.116600      0.120447     -0.237047
    44   Atom        0.103771     -0.126678      0.022906
    45   Atom        0.114564      0.152844     -0.267408
    46   Atom        0.118618      0.093438     -0.212057
    47   Atom        0.119533     -0.248629      0.129095
 --------------------------------------------------------
                        XY            XZ            YZ
[...]
  978 Fit       0.090264
  979 Fit       0.081798
  980 Fit       0.085813
  981 Fit       0.078737
  982 Fit       0.075658
  983 Fit       0.076210
  984 Fit       0.090914
  985 Fit       0.081200
  986 Fit       0.075701
  987 Fit       0.073208
  988 Fit       0.073795
  989 Fit       0.080923
  990 Fit       0.074927
  991 Fit       0.072666
  992 Fit       0.102790
  993 Fit       0.106555
  994 Fit       0.119484
  995 Fit       0.115335
  996 Fit       0.102145
  997 Fit       0.094662
  998 Fit       0.095595
  999 Fit       0.112626
 1000 Fit       0.092178
 1001 Fit       0.097758
 1002 Fit       0.088204
 1003 Fit       0.086924
 1004 Fit       0.082204
 1005 Fit       0.085174
 1006 Fit       0.095829
 1007 Fit       0.100259
 1008 Fit       0.093388
 1009 Fit       0.096275
 1010 Fit       0.090476
 1011 Fit       0.092931
 1012 Fit       0.090629
 1013 Fit       0.095377
 1014 Fit       0.108757
 1015 Fit       0.110896
 1016 Fit       0.099265
 1017 Fit       0.099999
 1018 Fit       0.110340
 1019 Fit       0.097934
 1020 Fit       0.094228
 1021 Fit       0.098507
 1022 Fit       0.115575
 1023 Fit       0.093440
 1024 Fit       0.096216
 1025 Fit       0.098250
 1026 Fit       0.104371
 1027 Fit       0.099172
 1028 Fit       0.090090
 1029 Fit       0.097461
 1030 Fit       0.085573
 1031 Fit       0.091462
 1032 Fit       0.083668
 1033 Fit       0.084528
 1034 Fit       0.090554
 1035 Fit       0.101852
 1036 Fit       0.083133
 1037 Fit       0.082203
 1038 Fit       0.085618
 1039 Fit       0.093033
 1040 Fit       0.099971
 1041 Fit       0.083595
 1042 Fit       0.088968
 1043 Fit       0.077291
 1044 Fit       0.080611
 1045 Fit       0.083462
 1046 Fit       0.074968
 1047 Fit       0.078487
 1048 Fit       0.081530
 1049 Fit       0.075590
 1050 Fit       0.079076
 1051 Fit       0.074794
 1052 Fit       0.080245
 1053 Fit       0.083800
 1054 Fit       0.095262
 1055 Fit       0.090452
 1056 Fit       0.101778
 1057 Fit       0.101723
 1058 Fit       0.091237
 1059 Fit       0.087320
 1060 Fit       0.087687
 1061 Fit       0.096029
 1062 Fit       0.090649
 1063 Fit       0.085618
 1064 Fit       0.083703
 1065 Fit       0.084234
 1066 Fit       0.088255
 1067 Fit       0.084271
 1068 Fit       0.084990
 1069 Fit       0.100957
 1070 Fit       0.096166
 1071 Fit       0.097926
 1072 Fit       0.105555
 1073 Fit       0.111316
 1074 Fit       0.106643
 1075 Fit       0.100524
 1076 Fit       0.094937
 1077 Fit       0.094911
 1078 Fit       0.098951
 1079 Fit       0.107137
 1080 Fit       0.099565
 1081 Fit       0.097597
 1082 Fit       0.097501
 1083 Fit       0.121407
 1084 Fit       0.109540
 1085 Fit       0.115453
 1086 Fit       0.130245
 1087 Fit       0.111622
 1088 Fit       0.122071
 1089 Fit       0.141341
 1090 Fit       0.120219
 1091 Fit       0.097459
 1092 Fit       0.095099
 1093 Fit       0.093351
 1094 Fit       0.095516
 1095 Fit       0.101942
 1096 Fit       0.095608
 1097 Fit       0.093840
 1098 Fit       0.096725
 1099 Fit       0.104923
 1100 Fit       0.098344
 1101 Fit       0.098759
 1102 Fit       0.108856
 1103 Fit       0.104761
 1104 Fit       0.090047
 1105 Fit       0.092661
 1106 Fit       0.100963
 1107 Fit       0.086721
 1108 Fit       0.085335
 1109 Fit       0.087503
 1110 Fit       0.092800
 1111 Fit       0.101941
 1112 Fit       0.083716
 1113 Fit       0.084626
 1114 Fit       0.088809
 1115 Fit       0.096360
 1116 Fit       0.085181
 1117 Fit       0.082293
 1118 Fit       0.082893
 1119 Fit       0.083017
 1120 Fit       0.083909
 1121 Fit       0.070049
 1122 Fit       0.078016
 1123 Fit       0.079107
 1124 Fit       0.078876
 1125 Fit       0.071980
 1126 Fit       0.073812
 1127 Fit       0.102487
 1128 Fit       0.099823
 1129 Fit       0.112775
 1130 Fit       0.100622
 1131 Fit       0.093345
 1132 Fit       0.090360
 1133 Fit       0.091659
 1134 Fit       0.108230
 1135 Fit       0.097456
 1136 Fit       0.090646
 1137 Fit       0.087175
 1138 Fit       0.086715
 1139 Fit       0.092042
 1140 Fit       0.087566
 1141 Fit       0.086567
 1142 Fit       0.101961
 1143 Fit       0.107147
 1144 Fit       0.100047
 1145 Fit       0.097136
 1146 Fit       0.101090
 1147 Fit       0.116794
 1148 Fit       0.107280
 1149 Fit       0.101110
 1150 Fit       0.097692
 1151 Fit       0.096993
 1152 Fit       0.128879
 1153 Fit       0.115374
 1154 Fit       0.108513
 1155 Fit       0.105175
 1156 Fit       0.102329
 1157 Fit       0.111434
 1158 Fit       0.119656
 1159 Fit       0.112624
 1160 Fit       0.119182
 1161 Fit       0.137880
 1162 Fit       0.124981
 1163 Fit       0.135056
 1164 Fit       0.097836
 1165 Fit       0.104953
 1166 Fit       0.096156
 1167 Fit       0.094798
 1168 Fit       0.097146
 1169 Fit       0.103755
 1170 Fit       0.103451
 1171 Fit       0.098333
 1172 Fit       0.096726
 1173 Fit       0.098592
 1174 Fit       0.104181
 1175 Fit       0.103555
 1176 Fit       0.104047
 1177 Fit       0.136334
 1178 Fit       0.135285
 1179 Fit       0.135231
 1180 Fit       0.140441
 1181 Fit       0.143002
 1182 Fit       0.135232
 1183 Fit       0.139507
 1184 Fit       0.149912
 1185 Fit       0.145494
 1186 Fit       0.137078
 1187 Fit       0.124218
 1188 Fit       0.122637
 1189 Fit       0.124689
 1190 Fit       0.119053
 1191 Fit       0.113630
 1192 Fit       0.124786
 1193 Fit       0.117785
 1194 Fit       0.111762
 1195 Fit       0.126494
 1196 Fit       0.136842
 1197 Fit       0.142571
 1198 Fit       0.133518
 1199 Fit       0.118786
 1200 Fit       0.102601
 1201 Fit       0.114826
 1202 Fit       0.118662
 1203 Fit       0.105102
 1204 Fit       0.120249
 1205 Fit       0.114090
 1206 Fit       0.110962
 1207 Fit       0.098347
 1208 Fit       0.111617
 1209 Fit       0.104188
 1210 Fit       0.123852
 1211 Fit       0.070810
 1212 Fit       0.068162
 1213 Fit       0.068132
 1214 Fit       0.070596
 1215 Fit       0.070836
 1216 Fit       0.079193
 1217 Fit       0.070975
 1218 Fit       0.072834
 1219 Fit       0.071185
 1220 Fit       0.072396
 1221 Fit       0.076153
 1222 Fit       0.083097
 1223 Fit       0.071611
 1224 Fit       0.077797
 1225 Fit       0.070806
 1226 Fit       0.071516
 1227 Fit       0.087395
 1228 Fit       0.094464
 1229 Fit       0.090570
 1230 Fit       0.082667
 1231 Fit       0.081209
 1232 Fit       0.084248
 1233 Fit       0.090202
 1234 Fit       0.078489
 1235 Fit       0.079079
 1236 Fit       0.080894
 1237 Fit       0.077870
 1238 Fit       0.078233
 1239 Fit       0.078330
 1240 Fit       0.078824
 1241 Fit       0.081373
 1242 Fit       0.081582
 1243 Fit       0.087326
 1244 Fit       0.105392
 1245 Fit       0.094186
 1246 Fit       0.097953
 1247 Fit       0.093256
 1248 Fit       0.091973
 1249 Fit       0.092774
 1250 Fit       0.095613
 1251 Fit       0.101774
 1252 Fit       0.102429
 1253 Fit       0.108540
 1254 Fit       0.110538
 1255 Fit       0.116251
 1256 Fit       0.095789
 1257 Fit       0.088218
 1258 Fit       0.084144
 1259 Fit       0.096395
 1260 Fit       0.081277
 1261 Fit       0.081517
 1262 Fit       0.084380
 1263 Fit       0.081785
 1264 Fit       0.080037
 1265 Fit       0.079564
 1266 Fit       0.092602
 1267 Fit       0.079170
 1268 Fit       0.080265
 1269 Fit       0.082438
 1270 Fit       0.083920
 1271 Fit       0.099859
 1272 Fit       0.105574
 1273 Fit       0.096431
 1274 Fit       0.101540
 1275 Fit       0.114259
 1276 Fit       0.093928
 1277 Fit       0.094272
 1278 Fit       0.097208
 1279 Fit       0.102573
 1280 Fit       0.127583
 1281 Fit       0.125222
 1282 Fit       0.096237
 1283 Fit       0.119560
 1284 Fit       0.106687
 1285 Fit       0.104537
 1286 Fit       0.125235
 1287 Fit       0.127471
 1288 Fit       0.112758
 1289 Fit       0.112382
 1290 Fit       0.097102
 1291 Fit       0.093533
 1292 Fit       0.078994
 1293 Fit       0.072192
 1294 Fit       0.072930
 1295 Fit       0.071671
 1296 Fit       0.066817
 1297 Fit       0.078091
 1298 Fit       0.067164
 1299 Fit       0.066446
 1300 Fit       0.098908
 1301 Fit       0.077936
 1302 Fit       0.068355
 1303 Fit       0.068816
 1304 Fit       0.083688
 1305 Fit       0.102582
 1306 Fit       0.080777
 1307 Fit       0.074219
 1308 Fit       0.087955
 1309 Fit       0.100087
 1310 Fit       0.089852
 1311 Fit       0.097588
 1312 Fit       0.082222
 1313 Fit       0.077407
 1314 Fit       0.085707
 1315 Fit       0.093003
 1316 Fit       0.079062
 1317 Fit       0.070461
 1318 Fit       0.068908
 1319 Fit       0.070023
 1320 Fit       0.071409
 1321 Fit       0.077081
 1322 Fit       0.086702
 1323 Fit       0.098675
 1324 Fit       0.076304
 1325 Fit       0.066932
 1326 Fit       0.064200
 1327 Fit       0.066425
 1328 Fit       0.074008
 1329 Fit       0.081253
 1330 Fit       0.067939
 1331 Fit       0.068208
 1332 Fit       0.066599
 1333 Fit       0.068298
 1334 Fit       0.069392
 1335 Fit       0.066035
 1336 Fit       0.065219
 1337 Fit       0.066447
 1338 Fit       0.070301
 1339 Fit       0.069386
 1340 Fit       0.066324
 1341 Fit       0.065557
 1342 Fit       0.066669
 1343 Fit       0.070015
 1344 Fit       0.068768
 1345 Fit       0.067432
 1346 Fit       0.068790
 1347 Fit       0.073741
 1348 Fit       0.071614
 1349 Fit       0.081757
 1350 Fit       0.088956
 1351 Fit       0.093312
 1352 Fit       0.085753
 1353 Fit       0.076930
 1354 Fit       0.074436
 1355 Fit       0.079327
 1356 Fit       0.087160
 1357 Fit       0.077636
 1358 Fit       0.071931
 1359 Fit       0.070057
 1360 Fit       0.071939
 1361 Fit       0.077651
 1362 Fit       0.086694
 1363 Fit       0.085093
 1364 Fit       0.086939
 1365 Fit       0.077162
 1366 Fit       0.078640
 1367 Fit       0.073342
 1368 Fit       0.072234
 1369 Fit       0.074149
 1370 Fit       0.079145
 1371 Fit       0.071524
 1372 Fit       0.069940
 1373 Fit       0.070783
 1374 Fit       0.073716
 1375 Fit       0.078986
 1376 Fit       0.069570
 1377 Fit       0.070096
 1378 Fit       0.072864
 1379 Fit       0.078020
 1380 Fit       0.072397
 1381 Fit       0.072203
 1382 Fit       0.075434
 1383 Fit       0.090941
 1384 Fit       0.078873
 1385 Fit       0.073963
 1386 Fit       0.072255
 1387 Fit       0.074015
 1388 Fit       0.079662
 1389 Fit       0.086389
 1390 Fit       0.094936
 1391 Fit       0.090449
 1392 Fit       0.081349
 1393 Fit       0.076143
 1394 Fit       0.077714
 1395 Fit       0.082768
 1396 Fit       0.093558
 1397 Fit       0.085610
 1398 Fit       0.078233
 1399 Fit       0.073137
 1400 Fit       0.071301
 1401 Fit       0.072697
 1402 Fit       0.076990
 1403 Fit       0.088367
 1404 Fit       0.085568
 1405 Fit       0.078489
 1406 Fit       0.074026
 1407 Fit       0.075145
 1408 Fit       0.081554
 1409 Fit       0.079075
 1410 Fit       0.088660
 1411 Fit       0.080428
 1412 Fit       0.084295
 1413 Fit       0.077019
 1414 Fit       0.073996
 1415 Fit       0.082975
 1416 Fit       0.075807
 1417 Fit       0.072010
 1418 Fit       0.070898
 1419 Fit       0.080773
 1420 Fit       0.074140
 1421 Fit       0.070682
 1422 Fit       0.069897
 1423 Fit       0.078370
 1424 Fit       0.072596
 1425 Fit       0.070607
 1426 Fit       0.099256
 1427 Fit       0.102668
 1428 Fit       0.113343
 1429 Fit       0.109889
 1430 Fit       0.098508
 1431 Fit       0.091840
 1432 Fit       0.092921
 1433 Fit       0.108368
 1434 Fit       0.126716
 1435 Fit       0.088256
 1436 Fit       0.089250
 1437 Fit       0.095110
 1438 Fit       0.088322
 1439 Fit       0.080426
 1440 Fit       0.077410
 1441 Fit       0.083541
 1442 Fit       0.094526
 1443 Fit       0.094805
 1444 Fit       0.090042
 1445 Fit       0.091143
 1446 Fit       0.086621
 1447 Fit       0.088760
 1448 Fit       0.087663
 1449 Fit       0.091699
 1450 Fit       0.105007
 1451 Fit       0.096524
 1452 Fit       0.097054
 1453 Fit       0.106280
 1454 Fit       0.095021
 1455 Fit       0.091221
 1456 Fit       0.091152
 1457 Fit       0.113871
 1458 Fit       0.106922
 1459 Fit       0.089494
 1460 Fit       0.091577
 1461 Fit       0.093521
 1462 Fit       0.098750
 1463 Fit       0.094387
 1464 Fit       0.083029
 1465 Fit       0.088487
 1466 Fit       0.081400
 1467 Fit       0.080696
 1468 Fit       0.085737
 1469 Fit       0.078707
 1470 Fit       0.080498
 1471 Fit       0.085930
 1472 Fit       0.095426
 1473 Fit       0.079123
 1474 Fit       0.078372
 1475 Fit       0.082047
 1476 Fit       0.088686
 1477 Fit       0.095310
 1478 Fit       0.080453
 1479 Fit       0.085620
 1480 Fit       0.079312
 1481 Fit       0.079558
 1482 Fit       0.074885
 1483 Fit       0.076596
 1484 Fit       0.072535
 1485 Fit       0.074799
 1486 Fit       0.077549
 1487 Fit       0.072770
 1488 Fit       0.075607
 1489 Fit       0.073859
 1490 Fit       0.077575
 1491 Fit       0.091634
 1492 Fit       0.087004
 1493 Fit       0.096912
 1494 Fit       0.098020
 1495 Fit       0.088362
 1496 Fit       0.084272
 1497 Fit       0.084150
 1498 Fit       0.092015
 1499 Fit       0.088437
 1500 Fit       0.082796
 1501 Fit       0.080473
 1502 Fit       0.080814
 1503 Fit       0.083539
 1504 Fit       0.090235
 1505 Fit       0.080253
 1506 Fit       0.079393
 1507 Fit       0.080334
 1508 Fit       0.096578
 1509 Fit       0.091880
 1510 Fit       0.093666
 1511 Fit       0.100689
 1512 Fit       0.105815
 1513 Fit       0.101632
 1514 Fit       0.095671
 1515 Fit       0.090187
 1516 Fit       0.090251
 1517 Fit       0.093922
 1518 Fit       0.101290
 1519 Fit       0.093926
 1520 Fit       0.091271
 1521 Fit       0.090899
 1522 Fit       0.093735
 1523 Fit       0.095546
 1524 Fit       0.116403
 1525 Fit       0.110591
 1526 Fit       0.123883
 1527 Fit       0.104901
 1528 Fit       0.112306
 1529 Fit       0.126524
 1530 Fit       0.106132
 1531 Fit       0.114117
 1532 Fit       0.116559
 1533 Fit       0.091445
 1534 Fit       0.089731
 1535 Fit       0.091606
 1536 Fit       0.090275
 1537 Fit       0.088366
 1538 Fit       0.089860
 1539 Fit       0.094796
 1540 Fit       0.091370
 1541 Fit       0.089735
 1542 Fit       0.092575
 1543 Fit       0.100442
 1544 Fit       0.094303
 1545 Fit       0.094919
 1546 Fit       0.104298
 1547 Fit       0.100633
 1548 Fit       0.088532
 1549 Fit       0.091144
 1550 Fit       0.082952
 1551 Fit       0.083872
 1552 Fit       0.087927
 1553 Fit       0.095648
 1554 Fit       0.080364
 1555 Fit       0.080869
 1556 Fit       0.084001
 1557 Fit       0.090002
 1558 Fit       0.079836
 1559 Fit       0.080466
 1560 Fit       0.084239
 1561 Fit       0.090974
 1562 Fit       0.081807
 1563 Fit       0.086070
 1564 Fit       0.084152
 1565 Fit       0.077957
 1566 Fit       0.078206
 1567 Fit       0.078030
 1568 Fit       0.078625
 1569 Fit       0.074357
 1570 Fit       0.075148
 1571 Fit       0.075148
 1572 Fit       0.071333
 1573 Fit       0.111839
 1574 Fit       0.098921
 1575 Fit       0.091272
 1576 Fit       0.088244
 1577 Fit       0.089704
 1578 Fit       0.109731
 1579 Fit       0.097353
 1580 Fit       0.089414
 1581 Fit       0.085049
 1582 Fit       0.083591
 1583 Fit       0.085173
 1584 Fit       0.093422
 1585 Fit       0.086653
 1586 Fit       0.083016
 1587 Fit       0.082144
 1588 Fit       0.097602
 1589 Fit       0.102152
 1590 Fit       0.095584
 1591 Fit       0.092970
 1592 Fit       0.110434
 1593 Fit       0.101715
 1594 Fit       0.095720
 1595 Fit       0.092505
 1596 Fit       0.092081
 1597 Fit       0.122199
 1598 Fit       0.109713
 1599 Fit       0.101941
 1600 Fit       0.097619
 1601 Fit       0.095072
 1602 Fit       0.094542
 1603 Fit       0.116322
 1604 Fit       0.106373
 1605 Fit       0.113166
 1606 Fit       0.106968
 1607 Fit       0.112334
 1608 Fit       0.127149
 1609 Fit       0.109853
 1610 Fit       0.116189
 1611 Fit       0.123841
 1612 Fit       0.129282
 1613 Fit       0.094149
 1614 Fit       0.091883
 1615 Fit       0.090450
 1616 Fit       0.092753
 1617 Fit       0.099159
 1618 Fit       0.093102
 1619 Fit       0.090815
 1620 Fit       0.091406
 1621 Fit       0.095041
 1622 Fit       0.094931
 1623 Fit       0.094541
 1624 Fit       0.098195
 1625 Fit       0.129292
 1626 Fit       0.127891
 1627 Fit       0.128058
 1628 Fit       0.132949
 1629 Fit       0.134582
 1630 Fit       0.128022
 1631 Fit       0.130738
 1632 Fit       0.132175
 1633 Fit       0.135448
 1634 Fit       0.123268
 1635 Fit       0.122808
 1636 Fit       0.118756
 1637 Fit       0.114271
 1638 Fit       0.111146
 1639 Fit       0.116017
 1640 Fit       0.110885
 1641 Fit       0.105452
 1642 Fit       0.117209
 1643 Fit       0.110918
 1644 Fit       0.118488
 1645 Fit       0.133798
 1646 Fit       0.126741
 1647 Fit       0.136894
 1648 Fit       0.118691
 1649 Fit       0.108931
 1650 Fit       0.105737
 1651 Fit       0.109170
 1652 Fit       0.098454
 1653 Fit       0.100381
 -----------------------------------------------------------------
 Leave Link  602 at Sat Feb 17 21:06:50 2018, MaxMem=   33554432 cpu:       1.1

 Test job not archived.
 1\1\GINC-NODE093\SP\RHF\6-31G(d)\C14H28N3O2(1+)\WULSDORT\17-Feb-2018\0
 \\#HF/6-31G* Geom=AllCheck Guess=Read Pop=(MK,ReadRadii) Integral=(Gri
 d=UltraFine) iop(6/33=2)\\Optimization for frag41-conf2\\1,1\C,0,5.826
 4604972,-1.8991012796,-0.0958105024\C,0,3.6580232299,-4.7717297466,-2.
 9869703155\C,0,-0.8216919392,-1.8382987772,-2.3321979509\C,0,0.1507823
 167,-1.4512373865,-1.210486299\C,0,-0.5637071501,-3.2700406538,-2.8194
 763719\C,0,1.6145816186,-1.6616465407,-1.6327111449\C,0,0.9005842838,-
 3.4744312425,-3.2446856775\C,0,1.8673491237,-3.1151331076,-2.096482424
 6\C,0,7.2959601049,-0.5122803255,1.2456061975\C,0,8.2651235665,-1.8630
 330691,-0.5901187819\C,0,3.8923723479,-6.4213840764,-4.7465297321\C,0,
 3.484228729,-4.0773898961,-5.3919972915\C,0,5.6080594636,-2.9079676463
 ,-1.2544893381\C,0,3.3618998475,-3.3412634182,-2.4580916966\N,0,7.0714
 15993,-1.4627031697,0.1508545108\N,0,3.6777816357,-5.0368653412,-4.307
 1931375\N,0,4.1650755452,-3.2948615964,-1.1787328713\O,0,4.8194913402,
 -1.5488316484,0.5328066691\O,0,3.865540405,-5.6263976807,-2.1122806012
 \H,0,-1.8562119392,-1.7385408409,-1.9853672677\H,0,-0.7053518476,-1.13
 95456651,-3.1731307261\H,0,0.0056086526,-0.4053440232,-0.9179331079\H,
 0,-0.0567323071,-2.0565516056,-0.3168567202\H,0,-0.8068070621,-3.98203
 34901,-2.0182334133\H,0,-1.2211181671,-3.513620723,-3.661663498\H,0,1.
 8543190207,-0.9838837885,-2.4660218136\H,0,2.2729705895,-1.3730081675,
 -0.8022595872\H,0,1.0497583041,-4.5127819848,-3.5618007642\H,0,1.11297
 42591,-2.8347726231,-4.1132356909\H,0,1.6464581284,-3.8001121726,-1.26
 27102322\H,0,7.9977877563,-0.9429973191,1.9674892784\H,0,6.3471505101,
 -0.3027997665,1.7354703512\H,0,7.7198439678,0.4159845684,0.8481128625\
 H,0,8.761958996,-0.9752939425,-0.9963805893\H,0,8.0236382513,-2.527448
 918,-1.4196765118\H,0,8.9665335102,-2.3785280485,0.075519862\H,0,3.031
 6124311,-6.7589261106,-5.3336515672\H,0,4.0148847218,-7.0585617264,-3.
 8734208844\H,0,4.7889616257,-6.4736745702,-5.3735339055\H,0,4.33792070
 72,-4.1281696126,-6.0767659097\H,0,3.3953144068,-3.0572029553,-5.02392
 16194\H,0,2.5758645433,-4.3200328025,-5.9541516689\H,0,5.8063508741,-2
 .4437515117,-2.2238970532\H,0,6.2198529751,-3.8070842415,-1.1648591048
 \H,0,3.7296860524,-2.5416601143,-3.1032898455\H,0,4.0863991497,-4.2768
 116924,-0.8406317868\H,0,3.7738618976,-2.6356773433,-0.4684265155\\Ver
 sion=AM64L-G09RevC.01\State=1-A\HF=-859.3522141\RMSD=6.889e-09\Dipole=
 2.1647959,0.3405876,-1.0736669\Quadrupole=15.8641262,-13.9195991,-1.94
 45272,6.4786473,10.4856137,9.1041778\PG=C01 [X(C14H28N3O2)]\\@


 The impersonal hand of government can
 never replace the helping hand of a neighbor.
                        -- Hubert H. Humphrey
 Job cpu time:  0 days  0 hours  6 minutes 33.4 seconds.
 File lengths (MBytes):  RWF=     64 Int=      0 D2E=      0 Chk=     10 Scr=      1
 Normal termination of Gaussian 09 at Sat Feb 17 21:06:50 2018.
