 Entering Gaussian System, Link 0=g09
 Initial command:
 /home/fb_chem/chemsoft/lx24-amd64/Gaussian_09_C.01_NBO_3.1_64_istanbul-64/g09/l1.exe /local/2659154.1.parallel_long/Gau-7950.inp -scrdir=/local/2659154.1.parallel_long/
 Entering Link 1 = /home/fb_chem/chemsoft/lx24-amd64/Gaussian_09_C.01_NBO_3.1_64_istanbul-64/g09/l1.exe PID=      7951.
  
 Copyright (c) 1988,1990,1992,1993,1995,1998,2003,2009,2011,
            Gaussian, Inc.  All Rights Reserved.
  
 This is part of the Gaussian(R) 09 program.  It is based on
 the Gaussian(R) 03 system (copyright 2003, Gaussian, Inc.),
 the Gaussian(R) 98 system (copyright 1998, Gaussian, Inc.),
 the Gaussian(R) 94 system (copyright 1995, Gaussian, Inc.),
 the Gaussian 92(TM) system (copyright 1992, Gaussian, Inc.),
 the Gaussian 90(TM) system (copyright 1990, Gaussian, Inc.),
 the Gaussian 88(TM) system (copyright 1988, Gaussian, Inc.),
 the Gaussian 86(TM) system (copyright 1986, Carnegie Mellon
 University), and the Gaussian 82(TM) system (copyright 1983,
 Carnegie Mellon University). Gaussian is a federally registered
 trademark of Gaussian, Inc.
  
 This software contains proprietary and confidential information,
 including trade secrets, belonging to Gaussian, Inc.
  
 This software is provided under written license and may be
 used, copied, transmitted, or stored only in accord with that
 written license.
  
 The following legend is applicable only to US Government
 contracts under FAR:
  
                    RESTRICTED RIGHTS LEGEND
  
 Use, reproduction and disclosure by the US Government is
 subject to restrictions as set forth in subparagraphs (a)
 and (c) of the Commercial Computer Software - Restricted
 Rights clause in FAR 52.227-19.
  
 Gaussian, Inc.
 340 Quinnipiac St., Bldg. 40, Wallingford CT 06492
  
  
 ---------------------------------------------------------------
 Warning -- This program may not be used in any manner that
 competes with the business of Gaussian, Inc. or will provide
 assistance to any competitor of Gaussian, Inc.  The licensee
 of this program is prohibited from giving any competitor of
 Gaussian, Inc. access to this program.  By using this program,
 the user acknowledges that Gaussian, Inc. is engaged in the
 business of creating and licensing software in the field of
 computational chemistry and represents and warrants to the
 licensee that it is not a competitor of Gaussian, Inc. and that
 it will not use this program in any manner prohibited above.
 ---------------------------------------------------------------
  

 Cite this work as:
 Gaussian 09, Revision C.01,
 M. J. Frisch, G. W. Trucks, H. B. Schlegel, G. E. Scuseria, 
 M. A. Robb, J. R. Cheeseman, G. Scalmani, V. Barone, B. Mennucci, 
 G. A. Petersson, H. Nakatsuji, M. Caricato, X. Li, H. P. Hratchian, 
 A. F. Izmaylov, J. Bloino, G. Zheng, J. L. Sonnenberg, M. Hada, 
 M. Ehara, K. Toyota, R. Fukuda, J. Hasegawa, M. Ishida, T. Nakajima, 
 Y. Honda, O. Kitao, H. Nakai, T. Vreven, J. A. Montgomery, Jr., 
 J. E. Peralta, F. Ogliaro, M. Bearpark, J. J. Heyd, E. Brothers, 
 K. N. Kudin, V. N. Staroverov, T. Keith, R. Kobayashi, J. Normand, 
 K. Raghavachari, A. Rendell, J. C. Burant, S. S. Iyengar, J. Tomasi, 
 M. Cossi, N. Rega, J. M. Millam, M. Klene, J. E. Knox, J. B. Cross, 
 V. Bakken, C. Adamo, J. Jaramillo, R. Gomperts, R. E. Stratmann, 
 O. Yazyev, A. J. Austin, R. Cammi, C. Pomelli, J. W. Ochterski, 
 R. L. Martin, K. Morokuma, V. G. Zakrzewski, G. A. Voth, 
 P. Salvador, J. J. Dannenberg, S. Dapprich, A. D. Daniels, 
 O. Farkas, J. B. Foresman, J. V. Ortiz, J. Cioslowski, 
 and D. J. Fox, Gaussian, Inc., Wallingford CT, 2010.
 
 ******************************************
 Gaussian 09:  AM64L-G09RevC.01 23-Sep-2011
                24-Aug-2018 
 ******************************************
 %nprocs=2
 Will use up to    2 processors via shared memory.
 %chk=frag48-conf1.chk
 ----------------------------------------------------------------------
 #HF/6-31G* Geom=AllCheck Guess=Read Pop=(MK,ReadRadii) Integral=(Grid=
 UltraFine) iop(6/33=2)
 ----------------------------------------------------------------------
 1/29=7,38=1/1;
 2/12=2,40=1/2;
 3/5=1,6=6,7=1,11=9,14=-4,16=1,25=1,30=1,75=-5,116=-2/1,2,3;
 4/5=1/1;
 5/5=2,38=6/2;
 6/7=2,8=2,9=2,10=2,15=8,20=101,28=1,33=2/1,2;
 99/5=1,9=1/99;
 Structure from the checkpoint file:  frag48-conf1.chk
 -----------------------------
 Optimization for frag48-conf1
 -----------------------------
 Charge =  0 Multiplicity = 1
 Redundant internal coordinates found in file.
 C,0,2.8836189354,-2.7595926552,-0.7029553432
 N,0,2.5186685214,-2.1527307882,-1.9912644412
 C,0,1.1960795659,-2.5708619183,-2.4877884359
 S,0,2.7664109506,-0.4781500986,-2.0545015705
 O,0,2.2550553419,-0.040186467,-3.3489657058
 O,0,2.3628634361,0.1921729767,-0.8150999536
 N,0,4.4635573087,-0.430414191,-1.9884513891
 C,0,5.2815113532,-0.5246511003,-3.1476232329
 C,0,6.3219639227,0.3945838628,-3.3258277637
 C,0,7.1839158041,0.2860034807,-4.4151538417
 C,0,6.9866703076,-0.7349085025,-5.3423067861
 Cl,0,8.0616231895,-0.8709005409,-6.72755819
 C,0,5.9472668611,-1.6506500388,-5.1827461121
 C,0,5.1026120544,-1.5535712463,-4.0800601961
 H,0,2.8773381753,-3.8454341742,-0.8352994603
 H,0,2.1865459262,-2.4875383742,0.1009949914
 H,0,3.8931109061,-2.4485984108,-0.4287926004
 H,0,1.2243351459,-3.6567972525,-2.6161351416
 H,0,1.0061679424,-2.1029367481,-3.453229303
 H,0,0.3838362989,-2.3180119529,-1.7910286308
 H,0,4.7202422376,0.3158234812,-1.3480318492
 H,0,6.4624346229,1.2017416399,-2.6108729038
 H,0,7.9925901041,0.9965666971,-4.5475493082
 H,0,5.8058317313,-2.4431308939,-5.909785557
 H,0,4.3073204815,-2.2760346048,-3.9373391417
 Recover connectivity data from disk.
                          Input orientation:                          
 ---------------------------------------------------------------------
 Center     Atomic      Atomic             Coordinates (Angstroms)
 Number     Number       Type             X           Y           Z
 ---------------------------------------------------------------------
      1          6           0        2.883619   -2.759593   -0.702955
      2          7           0        2.518669   -2.152731   -1.991264
      3          6           0        1.196080   -2.570862   -2.487788
      4         16           0        2.766411   -0.478150   -2.054502
      5          8           0        2.255055   -0.040186   -3.348966
      6          8           0        2.362863    0.192173   -0.815100
      7          7           0        4.463557   -0.430414   -1.988451
      8          6           0        5.281511   -0.524651   -3.147623
      9          6           0        6.321964    0.394584   -3.325828
     10          6           0        7.183916    0.286003   -4.415154
     11          6           0        6.986670   -0.734909   -5.342307
     12         17           0        8.061623   -0.870901   -6.727558
     13          6           0        5.947267   -1.650650   -5.182746
     14          6           0        5.102612   -1.553571   -4.080060
     15          1           0        2.877338   -3.845434   -0.835299
     16          1           0        2.186546   -2.487538    0.100995
     17          1           0        3.893111   -2.448598   -0.428793
     18          1           0        1.224335   -3.656797   -2.616135
     19          1           0        1.006168   -2.102937   -3.453229
     20          1           0        0.383836   -2.318012   -1.791029
     21          1           0        4.720242    0.315823   -1.348032
     22          1           0        6.462435    1.201742   -2.610873
     23          1           0        7.992590    0.996567   -4.547549
     24          1           0        5.805832   -2.443131   -5.909786
     25          1           0        4.307320   -2.276035   -3.937339
 ---------------------------------------------------------------------
                    Distance matrix (angstroms):
                    1          2          3          4          5
     1  C    0.000000
     2  N    1.470106   0.000000
     3  C    2.463542   1.473299   0.000000
     4  S    2.654316   1.693988   2.652003   0.000000
     5  O    3.845989   2.525013   2.875304   1.459087   0.000000
     6  O    2.999447   2.627967   3.434186   1.465708   2.546780
     7  N    3.094152   2.597879   3.937926   1.699102   2.623120
     8  C    4.089163   3.408975   4.616613   2.742774   3.071593
     9  C    5.352617   4.768116   5.980875   3.875551   4.090147
    10  C    6.445822   5.795446   6.908734   5.066652   5.053397
    11  C    6.515977   5.762182   6.711925   5.355948   5.181142
    12  Cl   8.165459   7.402696   8.246284   7.073258   6.769136
    13  C    5.539334   4.710937   5.539257   4.612864   4.425920
    14  C    4.217020   3.376214   4.339494   3.273722   3.306571
    15  H    1.093895   2.080900   2.679904   3.582926   4.602789
    16  H    1.098299   2.144750   2.773043   3.003340   4.230420
    17  H    1.091310   2.101891   3.395348   2.791961   4.124450
    18  H    2.686718   2.080379   1.093859   3.577321   3.831357
    19  H    3.394116   2.104157   1.089540   2.773955   2.413613
    20  H    2.761849   2.150563   1.099612   3.021783   3.334234
    21  H    3.639711   3.369634   4.695926   2.224174   3.194938
    22  H    5.669236   5.214373   6.479366   4.097826   4.448506
    23  H    7.415607   6.812964   7.947435   5.975201   5.952375
    24  H    5.979177   5.122947   5.742490   5.287953   4.993992
    25  H    3.566790   2.646070   3.444988   3.025205   3.091439
                    6          7          8          9         10
     6  O    0.000000
     7  N    2.485414   0.000000
     8  C    3.804341   1.421833   0.000000
     9  C    4.692462   2.433695   1.399747   0.000000
    10  C    6.017619   3.715170   2.425477   1.393335   0.000000
    11  C    6.537176   4.207988   2.787187   2.404948   1.393119
    12  Cl   8.280287   5.966510   4.545860   4.024877   2.730570
    13  C    5.943087   3.727451   2.419262   2.787746   2.422628
    14  C    4.605845   2.458597   1.400043   2.418883   2.797883
    15  H    4.070303   3.938047   4.706856   6.003826   6.959220
    16  H    2.837458   3.712456   4.897475   6.095197   7.284356
    17  H    3.076453   2.613621   3.608500   4.730309   5.847950
    18  H    4.399380   4.614769   5.153009   6.550051   7.368768
    19  H    3.750717   4.110529   4.567597   5.874651   6.693049
    20  H    3.342157   4.499569   5.389222   6.706351   7.740027
    21  H    2.420029   1.016314   2.063965   2.546251   3.934185
    22  H    4.588084   2.654591   2.159424   1.087380   2.148148
    23  H    6.802356   4.586865   3.409376   2.155453   1.084612
    24  H    6.689894   4.607558   3.403677   3.872448   3.403118
    25  H    4.429598   2.688659   2.154076   3.400726   3.881642
                   11         12         13         14         15
    11  C    0.000000
    12  Cl   1.758675   0.000000
    13  C    1.394418   2.732207   0.000000
    14  C    2.411048   4.028775   1.392402   0.000000
    15  H    6.846539   8.393055   5.756894   4.553345   0.000000
    16  H    7.466086   9.152005   6.539214   5.182370   1.788218
    17  H    6.053880   7.716221   5.239881   3.949142   1.774315
    18  H    7.012414   8.450653   5.737439   4.648405   2.437084
    19  H    6.419231   7.875188   5.254546   4.180380   3.659390
    20  H    7.662585   9.241854   6.549876   5.300083   3.076360
    21  H    4.711153   6.443015   4.480808   3.332390   4.579875
    22  H    3.389125   4.878560   3.875057   3.405786   6.440463
    23  H    2.154419   2.871348   3.405081   3.882489   7.961883
    24  H    2.152774   2.868668   1.084719   2.152610   6.024362
    25  H    3.395279   4.884108   2.152108   1.083887   3.759058
                   16         17         18         19         20
    16  H    0.000000
    17  H    1.787332   0.000000
    18  H    3.110597   3.656033   0.000000
    19  H    3.764800   4.195371   1.778428   0.000000
    20  H    2.618827   3.766663   1.783139   1.787866   0.000000
    21  H    4.046991   3.028395   5.441614   4.906792   5.092912
    22  H    6.264841   4.968690   7.144446   6.434385   7.071787
    23  H    8.213288   6.755668   8.437620   7.721046   8.745169
    24  H    7.016458   5.805154   5.771588   5.402515   6.810128
    25  H    4.566241   3.537124   3.627242   3.340948   4.472375
                   21         22         23         24         25
    21  H    0.000000
    22  H    2.326984   0.000000
    23  H    4.626941   2.476729   0.000000
    24  H    5.440582   4.959743   4.297571   0.000000
    25  H    3.686834   4.301041   4.966235   2.482741   0.000000
 Stoichiometry    C8H11ClN2O2S
 Framework group  C1[X(C8H11ClN2O2S)]
 Deg. of freedom    69
 Full point group                 C1      NOp   1
 Largest Abelian subgroup         C1      NOp   1
 Largest concise Abelian subgroup C1      NOp   1
                         Standard orientation:                         
 ---------------------------------------------------------------------
 Center     Atomic      Atomic             Coordinates (Angstroms)
 Number     Number       Type             X           Y           Z
 ---------------------------------------------------------------------
      1          6           0       -3.111329    0.746008   -1.680803
      2          7           0       -2.533551    0.930512   -0.341646
      3          6           0       -3.296950    1.860925    0.508156
      4         16           0       -2.129527   -0.519208    0.435961
      5          8           0       -1.679136   -0.150937    1.774041
      6          8           0       -3.143234   -1.559166    0.238008
      7          7           0       -0.845925   -1.033384   -0.551428
      8          6           0        0.499472   -0.625725   -0.338523
      9          6           0        1.513554   -1.590571   -0.338657
     10          6           0        2.848362   -1.214912   -0.202458
     11          6           0        3.165166    0.132146   -0.041676
     12         17           0        4.846351    0.613618    0.144720
     13          6           0        2.163825    1.102478   -0.028562
     14          6           0        0.832997    0.725778   -0.189113
     15          1           0       -3.145747    1.726740   -2.164112
     16          1           0       -4.124099    0.322543   -1.645671
     17          1           0       -2.464466    0.091710   -2.267675
     18          1           0       -3.307003    2.830854    0.002523
     19          1           0       -2.797631    1.966265    1.470799
     20          1           0       -4.334756    1.533823    0.666618
     21          1           0       -0.966882   -2.029966   -0.709821
     22          1           0        1.262259   -2.643104   -0.445533
     23          1           0        3.632348   -1.964386   -0.208458
     24          1           0        2.423375    2.148509    0.094189
     25          1           0        0.051788    1.476987   -0.203523
 ---------------------------------------------------------------------
 Rotational constants (GHZ):      1.3683978      0.2475908      0.2329428
 Standard basis: 6-31G(d) (6D, 7F)
 There are   240 symmetry adapted basis functions of A   symmetry.
 Integral buffers will be    131072 words long.
 Raffenetti 1 integral format.
 Two-electron integral symmetry is turned on.
   240 basis functions,   484 primitive gaussians,   240 cartesian basis functions
    61 alpha electrons       61 beta electrons
       nuclear repulsion energy      1149.9603552230 Hartrees.
 NAtoms=   25 NActive=   25 NUniq=   25 SFac= 1.00D+00 NAtFMM=   60 NAOKFM=F Big=F
 One-electron integrals computed using PRISM.
 NBasis=   240 RedAO= T  NBF=   240
 NBsUse=   240 1.00D-06 NBFU=   240
 Initial guess read from the checkpoint file:  frag48-conf1.chk
 B after Tr=     0.000000    0.000000    0.000000
         Rot=    1.000000    0.000000    0.000000    0.000000 Ang=   0.00 deg.
 Initial guess orbital symmetries:
       Occupied  (A) (A) (A) (A) (A) (A) (A) (A) (A) (A) (A) (A)
                 (A) (A) (A) (A) (A) (A) (A) (A) (A) (A) (A) (A)
                 (A) (A) (A) (A) (A) (A) (A) (A) (A) (A) (A) (A)
                 (A) (A) (A) (A) (A) (A) (A) (A) (A) (A) (A) (A)
                 (A) (A) (A) (A) (A) (A) (A) (A) (A) (A) (A) (A)
                 (A)
       Virtual   (A) (A) (A) (A) (A) (A) (A) (A) (A) (A) (A) (A)
                 (A) (A) (A) (A) (A) (A) (A) (A) (A) (A) (A) (A)
                 (A) (A) (A) (A) (A) (A) (A) (A) (A) (A) (A) (A)
                 (A) (A) (A) (A) (A) (A) (A) (A) (A) (A) (A) (A)
                 (A) (A) (A) (A) (A) (A) (A) (A) (A) (A) (A) (A)
                 (A) (A) (A) (A) (A) (A) (A) (A) (A) (A) (A) (A)
                 (A) (A) (A) (A) (A) (A) (A) (A) (A) (A) (A) (A)
                 (A) (A) (A) (A) (A) (A) (A) (A) (A) (A) (A) (A)
                 (A) (A) (A) (A) (A) (A) (A) (A) (A) (A) (A) (A)
                 (A) (A) (A) (A) (A) (A) (A) (A) (A) (A) (A) (A)
                 (A) (A) (A) (A) (A) (A) (A) (A) (A) (A) (A) (A)
                 (A) (A) (A) (A) (A) (A) (A) (A) (A) (A) (A) (A)
                 (A) (A) (A) (A) (A) (A) (A) (A) (A) (A) (A) (A)
                 (A) (A) (A) (A) (A) (A) (A) (A) (A) (A) (A) (A)
                 (A) (A) (A) (A) (A) (A) (A) (A) (A) (A) (A)
 Requested convergence on RMS density matrix=1.00D-08 within 128 cycles.
 Requested convergence on MAX density matrix=1.00D-06.
 Requested convergence on             energy=1.00D-06.
 No special actions if energy rises.
 SCF Done:  E(RHF) =  -1424.86790438     A.U. after   14 cycles
             Convg  =    0.5703D-08             -V/T =  2.0017

 **********************************************************************

            Population analysis using the SCF density.

 **********************************************************************

 Orbital symmetries:
 BldTbl:  Degeneracy threshold= 1.00D-02
       Occupied  (A) (A) (A) (A) (A) (A) (A) (A) (A) (A) (A) (A)
                 (A) (A) (A) (A) (A) (A) (A) (A) (A) (A) (A) (A)
                 (A) (A) (A) (A) (A) (A) (A) (A) (A) (A) (A) (A)
                 (A) (A) (A) (A) (A) (A) (A) (A) (A) (A) (A) (A)
                 (A) (A) (A) (A) (A) (A) (A) (A) (A) (A) (A) (A)
                 (A)
       Virtual   (A) (A) (A) (A) (A) (A) (A) (A) (A) (A) (A) (A)
                 (A) (A) (A) (A) (A) (A) (A) (A) (A) (A) (A) (A)
                 (A) (A) (A) (A) (A) (A) (A) (A) (A) (A) (A) (A)
                 (A) (A) (A) (A) (A) (A) (A) (A) (A) (A) (A) (A)
                 (A) (A) (A) (A) (A) (A) (A) (A) (A) (A) (A) (A)
                 (A) (A) (A) (A) (A) (A) (A) (A) (A) (A) (A) (A)
                 (A) (A) (A) (A) (A) (A) (A) (A) (A) (A) (A) (A)
                 (A) (A) (A) (A) (A) (A) (A) (A) (A) (A) (A) (A)
                 (A) (A) (A) (A) (A) (A) (A) (A) (A) (A) (A) (A)
                 (A) (A) (A) (A) (A) (A) (A) (A) (A) (A) (A) (A)
                 (A) (A) (A) (A) (A) (A) (A) (A) (A) (A) (A) (A)
                 (A) (A) (A) (A) (A) (A) (A) (A) (A) (A) (A) (A)
                 (A) (A) (A) (A) (A) (A) (A) (A) (A) (A) (A) (A)
                 (A) (A) (A) (A) (A) (A) (A) (A) (A) (A) (A) (A)
                 (A) (A) (A) (A) (A) (A) (A) (A) (A) (A) (A)
 The electronic state is 1-A.
 Alpha  occ. eigenvalues -- -104.82881 -92.24315 -20.57264 -20.57210 -15.63031
 Alpha  occ. eigenvalues --  -15.62290 -11.30924 -11.30854 -11.27860 -11.27831
 Alpha  occ. eigenvalues --  -11.26465 -11.26285 -11.26155 -11.25557 -10.56178
 Alpha  occ. eigenvalues --   -9.21040  -8.03116  -8.02786  -8.02780  -6.89648
 Alpha  occ. eigenvalues --   -6.89614  -6.89588  -1.47722  -1.35190  -1.27043
 Alpha  occ. eigenvalues --   -1.25278  -1.18559  -1.11258  -1.04111  -1.00244
 Alpha  occ. eigenvalues --   -0.98558  -0.94931  -0.86464  -0.84416  -0.80415
 Alpha  occ. eigenvalues --   -0.74255  -0.73018  -0.71146  -0.67160  -0.66737
 Alpha  occ. eigenvalues --   -0.65184  -0.64413  -0.62724  -0.61613  -0.60944
 Alpha  occ. eigenvalues --   -0.58959  -0.57671  -0.56312  -0.54690  -0.54333
 Alpha  occ. eigenvalues --   -0.53049  -0.51886  -0.51221  -0.49985  -0.49378
 Alpha  occ. eigenvalues --   -0.47741  -0.45573  -0.44762  -0.41433  -0.35856
 Alpha  occ. eigenvalues --   -0.32336
 Alpha virt. eigenvalues --    0.11857   0.12154   0.18542   0.20807   0.21077
 Alpha virt. eigenvalues --    0.24634   0.25106   0.26467   0.27101   0.27913
 Alpha virt. eigenvalues --    0.28539   0.29395   0.30033   0.31429   0.31888
 Alpha virt. eigenvalues --    0.32956   0.33654   0.34825   0.35570   0.36986
 Alpha virt. eigenvalues --    0.38785   0.40965   0.44733   0.46087   0.48252
 Alpha virt. eigenvalues --    0.50109   0.52851   0.55092   0.59544   0.60143
 Alpha virt. eigenvalues --    0.61388   0.62022   0.63602   0.66229   0.67674
 Alpha virt. eigenvalues --    0.70212   0.70911   0.72172   0.73775   0.76011
 Alpha virt. eigenvalues --    0.78609   0.79347   0.80166   0.80485   0.81631
 Alpha virt. eigenvalues --    0.82158   0.82595   0.85066   0.87181   0.87923
 Alpha virt. eigenvalues --    0.89895   0.91577   0.92955   0.96598   0.98116
 Alpha virt. eigenvalues --    0.98808   0.99715   1.01412   1.01817   1.05694
 Alpha virt. eigenvalues --    1.06580   1.07194   1.09111   1.09868   1.10628
 Alpha virt. eigenvalues --    1.10881   1.12597   1.13143   1.13683   1.14590
 Alpha virt. eigenvalues --    1.15201   1.15900   1.18347   1.18609   1.18789
 Alpha virt. eigenvalues --    1.19197   1.22247   1.22729   1.23697   1.24166
 Alpha virt. eigenvalues --    1.25571   1.27557   1.29378   1.30989   1.33973
 Alpha virt. eigenvalues --    1.36119   1.37490   1.38622   1.39895   1.42142
 Alpha virt. eigenvalues --    1.43796   1.45383   1.47616   1.50491   1.51630
 Alpha virt. eigenvalues --    1.55043   1.59938   1.61242   1.63426   1.66135
 Alpha virt. eigenvalues --    1.67178   1.68165   1.69812   1.70586   1.71652
 Alpha virt. eigenvalues --    1.74749   1.76463   1.79294   1.82753   1.83372
 Alpha virt. eigenvalues --    1.94322   1.98117   2.04225   2.05461   2.06948
 Alpha virt. eigenvalues --    2.09366   2.11203   2.12352   2.13003   2.13599
 Alpha virt. eigenvalues --    2.15639   2.18273   2.19481   2.25209   2.26832
 Alpha virt. eigenvalues --    2.27966   2.29274   2.30261   2.31839   2.35865
 Alpha virt. eigenvalues --    2.37703   2.38850   2.39767   2.40536   2.43791
 Alpha virt. eigenvalues --    2.44531   2.45429   2.49600   2.50866   2.52790
 Alpha virt. eigenvalues --    2.54702   2.56779   2.60975   2.61249   2.63876
 Alpha virt. eigenvalues --    2.66745   2.70123   2.75575   2.77270   2.81037
 Alpha virt. eigenvalues --    2.82516   2.92027   2.92431   2.93950   2.97622
 Alpha virt. eigenvalues --    3.03753   3.06440   3.08998   3.09344   3.12512
 Alpha virt. eigenvalues --    3.16607   3.19172   3.24015   3.44018   3.74461
 Alpha virt. eigenvalues --    4.20376   4.35955   4.42434   4.45927   4.47185
 Alpha virt. eigenvalues --    4.51098   4.52258   4.57555   4.66558   4.70538
 Alpha virt. eigenvalues --    4.72953   4.75788   4.81373   5.09927
          Condensed to atoms (all electrons):
              1          2          3          4          5          6
     1  C    4.997784   0.209663  -0.052080  -0.022228   0.001181   0.004447
     2  N    0.209663   7.491593   0.222638   0.215404  -0.053150  -0.056714
     3  C   -0.052080   0.222638   5.001826  -0.030538  -0.002525  -0.000740
     4  S   -0.022228   0.215404  -0.030538  12.879861   0.497834   0.493364
     5  O    0.001181  -0.053150  -0.002525   0.497834   8.315090  -0.037411
     6  O    0.004447  -0.056714  -0.000740   0.493364  -0.037411   8.336596
     7  N   -0.004841  -0.053576   0.001529   0.197777  -0.055963  -0.058242
     8  C    0.000763  -0.003883  -0.000057   0.000573   0.007724   0.001322
     9  C   -0.000003   0.000033  -0.000001   0.000342   0.000170  -0.000049
    10  C    0.000000   0.000002   0.000000  -0.000060  -0.000009   0.000000
    11  C    0.000000  -0.000003   0.000000   0.000043   0.000003   0.000000
    12  Cl   0.000000   0.000000   0.000000   0.000000   0.000000   0.000000
    13  C   -0.000011   0.000295  -0.000005  -0.000434  -0.000185   0.000000
    14  C   -0.000033  -0.000347   0.000178  -0.006595  -0.000953  -0.000072
    15  H    0.394075  -0.037424  -0.004393   0.004234  -0.000040   0.000026
    16  H    0.397096  -0.047128  -0.000587  -0.008708  -0.000032   0.003727
    17  H    0.398334  -0.033824   0.003529  -0.004703   0.000001  -0.001235
    18  H   -0.003863  -0.040398   0.396455   0.002998   0.000135  -0.000090
    19  H    0.003353  -0.031459   0.397757  -0.005306   0.004940  -0.000078
    20  H   -0.000550  -0.049918   0.394294  -0.004134  -0.000242   0.001644
    21  H   -0.000181   0.001840  -0.000018  -0.013345   0.000155   0.004182
    22  H    0.000000   0.000000   0.000000   0.000002   0.000013  -0.000017
    23  H    0.000000   0.000000   0.000000  -0.000002   0.000000   0.000000
    24  H    0.000000   0.000001   0.000000  -0.000007   0.000000   0.000000
    25  H   -0.000268   0.004172  -0.000294   0.001081  -0.000302   0.000000
              7          8          9         10         11         12
     1  C   -0.004841   0.000763  -0.000003   0.000000   0.000000   0.000000
     2  N   -0.053576  -0.003883   0.000033   0.000002  -0.000003   0.000000
     3  C    0.001529  -0.000057  -0.000001   0.000000   0.000000   0.000000
     4  S    0.197777   0.000573   0.000342  -0.000060   0.000043   0.000000
     5  O   -0.055963   0.007724   0.000170  -0.000009   0.000003   0.000000
     6  O   -0.058242   0.001322  -0.000049   0.000000   0.000000   0.000000
     7  N    7.536285   0.179465  -0.051795   0.003593   0.000181   0.000002
     8  C    0.179465   4.558928   0.568626  -0.036317  -0.030800   0.000327
     9  C   -0.051795   0.568626   4.949230   0.533869  -0.045721   0.002505
    10  C    0.003593  -0.036317   0.533869   4.919231   0.533818  -0.063515
    11  C    0.000181  -0.030800  -0.045721   0.533818   5.043509   0.213899
    12  Cl   0.000002   0.000327   0.002505  -0.063515   0.213899  16.910979
    13  C    0.002839  -0.034794  -0.035163  -0.043732   0.524893  -0.063064
    14  C   -0.042643   0.563551  -0.040533  -0.033647  -0.042981   0.002299
    15  H   -0.000082  -0.000013   0.000000   0.000000   0.000000   0.000000
    16  H    0.000110  -0.000015   0.000000   0.000000   0.000000   0.000000
    17  H    0.005426  -0.000024  -0.000023   0.000000   0.000000   0.000000
    18  H   -0.000070   0.000008   0.000000   0.000000   0.000000   0.000000
    19  H    0.000048   0.000014   0.000000   0.000000   0.000000   0.000000
    20  H   -0.000066  -0.000002   0.000000   0.000000   0.000000   0.000000
    21  H    0.322922  -0.030958   0.001257   0.000188  -0.000002   0.000000
    22  H   -0.002149  -0.034743   0.376558  -0.022465   0.002337  -0.000086
    23  H   -0.000083   0.001610  -0.024096   0.379322  -0.027517   0.000413
    24  H   -0.000070   0.001471   0.000295   0.002055  -0.028188   0.000399
    25  H   -0.001877  -0.025709   0.002478   0.000085   0.002115  -0.000073
             13         14         15         16         17         18
     1  C   -0.000011  -0.000033   0.394075   0.397096   0.398334  -0.003863
     2  N    0.000295  -0.000347  -0.037424  -0.047128  -0.033824  -0.040398
     3  C   -0.000005   0.000178  -0.004393  -0.000587   0.003529   0.396455
     4  S   -0.000434  -0.006595   0.004234  -0.008708  -0.004703   0.002998
     5  O   -0.000185  -0.000953  -0.000040  -0.000032   0.000001   0.000135
     6  O    0.000000  -0.000072   0.000026   0.003727  -0.001235  -0.000090
     7  N    0.002839  -0.042643  -0.000082   0.000110   0.005426  -0.000070
     8  C   -0.034794   0.563551  -0.000013  -0.000015  -0.000024   0.000008
     9  C   -0.035163  -0.040533   0.000000   0.000000  -0.000023   0.000000
    10  C   -0.043732  -0.033647   0.000000   0.000000   0.000000   0.000000
    11  C    0.524893  -0.042981   0.000000   0.000000   0.000000   0.000000
    12  Cl  -0.063064   0.002299   0.000000   0.000000   0.000000   0.000000
    13  C    4.939064   0.527209  -0.000001   0.000000   0.000000  -0.000001
    14  C    0.527209   4.933520   0.000016   0.000005   0.000007   0.000036
    15  H   -0.000001   0.000016   0.503812  -0.031586  -0.021354   0.002897
    16  H    0.000000   0.000005  -0.031586   0.519650  -0.026502  -0.000877
    17  H    0.000000   0.000007  -0.021354  -0.026502   0.467071   0.000031
    18  H   -0.000001   0.000036   0.002897  -0.000877   0.000031   0.508139
    19  H   -0.000003   0.000034   0.000022  -0.000153  -0.000081  -0.019269
    20  H    0.000000  -0.000004  -0.000726   0.004919  -0.000173  -0.035085
    21  H   -0.000032   0.002361  -0.000003   0.000054  -0.000187   0.000001
    22  H    0.000107   0.002572   0.000000   0.000000   0.000000   0.000000
    23  H    0.002072   0.000224   0.000000   0.000000   0.000000   0.000000
    24  H    0.380603  -0.024450   0.000000   0.000000   0.000000   0.000000
    25  H   -0.024414   0.373472  -0.000111   0.000023  -0.000043  -0.000182
             19         20         21         22         23         24
     1  C    0.003353  -0.000550  -0.000181   0.000000   0.000000   0.000000
     2  N   -0.031459  -0.049918   0.001840   0.000000   0.000000   0.000001
     3  C    0.397757   0.394294  -0.000018   0.000000   0.000000   0.000000
     4  S   -0.005306  -0.004134  -0.013345   0.000002  -0.000002  -0.000007
     5  O    0.004940  -0.000242   0.000155   0.000013   0.000000   0.000000
     6  O   -0.000078   0.001644   0.004182  -0.000017   0.000000   0.000000
     7  N    0.000048  -0.000066   0.322922  -0.002149  -0.000083  -0.000070
     8  C    0.000014  -0.000002  -0.030958  -0.034743   0.001610   0.001471
     9  C    0.000000   0.000000   0.001257   0.376558  -0.024096   0.000295
    10  C    0.000000   0.000000   0.000188  -0.022465   0.379322   0.002055
    11  C    0.000000   0.000000  -0.000002   0.002337  -0.027517  -0.028188
    12  Cl   0.000000   0.000000   0.000000  -0.000086   0.000413   0.000399
    13  C   -0.000003   0.000000  -0.000032   0.000107   0.002072   0.380603
    14  C    0.000034  -0.000004   0.002361   0.002572   0.000224  -0.024450
    15  H    0.000022  -0.000726  -0.000003   0.000000   0.000000   0.000000
    16  H   -0.000153   0.004919   0.000054   0.000000   0.000000   0.000000
    17  H   -0.000081  -0.000173  -0.000187   0.000000   0.000000   0.000000
    18  H   -0.019269  -0.035085   0.000001   0.000000   0.000000   0.000000
    19  H    0.439585  -0.025513  -0.000003   0.000000   0.000000   0.000000
    20  H   -0.025513   0.536776   0.000003   0.000000   0.000000   0.000000
    21  H   -0.000003   0.000003   0.287488   0.003614  -0.000008   0.000002
    22  H    0.000000   0.000000   0.003614   0.459280  -0.001629   0.000008
    23  H    0.000000   0.000000  -0.000008  -0.001629   0.432096  -0.000097
    24  H    0.000000   0.000000   0.000002   0.000008  -0.000097   0.432385
    25  H   -0.000047   0.000031  -0.000063  -0.000099   0.000007  -0.001292
             25
     1  C   -0.000268
     2  N    0.004172
     3  C   -0.000294
     4  S    0.001081
     5  O   -0.000302
     6  O    0.000000
     7  N   -0.001877
     8  C   -0.025709
     9  C    0.002478
    10  C    0.000085
    11  C    0.002115
    12  Cl  -0.000073
    13  C   -0.024414
    14  C    0.373472
    15  H   -0.000111
    16  H    0.000023
    17  H   -0.000043
    18  H   -0.000182
    19  H   -0.000047
    20  H    0.000031
    21  H   -0.000063
    22  H   -0.000099
    23  H    0.000007
    24  H   -0.001292
    25  H    0.415464
 Mulliken atomic charges:
              1
     1  C   -0.322638
     2  N   -0.737818
     3  C   -0.326968
     4  S    1.802550
     5  O   -0.676434
     6  O   -0.690661
     7  N   -0.978720
     8  C    0.312933
     9  C   -0.237980
    10  C   -0.172417
    11  C   -0.145587
    12  Cl  -0.004084
    13  C   -0.175243
    14  C   -0.213225
    15  H    0.190649
    16  H    0.190006
    17  H    0.213750
    18  H    0.189134
    19  H    0.236158
    20  H    0.178747
    21  H    0.420732
    22  H    0.216697
    23  H    0.237688
    24  H    0.236886
    25  H    0.255845
 Sum of Mulliken atomic charges =   0.00000
 Mulliken charges with hydrogens summed into heavy atoms:
              1
     1  C    0.271766
     2  N   -0.737818
     3  C    0.277072
     4  S    1.802550
     5  O   -0.676434
     6  O   -0.690661
     7  N   -0.557988
     8  C    0.312933
     9  C   -0.021283
    10  C    0.065270
    11  C   -0.145587
    12  Cl  -0.004084
    13  C    0.061643
    14  C    0.042620
 Sum of Mulliken charges with hydrogens summed into heavy atoms =   0.00000
 DipInt: DoE/N= T F RetVal/Mat= T F Init=T NMatP=  1 IDeriv=0 Min/MaxMlt=  0  4
 Entering OneElI...
 OneElI was handed    33404290 working-precision words.
 Multipole integrals L=0 to 4 MinM= 0 MaxM= 0.
 Requested accuracy = 0.1000D-12
 PrsmSu:  NPrtUS=   1 ThrOK=F IAlg=1 NPAlg=1 LenDen=           0.
 Prism:   IPart=     0 DynPar=F LinDyn=F Incr=          27.
 PRISM was handed    33146251 working-precision words and  2758 shell-pairs
 IPart=  0 NShTot=        2758 NBatch=          68 AvBLen=        40.6
 PrSmSu:  NxtVal=             28.
 Electronic moments (au):
       -122.00000000         -0.46576896          0.53415828         -1.26675649
      -3631.23654964       -579.04739253       -320.21555570        -11.11620836
          4.43133730          2.04483920      -8205.17387056        -20.50476684
         37.51806307        677.65803563      -2121.51937094        -42.66754654
       1023.91168980       -126.71281481         52.46090145       -322.30698563
    -197237.35260036      -6944.74024521      -3543.64058826      -6877.99438577
      -4997.12776947       2726.87031075       -459.01723060       -930.96907154
        483.75545974     -16351.69455192      -7904.82149031      -1151.18486155
        247.15047347        541.88379419       1058.54313552
 Electronic spatial extent (au):  <R**2>=           4530.4995
 DipInt: DoE/N= F T RetVal/Mat= T F Init=T NMatP=  1 IDeriv=0 Min/MaxMlt=  0  4
 Nuclear    moments (au):
        122.00000000          0.00000000          0.00000000          0.00000000
       3553.53824063        514.34248494        243.77057041          0.00000000
          0.00000000          0.00000000       8115.84585082         14.80784575
        -45.88584518       -669.76974234       2165.64472189         25.98704501
      -1042.41356778        130.75285184        -55.64703937        319.99722897
     184249.49350264       5115.92926747       2422.24521386       6397.66269072
       5070.61412524      -2795.56539285        494.50359561        997.35030684
       -486.97071874      13977.19844217       5606.88640783        642.22730401
       -210.99979467       -537.95568653      -1064.34068222
 Total      moments (au):
          0.00000000         -0.46576896          0.53415828         -1.26675649
        -77.69830901        -64.70490759        -76.44498529        -11.11620836
          4.43133730          2.04483920        -89.32801975         -5.69692109
         -8.36778211          7.88829329         44.12535094        -16.68050152
        -18.50187798          4.04003703         -3.18613792         -2.30975666
     -12987.85909772      -1828.81097774      -1121.39537440       -480.33169504
         73.48635576        -68.69508210         35.48636501         66.38123529
         -3.21525900      -2374.49610975      -2297.93508248       -508.95755754
         36.15067880          3.92810766         -5.79754669
 Traceless Quadrup. (au):
         -4.74890839          8.24449304         -3.49558466        -11.11620836
          4.43133730          2.04483920
 Charge=              0.0000 electrons
 Dipole moment (field-independent basis, Debye):
    X=             -1.1839    Y=              1.3577    Z=             -3.2198  Tot=              3.6894
 Quadrupole moment (field-independent basis, Debye-Ang):
   XX=           -104.5069   YY=            -87.0303   ZZ=           -102.8211
   XY=            -14.9517   XZ=              5.9603   YZ=              2.7504
 Traceless Quadrupole moment (field-independent basis, Debye-Ang):
   XX=             -6.3874   YY=             11.0891   ZZ=             -4.7017
   XY=            -14.9517   XZ=              5.9603   YZ=              2.7504
 Octapole moment (field-independent basis, Debye-Ang**2):
  XXX=            -63.5802  YYY=             -4.0548  ZZZ=             -5.9559  XYY=              5.6146
  XXY=             31.4067  XXZ=            -11.8725  XZZ=            -13.1689  YZZ=              2.8755
  YYZ=             -2.2678  XYZ=             -1.6440
 Hexadecapole moment (field-independent basis, Debye-Ang**3):
 XXXX=          -4891.8502 YYYY=           -688.8179 ZZZZ=           -422.3712 XXXY=           -180.9159
 XXXZ=             27.6785 YYYX=            -25.8739 YYYZ=             13.3659 ZZZX=             25.0024
 ZZZY=             -1.2110 XXYY=           -894.3490 XXZZ=           -865.5125 YYZZ=           -191.6978
 XXYZ=             13.6161 YYXZ=              1.4795 ZZXY=             -2.1836
 N-N= 1.149960355223D+03 E-N=-5.666323837767D+03  KE= 1.422472137124D+03
 Entering OneElI...
 OneElI was handed    33288225 working-precision words.
 Calculate electrostatic properties
    NBasis =   240  MinDer = 0  MaxDer = 0
    NGrid  =    25  NMatD  =   1
 Requested accuracy = 0.1000D-12
 PrsmSu:  NPrtUS=   2 ThrOK=T IAlg=1 NPAlg=1 LenDen=           0.
 Prism:   IPart=     0 DynPar=F LinDyn=F Incr=         315.
 PRISM was handed    16484749 working-precision words and  2525 shell-pairs
 PRISM was handed    16484749 working-precision words and  2525 shell-pairs
 IPart=  0 NShTot=       31850 NBatch=        1274 AvBLen=        25.0
 IPart=  1 NShTot=       31275 NBatch=        1251 AvBLen=        25.0
 PrSmSu:  NxtVal=            631.
 --------------------------------------------------------
       Center         ----      EFG at Nuclei      ----
                      3XX-RR        3YY-RR        3ZZ-RR
 --------------------------------------------------------
     1   Atom        0.093331      0.145936     -0.239267
     2   Atom        0.910056     -0.441713     -0.468343
     3   Atom        0.031958     -0.081593      0.049636
     4   Atom       -0.118347      0.023188      0.095159
     5   Atom        0.514779      0.716016     -1.230795
     6   Atom       -0.337094     -0.448377      0.785471
     7   Atom       -0.526965     -0.144097      0.671062
     8   Atom       -0.084872      0.300222     -0.215350
     9   Atom        0.155065      0.086193     -0.241258
    10   Atom        0.178012      0.132669     -0.310681
    11   Atom       -0.243526      0.311920     -0.068395
    12   Atom       -3.187385      1.461147      1.726238
    13   Atom        0.172631      0.142992     -0.315623
    14   Atom        0.159047      0.111341     -0.270389
    15   Atom        0.155268     -0.207422      0.052154
    16   Atom       -0.218973      0.089837      0.129136
    17   Atom       -0.000881     -0.004606      0.005488
    18   Atom        0.152633     -0.199876      0.047243
    19   Atom        0.056218      0.139772     -0.195990
    20   Atom       -0.234550      0.097667      0.136883
    21   Atom        0.147669     -0.353214      0.205544
    22   Atom        0.110948     -0.276051      0.165103
    23   Atom       -0.090690     -0.074544      0.165234
    24   Atom        0.117151     -0.276578      0.159426
    25   Atom       -0.085616     -0.080476      0.166092
 --------------------------------------------------------
                        XY            XZ            YZ
 --------------------------------------------------------
     1   Atom       -0.019312     -0.168900     -0.018649
     2   Atom        0.717491     -0.237792      0.084237
     3   Atom        0.155804      0.152744     -0.167430
     4   Atom        0.368867      0.445849      0.212904
     5   Atom       -0.170773     -0.674068     -0.592185
     6   Atom       -1.183832     -0.244996     -0.258539
     7   Atom       -0.076245      0.502840     -0.661074
     8   Atom       -0.116225     -0.006298      0.049149
     9   Atom        0.004586      0.013086      0.042230
    10   Atom       -0.001667      0.039281      0.042909
    11   Atom       -0.178410     -0.032340      0.019665
    12   Atom       -1.450872     -0.553302     -0.149975
    13   Atom        0.020116      0.044746      0.046165
    14   Atom       -0.016781      0.051393      0.055386
    15   Atom        0.010871     -0.012750      0.169608
    16   Atom       -0.152293      0.010875      0.004495
    17   Atom        0.158676      0.133986     -0.142532
    18   Atom        0.009330      0.006237      0.176422
    19   Atom       -0.013723     -0.173347     -0.049764
    20   Atom       -0.116930      0.060272      0.008786
    21   Atom       -0.061244      0.012211     -0.096626
    22   Atom       -0.100950     -0.014076     -0.045010
    23   Atom        0.224577      0.000169     -0.004298
    24   Atom       -0.101747     -0.014061     -0.050850
    25   Atom        0.220580     -0.004983      0.003075
 --------------------------------------------------------


 ---------------------------------------------------------------------------------
              Nuclear Quadrupole in Principal Axis System
 ---------------------------------------------------------------------------------

       Atom             a.u.   MegaHertz   Gauss  10(-4) cm-1        Axes

              Baa    -0.3113   -41.777   -14.907   -13.935  0.3868  0.0539  0.9206
     1 C(13)  Bbb     0.1421    19.075     6.806     6.363  0.3825  0.8990 -0.2133
              Bcc     0.1692    22.703     8.101     7.573  0.8391 -0.4346 -0.3271
 
              Baa    -0.8355   -32.225   -11.499   -10.749 -0.3921  0.8083 -0.4393
     2 N(14)  Bbb    -0.4045   -15.602    -5.567    -5.204 -0.0816  0.4451  0.8917
              Bcc     1.2401    47.827    17.066    15.953  0.9163  0.3855 -0.1085
 
              Baa    -0.3258   -43.724   -15.602   -14.585 -0.5175  0.6832  0.5152
     3 C(13)  Bbb     0.1300    17.446     6.225     5.819  0.6062  0.7176 -0.3428
              Bcc     0.1958    26.278     9.377     8.765  0.6039 -0.1349  0.7855
 
              Baa    -0.5328   -21.846    -7.795    -7.287  0.8129 -0.3658 -0.4531
     4 S(33)  Bbb    -0.1567    -6.425    -2.292    -2.143 -0.0082  0.7708 -0.6370
              Bcc     0.6895    28.271    10.088     9.430  0.5823  0.5216  0.6236
 
              Baa    -1.6228   117.428    41.901    39.170  0.3093  0.2546  0.9163
     5 O(17)  Bbb     0.7389   -53.467   -19.078   -17.835  0.9445 -0.1941 -0.2649
              Bcc     0.8839   -63.961   -22.823   -21.335  0.1104  0.9474 -0.3005
 
              Baa    -1.6304   117.974    42.096    39.352  0.6829  0.7158  0.1459
     6 O(17)  Bbb     0.7924   -57.335   -20.459   -19.125  0.7260 -0.6872 -0.0260
              Bcc     0.8380   -60.638   -21.637   -20.227 -0.0816 -0.1237  0.9890
 
              Baa    -0.7741   -29.855   -10.653    -9.959  0.8066 -0.3786 -0.4539
     7 N(14)  Bbb    -0.4008   -15.456    -5.515    -5.156  0.5247  0.8123  0.2548
              Bcc     1.1749    45.312    16.168    15.114  0.2722 -0.4437  0.8539
 
              Baa    -0.2202   -29.548   -10.543    -9.856 -0.0425 -0.1033  0.9937
     8 C(13)  Bbb    -0.1167   -15.666    -5.590    -5.226  0.9631  0.2604  0.0683
              Bcc     0.3369    45.213    16.133    15.082 -0.2658  0.9600  0.0885
 
              Baa    -0.2470   -33.145   -11.827   -11.056 -0.0308 -0.1253  0.9916
     9 C(13)  Bbb     0.0910    12.206     4.355     4.071 -0.0955  0.9879  0.1218
              Bcc     0.1560    20.939     7.472     6.985  0.9949  0.0910  0.0424
 
              Baa    -0.3179   -42.660   -15.222   -14.230 -0.0789 -0.0948  0.9924
    10 C(13)  Bbb     0.1367    18.342     6.545     6.118 -0.0467  0.9947  0.0913
              Bcc     0.1812    24.318     8.677     8.112  0.9958  0.0391  0.0829
 
              Baa    -0.2987   -40.087   -14.304   -13.371  0.9549  0.2754  0.1106
    11 C(13)  Bbb    -0.0674    -9.040    -3.226    -3.015 -0.0880 -0.0928  0.9918
              Bcc     0.3661    49.126    17.529    16.387 -0.2834  0.9568  0.0644
 
              Baa    -3.6640  -191.766   -68.427   -63.966  0.9560  0.2737  0.1057
    12 Cl(35) Bbb     1.7865    93.499    33.363    31.188 -0.0765 -0.1155  0.9904
              Bcc     1.8776    98.267    35.064    32.778 -0.2833  0.9548  0.0895
 
              Baa    -0.3239   -43.461   -15.508   -14.497 -0.0856 -0.0944  0.9919
    13 C(13)  Bbb     0.1337    17.937     6.400     5.983 -0.4943  0.8684  0.0400
              Bcc     0.1902    25.524     9.108     8.514  0.8651  0.4868  0.1210
 
              Baa    -0.2847   -38.198   -13.630   -12.741 -0.1192 -0.1425  0.9826
    14 C(13)  Bbb     0.1174    15.756     5.622     5.255  0.1887  0.9684  0.1633
              Bcc     0.1672    22.442     8.008     7.486  0.9748 -0.2049  0.0885
 
              Baa    -0.2917  -155.655   -55.542   -51.921 -0.0344  0.8958 -0.4431
    15 H(1)   Bbb     0.1339    71.461    25.499    23.837  0.2893  0.4333  0.8535
              Bcc     0.1578    84.194    30.042    28.084  0.9566 -0.0988 -0.2741
 
              Baa    -0.2818  -150.344   -53.646   -50.149  0.9248  0.3793 -0.0286
    16 H(1)   Bbb     0.1295    69.081    24.650    23.043  0.0270  0.0096  0.9996
              Bcc     0.1523    81.263    28.997    27.106 -0.3795  0.9252  0.0014
 
              Baa    -0.2906  -155.057   -55.328   -51.721 -0.5822  0.5977  0.5512
    17 H(1)   Bbb     0.1339    71.441    25.492    23.830  0.5111 -0.2581  0.8198
              Bcc     0.1567    83.616    29.836    27.891  0.6323  0.7590 -0.1552
 
              Baa    -0.2918  -155.674   -55.549   -51.927 -0.0121  0.8871 -0.4614
    18 H(1)   Bbb     0.1339    71.451    25.496    23.834 -0.4640  0.4038  0.7885
              Bcc     0.1579    84.223    30.053    28.094  0.8858  0.2237  0.4067
 
              Baa    -0.2902  -154.837   -55.250   -51.648  0.4481  0.1169  0.8863
    19 H(1)   Bbb     0.1348    71.924    25.664    23.991  0.6861 -0.6805 -0.2572
              Bcc     0.1554    82.913    29.585    27.657  0.5731  0.7233 -0.3852
 
              Baa    -0.2802  -149.526   -53.355   -49.877  0.9446  0.2956 -0.1427
    20 H(1)   Bbb     0.1290    68.825    24.558    22.957 -0.1887  0.8448  0.5008
              Bcc     0.1513    80.702    28.796    26.919  0.2686 -0.4461  0.8537
 
              Baa    -0.3760  -200.599   -71.579   -66.913  0.1110  0.9808  0.1606
    21 H(1)   Bbb     0.1476    78.762    28.104    26.272  0.9525 -0.0588 -0.2989
              Bcc     0.2283   121.837    43.474    40.640  0.2837 -0.1862  0.9407
 
              Baa    -0.3055  -163.005   -58.164   -54.373  0.2376  0.9663  0.0995
    22 H(1)   Bbb     0.1354    72.268    25.787    24.106  0.9655 -0.2461  0.0847
              Bcc     0.1701    90.737    32.377    30.266 -0.1063 -0.0760  0.9914
 
              Baa    -0.3074  -163.993   -58.517   -54.702  0.7197 -0.6943 -0.0066
    23 H(1)   Bbb     0.1417    75.620    26.983    25.224  0.6894  0.7134  0.1255
              Bcc     0.1656    88.373    31.534    29.478 -0.0825 -0.0949  0.9921
 
              Baa    -0.3073  -163.947   -58.500   -54.687  0.2352  0.9654  0.1123
    24 H(1)   Bbb     0.1418    75.645    26.992    25.233  0.9674 -0.2436  0.0688
              Bcc     0.1655    88.302    31.508    29.454 -0.0937 -0.0925  0.9913
 
              Baa    -0.3037  -162.046   -57.822   -54.053  0.7112 -0.7029  0.0121
    25 H(1)   Bbb     0.1375    73.358    26.176    24.469  0.7018  0.7109  0.0458
              Bcc     0.1662    88.688    31.646    29.583 -0.0409 -0.0241  0.9989
 

 ---------------------------------------------------------------------------------

 No NMR shielding tensors so no spin-rotation constants.
 Leave Link  601 at Fri Aug 24 15:37:37 2018, MaxMem=   33554432 cpu:       0.8
 Merz-Kollman atomic radii used.
 Read replacement radii for each type of atom:
 Atom Element Radius
    1     6    1.50
    2     7    1.50
    3     6    1.50
    4    16    1.75
    5     8    1.40
    6     8    1.40
    7     7    1.50
    8     6    1.50
    9     6    1.50
   10     6    1.50
   11     6    1.50
   12    17    1.70
   13     6    1.50
   14     6    1.50
   15     1    1.20
   16     1    1.20
   17     1    1.20
   18     1    1.20
   19     1    1.20
   20     1    1.20
   21     1    1.20
   22     1    1.20
   23     1    1.20
   24     1    1.20
   25     1    1.20
 Generate VDW surfaces: Layer= 4 Dens= 1 Start= 1.400 Inc= 0.200

 **********************************************************************

            Electrostatic Properties Using The SCF Density

 **********************************************************************

       Atomic Center    1 is at  -3.111329  0.746008 -1.680803
       Atomic Center    2 is at  -2.533551  0.930512 -0.341646
       Atomic Center    3 is at  -3.296950  1.860925  0.508156
       Atomic Center    4 is at  -2.129527 -0.519208  0.435961
       Atomic Center    5 is at  -1.679136 -0.150937  1.774041
       Atomic Center    6 is at  -3.143234 -1.559166  0.238008
       Atomic Center    7 is at  -0.845925 -1.033384 -0.551428
       Atomic Center    8 is at   0.499472 -0.625725 -0.338523
       Atomic Center    9 is at   1.513554 -1.590571 -0.338657
       Atomic Center   10 is at   2.848362 -1.214912 -0.202458
       Atomic Center   11 is at   3.165166  0.132146 -0.041676
       Atomic Center   12 is at   4.846351  0.613618  0.144720
       Atomic Center   13 is at   2.163825  1.102478 -0.028562
       Atomic Center   14 is at   0.832997  0.725778 -0.189113
       Atomic Center   15 is at  -3.145747  1.726740 -2.164112
       Atomic Center   16 is at  -4.124099  0.322543 -1.645671
       Atomic Center   17 is at  -2.464466  0.091710 -2.267675
       Atomic Center   18 is at  -3.307003  2.830854  0.002523
       Atomic Center   19 is at  -2.797631  1.966265  1.470799
       Atomic Center   20 is at  -4.334756  1.533823  0.666618
       Atomic Center   21 is at  -0.966882 -2.029966 -0.709821
       Atomic Center   22 is at   1.262259 -2.643104 -0.445533
       Atomic Center   23 is at   3.632348 -1.964386 -0.208458
       Atomic Center   24 is at   2.423375  2.148509  0.094189
       Atomic Center   25 is at   0.051788  1.476987 -0.203523
      ESP Fit Center   26 is at  -4.161329  0.746008 -3.499456
      ESP Fit Center   27 is at  -3.636329 -0.163318 -3.499456
      ESP Fit Center   28 is at  -3.111329  0.746008 -3.780803
      ESP Fit Center   29 is at  -1.340615  2.658779 -0.341646
      ESP Fit Center   30 is at  -1.778055  2.584818 -1.391646
      ESP Fit Center   31 is at  -4.346950  1.860925  2.326810
      ESP Fit Center   32 is at  -3.555771  3.661067  1.558156
      ESP Fit Center   33 is at  -4.487915  3.235372  1.558156
      ESP Fit Center   34 is at  -1.437492  2.836844  0.508156
      ESP Fit Center   35 is at  -4.868823  3.253483  0.508156
      ESP Fit Center   36 is at  -3.967424  0.020447  1.963511
      ESP Fit Center   37 is at  -3.967424 -1.058863  1.963511
      ESP Fit Center   38 is at  -2.402129 -2.415198  1.963511
      ESP Fit Center   39 is at  -1.333805 -2.261596  1.963511
      ESP Fit Center   40 is at  -1.598020 -2.847895  0.981137
      ESP Fit Center   41 is at  -1.679136 -0.150937  3.734041
      ESP Fit Center   42 is at  -0.699136 -0.150937  3.471451
      ESP Fit Center   43 is at  -1.189136  0.697768  3.471451
      ESP Fit Center   44 is at  -2.169136  0.697768  3.471451
      ESP Fit Center   45 is at  -2.659136 -0.150937  3.471451
      ESP Fit Center   46 is at  -2.169136 -0.999642  3.471451
      ESP Fit Center   47 is at  -1.189136 -0.999642  3.471451
      ESP Fit Center   48 is at   0.018274 -0.150937  2.754041
      ESP Fit Center   49 is at  -0.305902  0.846776  2.754041
      ESP Fit Center   50 is at  -1.154607  1.463396  2.754041
      ESP Fit Center   51 is at  -3.052369  0.846776  2.754041
      ESP Fit Center   52 is at  -3.376546 -0.150937  2.754041
      ESP Fit Center   53 is at  -3.052369 -1.148649  2.754041
      ESP Fit Center   54 is at  -2.203664 -1.765269  2.754041
      ESP Fit Center   55 is at  -1.154607 -1.765269  2.754041
      ESP Fit Center   56 is at  -0.305902 -1.148649  2.754041
      ESP Fit Center   57 is at   0.280864 -0.150937  1.774041
      ESP Fit Center   58 is at   0.018274  0.829063  1.774041
      ESP Fit Center   59 is at  -0.699136  1.546473  1.774041
      ESP Fit Center   60 is at   0.018274 -1.130937  1.774041
      ESP Fit Center   61 is at  -4.123234 -1.559166  1.935418
      ESP Fit Center   62 is at  -3.633234 -2.407871  1.935418
      ESP Fit Center   63 is at  -2.653234 -2.407871  1.935418
      ESP Fit Center   64 is at  -4.516467 -0.561454  1.218008
      ESP Fit Center   65 is at  -4.840644 -1.559166  1.218008
      ESP Fit Center   66 is at  -4.516467 -2.556878  1.218008
      ESP Fit Center   67 is at  -3.667762 -3.173499  1.218008
      ESP Fit Center   68 is at  -2.618705 -3.173499  1.218008
      ESP Fit Center   69 is at  -4.840644 -0.579166  0.238008
      ESP Fit Center   70 is at  -5.103234 -1.559166  0.238008
      ESP Fit Center   71 is at  -4.840644 -2.539166  0.238008
      ESP Fit Center   72 is at  -4.123234 -3.256576  0.238008
      ESP Fit Center   73 is at  -3.143234 -3.519166  0.238008
      ESP Fit Center   74 is at  -2.163234 -3.256576  0.238008
      ESP Fit Center   75 is at  -4.840644 -1.559166 -0.741992
      ESP Fit Center   76 is at  -4.516467 -2.556878 -0.741992
      ESP Fit Center   77 is at  -3.667762 -3.173499 -0.741992
      ESP Fit Center   78 is at  -2.618705 -3.173499 -0.741992
      ESP Fit Center   79 is at  -4.123234 -1.559166 -1.459402
      ESP Fit Center   80 is at  -3.633234 -2.407871 -1.459402
      ESP Fit Center   81 is at  -2.653234 -2.407871 -1.459402
      ESP Fit Center   82 is at  -3.143234 -1.559166 -1.721992
      ESP Fit Center   83 is at  -0.320925 -0.124057 -2.370082
      ESP Fit Center   84 is at  -1.370925 -1.942710 -2.370082
      ESP Fit Center   85 is at  -0.320925 -1.942710 -2.370082
      ESP Fit Center   86 is at  -0.845925 -1.033384 -2.651428
      ESP Fit Center   87 is at   0.499472 -0.625725  1.761477
      ESP Fit Center   88 is at  -0.025528 -1.535051  1.480131
      ESP Fit Center   89 is at  -0.025528  0.283602 -2.157176
      ESP Fit Center   90 is at   0.499472 -0.625725 -2.438523
      ESP Fit Center   91 is at   1.513554 -1.590571  1.761343
      ESP Fit Center   92 is at   0.988554 -2.499898  1.479997
      ESP Fit Center   93 is at   2.038554 -2.499898  1.479997
      ESP Fit Center   94 is at   2.038554 -0.681245 -2.157310
      ESP Fit Center   95 is at   0.988554 -2.499898 -2.157310
      ESP Fit Center   96 is at   2.038554 -2.499898 -2.157310
      ESP Fit Center   97 is at   1.513554 -1.590571 -2.438657
      ESP Fit Center   98 is at   2.848362 -1.214912  1.897542
      ESP Fit Center   99 is at   3.898362 -1.214912  1.616196
      ESP Fit Center  100 is at   2.323362 -2.124238  1.616196
      ESP Fit Center  101 is at   3.373362 -2.124238  1.616196
      ESP Fit Center  102 is at   2.589540 -3.015054  0.847542
      ESP Fit Center  103 is at   3.898362 -1.214912 -2.021111
      ESP Fit Center  104 is at   2.323362 -0.305585 -2.021111
      ESP Fit Center  105 is at   3.373362 -2.124238 -2.021111
      ESP Fit Center  106 is at   2.848362 -1.214912 -2.302458
      ESP Fit Center  107 is at   3.165166  0.132146  2.058324
      ESP Fit Center  108 is at   3.690166 -0.777181  1.776977
      ESP Fit Center  109 is at   3.165166  0.132146 -2.141676
      ESP Fit Center  110 is at   4.846351  0.613618  2.524720
      ESP Fit Center  111 is at   5.878994  0.613618  2.289026
      ESP Fit Center  112 is at   5.362672  1.507913  2.289026
      ESP Fit Center  113 is at   4.330029  1.507913  2.289026
      ESP Fit Center  114 is at   3.813707  0.613618  2.289026
      ESP Fit Center  115 is at   4.330029 -0.280678  2.289026
      ESP Fit Center  116 is at   5.362672 -0.280678  2.289026
      ESP Fit Center  117 is at   6.707109  0.613618  1.628625
      ESP Fit Center  118 is at   6.351736  1.707344  1.628625
      ESP Fit Center  119 is at   5.421357  2.383305  1.628625
      ESP Fit Center  120 is at   4.271344  2.383305  1.628625
      ESP Fit Center  121 is at   3.340965  1.707344  1.628625
      ESP Fit Center  122 is at   4.271344 -1.156069  1.628625
      ESP Fit Center  123 is at   5.421357 -1.156069  1.628625
      ESP Fit Center  124 is at   6.351736 -0.480109  1.628625
      ESP Fit Center  125 is at   7.166679  0.613618  0.674319
      ESP Fit Center  126 is at   6.900899  1.691928  0.674319
      ESP Fit Center  127 is at   6.164447  2.523211  0.674319
      ESP Fit Center  128 is at   5.126035  2.917028  0.674319
      ESP Fit Center  129 is at   4.023551  2.783162  0.674319
      ESP Fit Center  130 is at   5.126035 -1.689793  0.674319
      ESP Fit Center  131 is at   6.164447 -1.295975  0.674319
      ESP Fit Center  132 is at   6.900899 -0.464693  0.674319
      ESP Fit Center  133 is at   7.166679  0.613618 -0.384880
      ESP Fit Center  134 is at   6.900899  1.691928 -0.384880
      ESP Fit Center  135 is at   6.164447  2.523211 -0.384880
      ESP Fit Center  136 is at   5.126035  2.917028 -0.384880
      ESP Fit Center  137 is at   4.023551  2.783162 -0.384880
      ESP Fit Center  138 is at   6.164447 -1.295975 -0.384880
      ESP Fit Center  139 is at   6.900899 -0.464693 -0.384880
      ESP Fit Center  140 is at   6.707109  0.613618 -1.339186
      ESP Fit Center  141 is at   6.351736  1.707344 -1.339186
      ESP Fit Center  142 is at   5.421357  2.383305 -1.339186
      ESP Fit Center  143 is at   4.271344  2.383305 -1.339186
      ESP Fit Center  144 is at   5.421357 -1.156069 -1.339186
      ESP Fit Center  145 is at   6.351736 -0.480109 -1.339186
      ESP Fit Center  146 is at   5.878994  0.613618 -1.999586
      ESP Fit Center  147 is at   5.362672  1.507913 -1.999586
      ESP Fit Center  148 is at   4.330029  1.507913 -1.999586
      ESP Fit Center  149 is at   3.813707  0.613618 -1.999586
      ESP Fit Center  150 is at   4.330029 -0.280678 -1.999586
      ESP Fit Center  151 is at   5.362672 -0.280678 -1.999586
      ESP Fit Center  152 is at   4.846351  0.613618 -2.235280
      ESP Fit Center  153 is at   2.163825  1.102478  2.071438
      ESP Fit Center  154 is at   2.688825  2.011805  1.790091
      ESP Fit Center  155 is at   1.638825  2.011805  1.790091
      ESP Fit Center  156 is at   1.638825  0.193151  1.790091
      ESP Fit Center  157 is at   0.972860  2.476924  1.021438
      ESP Fit Center  158 is at   2.688825  2.011805 -1.847215
      ESP Fit Center  159 is at   1.638825  2.011805 -1.847215
      ESP Fit Center  160 is at   2.163825  1.102478 -2.128562
      ESP Fit Center  161 is at   0.832997  0.725778  1.910887
      ESP Fit Center  162 is at   0.307997  1.635104  1.629540
      ESP Fit Center  163 is at   1.357997 -0.183549  1.629540
      ESP Fit Center  164 is at   1.357997  1.635104 -2.007766
      ESP Fit Center  165 is at   0.307997  1.635104 -2.007766
      ESP Fit Center  166 is at  -0.217003  0.725778 -2.007766
      ESP Fit Center  167 is at   0.832997  0.725778 -2.289113
      ESP Fit Center  168 is at  -1.921781  2.753770 -1.644963
      ESP Fit Center  169 is at  -2.868297  3.300241 -1.644963
      ESP Fit Center  170 is at  -3.944635  3.110454 -1.644963
      ESP Fit Center  171 is at  -4.647165  2.273211 -1.644963
      ESP Fit Center  172 is at  -1.547973  1.726740 -2.683260
      ESP Fit Center  173 is at  -1.921781  2.753770 -2.683260
      ESP Fit Center  174 is at  -2.868297  3.300241 -2.683260
      ESP Fit Center  175 is at  -3.944635  3.110454 -2.683260
      ESP Fit Center  176 is at  -4.647165  2.273211 -2.683260
      ESP Fit Center  177 is at  -2.158268  1.726740 -3.523260
      ESP Fit Center  178 is at  -2.840600  2.665888 -3.523260
      ESP Fit Center  179 is at  -3.944635  2.307166 -3.523260
      ESP Fit Center  180 is at  -3.145747  1.726740 -3.844112
      ESP Fit Center  181 is at  -4.922987 -0.257883 -0.286522
      ESP Fit Center  182 is at  -4.922987  1.706257 -1.126522
      ESP Fit Center  183 is at  -5.625516  0.869014 -1.126522
      ESP Fit Center  184 is at  -5.625516 -0.223928 -1.126522
      ESP Fit Center  185 is at  -4.922987 -1.061171 -1.126522
      ESP Fit Center  186 is at  -4.922987  1.706257 -2.164819
      ESP Fit Center  187 is at  -5.625516  0.869014 -2.164819
      ESP Fit Center  188 is at  -5.625516 -0.223928 -2.164819
      ESP Fit Center  189 is at  -4.922987 -1.061171 -2.164819
      ESP Fit Center  190 is at  -3.846648 -1.250958 -2.164819
      ESP Fit Center  191 is at  -4.922987  0.902969 -3.004819
      ESP Fit Center  192 is at  -4.922987 -0.257883 -3.004819
      ESP Fit Center  193 is at  -0.866691  0.091710 -2.786823
      ESP Fit Center  194 is at  -1.240499  1.118740 -2.786823
      ESP Fit Center  195 is at  -3.263354 -1.292004 -2.786823
      ESP Fit Center  196 is at  -2.187015 -1.481791 -2.786823
      ESP Fit Center  197 is at  -1.240499 -0.935320 -2.786823
      ESP Fit Center  198 is at  -1.476987  0.091710 -3.626823
      ESP Fit Center  199 is at  -2.159318  1.030859 -3.626823
      ESP Fit Center  200 is at  -3.263354 -0.488716 -3.626823
      ESP Fit Center  201 is at  -2.159318 -0.847438 -3.626823
      ESP Fit Center  202 is at  -2.464466  0.091710 -3.947675
      ESP Fit Center  203 is at  -3.001855  3.770002  1.361672
      ESP Fit Center  204 is at  -2.083036  3.857884  0.521672
      ESP Fit Center  205 is at  -3.029552  4.404355  0.521672
      ESP Fit Center  206 is at  -4.105890  4.214567  0.521672
      ESP Fit Center  207 is at  -4.808420  3.377325  0.521672
      ESP Fit Center  208 is at  -2.083036  3.857884 -0.516625
      ESP Fit Center  209 is at  -3.029552  4.404355 -0.516625
      ESP Fit Center  210 is at  -4.105890  4.214567 -0.516625
      ESP Fit Center  211 is at  -4.808420  3.377325 -0.516625
      ESP Fit Center  212 is at  -3.001855  3.770002 -1.356625
      ESP Fit Center  213 is at  -4.105890  3.411279 -1.356625
      ESP Fit Center  214 is at  -2.797631  1.966265  3.150799
      ESP Fit Center  215 is at  -1.810152  1.966265  2.829947
      ESP Fit Center  216 is at  -2.492483  2.905413  2.829947
      ESP Fit Center  217 is at  -3.596518  2.546691  2.829947
      ESP Fit Center  218 is at  -3.596518  1.385839  2.829947
      ESP Fit Center  219 is at  -1.199856  1.966265  1.989947
      ESP Fit Center  220 is at  -1.573664  2.993295  1.989947
      ESP Fit Center  221 is at  -2.520180  3.539766  1.989947
      ESP Fit Center  222 is at  -3.596518  3.349979  1.989947
      ESP Fit Center  223 is at  -1.199856  1.966265  0.951650
      ESP Fit Center  224 is at  -1.573664  2.993295  0.951650
      ESP Fit Center  225 is at  -4.334756  1.533823  2.346618
      ESP Fit Center  226 is at  -5.133643  2.114249  2.025767
      ESP Fit Center  227 is at  -5.133643  0.953398  2.025767
      ESP Fit Center  228 is at  -4.029608  0.594675  2.025767
      ESP Fit Center  229 is at  -5.133643  2.917537  1.185767
      ESP Fit Center  230 is at  -5.836173  2.080294  1.185767
      ESP Fit Center  231 is at  -5.836173  0.987352  1.185767
      ESP Fit Center  232 is at  -5.133643  0.150110  1.185767
      ESP Fit Center  233 is at  -5.133643  2.917537  0.147470
      ESP Fit Center  234 is at  -5.836173  2.080294  0.147470
      ESP Fit Center  235 is at  -5.836173  0.987352  0.147470
      ESP Fit Center  236 is at  -5.133643  0.150110  0.147470
      ESP Fit Center  237 is at  -5.133643  2.114249 -0.692530
      ESP Fit Center  238 is at  -0.661734 -2.969114  0.649327
      ESP Fit Center  239 is at  -1.765769 -3.413680 -0.190673
      ESP Fit Center  240 is at  -0.689431 -3.603467 -0.190673
      ESP Fit Center  241 is at  -1.765769 -3.413680 -1.228970
      ESP Fit Center  242 is at  -0.689431 -3.603467 -1.228970
      ESP Fit Center  243 is at  -1.765769 -2.610392 -2.068970
      ESP Fit Center  244 is at  -0.661734 -2.969114 -2.068970
      ESP Fit Center  245 is at   0.463371 -3.223529  0.913615
      ESP Fit Center  246 is at   1.567406 -3.582252  0.913615
      ESP Fit Center  247 is at   0.463371 -4.026817  0.073615
      ESP Fit Center  248 is at   1.539709 -4.216605  0.073615
      ESP Fit Center  249 is at   2.486225 -3.670134  0.073615
      ESP Fit Center  250 is at   0.463371 -4.026817 -0.964682
      ESP Fit Center  251 is at   1.539709 -4.216605 -0.964682
      ESP Fit Center  252 is at   2.486225 -3.670134 -0.964682
      ESP Fit Center  253 is at   0.463371 -3.223529 -1.804682
      ESP Fit Center  254 is at   1.567406 -3.582252 -1.804682
      ESP Fit Center  255 is at   4.619828 -1.964386  1.150690
      ESP Fit Center  256 is at   3.937496 -2.903534  1.150690
      ESP Fit Center  257 is at   5.230123 -1.964386  0.310690
      ESP Fit Center  258 is at   2.833461 -3.348100  0.310690
      ESP Fit Center  259 is at   3.909799 -3.537887  0.310690
      ESP Fit Center  260 is at   4.856315 -2.991416  0.310690
      ESP Fit Center  261 is at   5.230123 -1.964386 -0.727607
      ESP Fit Center  262 is at   2.833461 -3.348100 -0.727607
      ESP Fit Center  263 is at   3.909799 -3.537887 -0.727607
      ESP Fit Center  264 is at   4.856315 -2.991416 -0.727607
      ESP Fit Center  265 is at   4.619828 -1.964386 -1.567607
      ESP Fit Center  266 is at   3.937496 -2.903534 -1.567607
      ESP Fit Center  267 is at   2.423375  2.148509  1.774189
      ESP Fit Center  268 is at   3.410854  2.148509  1.453337
      ESP Fit Center  269 is at   2.728523  3.087658  1.453337
      ESP Fit Center  270 is at   1.624488  2.728935  1.453337
      ESP Fit Center  271 is at   3.647342  3.175539  0.613337
      ESP Fit Center  272 is at   2.700826  3.722011  0.613337
      ESP Fit Center  273 is at   1.624488  3.532223  0.613337
      ESP Fit Center  274 is at   0.921958  2.694981  0.613337
      ESP Fit Center  275 is at   3.647342  3.175539 -0.424960
      ESP Fit Center  276 is at   2.700826  3.722011 -0.424960
      ESP Fit Center  277 is at   1.624488  3.532223 -0.424960
      ESP Fit Center  278 is at   2.728523  3.087658 -1.264960
      ESP Fit Center  279 is at   1.624488  2.728935 -1.264960
      ESP Fit Center  280 is at   0.356936  2.416136  1.155625
      ESP Fit Center  281 is at  -0.747100  2.057413  1.155625
      ESP Fit Center  282 is at   0.329238  3.050488  0.315625
      ESP Fit Center  283 is at  -0.747100  2.860701  0.315625
      ESP Fit Center  284 is at   0.329238  3.050488 -0.722672
      ESP Fit Center  285 is at  -0.747100  2.860701 -0.722672
      ESP Fit Center  286 is at   0.356936  2.416136 -1.562672
      ESP Fit Center  287 is at  -0.747100  2.057413 -1.562672
      ESP Fit Center  288 is at  -0.747100  0.896562 -1.562672
      ESP Fit Center  289 is at  -1.003218  1.761221 -2.214853
      ESP Fit Center  290 is at  -3.631990 -1.535154 -2.214853
      ESP Fit Center  291 is at  -4.911717  1.274650 -3.177178
      ESP Fit Center  292 is at  -4.152650  0.746008 -3.843128
      ESP Fit Center  293 is at  -3.631990 -0.155802 -3.843128
      ESP Fit Center  294 is at  -3.111329  0.746008 -4.080803
      ESP Fit Center  295 is at  -0.955026  1.944968 -1.838022
      ESP Fit Center  296 is at  -4.338271  1.860925  2.670482
      ESP Fit Center  297 is at  -3.563989  3.718222  2.004532
      ESP Fit Center  298 is at  -4.525728  3.279010  2.004532
      ESP Fit Center  299 is at  -1.838092  3.690276  1.042207
      ESP Fit Center  300 is at  -4.755808  3.690276  1.042207
      ESP Fit Center  301 is at  -5.097338  2.389567 -0.988219
      ESP Fit Center  302 is at  -3.844170  0.470742  2.415860
      ESP Fit Center  303 is at  -4.109426 -0.519208  2.415860
      ESP Fit Center  304 is at  -3.844170 -1.509157  2.415860
      ESP Fit Center  305 is at  -3.119477 -2.233850  2.415860
      ESP Fit Center  306 is at  -2.129527 -2.499107  2.415860
      ESP Fit Center  307 is at  -1.139578 -2.233850  2.415860
      ESP Fit Center  308 is at  -1.330143 -2.979460  1.507474
      ESP Fit Center  309 is at  -0.398578 -2.441621  1.507474
      ESP Fit Center  310 is at  -1.679136 -0.150937  4.014041
      ESP Fit Center  311 is at  -0.707236 -0.150937  3.792211
      ESP Fit Center  312 is at  -1.193186  0.690753  3.792211
      ESP Fit Center  313 is at  -2.165086  0.690753  3.792211
      ESP Fit Center  314 is at  -2.651035 -0.150937  3.792211
      ESP Fit Center  315 is at  -2.165086 -0.992626  3.792211
      ESP Fit Center  316 is at  -1.193186 -0.992626  3.792211
      ESP Fit Center  317 is at   0.072167 -0.150937  3.170658
      ESP Fit Center  318 is at  -0.262302  0.878453  3.170658
      ESP Fit Center  319 is at  -1.137954  1.514651  3.170658
      ESP Fit Center  320 is at  -3.095969  0.878453  3.170658
      ESP Fit Center  321 is at  -3.430438 -0.150937  3.170658
      ESP Fit Center  322 is at  -3.095969 -1.180326  3.170658
      ESP Fit Center  323 is at  -2.220318 -1.816524  3.170658
      ESP Fit Center  324 is at  -1.137954 -1.816524  3.170658
      ESP Fit Center  325 is at  -0.262302 -1.180326  3.170658
      ESP Fit Center  326 is at   0.504703 -0.150937  2.272488
      ESP Fit Center  327 is at   0.254557  0.863944  2.272488
      ESP Fit Center  328 is at  -0.438574  1.646327  2.272488
      ESP Fit Center  329 is at  -0.438574 -1.948201  2.272488
      ESP Fit Center  330 is at   0.254557 -1.165817  2.272488
      ESP Fit Center  331 is at  -4.115133 -1.559166  2.256178
      ESP Fit Center  332 is at  -3.629184 -2.400856  2.256178
      ESP Fit Center  333 is at  -4.894536 -1.559166  1.634625
      ESP Fit Center  334 is at  -4.560067 -2.588556  1.634625
      ESP Fit Center  335 is at  -3.684416 -3.224754  1.634625
      ESP Fit Center  336 is at  -2.602052 -3.224754  1.634625
      ESP Fit Center  337 is at  -5.263614 -1.036539  0.736455
      ESP Fit Center  338 is at  -5.263614 -2.081793  0.736455
      ESP Fit Center  339 is at  -4.777860 -3.007319  0.736455
      ESP Fit Center  340 is at  -3.917634 -3.601091  0.736455
      ESP Fit Center  341 is at  -2.880001 -3.727082  0.736455
      ESP Fit Center  342 is at  -1.902672 -3.356430  0.736455
      ESP Fit Center  343 is at  -5.263614 -1.036539 -0.260439
      ESP Fit Center  344 is at  -5.263614 -2.081793 -0.260439
      ESP Fit Center  345 is at  -4.777860 -3.007319 -0.260439
      ESP Fit Center  346 is at  -3.917634 -3.601091 -0.260439
      ESP Fit Center  347 is at  -2.880001 -3.727082 -0.260439
      ESP Fit Center  348 is at  -4.894536 -1.559166 -1.158609
      ESP Fit Center  349 is at  -4.560067 -2.588556 -1.158609
      ESP Fit Center  350 is at  -3.684416 -3.224754 -1.158609
      ESP Fit Center  351 is at  -2.602052 -3.224754 -1.158609
      ESP Fit Center  352 is at  -3.629184 -2.400856 -1.780162
      ESP Fit Center  353 is at  -2.657284 -2.400856 -1.780162
      ESP Fit Center  354 is at   0.195396 -1.033384 -2.713753
      ESP Fit Center  355 is at  -0.325265 -0.131573 -2.713753
      ESP Fit Center  356 is at  -1.366586 -1.935194 -2.713753
      ESP Fit Center  357 is at  -0.325265 -1.935194 -2.713753
      ESP Fit Center  358 is at  -0.845925 -1.033384 -2.951428
      ESP Fit Center  359 is at   0.499472 -0.625725  2.061477
      ESP Fit Center  360 is at  -0.021188  0.276086 -2.500848
      ESP Fit Center  361 is at   0.499472 -0.625725 -2.738523
      ESP Fit Center  362 is at   1.513554 -1.590571  2.061343
      ESP Fit Center  363 is at   0.992893 -2.492382  1.823669
      ESP Fit Center  364 is at   2.034214 -2.492382  1.823669
      ESP Fit Center  365 is at   2.293037 -3.297401  1.157719
      ESP Fit Center  366 is at   2.034214 -0.688761 -2.500982
      ESP Fit Center  367 is at   0.992893 -2.492382 -2.500982
      ESP Fit Center  368 is at   2.034214 -2.492382 -2.500982
      ESP Fit Center  369 is at   1.513554 -1.590571 -2.738657
      ESP Fit Center  370 is at   2.848362 -1.214912  2.197542
      ESP Fit Center  371 is at   3.889683 -1.214912  1.959868
      ESP Fit Center  372 is at   2.327701 -2.116722  1.959868
      ESP Fit Center  373 is at   3.369022 -2.116722  1.959868
      ESP Fit Center  374 is at   2.581323 -3.072208  1.293918
      ESP Fit Center  375 is at   3.889683 -1.214912 -2.364783
      ESP Fit Center  376 is at   2.327701 -0.313101 -2.364783
      ESP Fit Center  377 is at   3.369022 -2.116722 -2.364783
      ESP Fit Center  378 is at   2.848362 -1.214912 -2.602458
      ESP Fit Center  379 is at   3.165166  0.132146  2.358324
      ESP Fit Center  380 is at   3.165166  0.132146 -2.441676
      ESP Fit Center  381 is at   4.846351  0.613618  2.864720
      ESP Fit Center  382 is at   5.887249  0.613618  2.657672
      ESP Fit Center  383 is at   5.366800  1.515063  2.657672
      ESP Fit Center  384 is at   4.325901  1.515063  2.657672
      ESP Fit Center  385 is at   3.805452  0.613618  2.657672
      ESP Fit Center  386 is at   4.325901 -0.287827  2.657672
      ESP Fit Center  387 is at   5.366800 -0.287827  2.657672
      ESP Fit Center  388 is at   6.769681  0.613618  2.068050
      ESP Fit Center  389 is at   6.512004  1.575283  2.068050
      ESP Fit Center  390 is at   5.808016  2.279271  2.068050
      ESP Fit Center  391 is at   4.846351  2.536948  2.068050
      ESP Fit Center  392 is at   3.884685  2.279271  2.068050
      ESP Fit Center  393 is at   3.884685 -1.052035  2.068050
      ESP Fit Center  394 is at   4.846351 -1.309713  2.068050
      ESP Fit Center  395 is at   5.808016 -1.052035  2.068050
      ESP Fit Center  396 is at   6.512004 -0.348048  2.068050
      ESP Fit Center  397 is at   7.359303  0.613618  1.185619
      ESP Fit Center  398 is at   7.142047  1.635727  1.185619
      ESP Fit Center  399 is at   6.527844  2.481105  1.185619
      ESP Fit Center  400 is at   5.622896  3.003577  1.185619
      ESP Fit Center  401 is at   4.583675  3.112804  1.185619
      ESP Fit Center  402 is at   5.622896 -1.776342  1.185619
      ESP Fit Center  403 is at   6.527844 -1.253870  1.185619
      ESP Fit Center  404 is at   7.142047 -0.408492  1.185619
      ESP Fit Center  405 is at   7.566351  0.613618  0.144720
      ESP Fit Center  406 is at   7.382675  1.596195  0.144720
      ESP Fit Center  407 is at   6.856455  2.446070  0.144720
      ESP Fit Center  408 is at   6.058759  3.048462  0.144720
      ESP Fit Center  409 is at   5.097320  3.322015  0.144720
      ESP Fit Center  410 is at   4.101987  3.229783  0.144720
      ESP Fit Center  411 is at   6.058759 -1.821226  0.144720
      ESP Fit Center  412 is at   6.856455 -1.218834  0.144720
      ESP Fit Center  413 is at   7.382675 -0.368960  0.144720
      ESP Fit Center  414 is at   7.359303  0.613618 -0.896179
      ESP Fit Center  415 is at   7.142047  1.635727 -0.896179
      ESP Fit Center  416 is at   6.527844  2.481105 -0.896179
      ESP Fit Center  417 is at   5.622896  3.003577 -0.896179
      ESP Fit Center  418 is at   4.583675  3.112804 -0.896179
      ESP Fit Center  419 is at   5.622896 -1.776342 -0.896179
      ESP Fit Center  420 is at   6.527844 -1.253870 -0.896179
      ESP Fit Center  421 is at   7.142047 -0.408492 -0.896179
      ESP Fit Center  422 is at   6.769681  0.613618 -1.778611
      ESP Fit Center  423 is at   6.512004  1.575283 -1.778611
      ESP Fit Center  424 is at   5.808016  2.279271 -1.778611
      ESP Fit Center  425 is at   4.846351  2.536948 -1.778611
      ESP Fit Center  426 is at   3.884685  2.279271 -1.778611
      ESP Fit Center  427 is at   4.846351 -1.309713 -1.778611
      ESP Fit Center  428 is at   5.808016 -1.052035 -1.778611
      ESP Fit Center  429 is at   6.512004 -0.348048 -1.778611
      ESP Fit Center  430 is at   5.887249  0.613618 -2.368233
      ESP Fit Center  431 is at   5.366800  1.515063 -2.368233
      ESP Fit Center  432 is at   4.325901  1.515063 -2.368233
      ESP Fit Center  433 is at   3.805452  0.613618 -2.368233
      ESP Fit Center  434 is at   4.325901 -0.287827 -2.368233
      ESP Fit Center  435 is at   5.366800 -0.287827 -2.368233
      ESP Fit Center  436 is at   4.846351  0.613618 -2.575280
      ESP Fit Center  437 is at   2.163825  1.102478  2.371438
      ESP Fit Center  438 is at   2.684485  2.004288  2.133763
      ESP Fit Center  439 is at   1.643164  2.004288  2.133763
      ESP Fit Center  440 is at   1.643164  0.200668  2.133763
      ESP Fit Center  441 is at   0.935047  2.520563  1.467814
      ESP Fit Center  442 is at   2.684485  2.004288 -2.190887
      ESP Fit Center  443 is at   1.643164  2.004288 -2.190887
      ESP Fit Center  444 is at   2.163825  1.102478 -2.428562
      ESP Fit Center  445 is at   0.832997  0.725778  2.210887
      ESP Fit Center  446 is at   0.312336  1.627588  1.973212
      ESP Fit Center  447 is at   1.353657 -0.176033  1.973212
      ESP Fit Center  448 is at   0.565958  2.583074  1.307262
      ESP Fit Center  449 is at   1.353657  1.627588 -2.351438
      ESP Fit Center  450 is at   0.312336  1.627588 -2.351438
      ESP Fit Center  451 is at  -0.208324  0.725778 -2.351438
      ESP Fit Center  452 is at   0.832997  0.725778 -2.589113
      ESP Fit Center  453 is at  -1.482979  2.686740 -2.164112
      ESP Fit Center  454 is at  -2.185747  3.389509 -2.164112
      ESP Fit Center  455 is at  -3.145747  3.646740 -2.164112
      ESP Fit Center  456 is at  -4.105747  3.389509 -2.164112
      ESP Fit Center  457 is at  -4.808516  2.686740 -2.164112
      ESP Fit Center  458 is at  -1.800539  2.704091 -3.124112
      ESP Fit Center  459 is at  -2.631924  3.308127 -3.124112
      ESP Fit Center  460 is at  -3.659571  3.308127 -3.124112
      ESP Fit Center  461 is at  -4.490956  2.704091 -3.124112
      ESP Fit Center  462 is at  -4.808516  1.726740 -3.124112
      ESP Fit Center  463 is at  -2.185747  1.726740 -3.826881
      ESP Fit Center  464 is at  -2.665747  2.558124 -3.826881
      ESP Fit Center  465 is at  -3.625747  2.558124 -3.826881
      ESP Fit Center  466 is at  -4.105747  1.726740 -3.826881
      ESP Fit Center  467 is at  -3.145747  1.726740 -4.084112
      ESP Fit Center  468 is at  -5.786868  0.322543 -0.685671
      ESP Fit Center  469 is at  -5.469307 -0.654808 -0.685671
      ESP Fit Center  470 is at  -5.786868  1.282543 -1.645671
      ESP Fit Center  471 is at  -6.044099  0.322543 -1.645671
      ESP Fit Center  472 is at  -5.786868 -0.637457 -1.645671
      ESP Fit Center  473 is at  -5.084099 -1.340226 -1.645671
      ESP Fit Center  474 is at  -5.469307  1.299894 -2.605671
      ESP Fit Center  475 is at  -5.786868  0.322543 -2.605671
      ESP Fit Center  476 is at  -5.469307 -0.654808 -2.605671
      ESP Fit Center  477 is at  -4.637923 -1.258844 -2.605671
      ESP Fit Center  478 is at  -5.084099  0.322543 -3.308439
      ESP Fit Center  479 is at  -4.604099 -0.508841 -3.308439
      ESP Fit Center  480 is at  -0.801697  1.051710 -2.267675
      ESP Fit Center  481 is at  -3.424466 -1.571059 -2.267675
      ESP Fit Center  482 is at  -2.464466 -1.828290 -2.267675
      ESP Fit Center  483 is at  -0.801697  0.091710 -3.227675
      ESP Fit Center  484 is at  -1.119258  1.069061 -3.227675
      ESP Fit Center  485 is at  -2.978290 -1.489677 -3.227675
      ESP Fit Center  486 is at  -1.950642 -1.489677 -3.227675
      ESP Fit Center  487 is at  -1.119258 -0.885641 -3.227675
      ESP Fit Center  488 is at  -1.504466  0.091710 -3.930444
      ESP Fit Center  489 is at  -1.984466  0.923095 -3.930444
      ESP Fit Center  490 is at  -2.944466 -0.739674 -3.930444
      ESP Fit Center  491 is at  -1.984466 -0.739674 -3.930444
[...]
  572 Fit       0.013075
  573 Fit       0.005735
  574 Fit       0.011888
  575 Fit       0.004664
  576 Fit       0.006118
  577 Fit       0.002838
  578 Fit       0.010938
  579 Fit       0.013668
  580 Fit       0.013407
  581 Fit       0.010675
  582 Fit       0.015330
  583 Fit       0.017753
  584 Fit       0.003838
  585 Fit       0.011767
  586 Fit       0.015401
  587 Fit       0.018300
  588 Fit       0.006313
  589 Fit       0.009366
  590 Fit      -0.000045
  591 Fit       0.015614
  592 Fit       0.013283
  593 Fit       0.018218
  594 Fit       0.015983
  595 Fit       0.015802
  596 Fit       0.015777
  597 Fit       0.010249
  598 Fit       0.009406
  599 Fit       0.017470
  600 Fit       0.003476
  601 Fit       0.013683
  602 Fit       0.016792
  603 Fit       0.011979
  604 Fit       0.016191
  605 Fit       0.015048
  606 Fit       0.016259
  607 Fit       0.003371
  608 Fit       0.012207
  609 Fit       0.011703
  610 Fit       0.013841
  611 Fit       0.015288
  612 Fit       0.014846
  613 Fit       0.013737
  614 Fit       0.017140
  615 Fit       0.017912
  616 Fit      -0.013799
  617 Fit      -0.021450
  618 Fit      -0.030876
  619 Fit      -0.032884
  620 Fit      -0.028145
  621 Fit      -0.014770
  622 Fit      -0.019568
  623 Fit      -0.007917
  624 Fit      -0.008619
  625 Fit       0.000495
  626 Fit      -0.032558
  627 Fit      -0.032924
  628 Fit      -0.029280
  629 Fit      -0.026867
  630 Fit      -0.030835
  631 Fit      -0.034462
  632 Fit      -0.034148
  633 Fit      -0.032709
  634 Fit      -0.029621
  635 Fit      -0.023251
  636 Fit      -0.021323
  637 Fit      -0.029837
  638 Fit      -0.034769
  639 Fit      -0.032805
  640 Fit      -0.030646
  641 Fit      -0.031849
  642 Fit      -0.019652
  643 Fit      -0.019194
  644 Fit      -0.027019
  645 Fit      -0.034068
  646 Fit      -0.022379
  647 Fit      -0.030684
  648 Fit      -0.032586
  649 Fit      -0.029959
  650 Fit      -0.021602
  651 Fit      -0.011059
  652 Fit      -0.024300
  653 Fit      -0.029161
  654 Fit      -0.029686
  655 Fit      -0.026620
  656 Fit      -0.017258
  657 Fit      -0.019843
  658 Fit      -0.025324
  659 Fit      -0.025712
  660 Fit      -0.021584
  661 Fit      -0.008476
  662 Fit      -0.018280
  663 Fit      -0.020475
  664 Fit      -0.014204
  665 Fit      -0.010923
  666 Fit       0.003697
  667 Fit       0.002858
  668 Fit       0.012859
  669 Fit       0.012099
  670 Fit       0.008009
  671 Fit       0.000269
  672 Fit       0.000647
  673 Fit      -0.016734
  674 Fit      -0.008474
  675 Fit      -0.007048
  676 Fit       0.004134
  677 Fit       0.005480
  678 Fit       0.004546
  679 Fit       0.013695
  680 Fit      -0.005564
  681 Fit       0.011412
  682 Fit       0.006061
  683 Fit       0.001490
  684 Fit      -0.013142
  685 Fit      -0.009652
  686 Fit      -0.005523
  687 Fit       0.002323
  688 Fit      -0.002696
  689 Fit      -0.007328
  690 Fit      -0.007557
  691 Fit       0.002446
  692 Fit      -0.003549
  693 Fit      -0.014791
  694 Fit      -0.015862
  695 Fit      -0.007819
  696 Fit      -0.014229
  697 Fit      -0.013181
  698 Fit      -0.013227
  699 Fit      -0.013023
  700 Fit      -0.013858
  701 Fit      -0.013508
  702 Fit      -0.013466
  703 Fit      -0.010417
  704 Fit      -0.010295
  705 Fit      -0.011124
  706 Fit      -0.010828
  707 Fit      -0.008849
  708 Fit      -0.009933
  709 Fit      -0.010840
  710 Fit      -0.009772
  711 Fit      -0.011328
  712 Fit      -0.011436
  713 Fit      -0.007254
  714 Fit      -0.006852
  715 Fit      -0.008001
  716 Fit      -0.009198
  717 Fit      -0.007916
  718 Fit      -0.002321
  719 Fit      -0.001936
  720 Fit      -0.007104
  721 Fit      -0.009492
  722 Fit      -0.008806
  723 Fit      -0.005392
  724 Fit      -0.004852
  725 Fit      -0.006010
  726 Fit      -0.007688
  727 Fit      -0.007449
  728 Fit      -0.001993
  729 Fit      -0.005290
  730 Fit      -0.008019
  731 Fit      -0.007112
  732 Fit      -0.005739
  733 Fit      -0.005293
  734 Fit      -0.006368
  735 Fit      -0.007813
  736 Fit      -0.007224
  737 Fit      -0.001348
  738 Fit      -0.003738
  739 Fit      -0.007543
  740 Fit      -0.007173
  741 Fit      -0.007820
  742 Fit      -0.007660
  743 Fit      -0.008500
  744 Fit      -0.008931
  745 Fit      -0.006585
  746 Fit       0.000056
  747 Fit      -0.002138
  748 Fit      -0.007582
  749 Fit      -0.008515
  750 Fit      -0.010048
  751 Fit      -0.010188
  752 Fit      -0.010229
  753 Fit      -0.008458
  754 Fit      -0.005076
  755 Fit      -0.002173
  756 Fit      -0.006868
  757 Fit      -0.009622
  758 Fit      -0.010751
  759 Fit      -0.010567
  760 Fit      -0.008497
  761 Fit      -0.008163
  762 Fit      -0.007151
  763 Fit      -0.008782
  764 Fit      -0.009476
  765 Fit      -0.014353
  766 Fit      -0.006796
  767 Fit      -0.008502
  768 Fit      -0.021539
  769 Fit      -0.000894
  770 Fit       0.002550
  771 Fit       0.006264
  772 Fit      -0.002859
  773 Fit      -0.001169
  774 Fit      -0.006222
  775 Fit      -0.026549
  776 Fit      -0.019108
  777 Fit      -0.024431
  778 Fit       0.000760
  779 Fit       0.007453
  780 Fit      -0.002328
  781 Fit       0.002377
  782 Fit       0.001732
  783 Fit      -0.002790
  784 Fit       0.013811
  785 Fit       0.019162
  786 Fit       0.022785
  787 Fit       0.023364
  788 Fit       0.021360
  789 Fit       0.015342
  790 Fit       0.018570
  791 Fit       0.020103
  792 Fit       0.019616
  793 Fit       0.018275
  794 Fit       0.015490
  795 Fit       0.017243
  796 Fit       0.018283
  797 Fit       0.017832
  798 Fit       0.017157
  799 Fit       0.003427
  800 Fit       0.016917
  801 Fit       0.012850
  802 Fit       0.007725
  803 Fit      -0.000079
  804 Fit      -0.011572
  805 Fit       0.013871
  806 Fit       0.010328
  807 Fit       0.005947
  808 Fit       0.002956
  809 Fit       0.014152
  810 Fit       0.011700
  811 Fit      -0.001167
  812 Fit       0.006859
  813 Fit       0.009655
  814 Fit       0.009770
  815 Fit       0.010898
  816 Fit       0.012600
  817 Fit       0.008659
  818 Fit       0.012495
  819 Fit       0.014670
  820 Fit       0.013668
  821 Fit       0.013406
  822 Fit       0.014855
  823 Fit       0.014497
  824 Fit       0.015747
  825 Fit       0.016471
  826 Fit       0.015285
  827 Fit       0.016443
  828 Fit       0.017489
  829 Fit       0.017922
  830 Fit       0.017792
  831 Fit       0.018195
  832 Fit       0.019645
  833 Fit       0.020273
  834 Fit       0.020223
  835 Fit       0.020113
  836 Fit       0.024881
  837 Fit      -0.006149
  838 Fit      -0.013553
  839 Fit       0.001482
  840 Fit       0.005097
  841 Fit       0.000701
  842 Fit      -0.015217
  843 Fit       0.000871
  844 Fit       0.007635
  845 Fit       0.010673
  846 Fit       0.006410
  847 Fit       0.010697
  848 Fit       0.005431
  849 Fit      -0.002021
  850 Fit       0.012833
  851 Fit       0.010103
  852 Fit       0.006155
  853 Fit      -0.001303
  854 Fit       0.014576
  855 Fit       0.012331
  856 Fit       0.009140
  857 Fit       0.002427
  858 Fit       0.015144
  859 Fit       0.012884
  860 Fit       0.015696
  861 Fit       0.015700
  862 Fit       0.028493
  863 Fit       0.012690
  864 Fit       0.024629
  865 Fit       0.032144
  866 Fit       0.019548
  867 Fit       0.024265
  868 Fit       0.008312
  869 Fit       0.019292
  870 Fit       0.016394
  871 Fit       0.015508
  872 Fit       0.022608
  873 Fit       0.019794
  874 Fit       0.019493
  875 Fit       0.029669
  876 Fit       0.022156
  877 Fit       0.019299
  878 Fit       0.018647
  879 Fit       0.021811
  880 Fit       0.016056
  881 Fit       0.004546
  882 Fit       0.013048
  883 Fit       0.010998
  884 Fit       0.007024
  885 Fit       0.016068
  886 Fit       0.012913
  887 Fit       0.008346
  888 Fit       0.017692
  889 Fit       0.013807
  890 Fit       0.009533
  891 Fit       0.003555
  892 Fit       0.009686
  893 Fit       0.002098
  894 Fit       0.003719
  895 Fit       0.006939
  896 Fit       0.010373
  897 Fit       0.011179
  898 Fit       0.006499
  899 Fit       0.011468
  900 Fit       0.014236
  901 Fit       0.017395
  902 Fit       0.008017
  903 Fit       0.012086
  904 Fit       0.014862
  905 Fit       0.004407
  906 Fit      -0.001701
  907 Fit       0.011787
  908 Fit       0.016485
  909 Fit       0.015570
  910 Fit       0.014509
  911 Fit       0.009984
  912 Fit       0.012217
  913 Fit       0.016580
  914 Fit       0.009141
  915 Fit       0.005566
  916 Fit       0.012611
  917 Fit       0.014768
  918 Fit       0.012797
  919 Fit       0.010905
  920 Fit       0.014872
  921 Fit       0.014161
  922 Fit       0.013190
  923 Fit       0.014220
  924 Fit       0.000771
  925 Fit       0.008746
  926 Fit       0.006746
  927 Fit      -0.007558
  928 Fit       0.010612
  929 Fit       0.011869
  930 Fit       0.011951
  931 Fit       0.011216
  932 Fit       0.010830
  933 Fit       0.014335
  934 Fit       0.013326
  935 Fit       0.014415
  936 Fit       0.015137
  937 Fit       0.016480
  938 Fit      -0.020374
  939 Fit      -0.026622
  940 Fit      -0.028370
  941 Fit      -0.026157
  942 Fit      -0.013985
  943 Fit      -0.018902
  944 Fit      -0.012368
  945 Fit      -0.013701
  946 Fit      -0.002059
  947 Fit       0.005670
  948 Fit      -0.027450
  949 Fit      -0.027859
  950 Fit      -0.024879
  951 Fit      -0.022976
  952 Fit      -0.026045
  953 Fit      -0.028998
  954 Fit      -0.028880
  955 Fit      -0.027781
  956 Fit      -0.025480
  957 Fit      -0.021085
  958 Fit      -0.015881
  959 Fit      -0.016826
  960 Fit      -0.022672
  961 Fit      -0.028035
  962 Fit      -0.029658
  963 Fit      -0.028015
  964 Fit      -0.026927
  965 Fit      -0.027585
  966 Fit      -0.027494
  967 Fit      -0.025099
  968 Fit      -0.018767
  969 Fit      -0.020773
  970 Fit      -0.025148
  971 Fit      -0.023444
  972 Fit      -0.027180
  973 Fit      -0.027515
  974 Fit      -0.024871
  975 Fit      -0.016310
  976 Fit      -0.023174
  977 Fit      -0.025654
  978 Fit      -0.025246
  979 Fit      -0.021796
  980 Fit      -0.013831
  981 Fit      -0.012985
  982 Fit      -0.019999
  983 Fit      -0.022770
  984 Fit      -0.022758
  985 Fit      -0.019989
  986 Fit      -0.012836
  987 Fit       0.002380
  988 Fit      -0.016221
  989 Fit      -0.019268
  990 Fit      -0.018272
  991 Fit      -0.012502
  992 Fit       0.002621
  993 Fit      -0.013470
  994 Fit      -0.012972
  995 Fit      -0.005251
  996 Fit      -0.005178
  997 Fit       0.011853
  998 Fit       0.018621
  999 Fit       0.004560
 1000 Fit       0.004870
 1001 Fit       0.011877
 1002 Fit       0.010535
 1003 Fit      -0.002137
 1004 Fit       0.002229
 1005 Fit       0.001923
 1006 Fit      -0.016210
 1007 Fit      -0.010077
 1008 Fit      -0.007714
 1009 Fit      -0.001643
 1010 Fit       0.001460
 1011 Fit       0.001361
 1012 Fit       0.020660
 1013 Fit       0.010983
 1014 Fit      -0.003356
 1015 Fit       0.009721
 1016 Fit       0.005658
 1017 Fit       0.002362
 1018 Fit      -0.012494
 1019 Fit      -0.009635
 1020 Fit      -0.006383
 1021 Fit      -0.000347
 1022 Fit       0.000911
 1023 Fit      -0.002171
 1024 Fit       0.007829
 1025 Fit       0.003721
 1026 Fit      -0.002240
 1027 Fit      -0.005636
 1028 Fit      -0.005344
 1029 Fit       0.002116
 1030 Fit      -0.002151
 1031 Fit      -0.014803
 1032 Fit      -0.006149
 1033 Fit      -0.012096
 1034 Fit      -0.011205
 1035 Fit      -0.011193
 1036 Fit      -0.011322
 1037 Fit      -0.012490
 1038 Fit      -0.011973
 1039 Fit      -0.011415
 1040 Fit      -0.009426
 1041 Fit      -0.009336
 1042 Fit      -0.009639
 1043 Fit      -0.009283
 1044 Fit      -0.008414
 1045 Fit      -0.010134
 1046 Fit      -0.010509
 1047 Fit      -0.009034
 1048 Fit      -0.009690
 1049 Fit      -0.009886
 1050 Fit      -0.007272
 1051 Fit      -0.007040
 1052 Fit      -0.007586
 1053 Fit      -0.007994
 1054 Fit      -0.006811
 1055 Fit      -0.003442
 1056 Fit      -0.003701
 1057 Fit      -0.006458
 1058 Fit      -0.008157
 1059 Fit      -0.008043
 1060 Fit      -0.005602
 1061 Fit      -0.005264
 1062 Fit      -0.005814
 1063 Fit      -0.006641
 1064 Fit      -0.006408
 1065 Fit      -0.003388
 1066 Fit       0.000097
 1067 Fit      -0.005148
 1068 Fit      -0.006867
 1069 Fit      -0.006510
 1070 Fit      -0.005074
 1071 Fit      -0.004738
 1072 Fit      -0.005183
 1073 Fit      -0.006008
 1074 Fit      -0.006200
 1075 Fit      -0.004309
 1076 Fit       0.001800
 1077 Fit       0.000952
 1078 Fit      -0.004576
 1079 Fit      -0.006182
 1080 Fit      -0.005874
 1081 Fit      -0.005765
 1082 Fit      -0.005559
 1083 Fit      -0.006029
 1084 Fit      -0.006588
 1085 Fit      -0.005932
 1086 Fit      -0.002369
 1087 Fit      -0.002971
 1088 Fit      -0.005972
 1089 Fit      -0.006300
 1090 Fit      -0.007112
 1091 Fit      -0.007109
 1092 Fit      -0.007406
 1093 Fit      -0.007160
 1094 Fit      -0.005029
 1095 Fit      -0.000634
 1096 Fit      -0.001490
 1097 Fit      -0.005772
 1098 Fit      -0.007111
 1099 Fit      -0.008200
 1100 Fit      -0.008340
 1101 Fit      -0.008054
 1102 Fit      -0.006522
 1103 Fit      -0.004335
 1104 Fit      -0.002154
 1105 Fit      -0.005221
 1106 Fit      -0.007503
 1107 Fit      -0.008275
 1108 Fit      -0.008110
 1109 Fit      -0.006677
 1110 Fit      -0.006528
 1111 Fit      -0.005733
 1112 Fit      -0.006731
 1113 Fit      -0.007316
 1114 Fit      -0.013811
 1115 Fit      -0.007817
 1116 Fit      -0.009344
 1117 Fit      -0.019373
 1118 Fit      -0.020233
 1119 Fit       0.000593
 1120 Fit      -0.003972
 1121 Fit       0.007546
 1122 Fit       0.001010
 1123 Fit       0.004449
 1124 Fit      -0.002423
 1125 Fit      -0.000491
 1126 Fit      -0.004436
 1127 Fit      -0.025181
 1128 Fit      -0.019597
 1129 Fit      -0.023495
 1130 Fit      -0.002788
 1131 Fit       0.008551
 1132 Fit       0.011286
 1133 Fit       0.006276
 1134 Fit       0.008327
 1135 Fit      -0.004888
 1136 Fit      -0.000972
 1137 Fit       0.003087
 1138 Fit       0.003325
 1139 Fit      -0.000959
 1140 Fit       0.017818
 1141 Fit       0.012581
 1142 Fit       0.016057
 1143 Fit       0.018521
 1144 Fit       0.019450
 1145 Fit       0.018765
 1146 Fit       0.017371
 1147 Fit       0.013844
 1148 Fit       0.016127
 1149 Fit       0.017292
 1150 Fit       0.017088
 1151 Fit       0.016288
 1152 Fit       0.015258
 1153 Fit       0.016068
 1154 Fit       0.015878
 1155 Fit       0.015348
 1156 Fit       0.000956
 1157 Fit       0.013475
 1158 Fit       0.008193
 1159 Fit       0.000900
 1160 Fit       0.013136
 1161 Fit       0.009650
 1162 Fit       0.005264
 1163 Fit      -0.000457
 1164 Fit      -0.006394
 1165 Fit       0.012669
 1166 Fit       0.009591
 1167 Fit       0.006479
 1168 Fit       0.005437
 1169 Fit       0.007680
 1170 Fit       0.009665
 1171 Fit       0.010380
 1172 Fit       0.011562
 1173 Fit       0.009286
 1174 Fit       0.011394
 1175 Fit       0.012296
 1176 Fit       0.011927
 1177 Fit       0.013222
 1178 Fit       0.013451
 1179 Fit       0.013518
 1180 Fit       0.014347
 1181 Fit       0.014926
 1182 Fit       0.015160
 1183 Fit       0.015315
 1184 Fit       0.015687
 1185 Fit       0.016304
 1186 Fit       0.016681
 1187 Fit       0.016701
 1188 Fit       0.016648
 1189 Fit       0.017658
 1190 Fit       0.018508
 1191 Fit       0.018917
 1192 Fit       0.019072
 1193 Fit       0.019468
 1194 Fit      -0.007374
 1195 Fit      -0.013469
 1196 Fit      -0.000933
 1197 Fit       0.002389
 1198 Fit      -0.001576
 1199 Fit      -0.001795
 1200 Fit       0.004816
 1201 Fit       0.007661
 1202 Fit       0.001537
 1203 Fit       0.007154
 1204 Fit       0.003219
 1205 Fit      -0.003927
 1206 Fit       0.010260
 1207 Fit       0.007558
 1208 Fit       0.003609
 1209 Fit      -0.003371
 1210 Fit       0.010675
 1211 Fit       0.008101
 1212 Fit       0.003690
 1213 Fit      -0.005195
 1214 Fit       0.012708
 1215 Fit       0.010428
 1216 Fit       0.006625
 1217 Fit      -0.002046
 1218 Fit       0.014816
 1219 Fit       0.008604
 1220 Fit       0.012652
 1221 Fit       0.023872
 1222 Fit       0.003950
 1223 Fit       0.017242
 1224 Fit       0.026147
 1225 Fit       0.011430
 1226 Fit       0.020026
 1227 Fit       0.025408
 1228 Fit       0.016163
 1229 Fit       0.019342
 1230 Fit       0.012638
 1231 Fit       0.011692
 1232 Fit       0.011308
 1233 Fit       0.020033
 1234 Fit       0.016628
 1235 Fit       0.015517
 1236 Fit       0.016163
 1237 Fit       0.024749
 1238 Fit       0.019289
 1239 Fit       0.017314
 1240 Fit       0.017270
 1241 Fit       0.024913
 1242 Fit       0.018969
 1243 Fit       0.016322
 1244 Fit       0.018268
 1245 Fit       0.013630
 1246 Fit       0.001806
 1247 Fit       0.008908
 1248 Fit       0.007434
 1249 Fit       0.003880
 1250 Fit       0.015323
 1251 Fit       0.011993
 1252 Fit       0.009236
 1253 Fit       0.004917
 1254 Fit       0.017870
 1255 Fit       0.013431
 1256 Fit       0.010332
 1257 Fit       0.006070
 1258 Fit       0.014540
 1259 Fit       0.011064
 1260 Fit       0.007159
 1261 Fit       0.007455
 1262 Fit      -0.000351
 1263 Fit       0.000871
 1264 Fit       0.003938
 1265 Fit       0.006910
 1266 Fit       0.007132
 1267 Fit       0.003029
 1268 Fit       0.007931
 1269 Fit       0.010630
 1270 Fit       0.012647
 1271 Fit       0.003537
 1272 Fit       0.008531
 1273 Fit       0.011571
 1274 Fit       0.014452
 1275 Fit       0.005653
 1276 Fit       0.009427
 1277 Fit      -0.005506
 1278 Fit       0.008087
 1279 Fit       0.014590
 1280 Fit       0.013411
 1281 Fit       0.014792
 1282 Fit       0.014640
 1283 Fit       0.012553
 1284 Fit       0.009290
 -----------------------------------------------------------------
 Leave Link  602 at Fri Aug 24 15:37:40 2018, MaxMem=   33554432 cpu:       0.7

 Test job not archived.
 1\1\GINC-NODE080\SP\RHF\6-31G(d)\C8H11Cl1N2O2S1\WULSDORT\24-Aug-2018\0
 \\#HF/6-31G* Geom=AllCheck Guess=Read Pop=(MK,ReadRadii) Integral=(Gri
 d=UltraFine) iop(6/33=2)\\Optimization for frag48-conf1\\0,1\C,0,2.883
 6189354,-2.7595926552,-0.7029553432\N,0,2.5186685214,-2.1527307882,-1.
 9912644412\C,0,1.1960795659,-2.5708619183,-2.4877884359\S,0,2.76641095
 06,-0.4781500986,-2.0545015705\O,0,2.2550553419,-0.040186467,-3.348965
 7058\O,0,2.3628634361,0.1921729767,-0.8150999536\N,0,4.4635573087,-0.4
 30414191,-1.9884513891\C,0,5.2815113532,-0.5246511003,-3.1476232329\C,
 0,6.3219639227,0.3945838628,-3.3258277637\C,0,7.1839158041,0.286003480
 7,-4.4151538417\C,0,6.9866703076,-0.7349085025,-5.3423067861\Cl,0,8.06
 16231895,-0.8709005409,-6.72755819\C,0,5.9472668611,-1.6506500388,-5.1
 827461121\C,0,5.1026120544,-1.5535712463,-4.0800601961\H,0,2.877338175
 3,-3.8454341742,-0.8352994603\H,0,2.1865459262,-2.4875383742,0.1009949
 914\H,0,3.8931109061,-2.4485984108,-0.4287926004\H,0,1.2243351459,-3.6
 567972525,-2.6161351416\H,0,1.0061679424,-2.1029367481,-3.453229303\H,
 0,0.3838362989,-2.3180119529,-1.7910286308\H,0,4.7202422376,0.31582348
 12,-1.3480318492\H,0,6.4624346229,1.2017416399,-2.6108729038\H,0,7.992
 5901041,0.9965666971,-4.5475493082\H,0,5.8058317313,-2.4431308939,-5.9
 09785557\H,0,4.3073204815,-2.2760346048,-3.9373391417\\Version=AM64L-G
 09RevC.01\State=1-A\HF=-1424.8679044\RMSD=5.703e-09\Dipole=0.2230437,-
 1.1644103,0.8374592\Quadrupole=-2.2726469,5.4637389,-3.191092,12.34543
 93,4.5589554,-1.7220621\PG=C01 [X(C8H11Cl1N2O2S1)]\\@


 WE ARE REACHING THE STAGE WHERE THE PROBLEMS WE MUST SOLVE ARE 
 GOING TO BECOME INSOLUBLE WITHOUT COMPUTERS.
 I DO NOT FEAR COMPUTERS.  I FEAR THE LACK OF THEM.

                                   -- ISSAC ASIMOV
 Job cpu time:  0 days  0 hours  3 minutes 22.5 seconds.
 File lengths (MBytes):  RWF=     35 Int=      0 D2E=      0 Chk=      5 Scr=      1
 Normal termination of Gaussian 09 at Fri Aug 24 15:37:43 2018.
