 Entering Gaussian System, Link 0=g09
 Initial command:
 /home/fb_chem/chemsoft/lx24-amd64/Gaussian_09_C.01_NBO_3.1_64_istanbul-64/g09/l1.exe /local/2659146.1.parallel_long/Gau-21326.inp -scrdir=/local/2659146.1.parallel_long/
 Entering Link 1 = /home/fb_chem/chemsoft/lx24-amd64/Gaussian_09_C.01_NBO_3.1_64_istanbul-64/g09/l1.exe PID=     21341.
  
 Copyright (c) 1988,1990,1992,1993,1995,1998,2003,2009,2011,
            Gaussian, Inc.  All Rights Reserved.
  
 This is part of the Gaussian(R) 09 program.  It is based on
 the Gaussian(R) 03 system (copyright 2003, Gaussian, Inc.),
 the Gaussian(R) 98 system (copyright 1998, Gaussian, Inc.),
 the Gaussian(R) 94 system (copyright 1995, Gaussian, Inc.),
 the Gaussian 92(TM) system (copyright 1992, Gaussian, Inc.),
 the Gaussian 90(TM) system (copyright 1990, Gaussian, Inc.),
 the Gaussian 88(TM) system (copyright 1988, Gaussian, Inc.),
 the Gaussian 86(TM) system (copyright 1986, Carnegie Mellon
 University), and the Gaussian 82(TM) system (copyright 1983,
 Carnegie Mellon University). Gaussian is a federally registered
 trademark of Gaussian, Inc.
  
 This software contains proprietary and confidential information,
 including trade secrets, belonging to Gaussian, Inc.
  
 This software is provided under written license and may be
 used, copied, transmitted, or stored only in accord with that
 written license.
  
 The following legend is applicable only to US Government
 contracts under FAR:
  
                    RESTRICTED RIGHTS LEGEND
  
 Use, reproduction and disclosure by the US Government is
 subject to restrictions as set forth in subparagraphs (a)
 and (c) of the Commercial Computer Software - Restricted
 Rights clause in FAR 52.227-19.
  
 Gaussian, Inc.
 340 Quinnipiac St., Bldg. 40, Wallingford CT 06492
  
  
 ---------------------------------------------------------------
 Warning -- This program may not be used in any manner that
 competes with the business of Gaussian, Inc. or will provide
 assistance to any competitor of Gaussian, Inc.  The licensee
 of this program is prohibited from giving any competitor of
 Gaussian, Inc. access to this program.  By using this program,
 the user acknowledges that Gaussian, Inc. is engaged in the
 business of creating and licensing software in the field of
 computational chemistry and represents and warrants to the
 licensee that it is not a competitor of Gaussian, Inc. and that
 it will not use this program in any manner prohibited above.
 ---------------------------------------------------------------
  

 Cite this work as:
 Gaussian 09, Revision C.01,
 M. J. Frisch, G. W. Trucks, H. B. Schlegel, G. E. Scuseria, 
 M. A. Robb, J. R. Cheeseman, G. Scalmani, V. Barone, B. Mennucci, 
 G. A. Petersson, H. Nakatsuji, M. Caricato, X. Li, H. P. Hratchian, 
 A. F. Izmaylov, J. Bloino, G. Zheng, J. L. Sonnenberg, M. Hada, 
 M. Ehara, K. Toyota, R. Fukuda, J. Hasegawa, M. Ishida, T. Nakajima, 
 Y. Honda, O. Kitao, H. Nakai, T. Vreven, J. A. Montgomery, Jr., 
 J. E. Peralta, F. Ogliaro, M. Bearpark, J. J. Heyd, E. Brothers, 
 K. N. Kudin, V. N. Staroverov, T. Keith, R. Kobayashi, J. Normand, 
 K. Raghavachari, A. Rendell, J. C. Burant, S. S. Iyengar, J. Tomasi, 
 M. Cossi, N. Rega, J. M. Millam, M. Klene, J. E. Knox, J. B. Cross, 
 V. Bakken, C. Adamo, J. Jaramillo, R. Gomperts, R. E. Stratmann, 
 O. Yazyev, A. J. Austin, R. Cammi, C. Pomelli, J. W. Ochterski, 
 R. L. Martin, K. Morokuma, V. G. Zakrzewski, G. A. Voth, 
 P. Salvador, J. J. Dannenberg, S. Dapprich, A. D. Daniels, 
 O. Farkas, J. B. Foresman, J. V. Ortiz, J. Cioslowski, 
 and D. J. Fox, Gaussian, Inc., Wallingford CT, 2010.
 
 ******************************************
 Gaussian 09:  AM64L-G09RevC.01 23-Sep-2011
                24-Aug-2018 
 ******************************************
 %nprocs=8
 Will use up to    8 processors via shared memory.
 %chk=frag48-conf1.chk
 ---------------------------------------------------------
 #B3LYP/6-31G* Integral=(Grid=UltraFine) freq Opt pop=none
 ---------------------------------------------------------
 1/14=-1,18=20,19=15,26=3,38=1/1,3;
 2/9=110,12=2,17=6,18=5,40=1/2;
 3/5=1,6=6,7=1,11=2,16=1,25=1,30=1,71=1,74=-5,75=-5/1,2,3;
 4//1;
 5/5=2,38=5/2;
 7//1,2,3,16;
 1/14=-1,18=20,19=15/3(2);
 2/9=110/2;
 99//99;
 2/9=110/2;
 3/5=1,6=6,7=1,11=2,16=1,25=1,30=1,71=1,74=-5,75=-5/1,2,3;
 4/5=5,16=3/1;
 5/5=2,38=5/2;
 7//1,2,3,16;
 1/14=-1,18=20,19=15/3(-5);
 2/9=110/2;
 99/9=1/99;
 -----------------------------
 Optimization for frag48-conf1
 -----------------------------
 Charge =  0 Multiplicity = 1
 Symbolic Z-Matrix:
 C                     2.92338  -2.99724  -1.33607 
 N                     2.62891  -1.88935  -2.26959 
 C                     1.24137  -1.98134  -2.77836 
 S                     3.04052  -0.35006  -1.69058 
 O                     2.72193   0.63595  -2.6946 
 O                     2.52413  -0.22661  -0.34547 
 N                     4.72693  -0.46034  -1.55743 
 C                     5.44657  -0.60026  -2.78745 
 C                     5.78121   0.50779  -3.56862 
 C                     6.36438   0.31701  -4.82725 
 C                     6.61315  -0.97536  -5.29143 
 Cl                    7.26424  -1.21757  -6.8647 
 C                     6.31701  -2.07798  -4.49635 
 C                     5.73103  -1.88624  -3.24676 
 H                     2.75336  -3.95472  -1.83957 
 H                     2.28523  -2.94851  -0.45007 
 H                     3.96938  -2.98503  -1.0225 
 H                     1.07343  -2.97187  -3.2159 
 H                     1.06206  -1.24949  -3.57082 
 H                     0.51779  -1.83605  -1.9702 
 H                     5.03764   0.333    -0.99705 
 H                     5.56555   1.51812  -3.23102 
 H                     6.59896   1.1758   -5.45098 
 H                     6.51695  -3.08717  -4.84418 
 H                     5.48647  -2.75068  -2.64041 
 

 GradGradGradGradGradGradGradGradGradGradGradGradGradGradGradGradGradGrad
 Berny optimization.
 Initialization pass.
                           ----------------------------
                           !    Initial Parameters    !
                           ! (Angstroms and Degrees)  !
 --------------------------                            --------------------------
 ! Name  Definition              Value          Derivative Info.                !
 --------------------------------------------------------------------------------
 ! R1    R(1,2)                  1.4784         estimate D2E/DX2                !
 ! R2    R(1,15)                 1.0951         estimate D2E/DX2                !
 ! R3    R(1,16)                 1.093          estimate D2E/DX2                !
 ! R4    R(1,17)                 1.0921         estimate D2E/DX2                !
 ! R5    R(2,3)                  1.4807         estimate D2E/DX2                !
 ! R6    R(2,4)                  1.6953         estimate D2E/DX2                !
 ! R7    R(3,18)                 1.0958         estimate D2E/DX2                !
 ! R8    R(3,19)                 1.0935         estimate D2E/DX2                !
 ! R9    R(3,20)                 1.0944         estimate D2E/DX2                !
 ! R10   R(4,5)                  1.4428         estimate D2E/DX2                !
 ! R11   R(4,6)                  1.4461         estimate D2E/DX2                !
 ! R12   R(4,7)                  1.6953         estimate D2E/DX2                !
 ! R13   R(7,8)                  1.4319         estimate D2E/DX2                !
 ! R14   R(7,21)                 1.0198         estimate D2E/DX2                !
 ! R15   R(8,9)                  1.3964         estimate D2E/DX2                !
 ! R16   R(8,14)                 1.3949         estimate D2E/DX2                !
 ! R17   R(9,10)                 1.4002         estimate D2E/DX2                !
 ! R18   R(9,22)                 1.0869         estimate D2E/DX2                !
 ! R19   R(10,11)                1.3956         estimate D2E/DX2                !
 ! R20   R(10,23)                1.087          estimate D2E/DX2                !
 ! R21   R(11,12)                1.7198         estimate D2E/DX2                !
 ! R22   R(11,13)                1.3913         estimate D2E/DX2                !
 ! R23   R(13,14)                1.3934         estimate D2E/DX2                !
 ! R24   R(13,24)                1.086          estimate D2E/DX2                !
 ! R25   R(14,25)                1.0838         estimate D2E/DX2                !
 ! A1    A(2,1,15)             109.5103         estimate D2E/DX2                !
 ! A2    A(2,1,16)             111.2331         estimate D2E/DX2                !
 ! A3    A(2,1,17)             111.3281         estimate D2E/DX2                !
 ! A4    A(15,1,16)            108.7266         estimate D2E/DX2                !
 ! A5    A(15,1,17)            106.8887         estimate D2E/DX2                !
 ! A6    A(16,1,17)            109.0251         estimate D2E/DX2                !
 ! A7    A(1,2,3)              110.9192         estimate D2E/DX2                !
 ! A8    A(1,2,4)              114.6079         estimate D2E/DX2                !
 ! A9    A(3,2,4)              113.6573         estimate D2E/DX2                !
 ! A10   A(2,3,18)             109.6915         estimate D2E/DX2                !
 ! A11   A(2,3,19)             111.1661         estimate D2E/DX2                !
 ! A12   A(2,3,20)             110.9502         estimate D2E/DX2                !
 ! A13   A(18,3,19)            106.8867         estimate D2E/DX2                !
 ! A14   A(18,3,20)            108.2718         estimate D2E/DX2                !
 ! A15   A(19,3,20)            109.7481         estimate D2E/DX2                !
 ! A16   A(2,4,5)              109.2212         estimate D2E/DX2                !
 ! A17   A(2,4,6)              107.9685         estimate D2E/DX2                !
 ! A18   A(2,4,7)              102.0804         estimate D2E/DX2                !
 ! A19   A(5,4,6)              120.6697         estimate D2E/DX2                !
 ! A20   A(5,4,7)              108.5884         estimate D2E/DX2                !
 ! A21   A(6,4,7)              106.7214         estimate D2E/DX2                !
 ! A22   A(4,7,8)              116.0296         estimate D2E/DX2                !
 ! A23   A(4,7,21)             107.1963         estimate D2E/DX2                !
 ! A24   A(8,7,21)             113.2612         estimate D2E/DX2                !
 ! A25   A(7,8,9)              121.5627         estimate D2E/DX2                !
 ! A26   A(7,8,14)             118.3883         estimate D2E/DX2                !
 ! A27   A(9,8,14)             119.8988         estimate D2E/DX2                !
 ! A28   A(8,9,10)             119.6392         estimate D2E/DX2                !
 ! A29   A(8,9,22)             121.0849         estimate D2E/DX2                !
 ! A30   A(10,9,22)            119.2424         estimate D2E/DX2                !
 ! A31   A(9,10,11)            119.9598         estimate D2E/DX2                !
 ! A32   A(9,10,23)            119.8686         estimate D2E/DX2                !
 ! A33   A(11,10,23)           120.1532         estimate D2E/DX2                !
 ! A34   A(10,11,12)           120.1441         estimate D2E/DX2                !
 ! A35   A(10,11,13)           120.3917         estimate D2E/DX2                !
 ! A36   A(12,11,13)           119.4558         estimate D2E/DX2                !
 ! A37   A(11,13,14)           119.5346         estimate D2E/DX2                !
 ! A38   A(11,13,24)           120.9467         estimate D2E/DX2                !
 ! A39   A(14,13,24)           119.5064         estimate D2E/DX2                !
 ! A40   A(8,14,13)            120.5261         estimate D2E/DX2                !
 ! A41   A(8,14,25)            120.3355         estimate D2E/DX2                !
 ! A42   A(13,14,25)           119.1335         estimate D2E/DX2                !
 ! D1    D(15,1,2,3)            57.1934         estimate D2E/DX2                !
 ! D2    D(15,1,2,4)          -172.4485         estimate D2E/DX2                !
 ! D3    D(16,1,2,3)           -63.0109         estimate D2E/DX2                !
 ! D4    D(16,1,2,4)            67.3473         estimate D2E/DX2                !
 ! D5    D(17,1,2,3)           175.1767         estimate D2E/DX2                !
 ! D6    D(17,1,2,4)           -54.4652         estimate D2E/DX2                !
 ! D7    D(1,2,3,18)           -54.1511         estimate D2E/DX2                !
 ! D8    D(1,2,3,19)          -172.1473         estimate D2E/DX2                !
 ! D9    D(1,2,3,20)            65.4259         estimate D2E/DX2                !
 ! D10   D(4,2,3,18)           174.994          estimate D2E/DX2                !
 ! D11   D(4,2,3,19)            56.9978         estimate D2E/DX2                !
 ! D12   D(4,2,3,20)           -65.429          estimate D2E/DX2                !
 ! D13   D(1,2,4,5)            179.2613         estimate D2E/DX2                !
 ! D14   D(1,2,4,6)            -47.819          estimate D2E/DX2                !
 ! D15   D(1,2,4,7)             64.4361         estimate D2E/DX2                !
 ! D16   D(3,2,4,5)            -51.7335         estimate D2E/DX2                !
 ! D17   D(3,2,4,6)             81.1862         estimate D2E/DX2                !
 ! D18   D(3,2,4,7)           -166.5587         estimate D2E/DX2                !
 ! D19   D(2,4,7,8)             66.3893         estimate D2E/DX2                !
 ! D20   D(2,4,7,21)          -165.9336         estimate D2E/DX2                !
 ! D21   D(5,4,7,8)            -48.8995         estimate D2E/DX2                !
 ! D22   D(5,4,7,21)            78.7777         estimate D2E/DX2                !
 ! D23   D(6,4,7,8)            179.5746         estimate D2E/DX2                !
 ! D24   D(6,4,7,21)           -52.7482         estimate D2E/DX2                !
 ! D25   D(4,7,8,9)             83.4855         estimate D2E/DX2                !
 ! D26   D(4,7,8,14)           -92.0549         estimate D2E/DX2                !
 ! D27   D(21,7,8,9)           -41.13           estimate D2E/DX2                !
 ! D28   D(21,7,8,14)          143.3297         estimate D2E/DX2                !
 ! D29   D(7,8,9,10)          -173.5558         estimate D2E/DX2                !
 ! D30   D(7,8,9,22)             4.3258         estimate D2E/DX2                !
 ! D31   D(14,8,9,10)            1.9184         estimate D2E/DX2                !
 ! D32   D(14,8,9,22)          179.8            estimate D2E/DX2                !
 ! D33   D(7,8,14,13)          173.9804         estimate D2E/DX2                !
 ! D34   D(7,8,14,25)           -5.2058         estimate D2E/DX2                !
 ! D35   D(9,8,14,13)           -1.6365         estimate D2E/DX2                !
 ! D36   D(9,8,14,25)          179.1773         estimate D2E/DX2                !
 ! D37   D(8,9,10,11)           -0.2796         estimate D2E/DX2                !
 ! D38   D(8,9,10,23)          178.167          estimate D2E/DX2                !
 ! D39   D(22,9,10,11)        -178.2004         estimate D2E/DX2                !
 ! D40   D(22,9,10,23)           0.2461         estimate D2E/DX2                !
 ! D41   D(9,10,11,12)         177.2699         estimate D2E/DX2                !
 ! D42   D(9,10,11,13)          -1.6704         estimate D2E/DX2                !
 ! D43   D(23,10,11,12)         -1.1723         estimate D2E/DX2                !
 ! D44   D(23,10,11,13)        179.8875         estimate D2E/DX2                !
 ! D45   D(10,11,13,14)          1.9592         estimate D2E/DX2                !
 ! D46   D(10,11,13,24)       -179.3257         estimate D2E/DX2                !
 ! D47   D(12,11,13,14)       -176.9883         estimate D2E/DX2                !
 ! D48   D(12,11,13,24)          1.7268         estimate D2E/DX2                !
 ! D49   D(11,13,14,8)          -0.3045         estimate D2E/DX2                !
 ! D50   D(11,13,14,25)        178.8914         estimate D2E/DX2                !
 ! D51   D(24,13,14,8)        -179.0383         estimate D2E/DX2                !
 ! D52   D(24,13,14,25)          0.1576         estimate D2E/DX2                !
 --------------------------------------------------------------------------------
 Trust Radius=3.00D-01 FncErr=1.00D-07 GrdErr=1.00D-06
 Number of steps in this run=    129 maximum allowed number of steps=    150.
 GradGradGradGradGradGradGradGradGradGradGradGradGradGradGradGradGradGrad

                          Input orientation:                          
 ---------------------------------------------------------------------
 Center     Atomic      Atomic             Coordinates (Angstroms)
 Number     Number       Type             X           Y           Z
 ---------------------------------------------------------------------
      1          6           0        2.923376   -2.997242   -1.336069
      2          7           0        2.628911   -1.889350   -2.269594
      3          6           0        1.241365   -1.981341   -2.778364
      4         16           0        3.040517   -0.350057   -1.690583
      5          8           0        2.721932    0.635947   -2.694603
      6          8           0        2.524132   -0.226612   -0.345470
      7          7           0        4.726928   -0.460338   -1.557429
      8          6           0        5.446567   -0.600262   -2.787446
      9          6           0        5.781209    0.507788   -3.568621
     10          6           0        6.364381    0.317009   -4.827250
     11          6           0        6.613155   -0.975362   -5.291426
     12         17           0        7.264241   -1.217569   -6.864697
     13          6           0        6.317006   -2.077983   -4.496350
     14          6           0        5.731035   -1.886243   -3.246764
     15          1           0        2.753355   -3.954719   -1.839570
     16          1           0        2.285230   -2.948508   -0.450074
     17          1           0        3.969382   -2.985026   -1.022503
     18          1           0        1.073429   -2.971865   -3.215902
     19          1           0        1.062065   -1.249495   -3.570821
     20          1           0        0.517795   -1.836048   -1.970195
     21          1           0        5.037636    0.332997   -0.997051
     22          1           0        5.565551    1.518121   -3.231020
     23          1           0        6.598957    1.175797   -5.450977
     24          1           0        6.516950   -3.087171   -4.844184
     25          1           0        5.486466   -2.750675   -2.640411
 ---------------------------------------------------------------------
                    Distance matrix (angstroms):
                    1          2          3          4          5
     1  C    0.000000
     2  N    1.478379   0.000000
     3  C    2.437505   1.480740   0.000000
     4  S    2.673386   1.695316   2.661072   0.000000
     5  O    3.884103   2.562501   3.008204   1.442829   0.000000
     6  O    2.969356   2.545177   3.262443   1.446105   2.510290
     7  N    3.120526   2.636462   3.994156   1.695251   2.552453
     8  C    3.770743   3.141514   4.426193   2.656086   2.993404
     9  C    5.043484   4.167820   5.237408   3.431373   3.184259
    10  C    5.917189   5.036206   5.977093   4.618629   4.232888
    11  C    5.774713   5.083409   6.015281   5.110853   4.947870
    12  Cl   7.250936   6.561444   7.318231   6.735271   6.438771
    13  C    4.727487   4.312317   5.359379   4.646874   4.851419
    14  C    3.573237   3.252391   4.515039   3.467053   3.964974
    15  H    1.095072   2.113328   2.657380   3.619150   4.669719
    16  H    1.092974   2.133210   2.728736   2.976788   4.251698
    17  H    1.092062   2.133683   3.395954   2.872661   4.178934
    18  H    2.637559   2.118221   1.095801   3.615233   4.000703
    19  H    3.393113   2.134857   1.093497   2.873771   2.660415
    20  H    2.745416   2.132907   1.094441   2.941170   3.390243
    21  H    3.959232   3.515700   4.789666   2.221718   2.887203
    22  H    5.564209   4.599897   5.581192   3.498404   3.025250
    23  H    6.917848   5.939494   6.768617   5.397341   4.787521
    24  H    5.022821   4.814576   5.772545   5.433469   5.734498
    25  H    2.886439   3.007492   4.316455   3.556376   4.372046
                    6          7          8          9         10
     6  O    0.000000
     7  N    2.525031   0.000000
     8  C    3.826681   1.431922   0.000000
     9  C    4.640754   2.468536   1.396422   0.000000
    10  C    5.927005   3.738617   2.417555   1.400226   0.000000
    11  C    6.460899   4.214954   2.787749   2.420727   1.395554
    12  Cl   8.121019   5.931142   4.506549   4.005041   2.704786
    13  C    5.919736   3.712463   2.421090   2.798923   2.418208
    14  C    4.632074   2.428022   1.394863   2.416090   2.784490
    15  H    4.022892   4.023095   4.405024   5.663169   6.341404
    16  H    2.734361   3.657747   4.579478   5.821785   6.816359
    17  H    3.186843   2.689623   3.314241   4.686702   5.578132
    18  H    4.228514   4.733535   4.993236   5.864775   6.434851
    19  H    3.686030   4.255319   4.501005   5.035709   5.669842
    20  H    3.042270   4.447444   5.146636   5.979303   6.854268
    21  H    2.656204   1.019776   2.060027   2.682616   4.053509
    22  H    4.541004   2.723692   2.167593   1.086856   2.151452
    23  H    6.681104   4.619648   3.402467   2.158289   1.087003
    24  H    6.660617   4.572438   3.400089   3.884855   3.407639
    25  H    4.518083   2.644880   2.155803   3.400886   3.868293
                   11         12         13         14         15
    11  C    0.000000
    12  Cl   1.719814   0.000000
    13  C    1.391267   2.691957   0.000000
    14  C    2.405927   3.985886   1.393410   0.000000
    15  H    5.974105   7.286425   4.824959   3.889134   0.000000
    16  H    6.786967   8.302655   5.778008   4.563272   1.778286
    17  H    5.408511   6.936226   4.289718   3.042710   1.756879
    18  H    6.243588   7.397122   5.471167   4.782553   2.383787
    19  H    5.818095   7.022651   5.399759   4.723319   3.629867
    20  H    6.994624   8.357823   6.330153   5.367497   3.082784
    21  H    4.757701   6.464619   4.437872   3.235280   4.930748
    22  H    3.400029   4.855219   3.885577   3.408420   6.308451
    23  H    2.157114   2.858217   3.402630   3.871425   7.358879
    24  H    2.160791   2.852424   1.086013   2.147473   4.893363
    25  H    3.383644   4.832752   2.141686   1.083845   3.092081
                   16         17         18         19         20
    16  H    0.000000
    17  H    1.779150   0.000000
    18  H    3.019737   3.632865   0.000000
    19  H    3.757904   4.237745   1.758595   0.000000
    20  H    2.583053   3.759219   1.774991   1.789491   0.000000
    21  H    4.317776   3.485841   5.617859   4.993369   5.106929
    22  H    6.200398   5.263424   6.351327   5.296843   6.190312
    23  H    7.786344   6.621064   7.261551   6.330419   7.626768
    24  H    6.102040   4.594103   5.683003   5.895276   6.768677
    25  H    3.883893   2.230267   4.455895   4.763877   5.096413
                   21         22         23         24         25
    21  H    0.000000
    22  H    2.583376   0.000000
    23  H    4.794319   2.472513   0.000000
    24  H    5.355964   4.971536   4.306717   0.000000
    25  H    3.522941   4.310184   4.955209   2.455961   0.000000
 Stoichiometry    C8H11ClN2O2S
 Framework group  C1[X(C8H11ClN2O2S)]
 Deg. of freedom    69
 Full point group                 C1      NOp   1
 Largest Abelian subgroup         C1      NOp   1
 Largest concise Abelian subgroup C1      NOp   1
                         Standard orientation:                         
 ---------------------------------------------------------------------
 Center     Atomic      Atomic             Coordinates (Angstroms)
 Number     Number       Type             X           Y           Z
 ---------------------------------------------------------------------
      1          6           0       -2.484662    1.804358   -0.904625
      2          7           0       -2.022751    1.060309    0.286440
      3          6           0       -2.657587    1.585338    1.516854
      4         16           0       -2.109902   -0.626647    0.142640
      5          8           0       -1.617777   -1.232851    1.355935
      6          8           0       -3.418684   -0.963490   -0.371993
      7          7           0       -1.001977   -0.934246   -1.103056
      8          6           0        0.370891   -0.656243   -0.805821
      9          6           0        1.174839   -1.579614   -0.134219
     10          6           0        2.469582   -1.215953    0.255685
     11          6           0        2.951353    0.061621   -0.032882
     12         17           0        4.514155    0.537175    0.504943
     13          6           0        2.165213    0.967771   -0.737510
     14          6           0        0.874825    0.606094   -1.119189
     15          1           0       -2.268669    2.870243   -0.776491
     16          1           0       -3.559842    1.680000   -1.056660
     17          1           0       -1.957988    1.479873   -1.804583
     18          1           0       -2.486857    2.665387    1.588434
     19          1           0       -2.218440    1.134386    2.411018
     20          1           0       -3.737616    1.408650    1.505942
     21          1           0       -1.160115   -1.891297   -1.417679
     22          1           0        0.800810   -2.567310    0.122324
     23          1           0        3.087804   -1.921477    0.804880
     24          1           0        2.535220    1.960471   -0.976397
     25          1           0        0.261555    1.323519   -1.652033
 ---------------------------------------------------------------------
 Rotational constants (GHZ):      1.2056756      0.2823995      0.2645538
 Standard basis: 6-31G(d) (6D, 7F)
 There are   240 symmetry adapted basis functions of A   symmetry.
 Integral buffers will be    131072 words long.
 Raffenetti 2 integral format.
 Two-electron integral symmetry is turned on.
   240 basis functions,   484 primitive gaussians,   240 cartesian basis functions
    61 alpha electrons       61 beta electrons
       nuclear repulsion energy      1171.1054244724 Hartrees.
 NAtoms=   25 NActive=   25 NUniq=   25 SFac= 1.00D+00 NAtFMM=   60 NAOKFM=F Big=F
 One-electron integrals computed using PRISM.
 NBasis=   240 RedAO= T  NBF=   240
 NBsUse=   240 1.00D-06 NBFU=   240
 Harris functional with IExCor=  402 diagonalized for initial guess.
 ExpMin= 1.17D-01 ExpMax= 2.52D+04 ExpMxC= 3.78D+03 IAcc=3 IRadAn=         5 AccDes= 0.00D+00
 HarFok:  IExCor=  402 AccDes= 0.00D+00 IRadAn=         5 IDoV= 1
 ScaDFX=  1.000000  1.000000  1.000000  1.000000
 FoFCou: FMM=F IPFlag=           0 FMFlag=      100000 FMFlg1=           0
         NFxFlg=           0 DoJE=T BraDBF=F KetDBF=T FulRan=T
         Omega=  0.000000  0.000000  1.000000  0.000000  0.000000 ICntrl=     500 IOpCl=  0
         NMat0=    1 NMatS0=    1 NMatT0=    0 NMatD0=    1 NMtDS0=    0 NMtDT0=    0
         I1Cent=           4 NGrid=           0.
 Petite list used in FoFCou.
 Initial guess orbital symmetries:
       Occupied  (A) (A) (A) (A) (A) (A) (A) (A) (A) (A) (A) (A)
                 (A) (A) (A) (A) (A) (A) (A) (A) (A) (A) (A) (A)
                 (A) (A) (A) (A) (A) (A) (A) (A) (A) (A) (A) (A)
                 (A) (A) (A) (A) (A) (A) (A) (A) (A) (A) (A) (A)
                 (A) (A) (A) (A) (A) (A) (A) (A) (A) (A) (A) (A)
                 (A)
       Virtual   (A) (A) (A) (A) (A) (A) (A) (A) (A) (A) (A) (A)
                 (A) (A) (A) (A) (A) (A) (A) (A) (A) (A) (A) (A)
                 (A) (A) (A) (A) (A) (A) (A) (A) (A) (A) (A) (A)
                 (A) (A) (A) (A) (A) (A) (A) (A) (A) (A) (A) (A)
                 (A) (A) (A) (A) (A) (A) (A) (A) (A) (A) (A) (A)
                 (A) (A) (A) (A) (A) (A) (A) (A) (A) (A) (A) (A)
                 (A) (A) (A) (A) (A) (A) (A) (A) (A) (A) (A) (A)
                 (A) (A) (A) (A) (A) (A) (A) (A) (A) (A) (A) (A)
                 (A) (A) (A) (A) (A) (A) (A) (A) (A) (A) (A) (A)
                 (A) (A) (A) (A) (A) (A) (A) (A) (A) (A) (A) (A)
                 (A) (A) (A) (A) (A) (A) (A) (A) (A) (A) (A) (A)
                 (A) (A) (A) (A) (A) (A) (A) (A) (A) (A) (A) (A)
                 (A) (A) (A) (A) (A) (A) (A) (A) (A) (A) (A) (A)
                 (A) (A) (A) (A) (A) (A) (A) (A) (A) (A) (A) (A)
                 (A) (A) (A) (A) (A) (A) (A) (A) (A) (A) (A)
 The electronic state of the initial guess is 1-A.
 Requested convergence on RMS density matrix=1.00D-08 within 128 cycles.
 Requested convergence on MAX density matrix=1.00D-06.
 Requested convergence on             energy=1.00D-06.
 No special actions if energy rises.
 Integral accuracy reduced to 1.0D-05 until final iterations.
 Initial convergence to 1.0D-05 achieved.  Increase integral accuracy.
 SCF Done:  E(RB3LYP) =  -1429.72076357     A.U. after   15 cycles
             Convg  =    0.4499D-08             -V/T =  2.0057
 Calling FoFJK, ICntrl=      2127 FMM=F ISym2X=0 I1Cent= 0 IOpClX= 0 NMat=1 NMatS=1 NMatT=0.
 ***** Axes restored to original set *****
 -------------------------------------------------------------------
 Center     Atomic                   Forces (Hartrees/Bohr)
 Number     Number              X              Y              Z
 -------------------------------------------------------------------
      1        6           0.001557338    0.002525327    0.002182239
      2        7           0.005967503   -0.012375023   -0.010249460
      3        6           0.001248274    0.006143159   -0.003088814
      4       16          -0.001521500   -0.017957487    0.001387333
      5        8          -0.012842123    0.011929383   -0.018526769
      6        8          -0.002750283    0.010333577    0.023841480
      7        7           0.007791141   -0.009407341    0.003807103
      8        6          -0.002093021    0.001409879   -0.002530879
      9        6           0.004186526   -0.001355012   -0.008702932
     10        6          -0.000248765    0.004889143    0.003722058
     11        6          -0.005705707    0.003972386    0.013036036
     12       17           0.007491431   -0.001434463   -0.015397578
     13        6          -0.002181272   -0.004311179    0.004194333
     14        6           0.002693278   -0.001970671   -0.003721087
     15        1          -0.001936657    0.003006763   -0.003621660
     16        1          -0.001205253   -0.000741017    0.003756109
     17        1          -0.001065915    0.004094384    0.000532480
     18        1           0.005258140   -0.000037257    0.002273919
     19        1           0.002712641    0.001989903    0.003105148
     20        1          -0.003634675    0.000711362    0.001099496
     21        1          -0.003085507   -0.001188651    0.002286052
     22        1          -0.001321384   -0.001565741    0.000548104
     23        1           0.000243143   -0.001503296    0.000463252
     24        1           0.000739187    0.001462417   -0.001307426
     25        1          -0.000296540    0.001379457    0.000911463
 -------------------------------------------------------------------
 Cartesian Forces:  Max     0.023841480 RMS     0.006391990

 GradGradGradGradGradGradGradGradGradGradGradGradGradGradGradGradGradGrad
 Berny optimization.
 Internal  Forces:  Max     0.024040602 RMS     0.005126250
 Search for a local minimum.
 Step number   1 out of a maximum of  129
 All quantities printed in internal units (Hartrees-Bohrs-Radians)
 Mixed Optimization -- RFO/linear search
 Second derivative matrix not updated -- first step.
 ITU=  0
     Eigenvalues ---    0.00624   0.00655   0.01270   0.01358   0.01359
     Eigenvalues ---    0.01891   0.02108   0.02122   0.02124   0.02153
     Eigenvalues ---    0.02166   0.02175   0.02183   0.02192   0.02319
     Eigenvalues ---    0.03099   0.07083   0.07084   0.07375   0.07377
     Eigenvalues ---    0.10638   0.11080   0.12524   0.12675   0.15988
     Eigenvalues ---    0.15995   0.15996   0.15999   0.16000   0.16000
     Eigenvalues ---    0.16000   0.16000   0.16000   0.16000   0.17911
     Eigenvalues ---    0.18689   0.18692   0.21998   0.22968   0.23203
     Eigenvalues ---    0.23985   0.24923   0.24996   0.25000   0.33607
     Eigenvalues ---    0.34151   0.34233   0.34304   0.34412   0.34471
     Eigenvalues ---    0.34485   0.34575   0.34756   0.35161   0.35179
     Eigenvalues ---    0.35277   0.35534   0.36460   0.36468   0.40714
     Eigenvalues ---    0.41914   0.42528   0.44374   0.45938   0.46418
     Eigenvalues ---    0.46483   0.46888   0.97700   0.99214
 RFO step:  Lambda=-1.36572412D-02 EMin= 6.23744179D-03
 Linear search not attempted -- first point.
 Iteration  1 RMS(Cart)=  0.13885664 RMS(Int)=  0.00361133
 Iteration  2 RMS(Cart)=  0.00747048 RMS(Int)=  0.00032794
 Iteration  3 RMS(Cart)=  0.00002129 RMS(Int)=  0.00032774
 Iteration  4 RMS(Cart)=  0.00000002 RMS(Int)=  0.00032774
 Variable       Old X    -DE/DX   Delta X   Delta X   Delta X     New X
                                 (Linear)    (Quad)   (Total)
    R1        2.79373  -0.00539   0.00000  -0.01491  -0.01491   2.77882
    R2        2.06939  -0.00066   0.00000  -0.00186  -0.00186   2.06752
    R3        2.06542   0.00372   0.00000   0.01037   0.01037   2.07579
    R4        2.06370  -0.00082   0.00000  -0.00229  -0.00229   2.06141
    R5        2.79819  -0.00695   0.00000  -0.01937  -0.01937   2.77882
    R6        3.20368  -0.00562   0.00000  -0.01486  -0.01486   3.18883
    R7        2.07076  -0.00168   0.00000  -0.00473  -0.00473   2.06603
    R8        2.06641  -0.00136   0.00000  -0.00381  -0.00381   2.06260
    R9        2.06819   0.00331   0.00000   0.00928   0.00928   2.07747
   R10        2.72655   0.02388   0.00000   0.02374   0.02374   2.75029
   R11        2.73274   0.02404   0.00000   0.02427   0.02427   2.75701
   R12        3.20356   0.00858   0.00000   0.02268   0.02268   3.22624
   R13        2.70594   0.00921   0.00000   0.02190   0.02190   2.72784
   R14        1.92710  -0.00061   0.00000  -0.00133  -0.00133   1.92577
   R15        2.63886   0.00265   0.00000   0.00513   0.00524   2.64410
   R16        2.63591   0.00232   0.00000   0.00495   0.00507   2.64098
   R17        2.64604  -0.00503   0.00000  -0.01124  -0.01125   2.63479
   R18        2.05386  -0.00102   0.00000  -0.00280  -0.00280   2.05106
   R19        2.63721  -0.00017   0.00000  -0.00045  -0.00057   2.63664
   R20        2.05414  -0.00140   0.00000  -0.00384  -0.00384   2.05030
   R21        3.24998   0.01712   0.00000   0.04896   0.04896   3.29894
   R22        2.62911   0.00436   0.00000   0.00943   0.00933   2.63844
   R23        2.63316   0.00052   0.00000   0.00160   0.00161   2.63477
   R24        2.05227  -0.00080   0.00000  -0.00219  -0.00219   2.05007
   R25        2.04817  -0.00052   0.00000  -0.00142  -0.00142   2.04675
    A1        1.91132  -0.00671   0.00000  -0.03803  -0.03812   1.87319
    A2        1.94138   0.00371   0.00000   0.02123   0.02136   1.96274
    A3        1.94304  -0.00349   0.00000  -0.02058  -0.02070   1.92234
    A4        1.89764   0.00183   0.00000   0.01143   0.01161   1.90925
    A5        1.86556   0.00520   0.00000   0.03019   0.02982   1.89538
    A6        1.90285  -0.00036   0.00000  -0.00316  -0.00307   1.89978
    A7        1.93591   0.00708   0.00000   0.02972   0.02923   1.96514
    A8        2.00028  -0.00276   0.00000  -0.01954  -0.01937   1.98092
    A9        1.98369  -0.00520   0.00000  -0.03193  -0.03178   1.95192
   A10        1.91448  -0.00751   0.00000  -0.04336  -0.04354   1.87094
   A11        1.94021  -0.00454   0.00000  -0.02737  -0.02759   1.91262
   A12        1.93645   0.00489   0.00000   0.02952   0.02975   1.96620
   A13        1.86553   0.00548   0.00000   0.02886   0.02817   1.89369
   A14        1.88970   0.00194   0.00000   0.01359   0.01388   1.90358
   A15        1.91547  -0.00014   0.00000  -0.00058  -0.00042   1.91505
   A16        1.90627  -0.00586   0.00000  -0.03719  -0.03662   1.86965
   A17        1.88441   0.01312   0.00000   0.06620   0.06612   1.95053
   A18        1.78164  -0.01223   0.00000  -0.04845  -0.04822   1.73342
   A19        2.10608  -0.00345   0.00000  -0.00991  -0.00974   2.09634
   A20        1.89523   0.01047   0.00000   0.04230   0.04149   1.93672
   A21        1.86264  -0.00379   0.00000  -0.02025  -0.01931   1.84333
   A22        2.02510   0.00971   0.00000   0.03512   0.03526   2.06035
   A23        1.87093  -0.00573   0.00000  -0.03791  -0.03777   1.83316
   A24        1.97678  -0.00227   0.00000  -0.01488  -0.01461   1.96217
   A25        2.12167  -0.00218   0.00000  -0.00634  -0.00734   2.11433
   A26        2.06627   0.00525   0.00000   0.02191   0.02091   2.08718
   A27        2.09263  -0.00290   0.00000  -0.01052  -0.01095   2.08168
   A28        2.08810   0.00414   0.00000   0.01542   0.01554   2.10364
   A29        2.11333  -0.00367   0.00000  -0.01652  -0.01678   2.09655
   A30        2.08117  -0.00044   0.00000   0.00207   0.00181   2.08298
   A31        2.09369  -0.00096   0.00000  -0.00583  -0.00583   2.08787
   A32        2.09210   0.00119   0.00000   0.00707   0.00705   2.09915
   A33        2.09707  -0.00022   0.00000  -0.00099  -0.00102   2.09605
   A34        2.09691  -0.00149   0.00000  -0.00569  -0.00570   2.09121
   A35        2.10123  -0.00010   0.00000  -0.00005  -0.00018   2.10105
   A36        2.08490   0.00160   0.00000   0.00605   0.00603   2.09093
   A37        2.08627  -0.00006   0.00000   0.00141   0.00135   2.08762
   A38        2.11092  -0.00194   0.00000  -0.01182  -0.01196   2.09895
   A39        2.08578   0.00202   0.00000   0.01096   0.01081   2.09659
   A40        2.10358  -0.00010   0.00000   0.00046   0.00064   2.10422
   A41        2.10025  -0.00158   0.00000  -0.00949  -0.00975   2.09051
   A42        2.07927   0.00169   0.00000   0.00937   0.00911   2.08838
    D1        0.99821   0.00227   0.00000   0.04725   0.04716   1.04537
    D2       -3.00979  -0.00098   0.00000   0.01218   0.01182  -2.99797
    D3       -1.09975   0.00203   0.00000   0.04444   0.04460  -1.05515
    D4        1.17543  -0.00122   0.00000   0.00936   0.00926   1.18470
    D5        3.05741   0.00233   0.00000   0.04801   0.04833   3.10574
    D6       -0.95060  -0.00092   0.00000   0.01293   0.01299  -0.93760
    D7       -0.94512  -0.00202   0.00000  -0.04705  -0.04678  -0.99190
    D8       -3.00454  -0.00129   0.00000  -0.03868  -0.03917  -3.04371
    D9        1.14190  -0.00136   0.00000  -0.03951  -0.03971   1.10219
   D10        3.05422   0.00000   0.00000  -0.01840  -0.01786   3.03636
   D11        0.99480   0.00073   0.00000  -0.01003  -0.01025   0.98455
   D12       -1.14195   0.00066   0.00000  -0.01087  -0.01078  -1.15273
   D13        3.12870   0.00207   0.00000   0.09961   0.09986  -3.05462
   D14       -0.83460   0.00327   0.00000   0.10960   0.10974  -0.72486
   D15        1.12462  -0.00153   0.00000   0.08994   0.08870   1.21332
   D16       -0.90292   0.00482   0.00000   0.09410   0.09492  -0.80800
   D17        1.41697   0.00601   0.00000   0.10409   0.10480   1.52176
   D18       -2.90700   0.00121   0.00000   0.08443   0.08376  -2.82324
   D19        1.15871  -0.00232   0.00000   0.08569   0.08520   1.24391
   D20       -2.89609  -0.00284   0.00000   0.06009   0.05945  -2.83664
   D21       -0.85346   0.00592   0.00000   0.13378   0.13420  -0.71926
   D22        1.37493   0.00541   0.00000   0.10818   0.10845   1.48338
   D23        3.13417   0.00568   0.00000   0.13124   0.13155  -3.01747
   D24       -0.92063   0.00517   0.00000   0.10564   0.10580  -0.81483
   D25        1.45710   0.00002   0.00000   0.00905   0.00935   1.46645
   D26       -1.60666  -0.00228   0.00000  -0.06545  -0.06571  -1.67237
   D27       -0.71785   0.00175   0.00000   0.04543   0.04568  -0.67217
   D28        2.50158  -0.00055   0.00000  -0.02908  -0.02938   2.47220
   D29       -3.02912  -0.00361   0.00000  -0.10177  -0.10109  -3.13021
   D30        0.07550  -0.00248   0.00000  -0.07115  -0.07070   0.00480
   D31        0.03348  -0.00091   0.00000  -0.02473  -0.02487   0.00861
   D32        3.13810   0.00021   0.00000   0.00589   0.00553  -3.13956
   D33        3.03653   0.00280   0.00000   0.08449   0.08476   3.12129
   D34       -0.09086   0.00181   0.00000   0.05634   0.05665  -0.03421
   D35       -0.02856   0.00051   0.00000   0.01110   0.01098  -0.01758
   D36        3.12723  -0.00048   0.00000  -0.01705  -0.01713   3.11011
   D37       -0.00488   0.00059   0.00000   0.01698   0.01718   0.01230
   D38        3.10960   0.00096   0.00000   0.02746   0.02757   3.13717
   D39       -3.11018  -0.00045   0.00000  -0.01267  -0.01258  -3.12276
   D40        0.00430  -0.00008   0.00000  -0.00219  -0.00219   0.00210
   D41        3.09394   0.00089   0.00000   0.02441   0.02426   3.11820
   D42       -0.02915   0.00018   0.00000   0.00462   0.00460  -0.02456
   D43       -0.02046   0.00050   0.00000   0.01377   0.01377  -0.00669
   D44        3.13963  -0.00021   0.00000  -0.00601  -0.00589   3.13374
   D45        0.03419  -0.00066   0.00000  -0.01849  -0.01849   0.01570
   D46       -3.12982   0.00038   0.00000   0.01080   0.01066  -3.11917
   D47       -3.08903  -0.00133   0.00000  -0.03801  -0.03802  -3.12705
   D48        0.03014  -0.00029   0.00000  -0.00873  -0.00887   0.02126
   D49       -0.00531   0.00037   0.00000   0.01087   0.01085   0.00553
   D50        3.12224   0.00132   0.00000   0.03853   0.03877  -3.12217
   D51       -3.12481  -0.00060   0.00000  -0.01769  -0.01797   3.14041
   D52        0.00275   0.00035   0.00000   0.00996   0.00995   0.01270
         Item               Value     Threshold  Converged?
 Maximum Force            0.024041     0.000450     NO 
 RMS     Force            0.005126     0.000300     NO 
 Maximum Displacement     0.517651     0.001800     NO 
 RMS     Displacement     0.137270     0.001200     NO 
 Predicted change in Energy=-8.285536D-03
 GradGradGradGradGradGradGradGradGradGradGradGradGradGradGradGradGradGrad

                          Input orientation:                          
 ---------------------------------------------------------------------
 Center     Atomic      Atomic             Coordinates (Angstroms)
 Number     Number       Type             X           Y           Z
 ---------------------------------------------------------------------
      1          6           0        2.824248   -2.976226   -1.165941
      2          7           0        2.582311   -1.945480   -2.186414
      3          6           0        1.216267   -1.996616   -2.728301
      4         16           0        3.000324   -0.389822   -1.683723
      5          8           0        2.596856    0.525108   -2.741214
      6          8           0        2.594194   -0.139619   -0.304962
      7          7           0        4.698401   -0.560790   -1.638789
      8          6           0        5.403747   -0.663355   -2.894053
      9          6           0        5.769268    0.479275   -3.614150
     10          6           0        6.438414    0.365009   -4.832008
     11          6           0        6.731781   -0.900233   -5.341741
     12         17           0        7.538170   -1.049625   -6.882834
     13          6           0        6.385368   -2.047708   -4.625725
     14          6           0        5.725851   -1.924232   -3.403531
     15          1           0        2.663017   -3.948751   -1.640517
     16          1           0        2.153700   -2.876526   -0.301626
     17          1           0        3.857032   -2.925656   -0.818437
     18          1           0        1.064363   -3.003002   -3.127568
     19          1           0        1.120376   -1.281106   -3.546946
     20          1           0        0.450510   -1.793246   -1.966181
     21          1           0        5.027552    0.218429   -1.070472
     22          1           0        5.527728    1.465399   -3.230410
     23          1           0        6.716247    1.253735   -5.388913
     24          1           0        6.632953   -3.029962   -5.014035
     25          1           0        5.472894   -2.813206   -2.838879
 ---------------------------------------------------------------------
                    Distance matrix (angstroms):
                    1          2          3          4          5
     1  C    0.000000
     2  N    1.470488   0.000000
     3  C    2.446673   1.470488   0.000000
     4  S    2.643594   1.687455   2.618357   0.000000
     5  O    3.846106   2.532157   2.874941   1.455393   0.000000
     6  O    2.973305   2.607899   3.349582   1.458947   2.525311
     7  N    3.093601   2.587488   3.920956   1.707254   2.609790
     8  C    3.871635   3.178852   4.397733   2.704841   3.051956
     9  C    5.158232   4.251419   5.257812   3.485532   3.290641
    10  C    6.137270   5.216038   6.105217   4.722492   4.376598
    11  C    6.084066   5.316646   6.201049   5.250275   5.088412
    12  Cl   7.656090   6.886178   7.623870   6.932398   6.636971
    13  C    5.051121   4.519284   5.506581   4.781473   4.952129
    14  C    3.812190   3.371003   4.560430   3.569405   4.028466
    15  H    1.094086   2.077886   2.662178   3.575139   4.607746
    16  H    1.098461   2.145456   2.746230   2.968277   4.209406
    17  H    1.090852   2.111165   3.388854   2.813027   4.146430
    18  H    2.635506   2.075642   1.093298   3.558278   3.865924
    19  H    3.383163   2.104684   1.091480   2.792882   2.468118
    20  H    2.770280   2.148547   1.099350   2.924198   3.253036
    21  H    3.881943   3.450657   4.709642   2.203566   2.965420
    22  H    5.594539   4.625959   5.552149   3.495977   3.116643
    23  H    7.132581   6.130285   6.920507   5.498890   4.950816
    24  H    5.414512   5.057592   5.969327   5.590824   5.839033
    25  H    3.136977   3.087738   4.335657   3.649765   4.407434
                    6          7          8          9         10
     6  O    0.000000
     7  N    2.526691   0.000000
     8  C    3.856330   1.443509   0.000000
     9  C    4.627619   2.475993   1.399195   0.000000
    10  C    5.960438   3.752518   2.425641   1.394270   0.000000
    11  C    6.562568   4.238125   2.794809   2.411232   1.395252
    12  Cl   8.278853   5.983582   4.540412   4.018811   2.723333
    13  C    6.056632   3.738792   2.424604   2.790790   2.422100
    14  C    4.753235   2.455390   1.397545   2.413109   2.790863
    15  H    4.037069   3.952350   4.458339   5.757729   6.561079
    16  H    2.772130   3.691361   4.709736   5.941932   7.027851
    17  H    3.101679   2.640733   3.437807   4.802730   5.796616
    18  H    4.301913   4.624618   4.935457   5.873598   6.567270
    19  H    3.739732   4.118517   4.376660   4.971484   5.713370
    20  H    3.176399   4.435168   5.164510   6.014096   6.980403
    21  H    2.575934   1.019072   2.060221   2.662420   4.020095
    22  H    4.442966   2.706747   2.158726   1.085375   2.146002
    23  H    6.691735   4.628999   3.409137   2.155537   1.084974
    24  H    6.844050   4.607774   3.406772   3.875612   3.405408
    25  H    4.675009   2.667102   2.151671   3.395485   3.873737
                   11         12         13         14         15
    11  C    0.000000
    12  Cl   1.745724   0.000000
    13  C    1.396202   2.723906   0.000000
    14  C    2.411872   4.019327   1.394263   0.000000
    15  H    6.288669   7.723596   5.136275   4.072818   0.000000
    16  H    7.089945   8.697263   6.106700   4.825862   1.789330
    17  H    5.729467   7.338064   4.653893   3.343358   1.774320
    18  H    6.437687   7.734848   5.609826   4.792637   2.379381
    19  H    5.903745   7.236699   5.428773   4.652373   3.623608
    20  H    7.186532   8.658024   6.508492   5.469219   3.106033
    21  H    4.732815   6.457144   4.429319   3.243729   4.825077
    22  H    3.391707   4.869027   3.876128   3.399827   6.328297
    23  H    2.154540   2.865803   3.404624   3.875836   7.585842
    24  H    2.157058   2.869418   1.084852   2.153879   5.290102
    25  H    3.392430   4.871258   2.147421   1.083094   3.258979
                   16         17         18         19         20
    16  H    0.000000
    17  H    1.780687   0.000000
    18  H    3.031271   3.624509   0.000000
    19  H    3.761014   4.199831   1.773116   0.000000
    20  H    2.616313   3.768827   1.785818   1.791599   0.000000
    21  H    4.292890   3.364359   5.506009   4.862875   5.079217
    22  H    6.230101   5.281117   6.316550   5.202714   6.164023
    23  H    7.984759   6.821412   7.428141   6.413425   7.762644
    24  H    6.503387   5.031864   5.879513   5.966518   7.002962
    25  H    4.178362   2.589564   4.422048   4.668308   5.198679
                   21         22         23         24         25
    21  H    0.000000
    22  H    2.543706   0.000000
    23  H    4.751050   2.473159   0.000000
    24  H    5.355468   4.960958   4.300875   0.000000
    25  H    3.537853   4.296832   4.958690   2.474676   0.000000
 Stoichiometry    C8H11ClN2O2S
 Framework group  C1[X(C8H11ClN2O2S)]
 Deg. of freedom    69
 Full point group                 C1      NOp   1
 Largest Abelian subgroup         C1      NOp   1
 Largest concise Abelian subgroup C1      NOp   1
                         Standard orientation:                         
 ---------------------------------------------------------------------
 Center     Atomic      Atomic             Coordinates (Angstroms)
 Number     Number       Type             X           Y           Z
 ---------------------------------------------------------------------
      1          6           0       -2.744690    1.747177   -0.869241
      2          7           0       -2.176855    1.038762    0.287497
      3          6           0       -2.796624    1.443803    1.557995
      4         16           0       -2.156789   -0.638743    0.105615
      5          8           0       -1.685268   -1.200445    1.362726
      6          8           0       -3.389193   -1.131833   -0.499834
      7          7           0       -0.963547   -0.770913   -1.108231
      8          6           0        0.406805   -0.498336   -0.745523
      9          6           0        1.212985   -1.486108   -0.169216
     10          6           0        2.530900   -1.204967    0.188623
     11          6           0        3.043096    0.076456   -0.017140
     12         17           0        4.681355    0.443594    0.461264
     13          6           0        2.253381    1.066609   -0.604784
     14          6           0        0.939834    0.774017   -0.969413
     15          1           0       -2.574436    2.816460   -0.712168
     16          1           0       -3.821108    1.562721   -0.987210
     17          1           0       -2.232881    1.444054   -1.783641
     18          1           0       -2.672756    2.526375    1.647417
     19          1           0       -2.274394    0.965662    2.388648
     20          1           0       -3.867615    1.199905    1.603406
     21          1           0       -1.084314   -1.705155   -1.496966
     22          1           0        0.813748   -2.479516    0.009078
     23          1           0        3.151065   -1.972901    0.639002
     24          1           0        2.660297    2.056360   -0.782871
     25          1           0        0.332367    1.536199   -1.441806
 ---------------------------------------------------------------------
 Rotational constants (GHZ):      1.2673784      0.2657202      0.2506673
 Standard basis: 6-31G(d) (6D, 7F)
 There are   240 symmetry adapted basis functions of A   symmetry.
 Integral buffers will be    131072 words long.
 Raffenetti 2 integral format.
 Two-electron integral symmetry is turned on.
   240 basis functions,   484 primitive gaussians,   240 cartesian basis functions
    61 alpha electrons       61 beta electrons
       nuclear repulsion energy      1160.7216865186 Hartrees.
 NAtoms=   25 NActive=   25 NUniq=   25 SFac= 1.00D+00 NAtFMM=   60 NAOKFM=F Big=F
 One-electron integrals computed using PRISM.
 NBasis=   240 RedAO= T  NBF=   240
 NBsUse=   240 1.00D-06 NBFU=   240
 Initial guess read from the read-write file.
 B after Tr=     0.000000    0.000000    0.000000
         Rot=    1.000000    0.000000    0.000000    0.000000 Ang=   0.00 deg.
 Initial guess orbital symmetries:
       Occupied  (A) (A) (A) (A) (A) (A) (A) (A) (A) (A) (A) (A)
                 (A) (A) (A) (A) (A) (A) (A) (A) (A) (A) (A) (A)
                 (A) (A) (A) (A) (A) (A) (A) (A) (A) (A) (A) (A)
                 (A) (A) (A) (A) (A) (A) (A) (A) (A) (A) (A) (A)
                 (A) (A) (A) (A) (A) (A) (A) (A) (A) (A) (A) (A)
                 (A)
       Virtual   (A) (A) (A) (A) (A) (A) (A) (A) (A) (A) (A) (A)
                 (A) (A) (A) (A) (A) (A) (A) (A) (A) (A) (A) (A)
                 (A) (A) (A) (A) (A) (A) (A) (A) (A) (A) (A) (A)
                 (A) (A) (A) (A) (A) (A) (A) (A) (A) (A) (A) (A)
                 (A) (A) (A) (A) (A) (A) (A) (A) (A) (A) (A) (A)
                 (A) (A) (A) (A) (A) (A) (A) (A) (A) (A) (A) (A)
                 (A) (A) (A) (A) (A) (A) (A) (A) (A) (A) (A) (A)
                 (A) (A) (A) (A) (A) (A) (A) (A) (A) (A) (A) (A)
                 (A) (A) (A) (A) (A) (A) (A) (A) (A) (A) (A) (A)
                 (A) (A) (A) (A) (A) (A) (A) (A) (A) (A) (A) (A)
                 (A) (A) (A) (A) (A) (A) (A) (A) (A) (A) (A) (A)
                 (A) (A) (A) (A) (A) (A) (A) (A) (A) (A) (A) (A)
                 (A) (A) (A) (A) (A) (A) (A) (A) (A) (A) (A) (A)
                 (A) (A) (A) (A) (A) (A) (A) (A) (A) (A) (A) (A)
                 (A) (A) (A) (A) (A) (A) (A) (A) (A) (A) (A)
 Harris functional with IExCor=  402 diagonalized for initial guess.
 ExpMin= 1.17D-01 ExpMax= 2.52D+04 ExpMxC= 3.78D+03 IAcc=3 IRadAn=         5 AccDes= 0.00D+00
 HarFok:  IExCor=  402 AccDes= 0.00D+00 IRadAn=         5 IDoV= 1
 ScaDFX=  1.000000  1.000000  1.000000  1.000000
 FoFCou: FMM=F IPFlag=           0 FMFlag=      100000 FMFlg1=           0
         NFxFlg=           0 DoJE=T BraDBF=F KetDBF=T FulRan=T
         Omega=  0.000000  0.000000  1.000000  0.000000  0.000000 ICntrl=     500 IOpCl=  0
         NMat0=    1 NMatS0=    1 NMatT0=    0 NMatD0=    1 NMtDS0=    0 NMtDT0=    0
         I1Cent=           4 NGrid=           0.
 Petite list used in FoFCou.
 Requested convergence on RMS density matrix=1.00D-08 within 128 cycles.
 Requested convergence on MAX density matrix=1.00D-06.
 Requested convergence on             energy=1.00D-06.
 No special actions if energy rises.
 Integral accuracy reduced to 1.0D-05 until final iterations.
 Initial convergence to 1.0D-05 achieved.  Increase integral accuracy.
 SCF Done:  E(RB3LYP) =  -1429.72893749     A.U. after   13 cycles
             Convg  =    0.3934D-08             -V/T =  2.0058
 Calling FoFJK, ICntrl=      2127 FMM=F ISym2X=0 I1Cent= 0 IOpClX= 0 NMat=1 NMatS=1 NMatT=0.
 ***** Axes restored to original set *****
 -------------------------------------------------------------------
 Center     Atomic                   Forces (Hartrees/Bohr)
 Number     Number              X              Y              Z
 -------------------------------------------------------------------
      1        6          -0.000228609   -0.001460074    0.001414512
      2        7           0.000911541   -0.001150577    0.001627988
      3        6          -0.001092903   -0.000012272   -0.004958276
      4       16           0.002848833   -0.005527303   -0.003296116
      5        8          -0.004584409    0.004855483   -0.006044399
      6        8           0.001614587    0.003724608    0.007428403
      7        7           0.004303995   -0.002151270   -0.001064254
      8        6          -0.002263349    0.002520321   -0.000785822
      9        6           0.001204678   -0.000393447   -0.000794229
     10        6           0.000472240    0.001226183   -0.000543785
     11        6          -0.003191581   -0.000054458    0.006543816
     12       17           0.002243397   -0.000344894   -0.003403901
     13        6           0.000052441   -0.000316785   -0.000091942
     14        6           0.000368024    0.000253013   -0.000063878
     15        1          -0.000118153   -0.000102875    0.000241645
     16        1          -0.000294667   -0.000321617   -0.000195017
     17        1           0.000173732    0.001112556   -0.000202322
     18        1          -0.000473106   -0.000286593    0.000261536
     19        1          -0.000041549    0.000025391    0.001391117
     20        1          -0.000317307   -0.000487932   -0.000127740
     21        1           0.000772433   -0.001016781    0.002385509
     22        1          -0.001197087    0.000127904    0.000169251
     23        1           0.000021133   -0.000165857   -0.000039538
     24        1           0.000048479    0.000258691   -0.000477694
     25        1          -0.001232793   -0.000311411    0.000625138
 -------------------------------------------------------------------
 Cartesian Forces:  Max     0.007428403 RMS     0.002200636

 GradGradGradGradGradGradGradGradGradGradGradGradGradGradGradGradGradGrad
 Berny optimization.
 Using GEDIIS/GDIIS optimizer.
 Internal  Forces:  Max     0.008715137 RMS     0.001587837
 Search for a local minimum.
 Step number   2 out of a maximum of  129
 All quantities printed in internal units (Hartrees-Bohrs-Radians)
 Mixed Optimization -- RFO/linear search
 Update second derivatives using D2CorX and points    1    2
 DE= -8.17D-03 DEPred=-8.29D-03 R= 9.87D-01
 SS=  1.41D+00  RLast= 4.58D-01 DXNew= 5.0454D-01 1.3739D+00
 Trust test= 9.87D-01 RLast= 4.58D-01 DXMaxT set to 5.05D-01
 ITU=  1  0
 Use linear search instead of GDIIS.
     Eigenvalues ---    0.00625   0.00657   0.01259   0.01342   0.01375
     Eigenvalues ---    0.01900   0.02098   0.02116   0.02125   0.02133
     Eigenvalues ---    0.02172   0.02179   0.02182   0.02194   0.02510
     Eigenvalues ---    0.03179   0.07060   0.07088   0.07633   0.07693
     Eigenvalues ---    0.10914   0.11401   0.12021   0.12647   0.15303
     Eigenvalues ---    0.15998   0.15999   0.16000   0.16000   0.16000
     Eigenvalues ---    0.16000   0.16000   0.16000   0.16291   0.16948
     Eigenvalues ---    0.17919   0.18580   0.21981   0.22947   0.23514
     Eigenvalues ---    0.24273   0.24886   0.25000   0.25830   0.32628
     Eigenvalues ---    0.34153   0.34233   0.34300   0.34403   0.34464
     Eigenvalues ---    0.34575   0.34667   0.35096   0.35161   0.35232
     Eigenvalues ---    0.35279   0.35565   0.36311   0.37107   0.41477
     Eigenvalues ---    0.42094   0.42556   0.44403   0.45881   0.46450
     Eigenvalues ---    0.46530   0.46984   0.93046   0.98530
 RFO step:  Lambda=-2.59271527D-03 EMin= 6.24929783D-03
 Quartic linear search produced a step of  0.28004.
 Iteration  1 RMS(Cart)=  0.11620984 RMS(Int)=  0.00278839
 Iteration  2 RMS(Cart)=  0.00579125 RMS(Int)=  0.00013278
 Iteration  3 RMS(Cart)=  0.00001616 RMS(Int)=  0.00013258
 Iteration  4 RMS(Cart)=  0.00000000 RMS(Int)=  0.00013258
 Variable       Old X    -DE/DX   Delta X   Delta X   Delta X     New X
                                 (Linear)    (Quad)   (Total)
    R1        2.77882   0.00134  -0.00418   0.00751   0.00333   2.78215
    R2        2.06752   0.00000  -0.00052   0.00035  -0.00017   2.06735
    R3        2.07579   0.00000   0.00290  -0.00189   0.00102   2.07681
    R4        2.06141   0.00015  -0.00064   0.00096   0.00032   2.06173
    R5        2.77882   0.00308  -0.00543   0.01465   0.00923   2.78805
    R6        3.18883   0.00300  -0.00416   0.01297   0.00881   3.19764
    R7        2.06603   0.00023  -0.00132   0.00171   0.00039   2.06642
    R8        2.06260  -0.00102  -0.00107  -0.00302  -0.00409   2.05851
    R9        2.07747   0.00004   0.00260  -0.00153   0.00107   2.07854
   R10        2.75029   0.00872   0.00665   0.00682   0.01347   2.76376
   R11        2.75701   0.00721   0.00680   0.00496   0.01176   2.76877
   R12        3.22624   0.00169   0.00635   0.00170   0.00805   3.23430
   R13        2.72784  -0.00288   0.00613  -0.01280  -0.00666   2.72117
   R14        1.92577   0.00080  -0.00037   0.00250   0.00213   1.92789
   R15        2.64410  -0.00013   0.00147  -0.00129   0.00022   2.64432
   R16        2.64098  -0.00093   0.00142  -0.00347  -0.00201   2.63897
   R17        2.63479  -0.00100  -0.00315  -0.00066  -0.00381   2.63098
   R18        2.05106   0.00044  -0.00078   0.00208   0.00129   2.05235
   R19        2.63664  -0.00013  -0.00016  -0.00018  -0.00039   2.63626
   R20        2.05030  -0.00011  -0.00107   0.00030  -0.00077   2.04953
   R21        3.29894   0.00407   0.01371   0.00624   0.01996   3.31890
   R22        2.63844  -0.00065   0.00261  -0.00340  -0.00083   2.63761
   R23        2.63477  -0.00096   0.00045  -0.00291  -0.00246   2.63232
   R24        2.05007  -0.00005  -0.00061   0.00021  -0.00040   2.04967
   R25        2.04675   0.00087  -0.00040   0.00331   0.00291   2.04967
    A1        1.87319   0.00059  -0.01068   0.01267   0.00197   1.87517
    A2        1.96274   0.00019   0.00598  -0.00313   0.00289   1.96563
    A3        1.92234  -0.00152  -0.00580  -0.00823  -0.01407   1.90827
    A4        1.90925  -0.00034   0.00325  -0.00419  -0.00090   1.90835
    A5        1.89538   0.00060   0.00835   0.00032   0.00857   1.90395
    A6        1.89978   0.00049  -0.00086   0.00269   0.00185   1.90163
    A7        1.96514   0.00034   0.00819   0.00698   0.01477   1.97990
    A8        1.98092  -0.00134  -0.00542   0.00554  -0.00032   1.98060
    A9        1.95192   0.00175  -0.00890   0.02917   0.02009   1.97201
   A10        1.87094   0.00047  -0.01219   0.01268   0.00044   1.87139
   A11        1.91262  -0.00025  -0.00773   0.00395  -0.00384   1.90878
   A12        1.96620   0.00031   0.00833  -0.00487   0.00353   1.96973
   A13        1.89369   0.00043   0.00789   0.00169   0.00938   1.90307
   A14        1.90358  -0.00065   0.00389  -0.00926  -0.00528   1.89830
   A15        1.91505  -0.00028  -0.00012  -0.00371  -0.00378   1.91127
   A16        1.86965  -0.00059  -0.01026   0.00846  -0.00167   1.86797
   A17        1.95053   0.00319   0.01852   0.00951   0.02783   1.97835
   A18        1.73342  -0.00092  -0.01350   0.00477  -0.00859   1.72483
   A19        2.09634  -0.00066  -0.00273  -0.00318  -0.00595   2.09039
   A20        1.93672   0.00260   0.01162   0.00876   0.02018   1.95690
   A21        1.84333  -0.00359  -0.00541  -0.02695  -0.03191   1.81143
   A22        2.06035  -0.00167   0.00987  -0.01314  -0.00324   2.05711
   A23        1.83316   0.00142  -0.01058   0.02260   0.01206   1.84521
   A24        1.96217   0.00004  -0.00409   0.00545   0.00142   1.96359
   A25        2.11433   0.00065  -0.00206   0.00463   0.00216   2.11649
   A26        2.08718  -0.00224   0.00586  -0.01491  -0.00947   2.07771
   A27        2.08168   0.00159  -0.00307   0.01030   0.00694   2.08862
   A28        2.10364  -0.00051   0.00435  -0.00522  -0.00088   2.10276
   A29        2.09655  -0.00036  -0.00470  -0.00039  -0.00514   2.09141
   A30        2.08298   0.00087   0.00051   0.00558   0.00604   2.08902
   A31        2.08787  -0.00138  -0.00163  -0.00595  -0.00765   2.08022
   A32        2.09915   0.00083   0.00197   0.00331   0.00531   2.10445
   A33        2.09605   0.00055  -0.00029   0.00267   0.00241   2.09846
   A34        2.09121  -0.00097  -0.00160  -0.00406  -0.00562   2.08558
   A35        2.10105   0.00195  -0.00005   0.01035   0.01019   2.11124
   A36        2.09093  -0.00098   0.00169  -0.00629  -0.00457   2.08636
   A37        2.08762  -0.00081   0.00038  -0.00444  -0.00414   2.08347
   A38        2.09895  -0.00012  -0.00335   0.00030  -0.00307   2.09588
   A39        2.09659   0.00093   0.00303   0.00413   0.00714   2.10373
   A40        2.10422  -0.00081   0.00018  -0.00455  -0.00436   2.09986
   A41        2.09051  -0.00037  -0.00273  -0.00196  -0.00474   2.08577
   A42        2.08838   0.00119   0.00255   0.00659   0.00908   2.09746
    D1        1.04537  -0.00057   0.01321  -0.00245   0.01077   1.05613
    D2       -2.99797   0.00100   0.00331   0.04933   0.05251  -2.94546
    D3       -1.05515  -0.00066   0.01249  -0.00376   0.00882  -1.04633
    D4        1.18470   0.00091   0.00259   0.04803   0.05056   1.23526
    D5        3.10574  -0.00034   0.01353   0.00079   0.01445   3.12019
    D6       -0.93760   0.00123   0.00364   0.05258   0.05619  -0.88141
    D7       -0.99190   0.00000  -0.01310  -0.00468  -0.01757  -1.00947
    D8       -3.04371  -0.00064  -0.01097  -0.01594  -0.02691  -3.07062
    D9        1.10219  -0.00031  -0.01112  -0.01068  -0.02171   1.08048
   D10        3.03636   0.00005  -0.00500  -0.04351  -0.04850   2.98787
   D11        0.98455  -0.00059  -0.00287  -0.05477  -0.05784   0.92671
   D12       -1.15273  -0.00027  -0.00302  -0.04951  -0.05264  -1.20537
   D13       -3.05462   0.00108   0.02797   0.03940   0.06740  -2.98722
   D14       -0.72486   0.00225   0.03073   0.04989   0.08081  -0.64405
   D15        1.21332  -0.00119   0.02484   0.02502   0.04943   1.26275
   D16       -0.80800   0.00193   0.02658   0.07952   0.10628  -0.70172
   D17        1.52176   0.00311   0.02935   0.09001   0.11968   1.64145
   D18       -2.82324  -0.00034   0.02346   0.06513   0.08830  -2.73493
   D19        1.24391   0.00072   0.02386   0.07743   0.10106   1.34496
   D20       -2.83664   0.00078   0.01665   0.09462   0.11100  -2.72564
   D21       -0.71926   0.00095   0.03758   0.06269   0.10039  -0.61887
   D22        1.48338   0.00101   0.03037   0.07988   0.11033   1.59371
   D23       -3.01747   0.00268   0.03684   0.08106   0.11806  -2.89941
   D24       -0.81483   0.00274   0.02963   0.09824   0.12800  -0.68683
   D25        1.46645   0.00088   0.00262   0.04505   0.04768   1.51413
   D26       -1.67237   0.00033  -0.01840   0.03433   0.01592  -1.65645
   D27       -0.67217   0.00024   0.01279   0.01934   0.03214  -0.64003
   D28        2.47220  -0.00030  -0.00823   0.00862   0.00038   2.47258
   D29       -3.13021  -0.00109  -0.02831  -0.03132  -0.05958   3.09339
   D30        0.00480  -0.00100  -0.01980  -0.03526  -0.05507  -0.05027
   D31        0.00861  -0.00055  -0.00696  -0.02067  -0.02765  -0.01904
   D32       -3.13956  -0.00047   0.00155  -0.02461  -0.02314   3.12049
   D33        3.12129   0.00098   0.02374   0.02968   0.05340  -3.10850
   D34       -0.03421   0.00097   0.01587   0.03644   0.05233   0.01812
   D35       -0.01758   0.00044   0.00307   0.01917   0.02216   0.00458
   D36        3.11011   0.00044  -0.00480   0.02593   0.02109   3.13120
   D37        0.01230   0.00016   0.00481   0.00345   0.00828   0.02059
   D38        3.13717   0.00025   0.00772   0.00568   0.01342  -3.13259
   D39       -3.12276   0.00008  -0.00352   0.00739   0.00382  -3.11894
   D40        0.00210   0.00017  -0.00061   0.00962   0.00896   0.01106
   D41        3.11820   0.00031   0.00679   0.00934   0.01608   3.13428
   D42       -0.02456   0.00032   0.00129   0.01540   0.01667  -0.00788
   D43       -0.00669   0.00021   0.00385   0.00711   0.01093   0.00424
   D44        3.13374   0.00023  -0.00165   0.01317   0.01152  -3.13793
   D45        0.01570  -0.00042  -0.00518  -0.01686  -0.02203  -0.00633
   D46       -3.11917  -0.00027   0.00298  -0.01647  -0.01356  -3.13273
   D47       -3.12705  -0.00040  -0.01065  -0.01080  -0.02145   3.13469
   D48        0.02126  -0.00025  -0.00249  -0.01041  -0.01298   0.00829
   D49        0.00553   0.00004   0.00304  -0.00058   0.00242   0.00796
   D50       -3.12217   0.00006   0.01086  -0.00727   0.00361  -3.11856
   D51        3.14041  -0.00012  -0.00503  -0.00098  -0.00613   3.13429
   D52        0.01270  -0.00010   0.00279  -0.00767  -0.00494   0.00776
         Item               Value     Threshold  Converged?
 Maximum Force            0.008715     0.000450     NO 
 RMS     Force            0.001588     0.000300     NO 
 Maximum Displacement     0.398569     0.001800     NO 
 RMS     Displacement     0.116391     0.001200     NO 
 Predicted change in Energy=-1.725540D-03
 GradGradGradGradGradGradGradGradGradGradGradGradGradGradGradGradGradGrad

                          Input orientation:                          
 ---------------------------------------------------------------------
 Center     Atomic      Atomic             Coordinates (Angstroms)
 Number     Number       Type             X           Y           Z
 ---------------------------------------------------------------------
      1          6           0        2.753565   -2.952107   -1.011943
      2          7           0        2.560202   -1.991259   -2.110534
      3          6           0        1.225644   -2.073593   -2.734151
      4         16           0        3.005286   -0.409005   -1.708503
      5          8           0        2.562261    0.452091   -2.804500
      6          8           0        2.683992   -0.049073   -0.325050
      7          7           0        4.704879   -0.610104   -1.693443
      8          6           0        5.386654   -0.670794   -2.960349
      9          6           0        5.811507    0.491859   -3.612890
     10          6           0        6.519587    0.411750   -4.808955
     11          6           0        6.779547   -0.841886   -5.363009
     12         17           0        7.662482   -0.951820   -6.877233
     13          6           0        6.348841   -2.009575   -4.731225
     14          6           0        5.656076   -1.918765   -3.526163
     15          1           0        2.633759   -3.956115   -1.429604
     16          1           0        2.033310   -2.809766   -0.194160
     17          1           0        3.764779   -2.848904   -0.615551
     18          1           0        1.100303   -3.097603   -3.096702
     19          1           0        1.179419   -1.388956   -3.580168
     20          1           0        0.410891   -1.844791   -2.031552
     21          1           0        5.065512    0.130022   -1.090980
     22          1           0        5.586205    1.464405   -3.185204
     23          1           0        6.856854    1.311599   -5.311755
     24          1           0        6.565948   -2.977232   -5.170484
     25          1           0        5.334070   -2.818587   -3.013262
 ---------------------------------------------------------------------
                    Distance matrix (angstroms):
                    1          2          3          4          5
     1  C    0.000000
     2  N    1.472250   0.000000
     3  C    2.464210   1.475371   0.000000
     4  S    2.648760   1.692117   2.643848   0.000000
     5  O    3.852067   2.539991   2.858421   1.462521   0.000000
     6  O    2.984003   2.641092   3.468318   1.465170   2.532520
     7  N    3.123627   2.584801   3.915348   1.711515   2.636953
     8  C    3.991720   3.233364   4.396932   2.703066   3.043412
     9  C    5.289313   4.358203   5.327650   3.509006   3.348534
    10  C    6.317892   5.360286   6.205447   4.757810   4.436203
    11  C    6.292324   5.450003   6.266883   5.271418   5.099593
    12  Cl   7.905709   7.059399   7.736690   6.978531   6.676104
    13  C    5.258083   4.606750   5.499049   4.783099   4.910220
    14  C    3.976640   3.404952   4.503329   3.551049   3.964019
    15  H    1.093995   2.080802   2.688591   3.577403   4.618196
    16  H    1.098999   2.149432   2.765110   3.000271   4.211101
    17  H    1.091023   2.102744   3.396583   2.779295   4.139337
    18  H    2.664707   2.080342   1.093503   3.575558   3.850068
    19  H    3.393694   2.104556   1.089316   2.792351   2.429684
    20  H    2.784578   2.155743   1.099918   2.982738   3.240602
    21  H    3.853682   3.437427   4.722341   2.217299   3.050598
    22  H    5.679128   4.717333   5.633415   3.514464   3.211535
    23  H    7.314680   6.294276   7.057909   5.547836   5.046644
    24  H    5.641662   5.136286   5.938949   5.591012   5.778204
    25  H    3.268349   3.032117   4.184743   3.596070   4.292300
                    6          7          8          9         10
     6  O    0.000000
     7  N    2.504244   0.000000
     8  C    3.825666   1.439983   0.000000
     9  C    4.569885   2.474515   1.399312   0.000000
    10  C    5.918577   3.747502   2.423383   1.392252   0.000000
    11  C    6.540883   4.221811   2.782481   2.403933   1.395048
    12  Cl   8.278370   5.977948   4.538761   4.020728   2.728242
    13  C    6.057150   3.726829   2.419534   2.792235   2.428583
    14  C    4.751437   2.444634   1.396483   2.417186   2.796875
    15  H    4.060486   3.943975   4.551367   5.886365   6.752624
    16  H    2.839357   3.771424   4.844782   6.071508   7.197304
    17  H    3.015219   2.656664   3.587856   4.932933   5.983767
    18  H    4.414030   4.598886   4.927554   5.945261   6.679522
    19  H    3.828162   4.073723   4.312860   4.999478   5.768003
    20  H    3.362103   4.480748   5.196070   6.093210   7.079697
    21  H    2.508059   1.020197   2.058878   2.654706   4.002130
    22  H    4.346715   2.702901   2.156260   1.086058   2.148454
    23  H    6.643149   4.627756   3.408883   2.156587   1.084566
    24  H    6.864541   4.599640   3.405156   3.876838   3.408526
    25  H    4.681838   2.648623   2.149088   3.398022   3.881372
                   11         12         13         14         15
    11  C    0.000000
    12  Cl   1.756284   0.000000
    13  C    1.395764   2.729441   0.000000
    14  C    2.407459   4.023719   1.392963   0.000000
    15  H    6.508277   7.999407   5.337749   4.204849   0.000000
    16  H    7.288094   8.933253   6.312612   5.002056   1.789128
    17  H    5.971206   7.615751   4.931594   3.593581   1.779833
    18  H    6.517531   7.871403   5.603804   4.725374   2.422343
    19  H    5.902477   7.286414   5.332263   4.508223   3.651074
    20  H    7.257010   8.767188   6.524924   5.454475   3.124288
    21  H    4.704546   6.433922   4.413185   3.236728   4.767033
    22  H    3.389083   4.876489   3.878188   3.401026   6.417251
    23  H    2.155481   2.867546   3.409588   3.881424   7.788096
    24  H    2.154621   2.866649   1.084639   2.156852   5.514935
    25  H    3.393828   4.882274   2.153058   1.084636   3.330709
                   16         17         18         19         20
    16  H    0.000000
    17  H    1.782439   0.000000
    18  H    3.062369   3.649300   0.000000
    19  H    3.769998   4.195770   1.777490   0.000000
    20  H    2.634280   3.776488   1.783079   1.787913   0.000000
    21  H    4.317509   3.285108   5.492118   4.858505   5.142961
    22  H    6.311731   5.340912   6.398677   5.264735   6.250245
    23  H    8.151196   6.994644   7.581912   6.521094   7.891322
    24  H    6.733250   5.348871   5.847079   5.836644   7.001431
    25  H    4.340787   2.865765   4.243771   4.430164   5.113680
                   21         22         23         24         25
    21  H    0.000000
    22  H    2.537218   0.000000
    23  H    4.734974   2.481959   0.000000
    24  H    5.343097   4.962799   4.301006   0.000000
    25  H    3.530097   4.293852   4.965922   2.489236   0.000000
 Stoichiometry    C8H11ClN2O2S
 Framework group  C1[X(C8H11ClN2O2S)]
 Deg. of freedom    69
 Full point group                 C1      NOp   1
 Largest Abelian subgroup         C1      NOp   1
 Largest concise Abelian subgroup C1      NOp   1
                         Standard orientation:                         
 ---------------------------------------------------------------------
 Center     Atomic      Atomic             Coordinates (Angstroms)
 Number     Number       Type             X           Y           Z
 ---------------------------------------------------------------------
      1          6           0       -2.958406    1.624834   -0.961950
      2          7           0       -2.291428    1.037109    0.211609
      3          6           0       -2.842926    1.507221    1.496741
      4         16           0       -2.145948   -0.646832    0.131382
      5          8           0       -1.668628   -1.098186    1.438062
      6          8           0       -3.302379   -1.300876   -0.486368
      7          7           0       -0.930367   -0.748479   -1.069167
      8          6           0        0.427196   -0.470559   -0.677586
      9          6           0        1.252280   -1.473084   -0.155809
     10          6           0        2.579484   -1.199991    0.164060
     11          6           0        3.071184    0.092692   -0.018591
     12         17           0        4.741083    0.448803    0.392692
     13          6           0        2.255698    1.106497   -0.523902
     14          6           0        0.934156    0.818260   -0.856758
     15          1           0       -2.821328    2.708879   -0.908269
     16          1           0       -4.032554    1.395082   -0.996860
     17          1           0       -2.486103    1.250076   -1.871245
     18          1           0       -2.748700    2.596572    1.510378
     19          1           0       -2.257839    1.089679    2.315240
     20          1           0       -3.902073    1.242004    1.629730
     21          1           0       -1.034094   -1.671970   -1.490126
     22          1           0        0.855076   -2.471343    0.003030
     23          1           0        3.222691   -1.977935    0.560761
     24          1           0        2.655126    2.104576   -0.667908
     25          1           0        0.295174    1.590909   -1.270461
 ---------------------------------------------------------------------
 Rotational constants (GHZ):      1.2863580      0.2606099      0.2453193
 Standard basis: 6-31G(d) (6D, 7F)
 There are   240 symmetry adapted basis functions of A   symmetry.
 Integral buffers will be    131072 words long.
 Raffenetti 2 integral format.
 Two-electron integral symmetry is turned on.
   240 basis functions,   484 primitive gaussians,   240 cartesian basis functions
    61 alpha electrons       61 beta electrons
       nuclear repulsion energy      1156.0263234428 Hartrees.
 NAtoms=   25 NActive=   25 NUniq=   25 SFac= 1.00D+00 NAtFMM=   60 NAOKFM=F Big=F
 One-electron integrals computed using PRISM.
 NBasis=   240 RedAO= T  NBF=   240
 NBsUse=   240 1.00D-06 NBFU=   240
 Initial guess read from the read-write file.
 B after Tr=     0.000000    0.000000    0.000000
         Rot=    1.000000    0.000000    0.000000    0.000000 Ang=   0.00 deg.
 Initial guess orbital symmetries:
       Occupied  (A) (A) (A) (A) (A) (A) (A) (A) (A) (A) (A) (A)
                 (A) (A) (A) (A) (A) (A) (A) (A) (A) (A) (A) (A)
                 (A) (A) (A) (A) (A) (A) (A) (A) (A) (A) (A) (A)
                 (A) (A) (A) (A) (A) (A) (A) (A) (A) (A) (A) (A)
                 (A) (A) (A) (A) (A) (A) (A) (A) (A) (A) (A) (A)
                 (A)
       Virtual   (A) (A) (A) (A) (A) (A) (A) (A) (A) (A) (A) (A)
                 (A) (A) (A) (A) (A) (A) (A) (A) (A) (A) (A) (A)
                 (A) (A) (A) (A) (A) (A) (A) (A) (A) (A) (A) (A)
                 (A) (A) (A) (A) (A) (A) (A) (A) (A) (A) (A) (A)
                 (A) (A) (A) (A) (A) (A) (A) (A) (A) (A) (A) (A)
                 (A) (A) (A) (A) (A) (A) (A) (A) (A) (A) (A) (A)
                 (A) (A) (A) (A) (A) (A) (A) (A) (A) (A) (A) (A)
                 (A) (A) (A) (A) (A) (A) (A) (A) (A) (A) (A) (A)
                 (A) (A) (A) (A) (A) (A) (A) (A) (A) (A) (A) (A)
                 (A) (A) (A) (A) (A) (A) (A) (A) (A) (A) (A) (A)
                 (A) (A) (A) (A) (A) (A) (A) (A) (A) (A) (A) (A)
                 (A) (A) (A) (A) (A) (A) (A) (A) (A) (A) (A) (A)
                 (A) (A) (A) (A) (A) (A) (A) (A) (A) (A) (A) (A)
                 (A) (A) (A) (A) (A) (A) (A) (A) (A) (A) (A) (A)
                 (A) (A) (A) (A) (A) (A) (A) (A) (A) (A) (A)
[...]
 ,-0.00001598,-0.00016572,-0.03039300,-0.00673650,-0.00739253,0.0097944
 3,0.00313741,0.00254711,0.08090373,0.07684993,-0.05287239,-0.01668042,
 -0.06479351,-0.03035977,-0.00964294,-0.01242730,-0.00024887,0.00426444
 ,-0.00453250,-0.00426345,-0.00107229,-0.00023264,0.00080683,0.00009460
 ,0.00011583,0.00041478,0.00055728,0.00011523,0.00070029,-0.00087046,0.
 00076174,0.00066113,0.00012013,-0.00087638,-0.00014789,0.00000033,0.00
 009224,-0.00001408,0.00002687,-0.00003222,0.00004993,-0.00000253,-0.00
 007223,-0.00007499,0.00000633,0.00009908,0.00002915,-0.00002631,-0.000
 02144,0.00003487,0.00003853,0.00013395,-0.00354201,-0.00159805,-0.0010
 7449,0.02133346,0.00781138,0.00795268,0.06940029,0.01724523,0.07488121
 ,0.00098458,-0.00152747,0.00072086,-0.00824945,-0.03682663,-0.00429056
 ,-0.04828235,0.02076272,0.00285394,-0.00392585,0.00178060,-0.00439828,
 0.00087737,-0.00009373,0.00088346,0.00084169,-0.00208246,-0.00076236,-
 0.00123349,-0.00092805,0.00047979,0.00017312,-0.00035839,-0.00060086,-
 0.00016817,0.00007204,0.00019868,-0.00000653,-0.00001793,-0.00002542,0
 .00001627,-0.00000225,-0.00002135,-0.00003378,0.00001230,0.00005357,0.
 00001432,0.00002418,0.00000185,-0.00010091,-0.00004294,0.00010497,0.00
 001055,0.00063518,-0.00034618,-0.00020176,0.00037283,-0.00021284,0.000
 11310,-0.00006358,0.00043176,0.05916458,0.00117124,0.00035248,0.000952
 72,-0.00650020,-0.00989019,-0.00038726,0.01355735,-0.31408454,-0.03012
 189,0.00129058,0.00218645,-0.00015016,-0.00070626,-0.00055379,-0.00025
 988,-0.00016650,-0.00051410,-0.00050782,-0.00064006,-0.00000966,-0.000
 05029,0.00026929,-0.00009075,-0.00043617,-0.00008438,0.00004190,0.0000
 9365,0.00000004,0.00000334,-0.00000327,0.00002732,-0.00001157,-0.00003
 930,-0.00004831,0.00001140,0.00006626,-0.00000685,-0.00001615,-0.00002
 594,-0.00008736,0.00000192,0.00016063,-0.00031925,0.00055917,-0.000573
 36,0.00008074,-0.00020373,-0.00019683,-0.00010552,0.00050608,0.0000954
 3,-0.01002037,0.33947441,0.00026380,-0.00179411,0.00040401,-0.00569572
 ,-0.01224175,-0.00181363,0.00396547,-0.02809166,-0.05349309,-0.0015357
 0,0.00131788,-0.00342833,0.00129258,0.00096843,0.00099372,0.00014884,-
 0.00066932,0.00025927,-0.00006358,-0.00016494,0.00021046,-0.00015758,-
 0.00007913,0.00006839,-0.00000556,0.00000664,0.00001967,-0.00001769,-0
 .00001472,0.00000242,0.00000910,-0.00000056,-0.00001323,-0.00000643,-0
 .00000334,0.00000139,-0.00001187,-0.00000437,0.00001356,0.00003241,0.0
 0000705,-0.00002339,-0.00039129,0.00050966,-0.00005818,0.00005606,-0.0
 0000877,-0.00016075,0.00016840,0.00010537,0.00012391,0.00111365,0.0336
 9297,0.05182870,-0.00505797,-0.00365484,-0.00096597,-0.00968606,0.0149
 3507,-0.02978327,-0.05728151,0.01632891,-0.03205981,-0.00095910,0.0019
 4835,-0.00471094,0.00049225,-0.00003081,0.00204205,0.00017406,-0.00073
 088,0.00050883,0.00035371,-0.00002987,0.00048800,0.00003199,0.00004075
 ,-0.00007510,-0.00002160,-0.00000622,0.00002490,0.00002622,0.00000116,
 -0.00002684,-0.00004754,0.00001997,0.00005989,0.00004064,0.00000110,-0
 .00004330,0.00002007,0.00002182,0.00002143,-0.00004348,-0.00014002,0.0
 0009962,0.00005325,-0.00012507,0.00043528,-0.00004140,-0.00007016,-0.0
 0044652,-0.00027624,0.00067950,-0.00185366,-0.00042062,0.00104631,-0.0
 0061625,0.06674843,-0.00180580,-0.00152354,-0.00064771,-0.00255410,0.0
 0417175,-0.01125061,0.02308808,-0.10340463,0.11235543,-0.00278143,0.00
 092459,-0.00434123,-0.00058916,-0.00273207,0.00156600,0.00027501,-0.00
 045255,0.00050336,0.00072635,0.00016103,0.00044001,-0.00031438,0.00009
 473,0.00039666,0.00008257,-0.00004765,-0.00007603,-0.00001493,-0.00000
 782,-0.00000168,-0.00001816,0.00000964,0.00003011,0.00003523,-0.000012
 75,-0.00005260,-0.00001264,-0.00000537,0.00001802,0.00008808,0.0000440
 5,-0.00011679,-0.00005158,0.00042023,0.00009079,0.00004144,0.00001767,
 0.00019369,-0.00031403,0.00068485,-0.00046259,0.00493655,-0.01100463,0
 .02875826,-0.01913333,0.10790887,-0.00200160,-0.00169644,0.00049801,-0
 .00575354,0.00199406,-0.00900554,-0.03965196,0.10607467,-0.27175034,-0
 .00187246,0.00257314,-0.00345835,0.00254523,0.00171090,0.00155311,0.00
 016631,-0.00052155,0.00033712,0.00053017,-0.00030332,0.00022475,-0.000
 15077,0.00004326,0.00017633,0.00003096,-0.00000712,-0.00001436,-0.0000
 0562,-0.00000555,0.00000645,-0.00000389,0.00000261,0.00000518,0.000009
 80,-0.00000406,-0.00001653,-0.00000395,-0.00000794,-0.00000065,-0.0000
 0282,0.00002097,-0.00000028,0.00018751,0.00012836,0.00015097,0.0001697
 0,0.00000334,0.00033276,-0.00008745,0.00046693,-0.00037337,0.00208712,
 -0.00219314,0.00708769,0.04671814,-0.11769652,0.29066606,0.00141802,-0
 .00128070,0.00388866,-0.03561650,-0.00443549,0.01111423,-0.17434237,0.
 04528091,0.11590027,-0.00208434,0.00999719,0.00066866,0.00082460,-0.00
 108400,0.00101287,0.00080980,-0.00131239,-0.00117699,-0.00044819,-0.00
 145793,-0.00060595,0.00036155,0.00003915,-0.00046415,-0.00006253,0.000
 02077,0.00006551,-0.00003238,0.00001266,0.00003082,0.00005106,-0.00002
 622,-0.00009265,-0.00009470,0.00000391,0.00011884,-0.00003775,-0.00008
 984,-0.00006170,0.00002439,0.00015541,0.00025671,-0.00013700,0.0002392
 8,-0.00019418,0.00024905,0.00030349,-0.00164378,0.00026705,-0.00019591
 ,-0.00045549,0.00064640,0.00130688,0.00142577,0.00599875,-0.00191344,-
 0.00285786,0.20252354,0.00079271,-0.00049340,0.00036294,-0.01320515,0.
 00267243,0.00703982,0.04670232,-0.07037637,-0.04086478,-0.00316056,0.0
 0339278,0.00212928,0.00061669,-0.00042610,-0.00010622,0.00096537,0.000
 58937,-0.00026104,0.00005857,-0.00077425,-0.00038390,0.00010031,0.0000
 4381,-0.00005192,0.00000068,-0.00000656,0.00000342,-0.00000626,0.00000
 892,0.00000397,-0.00000651,-0.00000449,0.00000327,-0.00000528,-0.00000
 041,0.00000855,-0.00000952,-0.00002287,-0.00002311,0.00000865,0.000056
 04,0.00007932,0.00002839,-0.00017161,-0.00038822,0.00034227,0.00013914
 ,-0.00021529,-0.00006695,-0.00001253,0.00010575,0.02360177,-0.00663203
 ,-0.02228981,-0.01130817,0.00475222,0.00940045,-0.04524456,0.06744318,
 -0.00132338,0.00017796,0.00387598,-0.01242206,0.00413833,0.01058665,0.
 11736000,-0.04037116,-0.16397849,-0.00029906,0.00038734,0.00028008,0.0
 0004125,0.00045016,0.00043919,0.00008074,0.00059498,0.00006390,-0.0000
 3620,-0.00030898,-0.00018815,0.00006991,0.00002806,-0.00008171,-0.0000
 1456,-0.00000067,0.00001610,0.00001387,0.00000594,-0.00001372,-0.00003
 227,0.00000868,0.00004329,0.00002152,0.00000216,-0.00002139,0.00000438
 ,-0.00000051,0.00000290,-0.00004567,-0.00001962,0.00008695,0.00002867,
 -0.00008535,-0.00027447,0.00158766,-0.00051229,0.00026114,0.00018996,-
 0.00003425,-0.00002482,0.00149476,-0.00020134,-0.00208249,0.02040985,-
 0.00967181,-0.01632363,-0.12695767,0.04550843,0.16738002,-0.00017307,-
 0.00001856,-0.00024569,-0.00475045,-0.00113585,-0.00054358,0.00024283,
 -0.00068683,0.00116415,-0.01054575,-0.03032698,-0.02483929,-0.00377999
 ,0.00318458,-0.00070180,0.00383365,0.00362020,0.00263988,-0.07954925,-
 0.07654574,-0.04800913,0.00813877,0.01711798,0.01192157,0.00038418,0.0
 0270578,0.00145133,-0.00067491,-0.00011473,-0.00014550,0.00002204,-0.0
 0033758,-0.00021764,-0.00014915,-0.00006151,0.00013262,0.00095653,0.00
 080778,0.00038979,-0.00273970,-0.00103764,0.00450646,-0.00001796,-0.00
 001877,0.00012253,-0.00006968,-0.00018509,0.00021148,0.00007833,-0.000
 05740,0.00010127,-0.00023087,-0.00005437,-0.00002870,0.00004081,0.0001
 5694,-0.00003127,-0.00032884,-0.00019296,-0.00006968,0.09008062,-0.000
 89970,0.00045269,-0.00099287,-0.00306094,-0.00067718,-0.00120609,-0.00
 013412,-0.00044405,0.00072128,0.00623304,-0.00030199,0.00111088,0.0039
 1407,-0.00165708,0.00226238,0.00153660,-0.00050115,0.00105216,-0.09314
 295,-0.24066228,-0.21027638,0.00158746,-0.00153890,0.00441381,-0.00023
 815,0.00146922,0.00226734,0.00032219,-0.00015015,-0.00014105,-0.000112
 12,0.00011158,0.00016484,-0.00004282,-0.00003970,0.00008670,-0.0007559
 0,0.00017523,-0.00072500,-0.00013837,0.00140393,0.00011026,0.00019972,
 0.00007997,0.00010163,0.00009751,-0.00002868,0.00013535,0.00034218,-0.
 00028337,0.00000652,-0.00018313,-0.00005681,-0.00004677,0.00009047,-0.
 00001746,0.00004308,-0.00022443,-0.00012054,-0.00008969,0.08443921,0.2
 4308949,0.00060290,-0.00030645,0.00094267,0.00382649,0.00212879,0.0005
 5932,-0.00004194,0.00075069,-0.00071382,-0.00954506,-0.00204364,0.0019
 1036,-0.00071166,0.00058036,-0.00032647,0.00228072,0.00104108,-0.00301
 139,-0.04338535,-0.18322724,-0.18204521,-0.00734045,-0.02152010,-0.019
 18820,-0.00247821,-0.00040755,0.00174710,-0.00014833,0.00004232,-0.000
 48726,0.00016156,0.00025449,0.00017950,-0.00005854,0.00008715,0.000120
 80,-0.00035753,-0.00146512,0.00026803,0.00376785,0.00147334,-0.0020536
 8,-0.00010712,0.00000474,-0.00013655,0.00007394,0.00001171,-0.00016428
 ,-0.00018603,0.00018975,0.00022512,0.00022699,0.00014664,0.00006937,-0
 .00010205,-0.00004614,-0.00007884,0.00025849,0.00000066,-0.00001610,0.
 05223881,0.20107679,0.20219656,0.00003232,0.00002108,0.00002574,0.0001
 3463,0.00024665,0.00011860,-0.00000746,0.00004872,-0.00005322,-0.00107
 557,-0.00041760,-0.00017677,0.00007707,0.00017406,0.00001744,0.0000673
 6,0.00012845,0.00008689,0.00072784,0.00136822,-0.00275432,0.00119319,-
 0.01719239,-0.01635035,-0.05512864,-0.03736692,-0.01463028,0.00579196,
 0.01622553,0.01314562,0.00088925,-0.00224979,0.00446811,-0.00017111,0.
 00047398,0.00107900,-0.00095294,-0.00010608,0.00068539,-0.00180107,-0.
 00432441,0.00282409,0.00001364,0.00001800,-0.00001098,-0.00000163,-0.0
 0000196,-0.00000033,0.00001139,-0.00003279,0.00001375,0.00002692,0.000
 01790,-0.00000315,0.00000221,-0.00001769,-0.00000871,0.00001111,0.0000
 0090,0.00000613,-0.00023618,-0.00009532,0.00113130,0.05126619,-0.00001
 573,0.00001415,-0.00002249,0.00012377,0.00016826,0.00017423,-0.0000113
 8,0.00003310,-0.00004968,-0.00024674,-0.00010495,-0.00024441,0.0001528
 0,0.00002144,0.00027091,0.00013079,0.00008427,0.00002101,0.00269660,-0
 .00038044,0.00051080,-0.00101799,-0.01160273,-0.01505172,-0.03686635,-
 0.20412018,-0.14344528,-0.00073065,0.00128229,-0.00007085,-0.00190167,
 0.00354832,-0.00151836,-0.00009586,0.00005991,-0.00006953,-0.00009889,
 0.00020218,0.00068287,-0.00495637,0.00003269,0.00040010,0.00000563,0.0
 0001181,-0.00000765,-0.00000442,-0.00000529,0.00001067,-0.00000400,-0.
 00001240,-0.00000827,0.00002099,0.00001339,-0.00000667,0.00001306,-0.0
 0001701,-0.00000230,0.00000475,0.00000381,0.00000841,-0.00138274,-0.00
 012230,0.00100551,0.04211733,0.21247083,0.00000651,0.00001714,-0.00000
 257,-0.00002628,0.00001533,0.00002704,0.00001876,0.00001218,-0.0000011
 4,-0.00035670,-0.00009001,0.00024772,-0.00006726,0.00012374,-0.0001439
 1,-0.00020053,0.00010010,0.00011986,-0.00090612,0.00260416,0.00078937,
 0.00314516,0.00314087,0.00318445,-0.01590183,-0.14358893,-0.16961096,-
 0.00486020,-0.01891308,-0.01339670,0.00497358,-0.00088911,0.00038475,0
 .00040044,-0.00078884,-0.00104330,0.00035208,0.00044086,-0.00009183,0.
 00189235,-0.00053028,0.00210243,0.00000387,0.00000187,-0.00000293,-0.0
 0000169,0.00000046,0.00000484,0.00000475,-0.00000710,0.00000207,0.0000
 0278,0.00000328,-0.00000186,0.00000020,-0.00000320,-0.00000581,-0.0000
 0412,0.00000101,0.00000360,-0.00017164,-0.00037325,0.00023894,0.013429
 85,0.15673419,0.17759027,-0.00000648,0.00000549,-0.00002918,-0.0001172
 6,-0.00003634,-0.00001372,0.00004083,-0.00001916,0.00002276,0.00067945
 ,-0.00010599,0.00023298,-0.00009813,0.00004066,-0.00008440,-0.00016517
 ,0.00006916,0.00004126,-0.00089530,-0.00053863,0.00023270,0.00221945,-
 0.00084822,0.00450156,-0.01012585,-0.01229768,0.00075148,-0.20918820,-
 0.15013814,0.03229097,-0.00080453,-0.00143771,0.00234384,-0.00006791,0
 .00172151,-0.00103497,0.00289329,-0.00170472,0.00080499,0.00006218,0.0
 0068163,0.00002332,-0.00000241,-0.00000676,0.00000131,-0.00000386,0.00
 000026,0.00000697,-0.00000252,0.00001278,-0.00000858,-0.00001183,-0.00
 000554,-0.00000304,0.00000393,0.00000342,0.00000024,-0.00001183,-0.000
 00046,0.00000294,-0.00006896,0.00001087,-0.00008876,-0.00084798,0.0017
 8324,-0.00159332,0.21664740,-0.00000614,0.00000542,-0.00001615,-0.0000
 0666,-0.00001786,0.00001618,0.00001413,0.00000250,0.00000734,0.0000815
 2,0.00011977,-0.00009255,-0.00004280,-0.00002325,-0.00001194,-0.000023
 79,-0.00001944,0.00004620,0.00007969,0.00008119,-0.00007394,-0.0012797
 9,0.00334636,-0.00290121,0.00365421,0.00538404,-0.00079045,-0.14894351
 ,-0.17439284,0.01409680,-0.01786304,-0.01117995,0.00509144,0.00115299,
 -0.00013724,0.00145532,-0.00117730,-0.00064651,-0.00516643,0.00076521,
 -0.00010474,-0.00034408,-0.00000275,-0.00000448,0.00000031,-0.00000212
 ,-0.00000064,0.00000455,-0.00000297,0.00000481,-0.00000723,-0.00000011
 ,-0.00000231,-0.00000072,0.00000351,0.00000183,0.00000137,-0.00000526,
 0.00000049,0.00000174,0.00001733,-0.00001090,0.00000477,0.00161942,-0.
 00083793,0.00170946,0.16273587,0.17910942,0.00001749,-0.00000927,0.000
 03630,0.00009816,0.00008114,0.00004626,-0.00003624,0.00003303,-0.00002
 695,-0.00053854,0.00000843,-0.00035222,0.00008572,0.00001701,0.0000756
 9,0.00023482,-0.00009310,-0.00010848,0.00128172,0.00079408,0.00021069,
 0.00425691,-0.00345379,-0.00133468,0.01815579,0.01752961,0.00068190,0.
 03386254,0.01592135,-0.05547556,-0.01659283,-0.01441476,0.00531152,-0.
 00154462,0.00084462,0.00016484,0.00165125,-0.00446923,-0.00171832,0.00
 017234,-0.00020756,-0.00095046,0.00000535,0.00001110,-0.00000522,0.000
 00267,0.,-0.00000590,0.00000473,-0.00001620,0.00001095,0.00001840,0.00
 001093,0.00000194,-0.00000049,-0.00000946,-0.00000318,0.00000965,-0.00
 000006,0.00000060,0.00005011,-0.00001459,0.00008582,-0.00184676,0.0014
 6753,-0.00043643,-0.03824333,-0.01350314,0.05342466,0.00000030,-0.0000
 0836,0.00001578,-0.00006343,-0.00009255,-0.00005297,0.00003410,-0.0000
 0670,0.00004266,0.00054074,0.00011024,0.00016170,-0.00010996,-0.000010
 19,-0.00012687,-0.00013482,-0.00003467,-0.00002384,0.00041417,0.000892
 47,0.00072235,0.00056541,-0.00289637,0.00497230,-0.00080056,0.00000152
 ,0.00056646,-0.00176218,-0.00421008,0.00308691,-0.00015264,-0.01763358
 ,-0.01673635,-0.00018627,0.00105742,-0.00147976,-0.05465705,-0.0358534
 3,-0.01775013,0.00597130,0.01536663,0.01308257,-0.00000083,-0.00000561
 ,0.00000599,-0.00000192,0.00000083,-0.00000302,-0.00000751,0.00000768,
 -0.00001147,-0.00001664,-0.00001573,0.00001451,-0.00001410,0.00002151,
 0.00000825,-0.00001064,-0.00000517,-0.00001501,-0.00032170,0.00010753,
 0.00018765,-0.00017522,0.00031722,-0.00031473,0.00018671,-0.00101341,-
 0.00083564,0.05170397,0.00000474,-0.00000083,0.00001127,0.00006485,0.0
 0000033,-0.00000351,-0.00004046,0.00000715,-0.00002578,-0.00034042,0.0
 0003057,-0.00008548,0.00008921,-0.00002376,0.00010430,0.00007832,-0.00
 001653,-0.00001796,-0.00001165,0.00002739,-0.00018090,-0.00237703,0.00
 374204,-0.00133847,-0.00012054,0.00023083,0.00073515,-0.00488095,0.000
 09424,0.00015361,-0.00050574,-0.01147000,-0.01525568,0.00156830,-0.000
 08540,0.00095648,-0.03746748,-0.20458980,-0.14698519,-0.00044481,0.002
 47333,0.00010206,-0.00000134,0.00000122,0.00000310,0.00000375,-0.00000
 115,-0.00000691,0.00000335,-0.00000462,0.00000699,0.00000208,0.0000024
 8,0.00000082,0.00000021,-0.00000282,-0.00000327,0.00001226,-0.00000068
 ,0.00000153,0.00009915,-0.00003914,0.00008609,0.00031329,-0.00028626,0
 .00017907,-0.00015731,-0.00042029,-0.00084025,0.04217310,0.21128999,0.
 00001438,-0.00001853,0.00003108,0.00008690,0.00012562,0.00002406,-0.00
 004100,-0.00000161,-0.00004630,-0.00071252,-0.00027018,-0.00006201,0.0
 0014494,0.00005871,0.00008416,0.00019566,0.00004279,-0.00004050,-0.000
 11401,-0.00096281,-0.00058623,0.00514183,-0.00093739,-0.00011343,0.000
 49395,0.00060352,-0.00022100,0.00228416,-0.00036973,0.00203819,0.00207
 882,0.00388699,0.00462249,-0.00094922,0.00159755,0.00030413,-0.0191592
 1,-0.14869979,-0.18013877,-0.00426163,-0.01794588,-0.01211890,0.000015
 57,0.00002228,-0.00001337,-0.00000291,0.00000587,-0.00000578,0.0000052
 4,-0.00002558,0.00001113,0.00002383,0.00002118,-0.00000800,0.00000757,
 -0.00001960,-0.00000627,0.00001507,0.00000645,0.00000974,0.00020190,-0
 .00001245,-0.00025786,-0.00030936,0.00017669,-0.00022631,0.00013056,0.
 00015919,0.00047165,0.01641383,0.16089068,0.18659866,0.00031630,-0.000
 24798,0.00009851,-0.00116134,-0.00048941,0.00027926,-0.00042893,-0.000
 02604,0.00027608,0.00031557,0.00213929,0.00103879,-0.00025735,-0.00022
 542,0.00003522,-0.00022483,-0.00031944,-0.00006446,-0.00144095,0.00153
 432,-0.00058538,0.00133348,-0.00171728,0.00143391,0.00237868,-0.001788
 54,0.00106310,0.00021117,0.00047938,-0.00010416,0.00246062,-0.00113451
 ,0.00445880,-0.00046585,-0.00040198,0.00035960,-0.01003112,-0.01167228
 ,0.00121029,-0.20396314,-0.15165656,0.03271385,0.00003125,0.00004944,-
 0.00002590,-0.00003764,0.00006739,-0.00016948,0.00000954,-0.00003927,-
 0.00012484,0.00001335,-0.00000695,0.00004597,-0.00013671,0.00006551,-0
 .00002152,0.00002174,-0.00000707,-0.00009609,-0.00014129,0.00014711,-0
 .00020566,0.00015275,-0.00003340,0.00017411,-0.00031501,0.00024573,-0.
 00026919,-0.00100122,0.00193514,-0.00170434,0.21236095,-0.00029318,0.0
 0026136,-0.00014469,-0.00081288,-0.00050228,0.00112378,0.00016981,0.00
 027234,0.00012269,0.00041582,-0.00137454,-0.00303660,-0.00017807,0.000
 37127,0.00092591,0.00032431,0.00005485,0.00031511,0.00145928,-0.000418
 89,0.00193835,-0.01792634,-0.01095430,0.00425528,-0.00100719,-0.000435
 16,-0.00499819,0.00070770,-0.00003673,-0.00033298,-0.00152185,0.003242
 78,-0.00267497,0.00026489,0.00016423,-0.00028514,0.00377521,0.00577120
 ,-0.00097703,-0.14942305,-0.18100812,0.01641076,-0.00003279,-0.0000761
 2,0.00006005,0.00003346,-0.00007670,0.00014766,0.00002285,0.00002270,-
 0.00000872,-0.00007418,-0.00008277,0.00004956,0.00009919,0.00003684,-0
 .00002193,-0.00010651,-0.00006037,-0.00001806,0.00000780,-0.00013044,0
 .00013137,-0.00096854,-0.00045695,0.00010006,0.00023177,-0.00025745,0.
 00031261,0.00172968,-0.00095829,0.00166603,0.16310281,0.18663154,-0.00
 007034,0.00033599,-0.00054033,-0.00014010,0.00126104,0.00009348,0.0006
 6532,0.00024832,0.00031825,0.00007377,-0.00364620,0.00007426,0.0001017
 5,0.00043090,-0.00065812,0.00009010,0.00055083,0.00010887,-0.00056885,
 0.00246713,0.00030660,-0.01734398,-0.01495869,0.00819961,0.00159562,-0
 .00444379,-0.00179293,0.00018557,-0.00043283,-0.00098737,0.00412224,-0
 .00286759,-0.00087108,0.00111696,0.00043119,-0.00054847,0.01854101,0.0
 1771684,0.00048127,0.03508933,0.01706845,-0.05821328,0.00005414,-0.000
 03204,-0.00000355,-0.00006063,-0.00007148,0.00018155,0.00002104,-0.000
 05962,-0.00006425,-0.00003858,-0.00009703,-0.00000153,-0.00013155,0.00
 004363,-0.00000128,-0.00025100,-0.00006898,-0.00004520,-0.00012795,0.0
 0032511,-0.00006391,-0.00088767,-0.00096569,0.00026840,-0.00028855,0.0
 0031318,-0.00010540,-0.00193117,0.00151225,-0.00035057,-0.03981649,-0.
 01506090,0.05421498\\-0.00000767,0.00000441,0.00000353,-0.00001175,-0.
 00002437,-0.00000191,0.00000298,0.00000076,0.00000038,0.00001259,0.000
 01280,0.00000020,-0.00000748,0.00000288,-0.00000541,-0.00000217,0.0000
 0002,0.00000789,0.00000420,0.00000068,0.00000609,0.00000417,-0.0000083
 4,-0.00001375,0.00000166,0.00000490,0.00000487,0.00000310,0.00000313,0
 .00000140,-0.00001994,-0.00000508,0.00001514,0.00000839,0.00000166,-0.
 00001007,0.00001266,0.00000311,-0.00000973,-0.00000686,0.00000590,0.00
 000734,0.00000345,-0.00000179,-0.00000145,0.00000128,-0.00000121,-0.00
 000196,-0.00000044,-0.00000108,-0.00000046,0.00000009,-0.00000062,-0.0
 0000058,0.00000120,0.00000173,0.00000062,-0.00000071,-0.00000157,-0.00
 000033,-0.00000008,0.00000458,-0.00000367,-0.00000065,-0.00000159,0.00
 000094,0.00000104,-0.00000192,-0.00000102,-0.00000133,0.00000157,0.000
 00006,0.00000225,-0.00000055,0.00000188\\\@


 ARTHROPOD AXIOM: A COMPUTER SYSTEM IS LIKE A SPIDER'S WEB.
 YOU CANNOT PULL ON ONE END WITHOUT MAKING THE OTHER END MOVE.
     -- GREG WETTSTEIN
 Job cpu time:  0 days  1 hours 36 minutes 54.9 seconds.
 File lengths (MBytes):  RWF=    203 Int=      0 D2E=      0 Chk=      5 Scr=      1
 Normal termination of Gaussian 09 at Fri Aug 24 15:29:32 2018.
