 Entering Gaussian System, Link 0=g09
 Initial command:
 /home/fb_chem/chemsoft/lx24-amd64/Gaussian_09_C.01_NBO_3.1_64_istanbul-64/g09/l1.exe /local/2400014.1.parallel_long/Gau-25562.inp -scrdir=/local/2400014.1.parallel_long/
 Entering Link 1 = /home/fb_chem/chemsoft/lx24-amd64/Gaussian_09_C.01_NBO_3.1_64_istanbul-64/g09/l1.exe PID=     25563.
  
 Copyright (c) 1988,1990,1992,1993,1995,1998,2003,2009,2011,
            Gaussian, Inc.  All Rights Reserved.
  
 This is part of the Gaussian(R) 09 program.  It is based on
 the Gaussian(R) 03 system (copyright 2003, Gaussian, Inc.),
 the Gaussian(R) 98 system (copyright 1998, Gaussian, Inc.),
 the Gaussian(R) 94 system (copyright 1995, Gaussian, Inc.),
 the Gaussian 92(TM) system (copyright 1992, Gaussian, Inc.),
 the Gaussian 90(TM) system (copyright 1990, Gaussian, Inc.),
 the Gaussian 88(TM) system (copyright 1988, Gaussian, Inc.),
 the Gaussian 86(TM) system (copyright 1986, Carnegie Mellon
 University), and the Gaussian 82(TM) system (copyright 1983,
 Carnegie Mellon University). Gaussian is a federally registered
 trademark of Gaussian, Inc.
  
 This software contains proprietary and confidential information,
 including trade secrets, belonging to Gaussian, Inc.
  
 This software is provided under written license and may be
 used, copied, transmitted, or stored only in accord with that
 written license.
  
 The following legend is applicable only to US Government
 contracts under FAR:
  
                    RESTRICTED RIGHTS LEGEND
  
 Use, reproduction and disclosure by the US Government is
 subject to restrictions as set forth in subparagraphs (a)
 and (c) of the Commercial Computer Software - Restricted
 Rights clause in FAR 52.227-19.
  
 Gaussian, Inc.
 340 Quinnipiac St., Bldg. 40, Wallingford CT 06492
  
  
 ---------------------------------------------------------------
 Warning -- This program may not be used in any manner that
 competes with the business of Gaussian, Inc. or will provide
 assistance to any competitor of Gaussian, Inc.  The licensee
 of this program is prohibited from giving any competitor of
 Gaussian, Inc. access to this program.  By using this program,
 the user acknowledges that Gaussian, Inc. is engaged in the
 business of creating and licensing software in the field of
 computational chemistry and represents and warrants to the
 licensee that it is not a competitor of Gaussian, Inc. and that
 it will not use this program in any manner prohibited above.
 ---------------------------------------------------------------
  

 Cite this work as:
 Gaussian 09, Revision C.01,
 M. J. Frisch, G. W. Trucks, H. B. Schlegel, G. E. Scuseria, 
 M. A. Robb, J. R. Cheeseman, G. Scalmani, V. Barone, B. Mennucci, 
 G. A. Petersson, H. Nakatsuji, M. Caricato, X. Li, H. P. Hratchian, 
 A. F. Izmaylov, J. Bloino, G. Zheng, J. L. Sonnenberg, M. Hada, 
 M. Ehara, K. Toyota, R. Fukuda, J. Hasegawa, M. Ishida, T. Nakajima, 
 Y. Honda, O. Kitao, H. Nakai, T. Vreven, J. A. Montgomery, Jr., 
 J. E. Peralta, F. Ogliaro, M. Bearpark, J. J. Heyd, E. Brothers, 
 K. N. Kudin, V. N. Staroverov, T. Keith, R. Kobayashi, J. Normand, 
 K. Raghavachari, A. Rendell, J. C. Burant, S. S. Iyengar, J. Tomasi, 
 M. Cossi, N. Rega, J. M. Millam, M. Klene, J. E. Knox, J. B. Cross, 
 V. Bakken, C. Adamo, J. Jaramillo, R. Gomperts, R. E. Stratmann, 
 O. Yazyev, A. J. Austin, R. Cammi, C. Pomelli, J. W. Ochterski, 
 R. L. Martin, K. Morokuma, V. G. Zakrzewski, G. A. Voth, 
 P. Salvador, J. J. Dannenberg, S. Dapprich, A. D. Daniels, 
 O. Farkas, J. B. Foresman, J. V. Ortiz, J. Cioslowski, 
 and D. J. Fox, Gaussian, Inc., Wallingford CT, 2010.
 
 ******************************************
 Gaussian 09:  AM64L-G09RevC.01 23-Sep-2011
                17-Feb-2018 
 ******************************************
 %nprocs=2
 Will use up to    2 processors via shared memory.
 %chk=frag20-conf0.chk
 ----------------------------------------------------------------------
 #HF/6-31G* Geom=AllCheck Guess=Read Pop=(MK,ReadRadii) Integral=(Grid=
 UltraFine) iop(6/33=2)
 ----------------------------------------------------------------------
 1/29=7,38=1/1;
 2/12=2,40=1/2;
 3/5=1,6=6,7=1,11=9,14=-4,16=1,25=1,30=1,75=-5,116=-2/1,2,3;
 4/5=1/1;
 5/5=2,38=6/2;
 6/7=2,8=2,9=2,10=2,15=8,20=101,28=1,33=2/1,2;
 99/5=1,9=1/99;
 Structure from the checkpoint file:  frag20-conf0.chk
 -----------------------------
 Optimization for frag20-conf0
 -----------------------------
 Charge =  1 Multiplicity = 1
 Redundant internal coordinates found in file.
 C,0,0.6634935397,-0.1585132332,1.2331669091
 C,0,1.2180678265,-0.5953054917,2.4164153792
 C,0,2.7414244515,-1.9518034646,1.24498367
 C,0,2.2369056275,-1.5574160389,0.0111010931
 C,0,1.1811028456,-0.6323849779,0.019018883
 C,0,5.1167026078,-1.113599103,-1.0946906878
 C,0,6.1946038823,-0.287230996,-1.7595567524
 C,0,2.8288162842,-1.9556079087,3.6901621666
 C,0,2.887116301,-2.102309728,-1.2534477306
 N,0,2.2474432311,-1.4790736274,2.4107736393
 N,0,3.9204047535,-1.2141364471,-1.7589155112
 O,0,5.2783536936,-1.6861444659,-0.0182974014
 Cl,0,0.4992904952,-0.0484619496,-1.4559449787
 H,0,-0.1565222937,0.5495540035,1.2509235669
 H,0,0.8690999379,-0.2572986831,3.3844924107
 H,0,3.5854369419,-2.6261246799,1.3061222001
 H,0,6.6392788587,0.3807516808,-1.017456119
 H,0,6.9859844443,-0.9584560918,-2.1102819918
 H,0,5.832652386,0.3014647216,-2.6070499845
 H,0,2.3665334047,-2.9064439288,3.9664097323
 H,0,3.9040284658,-2.0838625031,3.5626582021
 H,0,2.6415382703,-1.2123658145,4.4648789494
 H,0,3.3238163536,-3.0803774582,-1.0280355936
 H,0,2.1336089231,-2.2377075673,-2.0309895831
 H,0,3.7974150127,-0.7813217289,-2.6634228814
 Recover connectivity data from disk.
                          Input orientation:                          
 ---------------------------------------------------------------------
 Center     Atomic      Atomic             Coordinates (Angstroms)
 Number     Number       Type             X           Y           Z
 ---------------------------------------------------------------------
      1          6           0        0.663494   -0.158513    1.233167
      2          6           0        1.218068   -0.595305    2.416415
      3          6           0        2.741424   -1.951803    1.244984
      4          6           0        2.236906   -1.557416    0.011101
      5          6           0        1.181103   -0.632385    0.019019
      6          6           0        5.116703   -1.113599   -1.094691
      7          6           0        6.194604   -0.287231   -1.759557
      8          6           0        2.828816   -1.955608    3.690162
      9          6           0        2.887116   -2.102310   -1.253448
     10          7           0        2.247443   -1.479074    2.410774
     11          7           0        3.920405   -1.214136   -1.758916
     12          8           0        5.278354   -1.686144   -0.018297
     13         17           0        0.499290   -0.048462   -1.455945
     14          1           0       -0.156522    0.549554    1.250924
     15          1           0        0.869100   -0.257299    3.384492
     16          1           0        3.585437   -2.626125    1.306122
     17          1           0        6.639279    0.380752   -1.017456
     18          1           0        6.985984   -0.958456   -2.110282
     19          1           0        5.832652    0.301465   -2.607050
     20          1           0        2.366533   -2.906444    3.966410
     21          1           0        3.904028   -2.083863    3.562658
     22          1           0        2.641538   -1.212366    4.464879
     23          1           0        3.323816   -3.080377   -1.028036
     24          1           0        2.133609   -2.237708   -2.030990
     25          1           0        3.797415   -0.781322   -2.663423
 ---------------------------------------------------------------------
                    Distance matrix (angstroms):
                    1          2          3          4          5
     1  C    0.000000
     2  C    1.377831   0.000000
     3  C    2.744782   2.352223   0.000000
     4  C    2.434338   2.783743   1.390161   0.000000
     5  C    1.402366   2.397968   2.382952   1.403732   0.000000
     6  C    5.114898   5.272177   3.437820   3.116565   4.118357
     7  C    6.290163   6.503812   4.870576   4.517961   5.330821
     8  C    3.735639   2.463202   2.446743   3.747587   4.235938
     9  C    3.860841   4.304031   2.507197   1.522750   2.586568
    10  N    2.374770   1.356721   1.351502   2.400974   2.752173
    11  N    4.546908   5.011882   3.310220   2.466773   3.317116
    12  O    5.019637   4.858362   2.846483   3.044313   4.230752
    13  Cl   2.696367   3.976286   3.993105   2.729189   1.726659
    14  H    1.083559   2.135081   3.828174   3.421254   2.168827
    15  H    2.163385   1.083144   3.309750   3.865355   3.400654
    16  H    3.825204   3.310803   1.082037   2.153545   3.378233
    17  H    6.408285   6.491047   5.074713   4.918873   5.647337
    18  H    7.196697   7.341099   5.500985   5.235720   6.191679
    19  H    6.455931   6.879956   5.428726   4.820741   5.422659
    20  H    4.233448   3.010451   2.908271   4.181046   4.707280
    21  H    4.431091   3.277813   2.596286   3.958535   4.698775
    22  H    3.932840   2.569676   3.305219   4.485412   4.715392
    23  H    4.552762   4.740675   2.603743   2.140232   3.417632
    24  H    4.139928   4.828572   3.344126   2.154902   2.772519
    25  H    5.039124   5.700210   4.214355   3.192270   3.750035
                    6          7          8          9         10
     6  C    0.000000
     7  C    1.512218   0.000000
     8  C    5.370123   6.619021   0.000000
     9  C    2.444137   3.806591   4.946130   0.000000
    10  N    4.544722   5.864488   1.483885   3.771488   0.000000
    11  N    1.372017   2.455837   5.606585   1.453284   4.500589
    12  O    1.229863   2.414220   4.452585   2.723381   3.889689
    13  Cl   4.752422   5.708396   5.962073   3.156106   4.478192
    14  H    6.006237   7.078136   4.597605   4.750578   3.352556
    15  H    6.232051   7.404264   2.611164   5.383953   2.083433
    16  H    3.224347   4.655810   2.589539   2.704336   2.079954
    17  H    2.134781   1.093000   6.491523   4.505553   5.873664
    18  H    2.133005   1.095370   7.205658   4.340885   6.569989
    19  H    2.191397   1.093534   7.332959   4.035660   6.418925
    20  H    6.032616   7.368927   1.092752   5.307028   2.114609
    21  H    4.909469   6.066349   1.090315   4.922329   2.106391
    22  H    6.086461   7.226600   1.089802   5.792372   2.108505
    23  H    2.662161   4.071635   4.875605   1.094593   3.943116
    24  H    3.322518   4.513282   5.770136   1.091182   4.507521
    25  H    2.076499   2.609140   6.533389   2.135810   5.351331
                   11         12         13         14         15
    11  N    0.000000
    12  O    2.257558   0.000000
    13  Cl   3.626929   5.252455   0.000000
    14  H    5.365731   6.012250   2.848658   0.000000
    15  H    6.056455   5.749965   4.859033   2.501005   0.000000
    16  H    3.391220   2.345979   4.878285   4.908181   4.160462
    17  H    3.238164   2.668800   6.170572   7.166377   7.285549
    18  H    3.096225   2.796772   6.582814   8.036616   8.252299
    19  H    2.583229   3.310510   5.467380   7.128515   7.800490
    20  H    6.169098   5.083869   6.407541   5.067899   3.098210
    21  H    5.392202   3.856189   6.396989   5.363494   3.546670
    22  H    6.353827   5.222656   6.403128   4.611184   2.284935
    23  H    2.091162   2.604549   4.165761   5.521124   5.784964
    24  H    2.077104   3.774198   2.791858   4.876934   5.903257
    25  H    1.010242   3.163633   3.587856   5.720748   6.739949
                   16         17         18         19         20
    16  H    0.000000
    17  H    4.875066   0.000000
    18  H    5.100653   1.762938   0.000000
    19  H    5.379003   1.784304   1.778863   0.000000
    20  H    2.939632   7.341725   7.877828   8.094136   0.000000
    21  H    2.342542   5.876510   6.553415   6.890187   1.789845
    22  H    3.587116   6.969645   7.884886   7.904876   1.787177
    23  H    2.392297   4.792892   4.368671   4.497155   5.088332
    24  H    3.659916   5.308921   5.018797   4.523512   6.039061
    25  H    4.382410   3.483649   3.241036   2.306035   7.107619
                   21         22         23         24         25
    21  H    0.000000
    22  H    1.779716   0.000000
    23  H    4.733303   5.841839   0.000000
    24  H    5.869152   6.595879   1.769916   0.000000
    25  H    6.361766   7.234261   2.860847   2.299844   0.000000
 Stoichiometry    C9H12ClN2O(1+)
 Framework group  C1[X(C9H12ClN2O)]
 Deg. of freedom    69
 Full point group                 C1      NOp   1
 Largest Abelian subgroup         C1      NOp   1
 Largest concise Abelian subgroup C1      NOp   1
                         Standard orientation:                         
 ---------------------------------------------------------------------
 Center     Atomic      Atomic             Coordinates (Angstroms)
 Number     Number       Type             X           Y           Z
 ---------------------------------------------------------------------
      1          6           0       -2.275207    0.821270    0.650572
      2          6           0       -2.662818   -0.500603    0.621815
      3          6           0       -0.738373   -1.077040   -0.601780
      4          6           0       -0.279338    0.235090   -0.613903
      5          6           0       -1.069717    1.194177    0.038719
      6          6           0        2.587291   -0.694474    0.180660
      7          6           0        3.824995   -0.660308    1.048833
      8          6           0       -2.326293   -2.850402   -0.035876
      9          6           0        1.058472    0.536305   -1.275946
     10          7           0       -1.893759   -1.431493    0.003201
     11          7           0        2.155122    0.506441   -0.322793
     12          8           0        1.983273   -1.732077   -0.085992
     13         17           0       -0.579844    2.848172    0.114090
     14          1           0       -2.896842    1.554784    1.150198
     15          1           0       -3.576718   -0.851172    1.085592
     16          1           0       -0.152613   -1.870770   -1.046396
     17          1           0        3.646349   -1.257565    1.946619
     18          1           0        4.650260   -1.130291    0.503042
     19          1           0        4.126574    0.349939    1.339120
     20          1           0       -2.846704   -3.044853   -0.976869
     21          1           0       -1.446666   -3.489448    0.045763
     22          1           0       -2.993335   -3.042393    0.804280
     23          1           0        1.235238   -0.206640   -2.060115
     24          1           0        1.029508    1.522332   -1.742413
     25          1           0        2.672512    1.355058   -0.141838
 ---------------------------------------------------------------------
 Rotational constants (GHZ):      0.7978878      0.5814063      0.3721034
 Standard basis: 6-31G(d) (6D, 7F)
 There are   223 symmetry adapted basis functions of A   symmetry.
 Integral buffers will be    131072 words long.
 Raffenetti 1 integral format.
 Two-electron integral symmetry is turned on.
   223 basis functions,   436 primitive gaussians,   223 cartesian basis functions
    52 alpha electrons       52 beta electrons
       nuclear repulsion energy       894.0328833068 Hartrees.
 NAtoms=   25 NActive=   25 NUniq=   25 SFac= 1.00D+00 NAtFMM=   60 NAOKFM=F Big=F
 One-electron integrals computed using PRISM.
 NBasis=   223 RedAO= T  NBF=   223
 NBsUse=   223 1.00D-06 NBFU=   223
 Initial guess read from the checkpoint file:  frag20-conf0.chk
 B after Tr=     0.000000    0.000000    0.000000
         Rot=    1.000000    0.000000    0.000000    0.000000 Ang=   0.00 deg.
 Initial guess orbital symmetries:
       Occupied  (A) (A) (A) (A) (A) (A) (A) (A) (A) (A) (A) (A)
                 (A) (A) (A) (A) (A) (A) (A) (A) (A) (A) (A) (A)
                 (A) (A) (A) (A) (A) (A) (A) (A) (A) (A) (A) (A)
                 (A) (A) (A) (A) (A) (A) (A) (A) (A) (A) (A) (A)
                 (A) (A) (A) (A)
       Virtual   (A) (A) (A) (A) (A) (A) (A) (A) (A) (A) (A) (A)
                 (A) (A) (A) (A) (A) (A) (A) (A) (A) (A) (A) (A)
                 (A) (A) (A) (A) (A) (A) (A) (A) (A) (A) (A) (A)
                 (A) (A) (A) (A) (A) (A) (A) (A) (A) (A) (A) (A)
                 (A) (A) (A) (A) (A) (A) (A) (A) (A) (A) (A) (A)
                 (A) (A) (A) (A) (A) (A) (A) (A) (A) (A) (A) (A)
                 (A) (A) (A) (A) (A) (A) (A) (A) (A) (A) (A) (A)
                 (A) (A) (A) (A) (A) (A) (A) (A) (A) (A) (A) (A)
                 (A) (A) (A) (A) (A) (A) (A) (A) (A) (A) (A) (A)
                 (A) (A) (A) (A) (A) (A) (A) (A) (A) (A) (A) (A)
                 (A) (A) (A) (A) (A) (A) (A) (A) (A) (A) (A) (A)
                 (A) (A) (A) (A) (A) (A) (A) (A) (A) (A) (A) (A)
                 (A) (A) (A) (A) (A) (A) (A) (A) (A) (A) (A) (A)
                 (A) (A) (A) (A) (A) (A) (A) (A) (A) (A) (A) (A)
                 (A) (A) (A)
 Requested convergence on RMS density matrix=1.00D-08 within 128 cycles.
 Requested convergence on MAX density matrix=1.00D-06.
 Requested convergence on             energy=1.00D-06.
 No special actions if energy rises.
 SCF Done:  E(RHF) =  -990.855541382     A.U. after   14 cycles
             Convg  =    0.4183D-08             -V/T =  2.0016

 **********************************************************************

            Population analysis using the SCF density.

 **********************************************************************

 Orbital symmetries:
 BldTbl:  Degeneracy threshold= 1.00D-02
       Occupied  (A) (A) (A) (A) (A) (A) (A) (A) (A) (A) (A) (A)
                 (A) (A) (A) (A) (A) (A) (A) (A) (A) (A) (A) (A)
                 (A) (A) (A) (A) (A) (A) (A) (A) (A) (A) (A) (A)
                 (A) (A) (A) (A) (A) (A) (A) (A) (A) (A) (A) (A)
                 (A) (A) (A) (A)
       Virtual   (A) (A) (A) (A) (A) (A) (A) (A) (A) (A) (A) (A)
                 (A) (A) (A) (A) (A) (A) (A) (A) (A) (A) (A) (A)
                 (A) (A) (A) (A) (A) (A) (A) (A) (A) (A) (A) (A)
                 (A) (A) (A) (A) (A) (A) (A) (A) (A) (A) (A) (A)
                 (A) (A) (A) (A) (A) (A) (A) (A) (A) (A) (A) (A)
                 (A) (A) (A) (A) (A) (A) (A) (A) (A) (A) (A) (A)
                 (A) (A) (A) (A) (A) (A) (A) (A) (A) (A) (A) (A)
                 (A) (A) (A) (A) (A) (A) (A) (A) (A) (A) (A) (A)
                 (A) (A) (A) (A) (A) (A) (A) (A) (A) (A) (A) (A)
                 (A) (A) (A) (A) (A) (A) (A) (A) (A) (A) (A) (A)
                 (A) (A) (A) (A) (A) (A) (A) (A) (A) (A) (A) (A)
                 (A) (A) (A) (A) (A) (A) (A) (A) (A) (A) (A) (A)
                 (A) (A) (A) (A) (A) (A) (A) (A) (A) (A) (A) (A)
                 (A) (A) (A) (A) (A) (A) (A) (A) (A) (A) (A) (A)
                 (A) (A) (A)
 The electronic state is 1-A.
 Alpha  occ. eigenvalues -- -104.99026 -20.64801 -15.84932 -15.71994 -11.50588
 Alpha  occ. eigenvalues --  -11.48820 -11.48297 -11.47760 -11.44095 -11.43308
 Alpha  occ. eigenvalues --  -11.43047 -11.42296 -11.34210 -10.72336  -8.19272
 Alpha  occ. eigenvalues --   -8.18911  -8.18899  -1.51388  -1.50027  -1.36577
 Alpha  occ. eigenvalues --   -1.34207  -1.24977  -1.24484  -1.14678  -1.13051
 Alpha  occ. eigenvalues --   -1.09096  -1.03993  -1.00905  -0.91750  -0.88998
 Alpha  occ. eigenvalues --   -0.88914  -0.83072  -0.82133  -0.81052  -0.79809
 Alpha  occ. eigenvalues --   -0.78350  -0.77383  -0.74042  -0.73293  -0.71903
 Alpha  occ. eigenvalues --   -0.71404  -0.70054  -0.69647  -0.68078  -0.66261
 Alpha  occ. eigenvalues --   -0.65554  -0.62185  -0.61171  -0.55405  -0.54505
 Alpha  occ. eigenvalues --   -0.52360  -0.52050
 Alpha virt. eigenvalues --   -0.09504  -0.04847   0.03826   0.07459   0.09220
 Alpha virt. eigenvalues --    0.09777   0.11442   0.12900   0.13209   0.14831
 Alpha virt. eigenvalues --    0.15603   0.16363   0.17263   0.18289   0.18755
 Alpha virt. eigenvalues --    0.19847   0.21502   0.23506   0.26683   0.27023
 Alpha virt. eigenvalues --    0.28358   0.30362   0.30948   0.31959   0.35005
 Alpha virt. eigenvalues --    0.36803   0.41253   0.43366   0.44315   0.48392
 Alpha virt. eigenvalues --    0.48848   0.49616   0.51008   0.53299   0.57170
 Alpha virt. eigenvalues --    0.58196   0.59728   0.60309   0.61773   0.63227
 Alpha virt. eigenvalues --    0.63620   0.64149   0.64514   0.67301   0.69498
 Alpha virt. eigenvalues --    0.71028   0.71463   0.74000   0.75654   0.76032
 Alpha virt. eigenvalues --    0.77852   0.79668   0.81455   0.82751   0.84941
 Alpha virt. eigenvalues --    0.86084   0.88385   0.89592   0.90621   0.91695
 Alpha virt. eigenvalues --    0.93791   0.94639   0.95173   0.96365   0.98073
 Alpha virt. eigenvalues --    0.98872   0.99142   1.00948   1.02948   1.03728
 Alpha virt. eigenvalues --    1.05138   1.05202   1.05405   1.06298   1.08493
 Alpha virt. eigenvalues --    1.09702   1.09830   1.11447   1.12666   1.14643
 Alpha virt. eigenvalues --    1.18095   1.20896   1.22059   1.26027   1.27532
 Alpha virt. eigenvalues --    1.29479   1.30849   1.34658   1.35999   1.39875
 Alpha virt. eigenvalues --    1.42088   1.43429   1.45369   1.47475   1.50007
 Alpha virt. eigenvalues --    1.50422   1.53188   1.54317   1.58913   1.59832
 Alpha virt. eigenvalues --    1.63908   1.65487   1.72631   1.73750   1.79217
 Alpha virt. eigenvalues --    1.82070   1.88553   1.92277   1.95870   1.97627
 Alpha virt. eigenvalues --    1.99326   2.01563   2.02962   2.03676   2.04748
 Alpha virt. eigenvalues --    2.06183   2.07787   2.09727   2.12943   2.14479
 Alpha virt. eigenvalues --    2.15987   2.21030   2.21908   2.24136   2.26695
 Alpha virt. eigenvalues --    2.27889   2.30306   2.33352   2.36565   2.36984
 Alpha virt. eigenvalues --    2.40781   2.42791   2.43420   2.45677   2.47959
 Alpha virt. eigenvalues --    2.48961   2.50658   2.52802   2.54326   2.61052
 Alpha virt. eigenvalues --    2.65245   2.67643   2.74520   2.76389   2.80334
 Alpha virt. eigenvalues --    2.83036   2.87201   2.89418   2.90186   2.94856
 Alpha virt. eigenvalues --    2.96873   2.98840   3.03195   3.11213   3.24214
 Alpha virt. eigenvalues --    3.26656   3.38259   3.58069   4.23527   4.27655
 Alpha virt. eigenvalues --    4.32668   4.34651   4.38216   4.45133   4.50464
 Alpha virt. eigenvalues --    4.54995   4.62304   4.62489   4.67795   4.79857
 Alpha virt. eigenvalues --    4.92994
          Condensed to atoms (all electrons):
              1          2          3          4          5          6
     1  C    5.021696   0.569510  -0.024130  -0.050857   0.479913  -0.000010
     2  C    0.569510   4.704077  -0.060821  -0.017309  -0.046126   0.000002
     3  C   -0.024130  -0.060821   4.714501   0.565984  -0.045619   0.001662
     4  C   -0.050857  -0.017309   0.565984   5.075771   0.469728  -0.004192
     5  C    0.479913  -0.046126  -0.045619   0.469728   5.033299   0.000142
     6  C   -0.000010   0.000002   0.001662  -0.004192   0.000142   4.181374
     7  C    0.000000   0.000000   0.000039  -0.000449  -0.000022   0.356967
     8  C    0.002676  -0.031805  -0.035080   0.002000  -0.000102   0.000001
     9  C    0.002083   0.000063  -0.027892   0.293087  -0.032965  -0.031440
    10  N   -0.028320   0.350607   0.338963  -0.023090  -0.034650  -0.000041
    11  N   -0.000114   0.000013  -0.003814  -0.072710   0.000281   0.266759
    12  O   -0.000008   0.000026  -0.004958  -0.007226  -0.000044   0.565364
    13  Cl  -0.071135   0.002493   0.002063  -0.075094   0.256174  -0.000034
    14  H    0.373796  -0.019826   0.000075   0.001559  -0.019915   0.000000
    15  H   -0.019379   0.382088   0.001998  -0.000209   0.002128   0.000000
    16  H   -0.000249   0.001719   0.368154  -0.018637   0.002426  -0.000832
    17  H    0.000000   0.000000   0.000006   0.000031   0.000001  -0.029487
    18  H    0.000000   0.000000  -0.000001  -0.000003   0.000000  -0.026587
    19  H    0.000000   0.000000  -0.000004   0.000002   0.000002  -0.038345
    20  H   -0.000162  -0.000897  -0.002230  -0.000171   0.000047   0.000000
    21  H   -0.000076   0.001955  -0.002399   0.000325   0.000005   0.000002
    22  H    0.000432  -0.002102   0.002657  -0.000041  -0.000015   0.000000
    23  H   -0.000025  -0.000016  -0.002450  -0.057014   0.003457  -0.000688
    24  H    0.000027  -0.000003   0.002540  -0.043274  -0.005486   0.003331
    25  H    0.000005  -0.000001  -0.000033   0.002713   0.000121  -0.011999
              7          8          9         10         11         12
     1  C    0.000000   0.002676   0.002083  -0.028320  -0.000114  -0.000008
     2  C    0.000000  -0.031805   0.000063   0.350607   0.000013   0.000026
     3  C    0.000039  -0.035080  -0.027892   0.338963  -0.003814  -0.004958
     4  C   -0.000449   0.002000   0.293087  -0.023090  -0.072710  -0.007226
     5  C   -0.000022  -0.000102  -0.032965  -0.034650   0.000281  -0.000044
     6  C    0.356967   0.000001  -0.031440  -0.000041   0.266759   0.565364
     7  C    5.241394   0.000000   0.004872   0.000000  -0.094633  -0.064400
     8  C    0.000000   5.058753  -0.000060   0.156603   0.000002  -0.000034
     9  C    0.004872  -0.000060   4.921614   0.002261   0.210776   0.012900
    10  N    0.000000   0.156603   0.002261   7.019437  -0.000017  -0.000234
    11  N   -0.094633   0.000002   0.210776  -0.000017   7.339955  -0.103549
    12  O   -0.064400  -0.000034   0.012900  -0.000234  -0.103549   8.234810
    13  Cl   0.000003   0.000003  -0.003205  -0.000037   0.000557  -0.000005
    14  H    0.000000  -0.000049  -0.000055   0.002066   0.000002   0.000000
    15  H    0.000000  -0.001903   0.000003  -0.035173   0.000000   0.000000
    16  H    0.000076  -0.001240  -0.000580  -0.031783  -0.000002   0.010677
    17  H    0.382129   0.000000  -0.000108   0.000000   0.002551   0.000574
    18  H    0.379302   0.000000  -0.000173   0.000000   0.000755  -0.000032
    19  H    0.377614   0.000000   0.000066   0.000000   0.003824   0.002389
    20  H    0.000000   0.391815   0.000000  -0.036512   0.000000   0.000001
    21  H    0.000000   0.395017  -0.000004  -0.032798  -0.000001   0.000069
    22  H    0.000000   0.395905   0.000001  -0.033303   0.000000   0.000000
    23  H   -0.000047  -0.000002   0.417347   0.000144  -0.041213   0.002214
    24  H    0.000002   0.000001   0.415428  -0.000045  -0.035987   0.000441
    25  H    0.000912   0.000000  -0.023264   0.000002   0.320836   0.002159
             13         14         15         16         17         18
     1  C   -0.071135   0.373796  -0.019379  -0.000249   0.000000   0.000000
     2  C    0.002493  -0.019826   0.382088   0.001719   0.000000   0.000000
     3  C    0.002063   0.000075   0.001998   0.368154   0.000006  -0.000001
     4  C   -0.075094   0.001559  -0.000209  -0.018637   0.000031  -0.000003
     5  C    0.256174  -0.019915   0.002128   0.002426   0.000001   0.000000
     6  C   -0.000034   0.000000   0.000000  -0.000832  -0.029487  -0.026587
     7  C    0.000003   0.000000   0.000000   0.000076   0.382129   0.379302
     8  C    0.000003  -0.000049  -0.001903  -0.001240   0.000000   0.000000
     9  C   -0.003205  -0.000055   0.000003  -0.000580  -0.000108  -0.000173
    10  N   -0.000037   0.002066  -0.035173  -0.031783   0.000000   0.000000
    11  N    0.000557   0.000002   0.000000  -0.000002   0.002551   0.000755
    12  O   -0.000005   0.000000   0.000000   0.010677   0.000574  -0.000032
    13  Cl  16.754145   0.000022  -0.000048  -0.000036   0.000000   0.000000
    14  H    0.000022   0.360733  -0.000557   0.000005   0.000000   0.000000
    15  H   -0.000048  -0.000557   0.370413  -0.000046   0.000000   0.000000
    16  H   -0.000036   0.000005  -0.000046   0.337019  -0.000002  -0.000001
    17  H    0.000000   0.000000   0.000000  -0.000002   0.454392  -0.016855
    18  H    0.000000   0.000000   0.000000  -0.000001  -0.016855   0.450245
    19  H   -0.000002   0.000000   0.000000  -0.000001  -0.021202  -0.020467
    20  H    0.000000   0.000000   0.000115   0.000135   0.000000   0.000000
    21  H    0.000000   0.000001   0.000030   0.000328   0.000000   0.000000
    22  H    0.000000   0.000000   0.000698   0.000031   0.000000   0.000000
    23  H    0.000421   0.000001   0.000000   0.001839  -0.000010   0.000024
    24  H   -0.001954   0.000000   0.000000   0.000035   0.000001   0.000002
    25  H    0.000509   0.000000   0.000000  -0.000010  -0.000022  -0.000041
             19         20         21         22         23         24
     1  C    0.000000  -0.000162  -0.000076   0.000432  -0.000025   0.000027
     2  C    0.000000  -0.000897   0.001955  -0.002102  -0.000016  -0.000003
     3  C   -0.000004  -0.002230  -0.002399   0.002657  -0.002450   0.002540
     4  C    0.000002  -0.000171   0.000325  -0.000041  -0.057014  -0.043274
     5  C    0.000002   0.000047   0.000005  -0.000015   0.003457  -0.005486
     6  C   -0.038345   0.000000   0.000002   0.000000  -0.000688   0.003331
     7  C    0.377614   0.000000   0.000000   0.000000  -0.000047   0.000002
     8  C    0.000000   0.391815   0.395017   0.395905  -0.000002   0.000001
     9  C    0.000066   0.000000  -0.000004   0.000001   0.417347   0.415428
    10  N    0.000000  -0.036512  -0.032798  -0.033303   0.000144  -0.000045
    11  N    0.003824   0.000000  -0.000001   0.000000  -0.041213  -0.035987
    12  O    0.002389   0.000001   0.000069   0.000000   0.002214   0.000441
    13  Cl  -0.000002   0.000000   0.000000   0.000000   0.000421  -0.001954
    14  H    0.000000   0.000000   0.000001   0.000000   0.000001   0.000000
    15  H    0.000000   0.000115   0.000030   0.000698   0.000000   0.000000
    16  H   -0.000001   0.000135   0.000328   0.000031   0.001839   0.000035
    17  H   -0.021202   0.000000   0.000000   0.000000  -0.000010   0.000001
    18  H   -0.020467   0.000000   0.000000   0.000000   0.000024   0.000002
    19  H    0.505512   0.000000   0.000000   0.000000   0.000005  -0.000020
    20  H    0.000000   0.442401  -0.021507  -0.021405  -0.000001   0.000000
    21  H    0.000000  -0.021507   0.424059  -0.018767   0.000001   0.000000
    22  H    0.000000  -0.021405  -0.018767   0.440011   0.000000   0.000000
    23  H    0.000005  -0.000001   0.000001   0.000000   0.456291  -0.018287
    24  H   -0.000020   0.000000   0.000000   0.000000  -0.018287   0.444103
    25  H    0.001394   0.000000   0.000000   0.000000   0.001568  -0.002893
             25
     1  C    0.000005
     2  C   -0.000001
     3  C   -0.000033
     4  C    0.002713
     5  C    0.000121
     6  C   -0.011999
     7  C    0.000912
     8  C    0.000000
     9  C   -0.023264
    10  N    0.000002
    11  N    0.320836
    12  O    0.002159
    13  Cl   0.000509
    14  H    0.000000
    15  H    0.000000
    16  H   -0.000010
    17  H   -0.000022
    18  H   -0.000041
    19  H    0.001394
    20  H    0.000000
    21  H    0.000000
    22  H    0.000000
    23  H    0.001568
    24  H   -0.002893
    25  H    0.293064
 Mulliken atomic charges:
              1
     1  C   -0.255673
     2  C    0.166353
     3  C    0.210788
     4  C   -0.040920
     5  C   -0.062781
     6  C    0.768053
     7  C   -0.583758
     8  C   -0.332501
     9  C   -0.160756
    10  N   -0.614080
    11  N   -0.794271
    12  O   -0.651133
    13  Cl   0.135161
    14  H    0.302142
    15  H    0.299844
    16  H    0.330977
    17  H    0.228002
    18  H    0.233832
    19  H    0.189235
    20  H    0.248370
    21  H    0.253760
    22  H    0.235899
    23  H    0.236442
    24  H    0.242038
    25  H    0.414980
 Sum of Mulliken atomic charges =   1.00000
 Mulliken charges with hydrogens summed into heavy atoms:
              1
     1  C    0.046469
     2  C    0.466198
     3  C    0.541765
     4  C   -0.040920
     5  C   -0.062781
     6  C    0.768053
     7  C    0.067311
     8  C    0.405527
     9  C    0.317723
    10  N   -0.614080
    11  N   -0.379292
    12  O   -0.651133
    13  Cl   0.135161
 Sum of Mulliken charges with hydrogens summed into heavy atoms =   1.00000
 DipInt: DoE/N= T F RetVal/Mat= T F Init=T NMatP=  1 IDeriv=0 Min/MaxMlt=  0  4
 Entering OneElI...
 OneElI was handed    33424358 working-precision words.
 Multipole integrals L=0 to 4 MinM= 0 MaxM= 0.
 Requested accuracy = 0.1000D-12
 PrsmSu:  NPrtUS=   1 ThrOK=F IAlg=1 NPAlg=1 LenDen=           0.
 Prism:   IPart=     0 DynPar=F LinDyn=F Incr=          26.
 PRISM was handed    33186437 working-precision words and  2649 shell-pairs
 IPart=  0 NShTot=        2649 NBatch=          70 AvBLen=        37.8
 PrSmSu:  NxtVal=             27.
 Electronic moments (au):
       -104.00000000         -1.86364679         -0.54515441          0.11005521
      -1632.18906348      -1119.82666972       -218.30509056         12.28763727
         -2.29873569          0.12453448      -2546.95261344       -667.27086297
         51.68064560       1564.45207555       2030.51519899      -1291.75366942
       -276.13182584         33.58071787        -70.78895508        311.97552519
     -54817.16954669     -28694.01068888      -1724.17245752        886.83270317
      -4849.81153862      -2803.97550044       -722.91455201       -269.69923668
        249.76303904     -12136.02287331      -4543.37608469      -1345.04814074
       1195.52770934         37.83188852        149.00648658
 Electronic spatial extent (au):  <R**2>=           2970.3208
 DipInt: DoE/N= F T RetVal/Mat= T F Init=T NMatP=  1 IDeriv=0 Min/MaxMlt=  0  4
 Nuclear    moments (au):
        105.00000000          0.00000000          0.00000000          0.00000000
       1600.51137957       1071.14667546        161.48322951          0.00000000
          0.00000000          0.00000000       2547.05984391        644.60959543
        -55.40143509      -1617.05052966      -2057.25041068       1337.84929892
        279.24051396        -39.01479581         69.55835185       -320.87147491
      50353.85888442      25434.43086035        986.99383818       -709.33921659
       4777.82069699       3150.03335844        748.25043282        255.44326856
       -251.92852405      10823.35453627       3564.20095124        631.12931719
      -1219.13292603        -55.34498168       -147.12380344
 Total      moments (au):
          1.00000000         -1.86364679         -0.54515441          0.11005521
        -31.67768391        -48.67999426        -56.82186105         12.28763727
         -2.29873569          0.12453448          0.10723048        -22.66126754
         -3.72078949        -52.59845410        -26.73521170         46.09562950
          3.10868813         -5.43407794         -1.23060323         -8.89594972
      -4463.31066228      -3259.57982853       -737.17861934        177.49348658
        -71.99084163        346.05785800         25.33588081        -14.25596812
         -2.16548501      -1312.66833704       -979.17513345       -713.91882355
        -23.60521669        -17.51309316          1.88268314
 Traceless Quadrup. (au):
         14.04882916         -2.95348119        -11.09534798         12.28763727
         -2.29873569          0.12453448
 Charge=              1.0000 electrons
 Dipole moment (field-independent basis, Debye):
    X=             -4.7369    Y=             -1.3856    Z=              0.2797  Tot=              4.9433
 Quadrupole moment (field-independent basis, Debye-Ang):
   XX=            -42.6076   YY=            -65.4763   ZZ=            -76.4273
   XY=             16.5273   XZ=             -3.0919   YZ=              0.1675
 Traceless Quadrupole moment (field-independent basis, Debye-Ang):
   XX=             18.8962   YY=             -3.9725   ZZ=            -14.9236
   XY=             16.5273   XZ=             -3.0919   YZ=              0.1675
 Octapole moment (field-independent basis, Debye-Ang**2):
  XXX=              0.0763  YYY=            -16.1294  ZZZ=             -2.6483  XYY=            -37.4376
  XXY=            -19.0291  XXZ=             32.8091  XZZ=              2.2126  YZZ=             -3.8678
  YYZ=             -0.8759  XYZ=             -6.3318
 Hexadecapole moment (field-independent basis, Debye-Ang**3):
 XXXX=          -1681.0967 YYYY=          -1227.7140 ZZZZ=           -277.6568 XXXY=             66.8526
 XXXZ=            -27.1152 YYYX=            130.3420 YYYZ=              9.5427 ZZZX=             -5.3695
 ZZZY=             -0.8156 XXYY=           -494.4138 XXZZ=           -368.8043 YYZZ=           -268.8960
 XXYZ=             -8.8909 YYXZ=             -6.5963 ZZXY=              0.7091
 N-N= 8.940328833068D+02 E-N=-4.106353590618D+03  KE= 9.892836956524D+02
 Entering OneElI...
 OneElI was handed    33324052 working-precision words.
 Calculate electrostatic properties
    NBasis =   223  MinDer = 0  MaxDer = 0
    NGrid  =    25  NMatD  =   1
 Requested accuracy = 0.1000D-12
 PrsmSu:  NPrtUS=   2 ThrOK=T IAlg=1 NPAlg=1 LenDen=           0.
 Prism:   IPart=     0 DynPar=F LinDyn=F Incr=         304.
 PRISM was handed    16514275 working-precision words and  2438 shell-pairs
 PRISM was handed    16514275 working-precision words and  2438 shell-pairs
 IPart=  1 NShTot=       30150 NBatch=        1206 AvBLen=        25.0
 IPart=  0 NShTot=       30800 NBatch=        1232 AvBLen=        25.0
 PrSmSu:  NxtVal=            609.
 --------------------------------------------------------
       Center         ----      EFG at Nuclei      ----
                      3XX-RR        3YY-RR        3ZZ-RR
 --------------------------------------------------------
     1   Atom        0.021167      0.133562     -0.154728
     2   Atom        0.052893      0.194562     -0.247455
     3   Atom       -0.075007      0.373794     -0.298787
     4   Atom        0.078375      0.085141     -0.163516
     5   Atom        0.215512     -0.072840     -0.142672
     6   Atom        0.064803      0.186375     -0.251178
     7   Atom       -0.049084      0.046703      0.002380
     8   Atom        0.177303     -0.402940      0.225637
     9   Atom       -0.193729      0.225760     -0.032031
    10   Atom       -0.053360     -0.087743      0.141103
    11   Atom        0.000369     -0.404279      0.403910
    12   Atom        0.221361     -0.255249      0.033888
    13   Atom        1.651006     -3.513346      1.862340
    14   Atom       -0.001999     -0.062615      0.064614
    15   Atom       -0.163311      0.086814      0.076498
    16   Atom        0.029576     -0.102943      0.073368
    17   Atom        0.130300      0.021630     -0.151930
    18   Atom       -0.105166      0.072186      0.032980
    19   Atom        0.114326     -0.235136      0.120811
    20   Atom        0.055028      0.118513     -0.173541
    21   Atom       -0.142061     -0.014490      0.156552
    22   Atom       -0.007609      0.115112     -0.107503
    23   Atom        0.120060     -0.046749     -0.073310
    24   Atom        0.133469     -0.204401      0.070932
    25   Atom        0.040797     -0.229908      0.189110
 --------------------------------------------------------
                        XY            XZ            YZ
 --------------------------------------------------------
     1   Atom       -0.009392     -0.161775      0.083023
     2   Atom        0.211415     -0.205461     -0.016426
     3   Atom       -0.036702     -0.205355      0.162868
     4   Atom        0.054292     -0.181858      0.030432
     5   Atom       -0.085392     -0.338917      0.105483
     6   Atom        0.148320      0.455170     -0.036606
     7   Atom       -0.005720     -0.079799     -0.012794
     8   Atom       -0.194660      0.004442     -0.005859
     9   Atom       -0.029044     -0.098347      0.042704
    10   Atom       -0.009102      0.178019     -0.066442
    11   Atom       -0.127601     -0.764987      0.187367
    12   Atom       -0.925037      0.774436     -0.730611
    13   Atom       -1.616035     -0.279852     -0.223264
    14   Atom        0.166459      0.128822     -0.140097
    15   Atom       -0.119217      0.166888      0.055702
    16   Atom        0.157850      0.109840     -0.131338
    17   Atom       -0.042263      0.056512      0.200209
    18   Atom        0.141634      0.160390     -0.096464
    19   Atom       -0.106229     -0.040756     -0.103453
    20   Atom       -0.041087     -0.179058     -0.059610
    21   Atom        0.194141     -0.024214      0.020402
    22   Atom       -0.047855      0.213317      0.050000
    23   Atom        0.039879      0.046025     -0.209972
    24   Atom        0.009273     -0.009617      0.168751
    25   Atom       -0.244718     -0.090319     -0.069623
 --------------------------------------------------------


 ---------------------------------------------------------------------------------
              Nuclear Quadrupole in Principal Axis System
 ---------------------------------------------------------------------------------

       Atom             a.u.   MegaHertz   Gauss  10(-4) cm-1        Axes

              Baa    -0.2623   -35.198   -12.560   -11.741  0.4844 -0.1686  0.8585
     1 C(13)  Bbb     0.0795    10.673     3.808     3.560  0.7443  0.5951 -0.3031
              Bcc     0.1828    24.526     8.751     8.181 -0.4598  0.7858  0.4137
 
              Baa    -0.3653   -49.018   -17.491   -16.351  0.5006 -0.1641  0.8500
     2 C(13)  Bbb    -0.0124    -1.666    -0.595    -0.556 -0.5961  0.6467  0.4759
              Bcc     0.3777    50.684    18.085    16.906  0.6277  0.7449 -0.2259
 
              Baa    -0.4395   -58.972   -21.043   -19.671  0.4735 -0.1524  0.8675
     3 C(13)  Bbb     0.0136     1.820     0.649     0.607  0.8628  0.2787 -0.4219
              Bcc     0.4259    57.152    20.393    19.064 -0.1775  0.9482  0.2634
 
              Baa    -0.2688   -36.071   -12.871   -12.032  0.4769 -0.1477  0.8664
     4 C(13)  Bbb     0.0813    10.913     3.894     3.640 -0.2237  0.9329  0.2821
              Bcc     0.1875    25.158     8.977     8.392  0.8500  0.3284 -0.4119
 
              Baa    -0.3551   -47.651   -17.003   -15.895  0.4834 -0.1743  0.8578
     5 C(13)  Bbb    -0.0959   -12.866    -4.591    -4.292  0.2934  0.9555  0.0288
              Bcc     0.4510    60.517    21.594    20.186  0.8247 -0.2378 -0.5131
 
              Baa    -0.5924   -79.500   -28.368   -26.518 -0.5855  0.1490  0.7969
     6 C(13)  Bbb     0.1610    21.603     7.708     7.206 -0.2407  0.9067 -0.3463
              Bcc     0.4315    57.897    20.659    19.313  0.7741  0.3946  0.4950
 
              Baa    -0.1082   -14.513    -5.179    -4.841  0.8040  0.0784  0.5895
     7 C(13)  Bbb     0.0446     5.987     2.136     1.997 -0.2952  0.9131  0.2812
              Bcc     0.0635     8.526     3.042     2.844 -0.5162 -0.4001  0.7573
 
              Baa    -0.4622   -62.026   -22.132   -20.690  0.2911  0.9567  0.0063
     8 C(13)  Bbb     0.2230    29.930    10.680     9.984 -0.3874  0.1119  0.9151
              Bcc     0.2392    32.096    11.453    10.706  0.8747 -0.2689  0.4032
 
              Baa    -0.2403   -32.250   -11.508   -10.758  0.9055  0.0176  0.4239
     9 C(13)  Bbb     0.0028     0.372     0.133     0.124 -0.4098 -0.2228  0.8846
              Bcc     0.2376    31.878    11.375    10.633 -0.1100  0.9747  0.1945
 
              Baa    -0.1685    -6.498    -2.319    -2.167  0.7810 -0.3420 -0.5225
    10 N(14)  Bbb    -0.0893    -3.446    -1.229    -1.149  0.3838  0.9229 -0.0304
              Bcc     0.2578     9.943     3.548     3.317  0.4926 -0.1768  0.8521
 
              Baa    -0.5902   -22.761    -8.122    -7.592  0.7816 -0.0861  0.6177
    11 N(14)  Bbb    -0.4389   -16.926    -6.040    -5.646  0.1638  0.9840 -0.0701
              Bcc     1.0290    39.687    14.161    13.238 -0.6018  0.1560  0.7832
 
              Baa    -0.9958    72.058    25.712    24.036  0.4965  0.8392  0.2220
    12 O(17)  Bbb    -0.6436    46.572    16.618    15.535 -0.5802  0.1306  0.8040
              Bcc     1.6395  -118.630   -42.330   -39.571  0.6457 -0.5280  0.5517
 
              Baa    -3.9919  -208.927   -74.550   -69.691  0.2773  0.9595  0.0498
    13 Cl(35) Bbb     1.7571    91.960    32.814    30.675  0.4692 -0.1805  0.8644
              Bcc     2.2349   116.967    41.737    39.016  0.8384 -0.2163 -0.5002
 
              Baa    -0.3005  -160.347   -57.216   -53.486 -0.5756  0.6748  0.4620
    14 H(1)   Bbb     0.1346    71.843    25.635    23.964  0.6540  0.7190 -0.2353
              Bcc     0.1659    88.504    31.580    29.522  0.4909 -0.1666  0.8551
 
              Baa    -0.2943  -157.015   -56.027   -52.375  0.8427  0.3262 -0.4283
    15 H(1)   Bbb     0.1315    70.164    25.036    23.404 -0.2200  0.9347  0.2791
              Bcc     0.1628    86.851    30.991    28.970  0.4914 -0.1410  0.8595
 
              Baa    -0.2882  -153.754   -54.863   -51.287 -0.5164  0.7425  0.4266
    16 H(1)   Bbb     0.1247    66.518    23.735    22.188  0.5896  0.6696 -0.4518
              Bcc     0.1635    87.235    31.128    29.099  0.6211 -0.0183  0.7835
 
              Baa    -0.2950  -157.410   -56.168   -52.506 -0.1634 -0.5427  0.8239
    17 H(1)   Bbb     0.1405    74.973    26.752    25.008  0.9341  0.1837  0.3063
              Bcc     0.1545    82.437    29.415    27.498 -0.3176  0.8196  0.4769
 
              Baa    -0.2915  -155.509   -55.490   -51.872  0.7542 -0.4262 -0.4996
    18 H(1)   Bbb     0.1381    73.701    26.298    24.584  0.6027  0.1471  0.7843
              Bcc     0.1533    81.808    29.191    27.288  0.2608  0.8926 -0.3678
 
              Baa    -0.2944  -157.069   -56.046   -52.393  0.2670  0.9286  0.2576
    19 H(1)   Bbb     0.1358    72.460    25.856    24.170  0.7244 -0.3697  0.5819
              Bcc     0.1586    84.609    30.190    28.222 -0.6356 -0.0312  0.7714
 
              Baa    -0.2846  -151.823   -54.174   -50.643  0.4757  0.1759  0.8618
    20 H(1)   Bbb     0.1292    68.925    24.594    22.991  0.1729  0.9420 -0.2877
              Bcc     0.1554    82.898    29.580    27.652  0.8624 -0.2859 -0.4177
 
              Baa    -0.2849  -152.002   -54.238   -50.702  0.8077 -0.5853  0.0714
    21 H(1)   Bbb     0.1259    67.181    23.972    22.409  0.5894  0.8048 -0.0701
              Bcc     0.1590    84.821    30.266    28.293 -0.0164  0.0987  0.9950
 
              Baa    -0.2884  -153.883   -54.909   -51.330 -0.6143 -0.1684  0.7709
    22 H(1)   Bbb     0.1258    67.097    23.942    22.381  0.0335  0.9705  0.2387
              Bcc     0.1627    86.786    30.967    28.949  0.7884 -0.1724  0.5906
 
              Baa    -0.2797  -149.226   -53.248   -49.777 -0.1505  0.6760  0.7214
    23 H(1)   Bbb     0.1291    68.856    24.570    22.968  0.9824  0.1840  0.0326
              Bcc     0.1506    80.370    28.678    26.809 -0.1107  0.7136 -0.6918
 
              Baa    -0.2849  -152.004   -54.239   -50.703 -0.0299  0.9028 -0.4290
    24 H(1)   Bbb     0.1326    70.769    25.252    23.606  0.9684  0.1325  0.2114
              Bcc     0.1523    81.234    28.986    27.097 -0.2477  0.4091  0.8782
 
              Baa    -0.3935  -209.976   -74.925   -70.040  0.5110  0.8406  0.1797
    25 H(1)   Bbb     0.1534    81.873    29.214    27.310  0.6251 -0.5068  0.5936
              Bcc     0.2401   128.103    45.710    42.730 -0.5901  0.1910  0.7844
 

 ---------------------------------------------------------------------------------

 No NMR shielding tensors so no spin-rotation constants.
 Leave Link  601 at Sat Feb 17 20:58:48 2018, MaxMem=   33554432 cpu:       2.6
 Merz-Kollman atomic radii used.
 Read replacement radii for each type of atom:
 Atom Element Radius
    1     6    1.50
    2     6    1.50
    3     6    1.50
    4     6    1.50
    5     6    1.50
    6     6    1.50
    7     6    1.50
    8     6    1.50
    9     6    1.50
   10     7    1.50
   11     7    1.50
   12     8    1.40
   13    17    1.70
   14     1    1.20
   15     1    1.20
   16     1    1.20
   17     1    1.20
   18     1    1.20
   19     1    1.20
   20     1    1.20
   21     1    1.20
   22     1    1.20
   23     1    1.20
   24     1    1.20
   25     1    1.20
 Generate VDW surfaces: Layer= 4 Dens= 1 Start= 1.400 Inc= 0.200

 **********************************************************************

            Electrostatic Properties Using The SCF Density

 **********************************************************************

       Atomic Center    1 is at  -2.275207  0.821270  0.650572
       Atomic Center    2 is at  -2.662818 -0.500603  0.621815
       Atomic Center    3 is at  -0.738373 -1.077040 -0.601780
       Atomic Center    4 is at  -0.279338  0.235090 -0.613903
       Atomic Center    5 is at  -1.069717  1.194177  0.038719
       Atomic Center    6 is at   2.587291 -0.694474  0.180660
       Atomic Center    7 is at   3.824995 -0.660308  1.048833
       Atomic Center    8 is at  -2.326293 -2.850402 -0.035876
       Atomic Center    9 is at   1.058472  0.536305 -1.275946
       Atomic Center   10 is at  -1.893759 -1.431493  0.003201
       Atomic Center   11 is at   2.155122  0.506441 -0.322793
       Atomic Center   12 is at   1.983273 -1.732077 -0.085992
       Atomic Center   13 is at  -0.579844  2.848172  0.114090
       Atomic Center   14 is at  -2.896842  1.554784  1.150198
       Atomic Center   15 is at  -3.576718 -0.851172  1.085592
       Atomic Center   16 is at  -0.152613 -1.870770 -1.046396
       Atomic Center   17 is at   3.646349 -1.257565  1.946619
       Atomic Center   18 is at   4.650260 -1.130291  0.503042
       Atomic Center   19 is at   4.126574  0.349939  1.339120
       Atomic Center   20 is at  -2.846704 -3.044853 -0.976869
       Atomic Center   21 is at  -1.446666 -3.489448  0.045763
       Atomic Center   22 is at  -2.993335 -3.042393  0.804280
       Atomic Center   23 is at   1.235238 -0.206640 -2.060115
       Atomic Center   24 is at   1.029508  1.522332 -1.742413
       Atomic Center   25 is at   2.672512  1.355058 -0.141838
      ESP Fit Center   26 is at  -2.275207  0.821270  2.750572
      ESP Fit Center   27 is at  -1.225207  0.821270  2.469226
      ESP Fit Center   28 is at  -1.750207  1.730597  2.469226
      ESP Fit Center   29 is at  -1.750207 -0.088057  2.469226
      ESP Fit Center   30 is at  -0.745258 -0.161968  1.700572
      ESP Fit Center   31 is at  -3.466171  2.195716 -0.399428
      ESP Fit Center   32 is at  -4.020192  1.333644 -0.399428
      ESP Fit Center   33 is at  -2.800207  1.730597 -1.168081
      ESP Fit Center   34 is at  -3.325207  0.821270 -1.168081
      ESP Fit Center   35 is at  -2.662818 -0.500603  2.721815
      ESP Fit Center   36 is at  -1.612818 -0.500603  2.440469
      ESP Fit Center   37 is at  -2.137818 -1.409929  2.440469
      ESP Fit Center   38 is at  -0.844165 -0.500603  1.671815
      ESP Fit Center   39 is at  -4.407803  0.011771 -0.428185
      ESP Fit Center   40 is at  -4.407803 -1.012977 -0.428185
      ESP Fit Center   41 is at  -3.187818  0.408724 -1.196838
      ESP Fit Center   42 is at  -3.712818 -0.500603 -1.196838
      ESP Fit Center   43 is at   0.311627 -1.077040  1.216873
      ESP Fit Center   44 is at  -0.213373 -1.986367  1.216873
      ESP Fit Center   45 is at   0.017123 -2.731346  0.448220
      ESP Fit Center   46 is at  -1.788373 -1.077040 -2.420433
      ESP Fit Center   47 is at  -1.263373 -1.986367 -2.420433
      ESP Fit Center   48 is at  -0.738373 -1.077040 -2.701780
      ESP Fit Center   49 is at  -0.804338  1.144417 -2.432557
      ESP Fit Center   50 is at  -1.329338  0.235090 -2.432557
      ESP Fit Center   51 is at  -0.019717  1.194177  1.857372
      ESP Fit Center   52 is at  -0.544717  0.284851  1.857372
      ESP Fit Center   53 is at  -2.119717  1.194177 -1.779934
      ESP Fit Center   54 is at   2.062291  0.214853  1.999314
      ESP Fit Center   55 is at   1.537291 -0.694474  1.999314
      ESP Fit Center   56 is at   0.842306 -0.182100  1.230660
      ESP Fit Center   57 is at   3.637291 -0.694474 -1.637993
      ESP Fit Center   58 is at   3.299995  0.249018  2.867487
      ESP Fit Center   59 is at   5.643648 -0.660308  2.098833
      ESP Fit Center   60 is at   2.634030  0.714138  2.098833
      ESP Fit Center   61 is at   5.354943 -1.643547  2.098833
      ESP Fit Center   62 is at   4.078122 -2.744997  1.048833
      ESP Fit Center   63 is at   5.354943  0.322930 -0.001167
      ESP Fit Center   64 is at   4.349995  0.249018 -0.769820
      ESP Fit Center   65 is at  -1.276293 -2.850402  1.782777
      ESP Fit Center   66 is at  -1.801293 -3.759729  1.782777
      ESP Fit Center   67 is at  -4.365271 -2.347839 -0.035876
      ESP Fit Center   68 is at  -3.898165 -4.242960 -0.035876
      ESP Fit Center   69 is at  -3.070963 -4.813936 -0.035876
      ESP Fit Center   70 is at  -1.276293 -2.850402 -1.854529
      ESP Fit Center   71 is at   2.877126  0.536305 -2.325946
      ESP Fit Center   72 is at   0.008472  0.536305 -3.094600
      ESP Fit Center   73 is at  -0.843759 -1.431493  1.821855
      ESP Fit Center   74 is at  -1.368759 -2.340820  1.821855
      ESP Fit Center   75 is at  -0.363811 -2.414732  1.053201
      ESP Fit Center   76 is at  -2.418759 -0.522167 -1.815452
      ESP Fit Center   77 is at  -2.943759 -1.431493 -1.815452
      ESP Fit Center   78 is at   1.630122  1.415767  1.495861
      ESP Fit Center   79 is at   1.105122  0.506441  1.495861
      ESP Fit Center   80 is at   3.973775  0.506441 -1.372793
      ESP Fit Center   81 is at   3.205122  0.506441 -2.141446
      ESP Fit Center   82 is at   1.003273 -1.732077  1.611418
      ESP Fit Center   83 is at   1.493273 -2.580782  1.611418
      ESP Fit Center   84 is at   2.473273 -2.580782  1.611418
      ESP Fit Center   85 is at   0.610039 -2.729790  0.894008
      ESP Fit Center   86 is at   1.458744 -3.346410  0.894008
      ESP Fit Center   87 is at   2.507801 -3.346410  0.894008
      ESP Fit Center   88 is at   3.356506 -2.729790  0.894008
      ESP Fit Center   89 is at   1.003273 -3.429487 -0.085992
      ESP Fit Center   90 is at   1.983273 -3.692077 -0.085992
      ESP Fit Center   91 is at   2.963273 -3.429487 -0.085992
      ESP Fit Center   92 is at   3.680682 -2.712077 -0.085992
      ESP Fit Center   93 is at   1.458744 -3.346410 -1.065992
      ESP Fit Center   94 is at   2.507801 -3.346410 -1.065992
      ESP Fit Center   95 is at   3.356506 -2.729790 -1.065992
      ESP Fit Center   96 is at   2.963273 -1.732077 -1.783402
      ESP Fit Center   97 is at   1.493273 -2.580782 -1.783402
      ESP Fit Center   98 is at   2.473273 -2.580782 -1.783402
      ESP Fit Center   99 is at   1.983273 -1.732077 -2.045992
      ESP Fit Center  100 is at  -0.579844  2.848172  2.494090
      ESP Fit Center  101 is at   0.452799  2.848172  2.258396
      ESP Fit Center  102 is at  -0.063523  3.742467  2.258396
      ESP Fit Center  103 is at  -1.096166  3.742467  2.258396
      ESP Fit Center  104 is at  -1.612488  2.848172  2.258396
      ESP Fit Center  105 is at  -1.096166  1.953876  2.258396
      ESP Fit Center  106 is at  -0.063523  1.953876  2.258396
      ESP Fit Center  107 is at   1.280914  2.848172  1.597996
      ESP Fit Center  108 is at   0.925541  3.941898  1.597996
      ESP Fit Center  109 is at  -0.004838  4.617858  1.597996
      ESP Fit Center  110 is at  -1.154851  4.617858  1.597996
      ESP Fit Center  111 is at  -2.085230  3.941898  1.597996
      ESP Fit Center  112 is at   0.925541  1.754445  1.597996
      ESP Fit Center  113 is at   1.740484  2.848172  0.643690
      ESP Fit Center  114 is at   1.474704  3.926482  0.643690
      ESP Fit Center  115 is at   0.738252  4.757764  0.643690
      ESP Fit Center  116 is at  -0.300160  5.151582  0.643690
      ESP Fit Center  117 is at  -1.402644  5.017716  0.643690
      ESP Fit Center  118 is at  -2.316635  4.386834  0.643690
      ESP Fit Center  119 is at  -2.832748  3.403462  0.643690
      ESP Fit Center  120 is at   1.740484  2.848172 -0.415510
      ESP Fit Center  121 is at   1.474704  3.926482 -0.415510
      ESP Fit Center  122 is at   0.738252  4.757764 -0.415510
      ESP Fit Center  123 is at  -0.300160  5.151582 -0.415510
      ESP Fit Center  124 is at  -1.402644  5.017716 -0.415510
      ESP Fit Center  125 is at  -2.316635  4.386834 -0.415510
      ESP Fit Center  126 is at  -2.832748  3.403462 -0.415510
      ESP Fit Center  127 is at   0.925541  3.941898 -1.369816
      ESP Fit Center  128 is at  -0.004838  4.617858 -1.369816
      ESP Fit Center  129 is at  -1.154851  4.617858 -1.369816
      ESP Fit Center  130 is at  -2.085230  3.941898 -1.369816
      ESP Fit Center  131 is at  -2.440603  2.848172 -1.369816
      ESP Fit Center  132 is at  -0.063523  3.742467 -2.030216
      ESP Fit Center  133 is at  -1.096166  3.742467 -2.030216
      ESP Fit Center  134 is at  -1.612488  2.848172 -2.030216
      ESP Fit Center  135 is at  -1.096166  1.953876 -2.030216
      ESP Fit Center  136 is at  -0.579844  2.848172 -2.265910
      ESP Fit Center  137 is at  -2.896842  1.554784  2.830198
      ESP Fit Center  138 is at  -2.591695  2.493933  2.509347
      ESP Fit Center  139 is at  -3.695730  2.135210  2.509347
      ESP Fit Center  140 is at  -3.695730  0.974359  2.509347
      ESP Fit Center  141 is at  -2.619392  3.128285  1.669347
      ESP Fit Center  142 is at  -3.695730  2.938498  1.669347
      ESP Fit Center  143 is at  -4.398260  2.101256  1.669347
      ESP Fit Center  144 is at  -4.398260  1.008313  1.669347
      ESP Fit Center  145 is at  -3.695730  2.938498  0.631050
      ESP Fit Center  146 is at  -4.398260  2.101256  0.631050
      ESP Fit Center  147 is at  -4.398260  1.008313  0.631050
      ESP Fit Center  148 is at  -3.695730  2.135210 -0.208950
      ESP Fit Center  149 is at  -3.576718 -0.851172  2.765592
      ESP Fit Center  150 is at  -4.375605 -0.270746  2.444740
      ESP Fit Center  151 is at  -4.375605 -1.431597  2.444740
      ESP Fit Center  152 is at  -3.271570 -1.790320  2.444740
      ESP Fit Center  153 is at  -4.375605  0.532542  1.604740
      ESP Fit Center  154 is at  -5.078135 -0.304700  1.604740
      ESP Fit Center  155 is at  -5.078135 -1.397643  1.604740
      ESP Fit Center  156 is at  -4.375605 -2.234885  1.604740
      ESP Fit Center  157 is at  -5.078135 -0.304700  0.566443
      ESP Fit Center  158 is at  -5.078135 -1.397643  0.566443
      ESP Fit Center  159 is at  -4.375605 -1.431597 -0.273557
      ESP Fit Center  160 is at   0.152535 -2.809918  0.312753
      ESP Fit Center  161 is at   0.124838 -3.444271 -1.565544
      ESP Fit Center  162 is at   1.071354 -2.897800 -1.565544
      ESP Fit Center  163 is at   0.834866 -1.870770 -2.405544
      ESP Fit Center  164 is at  -0.951500 -2.451195 -2.405544
      ESP Fit Center  165 is at   0.152535 -2.809918 -2.405544
      ESP Fit Center  166 is at  -0.152613 -1.870770 -2.726396
      ESP Fit Center  167 is at   3.646349 -1.257565  3.626619
      ESP Fit Center  168 is at   4.633828 -1.257565  3.305768
      ESP Fit Center  169 is at   3.951497 -0.318417  3.305768
      ESP Fit Center  170 is at   2.847462 -0.677140  3.305768
      ESP Fit Center  171 is at   2.847462 -1.837991  3.305768
      ESP Fit Center  172 is at   3.951497 -2.196714  3.305768
      ESP Fit Center  173 is at   2.144932 -0.711094  2.465768
      ESP Fit Center  174 is at   2.144932 -1.804037  2.465768
      ESP Fit Center  175 is at   2.847462 -2.641279  2.465768
      ESP Fit Center  176 is at   3.923800 -2.831067  2.465768
      ESP Fit Center  177 is at   4.870316 -2.284595  2.465768
      ESP Fit Center  178 is at   2.847462 -2.641279  1.427471
      ESP Fit Center  179 is at   3.923800 -2.831067  1.427471
      ESP Fit Center  180 is at   6.248035 -1.130291  1.022191
      ESP Fit Center  181 is at   5.874227 -0.103261  1.022191
      ESP Fit Center  182 is at   4.927711 -2.703792  1.022191
      ESP Fit Center  183 is at   5.874227 -2.157321  1.022191
      ESP Fit Center  184 is at   6.248035 -1.130291 -0.016106
      ESP Fit Center  185 is at   5.874227 -0.103261 -0.016106
      ESP Fit Center  186 is at   3.851373 -2.514005 -0.016106
      ESP Fit Center  187 is at   4.927711 -2.703792 -0.016106
      ESP Fit Center  188 is at   5.874227 -2.157321 -0.016106
      ESP Fit Center  189 is at   5.637740 -1.130291 -0.856106
      ESP Fit Center  190 is at   4.955408 -0.191142 -0.856106
      ESP Fit Center  191 is at   4.955408 -2.069439 -0.856106
      ESP Fit Center  192 is at   4.650260 -1.130291 -1.176958
      ESP Fit Center  193 is at   4.126574  0.349939  3.019120
      ESP Fit Center  194 is at   5.114053  0.349939  2.698269
      ESP Fit Center  195 is at   4.431722  1.289088  2.698269
      ESP Fit Center  196 is at   3.327687  0.930365  2.698269
      ESP Fit Center  197 is at   5.724349  0.349939  1.858269
      ESP Fit Center  198 is at   5.350541  1.376969  1.858269
      ESP Fit Center  199 is at   4.404025  1.923440  1.858269
      ESP Fit Center  200 is at   3.327687  1.733653  1.858269
      ESP Fit Center  201 is at   2.625157  0.896410  1.858269
      ESP Fit Center  202 is at   5.724349  0.349939  0.819972
      ESP Fit Center  203 is at   5.350541  1.376969  0.819972
      ESP Fit Center  204 is at   4.404025  1.923440  0.819972
      ESP Fit Center  205 is at   4.431722  1.289088 -0.020028
      ESP Fit Center  206 is at  -4.348122 -3.591325 -0.457720
      ESP Fit Center  207 is at  -3.645592 -1.661140 -1.496018
      ESP Fit Center  208 is at  -4.348122 -2.498382 -1.496018
      ESP Fit Center  209 is at  -4.348122 -3.591325 -1.496018
      ESP Fit Center  210 is at  -3.645592 -4.428567 -1.496018
      ESP Fit Center  211 is at  -2.569254 -4.618355 -1.496018
      ESP Fit Center  212 is at  -1.859225 -3.044853 -2.336018
      ESP Fit Center  213 is at  -2.541556 -2.105705 -2.336018
      ESP Fit Center  214 is at  -3.645592 -2.464428 -2.336018
      ESP Fit Center  215 is at  -3.645592 -3.625279 -2.336018
      ESP Fit Center  216 is at  -2.541556 -3.984002 -2.336018
      ESP Fit Center  217 is at  -2.846704 -3.044853 -2.656869
      ESP Fit Center  218 is at  -0.459187 -3.489448  1.404911
      ESP Fit Center  219 is at  -1.141518 -4.428597  1.404911
      ESP Fit Center  220 is at   0.151109 -3.489448  0.564911
      ESP Fit Center  221 is at  -2.245554 -4.873162  0.564911
      ESP Fit Center  222 is at  -1.169216 -5.062949  0.564911
      ESP Fit Center  223 is at  -0.222700 -4.516478  0.564911
      ESP Fit Center  224 is at   0.151109 -3.489448 -0.473386
      ESP Fit Center  225 is at  -1.169216 -5.062949 -0.473386
      ESP Fit Center  226 is at  -0.222700 -4.516478 -0.473386
      ESP Fit Center  227 is at  -1.141518 -4.428597 -1.313386
      ESP Fit Center  228 is at  -2.993335 -3.042393  2.484280
      ESP Fit Center  229 is at  -2.005855 -3.042393  2.163429
      ESP Fit Center  230 is at  -2.688187 -2.103245  2.163429
      ESP Fit Center  231 is at  -3.792222 -2.461968  2.163429
      ESP Fit Center  232 is at  -3.792222 -3.622819  2.163429
      ESP Fit Center  233 is at  -2.688187 -3.981542  2.163429
      ESP Fit Center  234 is at  -4.494752 -2.495922  1.323429
      ESP Fit Center  235 is at  -4.494752 -3.588865  1.323429
      ESP Fit Center  236 is at  -3.792222 -4.426107  1.323429
      ESP Fit Center  237 is at  -2.715884 -4.615895  1.323429
      ESP Fit Center  238 is at  -4.494752 -2.495922  0.285132
      ESP Fit Center  239 is at  -4.494752 -3.588865  0.285132
      ESP Fit Center  240 is at  -3.792222 -4.426107  0.285132
      ESP Fit Center  241 is at   2.833013 -0.206640 -2.579263
      ESP Fit Center  242 is at   1.512689 -1.780141 -2.579263
      ESP Fit Center  243 is at   2.459205 -1.233670 -2.579263
      ESP Fit Center  244 is at   2.222717 -0.206640 -3.419263
      ESP Fit Center  245 is at   1.540386  0.732508 -3.419263
      ESP Fit Center  246 is at   0.436351  0.373785 -3.419263
      ESP Fit Center  247 is at   0.436351 -0.787066 -3.419263
      ESP Fit Center  248 is at   1.540386 -1.145789 -3.419263
      ESP Fit Center  249 is at   1.235238 -0.206640 -3.740115
      ESP Fit Center  250 is at   2.253475  2.549362 -2.261561
      ESP Fit Center  251 is at   1.306959  3.095833 -2.261561
      ESP Fit Center  252 is at   0.230621  2.906045 -2.261561
      ESP Fit Center  253 is at  -0.471909  2.068803 -2.261561
      ESP Fit Center  254 is at   2.016988  1.522332 -3.101561
      ESP Fit Center  255 is at   1.334656  2.461480 -3.101561
      ESP Fit Center  256 is at   0.230621  2.102757 -3.101561
      ESP Fit Center  257 is at   1.029508  1.522332 -3.422413
      ESP Fit Center  258 is at   2.672512  1.355058  1.538162
      ESP Fit Center  259 is at   2.977660  2.294206  1.217311
      ESP Fit Center  260 is at   1.873625  1.935484  1.217311
      ESP Fit Center  261 is at   3.896479  2.382088  0.377311
      ESP Fit Center  262 is at   2.949963  2.928559  0.377311
      ESP Fit Center  263 is at   1.873625  2.738772  0.377311
      ESP Fit Center  264 is at   4.270287  1.355058 -0.660986
      ESP Fit Center  265 is at   3.896479  2.382088 -0.660986
      ESP Fit Center  266 is at   2.949963  2.928559 -0.660986
      ESP Fit Center  267 is at   1.873625  2.738772 -0.660986
      ESP Fit Center  268 is at   2.977660  2.294206 -1.500986
      ESP Fit Center  269 is at  -2.275207  0.821270  3.050572
      ESP Fit Center  270 is at  -1.233886  0.821270  2.812897
      ESP Fit Center  271 is at  -1.754546  1.723080  2.812897
      ESP Fit Center  272 is at  -1.754546 -0.080540  2.812897
      ESP Fit Center  273 is at  -0.696682 -0.193186  2.146948
      ESP Fit Center  274 is at  -4.615034  0.821270  0.116522
      ESP Fit Center  275 is at  -3.503985  2.239355 -0.845803
      ESP Fit Center  276 is at  -4.075595  1.349912 -0.845803
      ESP Fit Center  277 is at  -3.316528  0.821270 -1.511753
      ESP Fit Center  278 is at  -2.662818 -0.500603  3.021815
      ESP Fit Center  279 is at  -1.621497 -0.500603  2.784140
      ESP Fit Center  280 is at  -2.142158 -1.402413  2.784140
      ESP Fit Center  281 is at  -0.786422 -0.500603  2.118191
      ESP Fit Center  282 is at  -4.770929  0.514610  0.087765
      ESP Fit Center  283 is at  -4.463206  0.028039 -0.874560
      ESP Fit Center  284 is at  -4.463206 -1.029245 -0.874560
      ESP Fit Center  285 is at  -3.183478  0.401208 -1.540510
      ESP Fit Center  286 is at  -3.704139 -0.500603 -1.540510
      ESP Fit Center  287 is at   0.302948 -1.077040  1.560545
      ESP Fit Center  288 is at  -1.779694 -1.077040 -2.764105
      ESP Fit Center  289 is at  -1.259033 -1.978851 -2.764105
      ESP Fit Center  290 is at  -0.738373 -1.077040 -3.001780
      ESP Fit Center  291 is at  -2.079726  0.763732 -2.110279
      ESP Fit Center  292 is at  -0.799998  1.136901 -2.776229
      ESP Fit Center  293 is at  -1.320658  0.235090 -2.776229
      ESP Fit Center  294 is at  -2.111038  1.194177 -2.123606
      ESP Fit Center  295 is at   1.545970 -0.694474  2.342986
      ESP Fit Center  296 is at   0.786903 -0.165832  1.677036
      ESP Fit Center  297 is at   4.165815 -1.708930 -1.315715
      ESP Fit Center  298 is at   3.628612 -0.694474 -1.981665
      ESP Fit Center  299 is at   3.304334  0.241502  3.211159
      ESP Fit Center  300 is at   5.701390 -0.660308  2.545209
      ESP Fit Center  301 is at   2.596217  0.757777  2.545209
      ESP Fit Center  302 is at   2.024606 -0.131667  2.545209
      ESP Fit Center  303 is at   5.933106  0.354904  0.514783
      ESP Fit Center  304 is at   4.604478  1.046521 -0.447542
      ESP Fit Center  305 is at  -1.284972 -2.850402  2.126449
      ESP Fit Center  306 is at  -2.846953 -5.131565  0.498174
      ESP Fit Center  307 is at  -4.434404 -1.835189 -0.569926
      ESP Fit Center  308 is at  -3.785151 -4.679753 -0.569926
      ESP Fit Center  309 is at  -2.846953 -5.131565 -0.569926
      ESP Fit Center  310 is at   2.934868  0.536305 -2.772322
      ESP Fit Center  311 is at   0.017151  0.536305 -3.438272
      ESP Fit Center  312 is at  -0.852438 -1.431493  2.165526
      ESP Fit Center  313 is at  -1.373099 -2.333304  2.165526
      ESP Fit Center  314 is at  -0.315235 -2.445949  1.499577
      ESP Fit Center  315 is at  -2.935080 -1.431493 -2.159124
      ESP Fit Center  316 is at   1.634461  1.408251  1.839533
      ESP Fit Center  317 is at   1.113801  0.506441  1.839533
      ESP Fit Center  318 is at   4.031517  0.506441 -1.819168
      ESP Fit Center  319 is at   3.733646  1.520897 -1.819168
      ESP Fit Center  320 is at   3.196443  0.506441 -2.485118
      ESP Fit Center  321 is at   1.011373 -1.732077  1.932178
      ESP Fit Center  322 is at   1.497323 -2.573767  1.932178
      ESP Fit Center  323 is at   0.566439 -2.761467  1.310625
      ESP Fit Center  324 is at   1.442090 -3.397665  1.310625
      ESP Fit Center  325 is at   2.524455 -3.397665  1.310625
      ESP Fit Center  326 is at   1.208873 -3.774002  0.412455
      ESP Fit Center  327 is at   2.246505 -3.899993  0.412455
      ESP Fit Center  328 is at   3.223834 -3.529341  0.412455
      ESP Fit Center  329 is at   1.208873 -3.774002 -0.584439
      ESP Fit Center  330 is at   2.246505 -3.899993 -0.584439
      ESP Fit Center  331 is at   3.223834 -3.529341 -0.584439
      ESP Fit Center  332 is at   3.916965 -2.746958 -0.584439
      ESP Fit Center  333 is at   1.442090 -3.397665 -1.482609
      ESP Fit Center  334 is at   2.524455 -3.397665 -1.482609
      ESP Fit Center  335 is at   3.400106 -2.761467 -1.482609
      ESP Fit Center  336 is at   2.955172 -1.732077 -2.104162
      ESP Fit Center  337 is at   1.497323 -2.573767 -2.104162
      ESP Fit Center  338 is at   2.469222 -2.573767 -2.104162
      ESP Fit Center  339 is at  -0.579844  2.848172  2.834090
      ESP Fit Center  340 is at   0.461054  2.848172  2.627042
      ESP Fit Center  341 is at  -0.059395  3.749616  2.627042
      ESP Fit Center  342 is at  -1.100294  3.749616  2.627042
      ESP Fit Center  343 is at  -1.620743  2.848172  2.627042
      ESP Fit Center  344 is at  -1.100294  1.946727  2.627042
      ESP Fit Center  345 is at  -0.059395  1.946727  2.627042
      ESP Fit Center  346 is at   1.343486  2.848172  2.037420
      ESP Fit Center  347 is at   1.085809  3.809837  2.037420
      ESP Fit Center  348 is at   0.381821  4.513825  2.037420
      ESP Fit Center  349 is at  -0.579844  4.771502  2.037420
      ESP Fit Center  350 is at  -1.541510  4.513825  2.037420
      ESP Fit Center  351 is at  -2.245498  3.809837  2.037420
      ESP Fit Center  352 is at   0.381821  1.182519  2.037420
      ESP Fit Center  353 is at   1.085809  1.886506  2.037420
      ESP Fit Center  354 is at   1.933108  2.848172  1.154989
      ESP Fit Center  355 is at   1.715852  3.870281  1.154989
      ESP Fit Center  356 is at   1.101649  4.715659  1.154989
      ESP Fit Center  357 is at   0.196700  5.238131  1.154989
      ESP Fit Center  358 is at  -0.842520  5.347358  1.154989
      ESP Fit Center  359 is at  -1.836321  5.024452  1.154989
      ESP Fit Center  360 is at  -2.612866  4.325248  1.154989
      ESP Fit Center  361 is at   1.956480  3.830749  0.114090
      ESP Fit Center  362 is at   1.430260  4.680624  0.114090
      ESP Fit Center  363 is at   0.632564  5.283016  0.114090
      ESP Fit Center  364 is at  -0.328875  5.556569  0.114090
      ESP Fit Center  365 is at  -1.324208  5.464337  0.114090
      ESP Fit Center  366 is at  -2.219011  5.018778  0.114090
      ESP Fit Center  367 is at  -2.892435  4.280067  0.114090
      ESP Fit Center  368 is at  -3.253531  3.347970  0.114090
      ESP Fit Center  369 is at   1.715852  3.870281 -0.926809
      ESP Fit Center  370 is at   1.101649  4.715659 -0.926809
      ESP Fit Center  371 is at   0.196700  5.238131 -0.926809
      ESP Fit Center  372 is at  -0.842520  5.347358 -0.926809
      ESP Fit Center  373 is at  -1.836321  5.024452 -0.926809
      ESP Fit Center  374 is at  -2.612866  4.325248 -0.926809
      ESP Fit Center  375 is at  -3.037883  3.370644 -0.926809
      ESP Fit Center  376 is at   1.085809  3.809837 -1.809241
      ESP Fit Center  377 is at   0.381821  4.513825 -1.809241
      ESP Fit Center  378 is at  -0.579844  4.771502 -1.809241
      ESP Fit Center  379 is at  -1.541510  4.513825 -1.809241
      ESP Fit Center  380 is at  -2.245498  3.809837 -1.809241
      ESP Fit Center  381 is at  -2.503175  2.848172 -1.809241
      ESP Fit Center  382 is at  -0.059395  3.749616 -2.398863
      ESP Fit Center  383 is at  -1.100294  3.749616 -2.398863
      ESP Fit Center  384 is at  -1.620743  2.848172 -2.398863
      ESP Fit Center  385 is at  -1.100294  1.946727 -2.398863
      ESP Fit Center  386 is at  -0.579844  2.848172 -2.605910
      ESP Fit Center  387 is at  -2.896842  1.554784  3.070198
      ESP Fit Center  388 is at  -2.416842  2.386169  2.812967
      ESP Fit Center  389 is at  -3.376842  2.386169  2.812967
      ESP Fit Center  390 is at  -3.856842  1.554784  2.812967
      ESP Fit Center  391 is at  -3.376842  0.723400  2.812967
      ESP Fit Center  392 is at  -3.410666  3.136171  2.110198
      ESP Fit Center  393 is at  -4.242051  2.532135  2.110198
      ESP Fit Center  394 is at  -4.559611  1.554784  2.110198
      ESP Fit Center  395 is at  -3.856842  3.217553  1.150198
      ESP Fit Center  396 is at  -4.559611  2.514784  1.150198
      ESP Fit Center  397 is at  -4.816842  1.554784  1.150198
      ESP Fit Center  398 is at  -3.410666  3.136171  0.190198
      ESP Fit Center  399 is at  -4.242051  2.532135  0.190198
      ESP Fit Center  400 is at  -4.559611  1.554784  0.190198
      ESP Fit Center  401 is at  -3.576718 -0.851172  3.005592
      ESP Fit Center  402 is at  -4.056718 -0.019787  2.748361
      ESP Fit Center  403 is at  -4.536718 -0.851172  2.748361
      ESP Fit Center  404 is at  -4.056718 -1.682556  2.748361
      ESP Fit Center  405 is at  -3.096718 -1.682556  2.748361
      ESP Fit Center  406 is at  -4.921926  0.126179  2.045592
      ESP Fit Center  407 is at  -5.239487 -0.851172  2.045592
      ESP Fit Center  408 is at  -4.921926 -1.828522  2.045592
      ESP Fit Center  409 is at  -5.239487  0.108828  1.085592
      ESP Fit Center  410 is at  -5.496718 -0.851172  1.085592
      ESP Fit Center  411 is at  -5.239487 -1.811172  1.085592
      ESP Fit Center  412 is at  -5.239487 -0.851172  0.125592
      ESP Fit Center  413 is at  -4.921926 -1.828522  0.125592
      ESP Fit Center  414 is at   0.807387 -3.533539 -1.046396
      ESP Fit Center  415 is at  -0.666437 -3.452157 -2.006396
      ESP Fit Center  416 is at   0.361211 -3.452157 -2.006396
      ESP Fit Center  417 is at   1.192595 -2.848121 -2.006396
      ESP Fit Center  418 is at  -0.632613 -2.702154 -2.709164
      ESP Fit Center  419 is at   0.327387 -2.702154 -2.709164
      ESP Fit Center  420 is at  -0.152613 -1.870770 -2.966396
      ESP Fit Center  421 is at   3.646349 -1.257565  3.866619
      ESP Fit Center  422 is at   4.606349 -1.257565  3.609388
      ESP Fit Center  423 is at   4.126349 -0.426181  3.609388
      ESP Fit Center  424 is at   3.166349 -0.426181  3.609388
      ESP Fit Center  425 is at   2.686349 -1.257565  3.609388
      ESP Fit Center  426 is at   3.166349 -2.088950  3.609388
      ESP Fit Center  427 is at   4.126349 -2.088950  3.609388
      ESP Fit Center  428 is at   5.309118 -1.257565  2.906619
      ESP Fit Center  429 is at   2.301141 -0.280214  2.906619
      ESP Fit Center  430 is at   1.983580 -1.257565  2.906619
      ESP Fit Center  431 is at   2.301141 -2.234916  2.906619
      ESP Fit Center  432 is at   3.132525 -2.838952  2.906619
      ESP Fit Center  433 is at   4.160173 -2.838952  2.906619
      ESP Fit Center  434 is at   4.991557 -2.234916  2.906619
      ESP Fit Center  435 is at   2.686349 -2.920334  1.946619
      ESP Fit Center  436 is at   3.646349 -3.177565  1.946619
      ESP Fit Center  437 is at   4.606349 -2.920334  1.946619
      ESP Fit Center  438 is at   6.313029 -1.130291  1.463042
      ESP Fit Center  439 is at   5.164084 -2.711678  1.463042
      ESP Fit Center  440 is at   5.995469 -2.107642  1.463042
      ESP Fit Center  441 is at   6.570260 -1.130291  0.503042
      ESP Fit Center  442 is at   6.313029 -0.170291  0.503042
      ESP Fit Center  443 is at   4.650260 -3.050291  0.503042
      ESP Fit Center  444 is at   5.610260 -2.793060  0.503042
      ESP Fit Center  445 is at   6.313029 -2.090291  0.503042
      ESP Fit Center  446 is at   6.313029 -1.130291 -0.456958
      ESP Fit Center  447 is at   5.995469 -0.152940 -0.456958
      ESP Fit Center  448 is at   4.136437 -2.711678 -0.456958
      ESP Fit Center  449 is at   5.164084 -2.711678 -0.456958
      ESP Fit Center  450 is at   5.995469 -2.107642 -0.456958
      ESP Fit Center  451 is at   5.610260 -1.130291 -1.159726
      ESP Fit Center  452 is at   5.130260 -0.298907 -1.159726
      ESP Fit Center  453 is at   4.170260 -1.961675 -1.159726
      ESP Fit Center  454 is at   5.130260 -1.961675 -1.159726
      ESP Fit Center  455 is at   4.650260 -1.130291 -1.416958
      ESP Fit Center  456 is at   4.126574  0.349939  3.259120
      ESP Fit Center  457 is at   5.086574  0.349939  3.001889
      ESP Fit Center  458 is at   4.606574  1.181323  3.001889
      ESP Fit Center  459 is at   3.646574  1.181323  3.001889
      ESP Fit Center  460 is at   5.789343  0.349939  2.299120
      ESP Fit Center  461 is at   5.471782  1.327290  2.299120
      ESP Fit Center  462 is at   4.640398  1.931326  2.299120
      ESP Fit Center  463 is at   3.612750  1.931326  2.299120
      ESP Fit Center  464 is at   2.781366  1.327290  2.299120
      ESP Fit Center  465 is at   6.046574  0.349939  1.339120
      ESP Fit Center  466 is at   5.789343  1.309939  1.339120
      ESP Fit Center  467 is at   5.086574  2.012708  1.339120
      ESP Fit Center  468 is at   4.126574  2.269939  1.339120
      ESP Fit Center  469 is at   5.471782  1.327290  0.379120
      ESP Fit Center  470 is at   4.640398  1.931326  0.379120
      ESP Fit Center  471 is at   4.606574  1.181323 -0.323649
      ESP Fit Center  472 is at  -4.509473 -2.084853 -0.976869
      ESP Fit Center  473 is at  -4.766704 -3.044853 -0.976869
      ESP Fit Center  474 is at  -4.509473 -4.004853 -0.976869
      ESP Fit Center  475 is at  -3.806704 -4.707622 -0.976869
      ESP Fit Center  476 is at  -3.360528 -1.463466 -1.936869
      ESP Fit Center  477 is at  -4.191912 -2.067502 -1.936869
      ESP Fit Center  478 is at  -4.509473 -3.044853 -1.936869
      ESP Fit Center  479 is at  -4.191912 -4.022204 -1.936869
      ESP Fit Center  480 is at  -3.360528 -4.626240 -1.936869
      ESP Fit Center  481 is at  -2.332880 -4.626240 -1.936869
      ESP Fit Center  482 is at  -1.886704 -3.044853 -2.639638
      ESP Fit Center  483 is at  -2.366704 -2.213469 -2.639638
      ESP Fit Center  484 is at  -3.326704 -2.213469 -2.639638
      ESP Fit Center  485 is at  -3.806704 -3.044853 -2.639638
      ESP Fit Center  486 is at  -3.326704 -3.876238 -2.639638
      ESP Fit Center  487 is at  -2.366704 -3.876238 -2.639638
      ESP Fit Center  488 is at  -2.846704 -3.044853 -2.896869
      ESP Fit Center  489 is at  -0.486666 -3.489448  1.708531
      ESP Fit Center  490 is at  -0.966666 -4.320833  1.708531
      ESP Fit Center  491 is at   0.216103 -3.489448  1.005763
      ESP Fit Center  492 is at  -1.960490 -5.070835  1.005763
      ESP Fit Center  493 is at  -0.932842 -5.070835  1.005763
      ESP Fit Center  494 is at  -0.101458 -4.466799  1.005763
      ESP Fit Center  495 is at   0.473334 -3.489448  0.045763
      ESP Fit Center  496 is at  -1.446666 -5.409448  0.045763
      ESP Fit Center  497 is at  -0.486666 -5.152217  0.045763
      ESP Fit Center  498 is at   0.216103 -4.449448  0.045763
[...]
  477 Fit       0.134465
  478 Fit       0.124570
  479 Fit       0.119586
  480 Fit       0.119123
  481 Fit       0.123372
  482 Fit       0.137492
  483 Fit       0.142500
  484 Fit       0.133188
  485 Fit       0.123947
  486 Fit       0.120541
  487 Fit       0.124864
  488 Fit       0.127644
  489 Fit       0.123660
  490 Fit       0.120283
  491 Fit       0.114054
  492 Fit       0.123020
  493 Fit       0.115751
  494 Fit       0.113604
  495 Fit       0.112073
  496 Fit       0.117743
  497 Fit       0.114358
  498 Fit       0.112985
  499 Fit       0.125551
  500 Fit       0.119092
  501 Fit       0.120459
  502 Fit       0.129544
  503 Fit       0.133872
  504 Fit       0.135335
  505 Fit       0.150752
  506 Fit       0.153296
  507 Fit       0.134985
  508 Fit       0.125061
  509 Fit       0.125765
  510 Fit       0.136067
  511 Fit       0.124466
  512 Fit       0.121353
  513 Fit       0.124148
  514 Fit       0.136507
  515 Fit       0.126052
  516 Fit       0.123590
  517 Fit       0.106637
  518 Fit       0.139614
  519 Fit       0.140768
  520 Fit       0.126785
  521 Fit       0.107356
  522 Fit       0.102856
  523 Fit       0.107185
  524 Fit       0.112312
  525 Fit       0.118695
  526 Fit       0.122044
  527 Fit       0.118187
  528 Fit       0.108795
  529 Fit       0.111966
  530 Fit       0.131285
  531 Fit       0.122312
  532 Fit       0.115644
  533 Fit       0.113894
  534 Fit       0.114705
  535 Fit       0.121622
  536 Fit       0.134336
  537 Fit       0.113346
  538 Fit       0.111864
  539 Fit       0.114537
  540 Fit       0.121795
  541 Fit       0.115024
  542 Fit       0.126295
  543 Fit       0.121639
  544 Fit       0.127303
  545 Fit       0.125160
  546 Fit       0.124778
  547 Fit       0.123008
  548 Fit       0.124400
  549 Fit       0.127487
  550 Fit       0.116325
  551 Fit       0.120365
  552 Fit       0.126125
  553 Fit       0.125006
  554 Fit       0.120139
  555 Fit       0.117925
  556 Fit       0.116911
  557 Fit       0.128062
  558 Fit       0.124201
  559 Fit       0.126664
  560 Fit       0.117127
  561 Fit       0.119445
  562 Fit       0.116705
  563 Fit       0.119580
  564 Fit       0.126847
  565 Fit       0.127347
  566 Fit       0.124944
  567 Fit       0.129864
  568 Fit       0.128391
  569 Fit       0.127693
  570 Fit       0.132513
  571 Fit       0.127514
  572 Fit       0.136304
  573 Fit       0.132822
  574 Fit       0.134853
  575 Fit       0.120362
  576 Fit       0.135883
  577 Fit       0.131448
  578 Fit       0.133375
  579 Fit       0.130942
  580 Fit       0.128590
  581 Fit       0.127695
  582 Fit       0.121857
  583 Fit       0.126249
  584 Fit       0.108695
  585 Fit       0.119645
  586 Fit       0.110081
  587 Fit       0.098756
  588 Fit       0.088625
  589 Fit       0.099245
  590 Fit       0.089029
  591 Fit       0.094437
  592 Fit       0.081934
  593 Fit       0.103957
  594 Fit       0.106344
  595 Fit       0.081574
  596 Fit       0.079849
  597 Fit       0.080395
  598 Fit       0.086899
  599 Fit       0.070607
  600 Fit       0.091085
  601 Fit       0.097573
  602 Fit       0.127756
  603 Fit       0.124094
  604 Fit       0.115914
  605 Fit       0.132559
  606 Fit       0.123192
  607 Fit       0.117964
  608 Fit       0.114978
  609 Fit       0.114699
  610 Fit       0.115649
  611 Fit       0.121106
  612 Fit       0.104921
  613 Fit       0.108460
  614 Fit       0.125125
  615 Fit       0.118230
  616 Fit       0.129043
  617 Fit       0.132622
  618 Fit       0.122836
  619 Fit       0.137051
  620 Fit       0.138539
  621 Fit       0.112180
  622 Fit       0.116567
  623 Fit       0.104486
  624 Fit       0.100076
  625 Fit       0.106584
  626 Fit       0.101546
  627 Fit       0.084638
  628 Fit       0.093507
  629 Fit       0.071908
  630 Fit       0.066573
  631 Fit       0.074923
  632 Fit       0.060600
  633 Fit       0.061690
  634 Fit       0.078461
  635 Fit       0.061686
  636 Fit       0.060548
  637 Fit       0.079203
  638 Fit       0.065675
  639 Fit       0.070233
  640 Fit       0.087904
  641 Fit       0.098814
  642 Fit       0.078311
  643 Fit       0.098412
  644 Fit       0.096349
  645 Fit       0.090502
  646 Fit       0.092864
  647 Fit       0.106087
  648 Fit       0.113481
  649 Fit       0.106393
  650 Fit       0.099676
  651 Fit       0.092353
  652 Fit       0.088264
  653 Fit       0.086983
  654 Fit       0.089343
  655 Fit       0.099443
  656 Fit       0.116292
  657 Fit       0.107529
  658 Fit       0.110662
  659 Fit       0.098514
  660 Fit       0.091593
  661 Fit       0.088293
  662 Fit       0.086478
  663 Fit       0.086430
  664 Fit       0.090957
  665 Fit       0.105324
  666 Fit       0.106769
  667 Fit       0.095530
  668 Fit       0.090730
  669 Fit       0.087971
  670 Fit       0.085987
  671 Fit       0.085940
  672 Fit       0.090726
  673 Fit       0.104623
  674 Fit       0.111067
  675 Fit       0.097415
  676 Fit       0.091568
  677 Fit       0.088232
  678 Fit       0.085828
  679 Fit       0.085259
  680 Fit       0.088932
  681 Fit       0.099555
  682 Fit       0.109158
  683 Fit       0.096440
  684 Fit       0.090394
  685 Fit       0.086968
  686 Fit       0.085475
  687 Fit       0.087543
  688 Fit       0.095350
  689 Fit       0.109316
  690 Fit       0.105246
  691 Fit       0.093847
  692 Fit       0.088938
  693 Fit       0.088359
  694 Fit       0.093503
  695 Fit       0.105350
  696 Fit       0.099323
  697 Fit       0.095286
  698 Fit       0.105018
  699 Fit       0.122166
  700 Fit       0.109119
  701 Fit       0.119086
  702 Fit       0.114689
  703 Fit       0.113820
  704 Fit       0.120756
  705 Fit       0.111048
  706 Fit       0.112320
  707 Fit       0.117857
  708 Fit       0.131496
  709 Fit       0.111094
  710 Fit       0.112949
  711 Fit       0.118998
  712 Fit       0.133932
  713 Fit       0.114555
  714 Fit       0.119557
  715 Fit       0.130907
  716 Fit       0.132669
  717 Fit       0.127592
  718 Fit       0.132344
  719 Fit       0.135372
  720 Fit       0.127109
  721 Fit       0.127614
  722 Fit       0.135691
  723 Fit       0.133991
  724 Fit       0.127532
  725 Fit       0.128882
  726 Fit       0.137611
  727 Fit       0.131018
  728 Fit       0.134090
  729 Fit       0.128304
  730 Fit       0.110369
  731 Fit       0.129866
  732 Fit       0.118058
  733 Fit       0.129529
  734 Fit       0.086085
  735 Fit       0.082472
  736 Fit       0.087252
  737 Fit       0.092452
  738 Fit       0.092497
  739 Fit       0.086355
  740 Fit       0.081982
  741 Fit       0.104262
  742 Fit       0.096348
  743 Fit       0.087099
  744 Fit       0.081560
  745 Fit       0.079339
  746 Fit       0.079606
  747 Fit       0.074782
  748 Fit       0.076354
  749 Fit       0.078673
  750 Fit       0.080908
  751 Fit       0.078884
  752 Fit       0.078890
  753 Fit       0.080499
  754 Fit       0.084770
  755 Fit       0.075813
  756 Fit       0.077419
  757 Fit       0.078526
  758 Fit       0.082693
  759 Fit       0.087809
  760 Fit       0.074630
  761 Fit       0.078765
  762 Fit       0.080366
  763 Fit       0.087196
  764 Fit       0.096584
  765 Fit       0.084301
  766 Fit       0.095039
  767 Fit       0.085918
  768 Fit       0.089341
  769 Fit       0.096022
  770 Fit       0.084467
  771 Fit       0.086814
  772 Fit       0.093072
  773 Fit       0.101749
  774 Fit       0.109058
  775 Fit       0.088663
  776 Fit       0.095804
  777 Fit       0.108326
  778 Fit       0.095981
  779 Fit       0.109962
  780 Fit       0.129306
  781 Fit       0.119774
  782 Fit       0.115746
  783 Fit       0.115979
  784 Fit       0.132452
  785 Fit       0.121372
  786 Fit       0.114292
  787 Fit       0.111377
  788 Fit       0.112305
  789 Fit       0.117622
  790 Fit       0.130967
  791 Fit       0.136097
  792 Fit       0.126179
  793 Fit       0.116464
  794 Fit       0.112992
  795 Fit       0.117676
  796 Fit       0.120407
  797 Fit       0.116711
  798 Fit       0.113401
  799 Fit       0.104221
  800 Fit       0.112854
  801 Fit       0.107654
  802 Fit       0.105520
  803 Fit       0.108973
  804 Fit       0.106199
  805 Fit       0.103868
  806 Fit       0.115293
  807 Fit       0.111211
  808 Fit       0.112624
  809 Fit       0.122360
  810 Fit       0.126128
  811 Fit       0.128132
  812 Fit       0.126859
  813 Fit       0.117164
  814 Fit       0.118358
  815 Fit       0.138357
  816 Fit       0.121286
  817 Fit       0.114651
  818 Fit       0.113880
  819 Fit       0.138349
  820 Fit       0.122694
  821 Fit       0.116644
  822 Fit       0.116267
  823 Fit       0.101486
  824 Fit       0.115386
  825 Fit       0.099632
  826 Fit       0.097549
  827 Fit       0.101468
  828 Fit       0.106924
  829 Fit       0.116449
  830 Fit       0.112339
  831 Fit       0.102805
  832 Fit       0.106141
  833 Fit       0.117159
  834 Fit       0.109473
  835 Fit       0.107499
  836 Fit       0.107630
  837 Fit       0.107452
  838 Fit       0.105494
  839 Fit       0.108246
  840 Fit       0.116087
  841 Fit       0.109217
  842 Fit       0.118346
  843 Fit       0.115786
  844 Fit       0.116343
  845 Fit       0.117350
  846 Fit       0.114034
  847 Fit       0.114849
  848 Fit       0.117938
  849 Fit       0.111717
  850 Fit       0.116248
  851 Fit       0.124560
  852 Fit       0.113688
  853 Fit       0.112184
  854 Fit       0.110427
  855 Fit       0.119052
  856 Fit       0.117642
  857 Fit       0.115424
  858 Fit       0.119432
  859 Fit       0.119054
  860 Fit       0.110314
  861 Fit       0.115069
  862 Fit       0.111368
  863 Fit       0.114351
  864 Fit       0.121973
  865 Fit       0.119539
  866 Fit       0.118206
  867 Fit       0.124714
  868 Fit       0.121431
  869 Fit       0.120780
  870 Fit       0.128543
  871 Fit       0.122494
  872 Fit       0.120474
  873 Fit       0.126542
  874 Fit       0.120924
  875 Fit       0.128427
  876 Fit       0.127178
  877 Fit       0.117334
  878 Fit       0.126895
  879 Fit       0.123539
  880 Fit       0.123385
  881 Fit       0.124185
  882 Fit       0.122907
  883 Fit       0.121051
  884 Fit       0.121283
  885 Fit       0.120989
  886 Fit       0.118553
  887 Fit       0.115742
  888 Fit       0.115115
  889 Fit       0.108399
  890 Fit       0.093194
  891 Fit       0.085316
  892 Fit       0.084934
  893 Fit       0.090126
  894 Fit       0.078263
  895 Fit       0.081877
  896 Fit       0.098298
  897 Fit       0.100804
  898 Fit       0.077138
  899 Fit       0.076276
  900 Fit       0.076043
  901 Fit       0.078284
  902 Fit       0.081161
  903 Fit       0.072784
  904 Fit       0.074715
  905 Fit       0.083485
  906 Fit       0.068396
  907 Fit       0.096356
  908 Fit       0.093944
  909 Fit       0.120611
  910 Fit       0.115720
  911 Fit       0.116825
  912 Fit       0.110207
  913 Fit       0.108053
  914 Fit       0.109319
  915 Fit       0.106754
  916 Fit       0.106797
  917 Fit       0.127521
  918 Fit       0.117780
  919 Fit       0.111999
  920 Fit       0.108408
  921 Fit       0.106529
  922 Fit       0.106933
  923 Fit       0.108247
  924 Fit       0.109663
  925 Fit       0.114069
  926 Fit       0.123141
  927 Fit       0.099263
  928 Fit       0.101511
  929 Fit       0.116486
  930 Fit       0.121975
  931 Fit       0.102851
  932 Fit       0.106705
  933 Fit       0.110821
  934 Fit       0.124949
  935 Fit       0.117811
  936 Fit       0.116472
  937 Fit       0.129014
  938 Fit       0.128436
  939 Fit       0.130197
  940 Fit       0.108680
  941 Fit       0.097319
  942 Fit       0.100983
  943 Fit       0.096143
  944 Fit       0.101041
  945 Fit       0.095782
  946 Fit       0.101586
  947 Fit       0.087696
  948 Fit       0.106854
  949 Fit       0.087158
  950 Fit       0.073828
  951 Fit       0.072903
  952 Fit       0.064322
  953 Fit       0.083266
  954 Fit       0.066651
  955 Fit       0.061461
  956 Fit       0.066159
  957 Fit       0.076709
  958 Fit       0.064845
  959 Fit       0.064661
  960 Fit       0.078189
  961 Fit       0.069827
  962 Fit       0.073610
  963 Fit       0.089005
  964 Fit       0.099799
  965 Fit       0.082034
  966 Fit       0.094928
  967 Fit       0.093167
  968 Fit       0.087689
  969 Fit       0.089862
  970 Fit       0.101009
  971 Fit       0.107392
  972 Fit       0.101786
  973 Fit       0.095691
  974 Fit       0.088734
  975 Fit       0.084594
  976 Fit       0.083533
  977 Fit       0.086282
  978 Fit       0.095408
  979 Fit       0.110379
  980 Fit       0.103050
  981 Fit       0.104016
  982 Fit       0.093457
  983 Fit       0.086706
  984 Fit       0.083273
  985 Fit       0.081882
  986 Fit       0.082755
  987 Fit       0.087867
  988 Fit       0.101006
  989 Fit       0.101316
  990 Fit       0.090666
  991 Fit       0.085458
  992 Fit       0.082709
  993 Fit       0.081276
  994 Fit       0.081541
  995 Fit       0.085108
  996 Fit       0.094702
  997 Fit       0.109155
  998 Fit       0.094633
  999 Fit       0.087800
 1000 Fit       0.084169
 1001 Fit       0.081947
 1002 Fit       0.080782
 1003 Fit       0.081352
 1004 Fit       0.085032
 1005 Fit       0.093624
 1006 Fit       0.108329
 1007 Fit       0.094113
 1008 Fit       0.087222
 1009 Fit       0.083500
 1010 Fit       0.081364
 1011 Fit       0.080873
 1012 Fit       0.083150
 1013 Fit       0.089706
 1014 Fit       0.101541
 1015 Fit       0.104626
 1016 Fit       0.092253
 1017 Fit       0.085966
 1018 Fit       0.082798
 1019 Fit       0.082037
 1020 Fit       0.084553
 1021 Fit       0.091620
 1022 Fit       0.103457
 1023 Fit       0.100990
 1024 Fit       0.090438
 1025 Fit       0.085920
 1026 Fit       0.085808
 1027 Fit       0.090667
 1028 Fit       0.100860
 1029 Fit       0.114634
 1030 Fit       0.096010
 1031 Fit       0.092586
 1032 Fit       0.101026
 1033 Fit       0.115508
 1034 Fit       0.104525
 1035 Fit       0.113064
 1036 Fit       0.108922
 1037 Fit       0.107825
 1038 Fit       0.113874
 1039 Fit       0.104906
 1040 Fit       0.105913
 1041 Fit       0.111005
 1042 Fit       0.122675
 1043 Fit       0.105002
 1044 Fit       0.108740
 1045 Fit       0.117629
 1046 Fit       0.106104
 1047 Fit       0.109692
 1048 Fit       0.118744
 1049 Fit       0.110028
 1050 Fit       0.123354
 1051 Fit       0.124253
 1052 Fit       0.120036
 1053 Fit       0.123767
 1054 Fit       0.126150
 1055 Fit       0.119230
 1056 Fit       0.119401
 1057 Fit       0.125725
 1058 Fit       0.120797
 1059 Fit       0.118683
 1060 Fit       0.122081
 1061 Fit       0.122212
 1062 Fit       0.120825
 1063 Fit       0.125341
 1064 Fit       0.128786
 1065 Fit       0.109887
 1066 Fit       0.119595
 1067 Fit       0.106066
 1068 Fit       0.122163
 1069 Fit       0.112901
 1070 Fit       0.122709
 1071 Fit       0.082593
 1072 Fit       0.079209
 1073 Fit       0.083612
 1074 Fit       0.088381
 1075 Fit       0.088449
 1076 Fit       0.082945
 1077 Fit       0.078779
 1078 Fit       0.098873
 1079 Fit       0.093210
 1080 Fit       0.085149
 1081 Fit       0.079278
 1082 Fit       0.076482
 1083 Fit       0.076272
 1084 Fit       0.080918
 1085 Fit       0.076456
 1086 Fit       0.074988
 1087 Fit       0.075393
 1088 Fit       0.076493
 1089 Fit       0.073859
 1090 Fit       0.073978
 1091 Fit       0.074606
 1092 Fit       0.077175
 1093 Fit       0.081287
 1094 Fit       0.073130
 1095 Fit       0.074231
 1096 Fit       0.075199
 1097 Fit       0.079737
 1098 Fit       0.085093
 1099 Fit       0.073464
 1100 Fit       0.076207
 1101 Fit       0.077376
 1102 Fit       0.084338
 1103 Fit       0.093280
 1104 Fit       0.081807
 1105 Fit       0.085535
 1106 Fit       0.091616
 1107 Fit       0.082534
 1108 Fit       0.087668
 1109 Fit       0.094897
 1110 Fit       0.101609
 1111 Fit       0.082862
 1112 Fit       0.087833
 1113 Fit       0.096149
 1114 Fit       0.107248
 1115 Fit       0.086423
 1116 Fit       0.093054
 1117 Fit       0.105919
 1118 Fit       0.094695
 1119 Fit       0.123635
 1120 Fit       0.114038
 1121 Fit       0.108522
 1122 Fit       0.106411
 1123 Fit       0.107296
 1124 Fit       0.123425
 1125 Fit       0.113855
 1126 Fit       0.107603
 1127 Fit       0.104938
 1128 Fit       0.105755
 1129 Fit       0.110529
 1130 Fit       0.122960
 1131 Fit       0.127383
 1132 Fit       0.119045
 1133 Fit       0.110388
 1134 Fit       0.107305
 1135 Fit       0.111651
 1136 Fit       0.114200
 1137 Fit       0.112457
 1138 Fit       0.109048
 1139 Fit       0.101215
 1140 Fit       0.107641
 1141 Fit       0.102601
 1142 Fit       0.100861
 1143 Fit       0.106807
 1144 Fit       0.101592
 1145 Fit       0.099030
 1146 Fit       0.095650
 1147 Fit       0.102726
 1148 Fit       0.100797
 1149 Fit       0.098969
 1150 Fit       0.107086
 1151 Fit       0.109374
 1152 Fit       0.119418
 1153 Fit       0.121180
 1154 Fit       0.119683
 1155 Fit       0.111348
 1156 Fit       0.112532
 1157 Fit       0.114639
 1158 Fit       0.108418
 1159 Fit       0.107439
 1160 Fit       0.110643
 1161 Fit       0.121399
 1162 Fit       0.111732
 1163 Fit       0.107938
 1164 Fit       0.108145
 1165 Fit       0.123162
 1166 Fit       0.114562
 1167 Fit       0.096411
 1168 Fit       0.121104
 1169 Fit       0.108153
 1170 Fit       0.096426
 1171 Fit       0.093751
 1172 Fit       0.096920
 1173 Fit       0.101501
 1174 Fit       0.109582
 1175 Fit       0.105927
 1176 Fit       0.098151
 1177 Fit       0.101112
 1178 Fit       0.107199
 1179 Fit       0.102144
 1180 Fit       0.100838
 1181 Fit       0.101590
 1182 Fit       0.114526
 1183 Fit       0.100236
 1184 Fit       0.102839
 1185 Fit       0.109754
 1186 Fit       0.104124
 1187 Fit       0.109558
 1188 Fit       0.107781
 1189 Fit       0.109556
 1190 Fit       0.105310
 1191 Fit       0.106710
 1192 Fit       0.110354
 1193 Fit       0.105081
 1194 Fit       0.109821
 -----------------------------------------------------------------
 Leave Link  602 at Sat Feb 17 20:58:48 2018, MaxMem=   33554432 cpu:       0.0

 Test job not archived.
 1\1\GINC-NODE036\SP\RHF\6-31G(d)\C9H12Cl1N2O1(1+)\WULSDORT\17-Feb-2018
 \0\\#HF/6-31G* Geom=AllCheck Guess=Read Pop=(MK,ReadRadii) Integral=(G
 rid=UltraFine) iop(6/33=2)\\Optimization for frag20-conf0\\1,1\C,0,0.6
 634935397,-0.1585132332,1.2331669091\C,0,1.2180678265,-0.5953054917,2.
 4164153792\C,0,2.7414244515,-1.9518034646,1.24498367\C,0,2.2369056275,
 -1.5574160389,0.0111010931\C,0,1.1811028456,-0.6323849779,0.019018883\
 C,0,5.1167026078,-1.113599103,-1.0946906878\C,0,6.1946038823,-0.287230
 996,-1.7595567524\C,0,2.8288162842,-1.9556079087,3.6901621666\C,0,2.88
 7116301,-2.102309728,-1.2534477306\N,0,2.2474432311,-1.4790736274,2.41
 07736393\N,0,3.9204047535,-1.2141364471,-1.7589155112\O,0,5.2783536936
 ,-1.6861444659,-0.0182974014\Cl,0,0.4992904952,-0.0484619496,-1.455944
 9787\H,0,-0.1565222937,0.5495540035,1.2509235669\H,0,0.8690999379,-0.2
 572986831,3.3844924107\H,0,3.5854369419,-2.6261246799,1.3061222001\H,0
 ,6.6392788587,0.3807516808,-1.017456119\H,0,6.9859844443,-0.9584560918
 ,-2.1102819918\H,0,5.832652386,0.3014647216,-2.6070499845\H,0,2.366533
 4047,-2.9064439288,3.9664097323\H,0,3.9040284658,-2.0838625031,3.56265
 82021\H,0,2.6415382703,-1.2123658145,4.4648789494\H,0,3.3238163536,-3.
 0803774582,-1.0280355936\H,0,2.1336089231,-2.2377075673,-2.0309895831\
 H,0,3.7974150127,-0.7813217289,-2.6634228814\\Version=AM64L-G09RevC.01
 \State=1-A\HF=-990.8555414\RMSD=4.183e-09\Dipole=-1.0007921,-0.0517538
 ,1.6667998\Quadrupole=-6.4619368,-10.2522822,16.714219,-0.5532832,-9.9
 871814,-2.7784871\PG=C01 [X(C9H12Cl1N2O1)]\\@


 It takes a long time to grow an old friend.
                            -- John Leonard
 Job cpu time:  0 days  0 hours  2 minutes 23.8 seconds.
 File lengths (MBytes):  RWF=     31 Int=      0 D2E=      0 Chk=      5 Scr=      1
 Normal termination of Gaussian 09 at Sat Feb 17 20:58:50 2018.
