 Entering Gaussian System, Link 0=g09
 Initial command:
 /home/fb_chem/chemsoft/lx24-amd64/Gaussian_09_C.01_NBO_3.1_64_istanbul-64/g09/l1.exe /local/2397353.1.parallel_long/Gau-12921.inp -scrdir=/local/2397353.1.parallel_long/
 Entering Link 1 = /home/fb_chem/chemsoft/lx24-amd64/Gaussian_09_C.01_NBO_3.1_64_istanbul-64/g09/l1.exe PID=     12922.
  
 Copyright (c) 1988,1990,1992,1993,1995,1998,2003,2009,2011,
            Gaussian, Inc.  All Rights Reserved.
  
 This is part of the Gaussian(R) 09 program.  It is based on
 the Gaussian(R) 03 system (copyright 2003, Gaussian, Inc.),
 the Gaussian(R) 98 system (copyright 1998, Gaussian, Inc.),
 the Gaussian(R) 94 system (copyright 1995, Gaussian, Inc.),
 the Gaussian 92(TM) system (copyright 1992, Gaussian, Inc.),
 the Gaussian 90(TM) system (copyright 1990, Gaussian, Inc.),
 the Gaussian 88(TM) system (copyright 1988, Gaussian, Inc.),
 the Gaussian 86(TM) system (copyright 1986, Carnegie Mellon
 University), and the Gaussian 82(TM) system (copyright 1983,
 Carnegie Mellon University). Gaussian is a federally registered
 trademark of Gaussian, Inc.
  
 This software contains proprietary and confidential information,
 including trade secrets, belonging to Gaussian, Inc.
  
 This software is provided under written license and may be
 used, copied, transmitted, or stored only in accord with that
 written license.
  
 The following legend is applicable only to US Government
 contracts under FAR:
  
                    RESTRICTED RIGHTS LEGEND
  
 Use, reproduction and disclosure by the US Government is
 subject to restrictions as set forth in subparagraphs (a)
 and (c) of the Commercial Computer Software - Restricted
 Rights clause in FAR 52.227-19.
  
 Gaussian, Inc.
 340 Quinnipiac St., Bldg. 40, Wallingford CT 06492
  
  
 ---------------------------------------------------------------
 Warning -- This program may not be used in any manner that
 competes with the business of Gaussian, Inc. or will provide
 assistance to any competitor of Gaussian, Inc.  The licensee
 of this program is prohibited from giving any competitor of
 Gaussian, Inc. access to this program.  By using this program,
 the user acknowledges that Gaussian, Inc. is engaged in the
 business of creating and licensing software in the field of
 computational chemistry and represents and warrants to the
 licensee that it is not a competitor of Gaussian, Inc. and that
 it will not use this program in any manner prohibited above.
 ---------------------------------------------------------------
  

 Cite this work as:
 Gaussian 09, Revision C.01,
 M. J. Frisch, G. W. Trucks, H. B. Schlegel, G. E. Scuseria, 
 M. A. Robb, J. R. Cheeseman, G. Scalmani, V. Barone, B. Mennucci, 
 G. A. Petersson, H. Nakatsuji, M. Caricato, X. Li, H. P. Hratchian, 
 A. F. Izmaylov, J. Bloino, G. Zheng, J. L. Sonnenberg, M. Hada, 
 M. Ehara, K. Toyota, R. Fukuda, J. Hasegawa, M. Ishida, T. Nakajima, 
 Y. Honda, O. Kitao, H. Nakai, T. Vreven, J. A. Montgomery, Jr., 
 J. E. Peralta, F. Ogliaro, M. Bearpark, J. J. Heyd, E. Brothers, 
 K. N. Kudin, V. N. Staroverov, T. Keith, R. Kobayashi, J. Normand, 
 K. Raghavachari, A. Rendell, J. C. Burant, S. S. Iyengar, J. Tomasi, 
 M. Cossi, N. Rega, J. M. Millam, M. Klene, J. E. Knox, J. B. Cross, 
 V. Bakken, C. Adamo, J. Jaramillo, R. Gomperts, R. E. Stratmann, 
 O. Yazyev, A. J. Austin, R. Cammi, C. Pomelli, J. W. Ochterski, 
 R. L. Martin, K. Morokuma, V. G. Zakrzewski, G. A. Voth, 
 P. Salvador, J. J. Dannenberg, S. Dapprich, A. D. Daniels, 
 O. Farkas, J. B. Foresman, J. V. Ortiz, J. Cioslowski, 
 and D. J. Fox, Gaussian, Inc., Wallingford CT, 2010.
 
 ******************************************
 Gaussian 09:  AM64L-G09RevC.01 23-Sep-2011
                16-Feb-2018 
 ******************************************
 %nprocs=4
 Will use up to    4 processors via shared memory.
 %chk=frag21-conf1.chk
 ---------------------------------------------------------
 #B3LYP/6-31G* Integral=(Grid=UltraFine) freq Opt pop=none
 ---------------------------------------------------------
 1/14=-1,18=20,19=15,26=3,38=1/1,3;
 2/9=110,12=2,17=6,18=5,40=1/2;
 3/5=1,6=6,7=1,11=2,16=1,25=1,30=1,71=1,74=-5,75=-5/1,2,3;
 4//1;
 5/5=2,38=5/2;
 7//1,2,3,16;
 1/14=-1,18=20,19=15/3(2);
 2/9=110/2;
 99//99;
 2/9=110/2;
 3/5=1,6=6,7=1,11=2,16=1,25=1,30=1,71=1,74=-5,75=-5/1,2,3;
 4/5=5,16=3/1;
 5/5=2,38=5/2;
 7//1,2,3,16;
 1/14=-1,18=20,19=15/3(-5);
 2/9=110/2;
 99/9=1/99;
 -----------------------------
 Optimization for frag21-conf1
 -----------------------------
 Charge =  1 Multiplicity = 1
 Symbolic Z-Matrix:
 C                     0.98858  -0.4186    0.45001 
 C                     3.15242  -1.43574   0.56828 
 C                     0.79355  -0.75493   1.77989 
 C                     2.17981  -0.76703  -0.15611 
 C                     2.92903  -1.75538   1.91773 
 C                     4.16823  -4.77462   1.69577 
 C                     3.82506  -6.22198   1.9189 
 C                     1.45041  -1.7335    3.89808 
 C                     3.99317  -2.50807   2.68518 
 N                     1.73999  -1.41063   2.48907 
 N                     3.75717  -3.9411    2.70562 
 O                     4.73781  -4.37704   0.68183 
 Cl                    2.4538   -0.37295  -1.80751 
 H                     0.20929   0.10636  -0.09267 
 H                     4.08902  -1.72094   0.09575 
 H                    -0.129    -0.50105   2.29167 
 H                     2.80214  -6.40547   1.57978 
 H                     4.51576  -6.8518    1.35156 
 H                     3.90786  -6.48272   2.97781 
 H                     1.54823  -2.81242   4.03456 
 H                     2.15389  -1.17922   4.52413 
 H                     0.43004  -1.43645   4.1538 
 H                     4.98001  -2.31693   2.24672 
 H                     4.0447   -2.16502   3.72241 
 H                     3.29469  -4.3437    3.51545 
 

 GradGradGradGradGradGradGradGradGradGradGradGradGradGradGradGradGradGrad
 Berny optimization.
 Initialization pass.
                           ----------------------------
                           !    Initial Parameters    !
                           ! (Angstroms and Degrees)  !
 --------------------------                            --------------------------
 ! Name  Definition              Value          Derivative Info.                !
 --------------------------------------------------------------------------------
 ! R1    R(1,3)                  1.3855         estimate D2E/DX2                !
 ! R2    R(1,4)                  1.3812         estimate D2E/DX2                !
 ! R3    R(1,14)                 1.0851         estimate D2E/DX2                !
 ! R4    R(2,4)                  1.3849         estimate D2E/DX2                !
 ! R5    R(2,5)                  1.4047         estimate D2E/DX2                !
 ! R6    R(2,15)                 1.0871         estimate D2E/DX2                !
 ! R7    R(3,10)                 1.3523         estimate D2E/DX2                !
 ! R8    R(3,16)                 1.0851         estimate D2E/DX2                !
 ! R9    R(4,13)                 1.7197         estimate D2E/DX2                !
 ! R10   R(5,9)                  1.5126         estimate D2E/DX2                !
 ! R11   R(5,10)                 1.3635         estimate D2E/DX2                !
 ! R12   R(6,7)                  1.5041         estimate D2E/DX2                !
 ! R13   R(6,11)                 1.3724         estimate D2E/DX2                !
 ! R14   R(6,12)                 1.2291         estimate D2E/DX2                !
 ! R15   R(7,17)                 1.0932         estimate D2E/DX2                !
 ! R16   R(7,18)                 1.0934         estimate D2E/DX2                !
 ! R17   R(7,19)                 1.0937         estimate D2E/DX2                !
 ! R18   R(8,10)                 1.4743         estimate D2E/DX2                !
 ! R19   R(8,20)                 1.0919         estimate D2E/DX2                !
 ! R20   R(8,21)                 1.0927         estimate D2E/DX2                !
 ! R21   R(8,22)                 1.0931         estimate D2E/DX2                !
 ! R22   R(9,11)                 1.4525         estimate D2E/DX2                !
 ! R23   R(9,23)                 1.0966         estimate D2E/DX2                !
 ! R24   R(9,24)                 1.0937         estimate D2E/DX2                !
 ! R25   R(11,25)                1.0158         estimate D2E/DX2                !
 ! A1    A(3,1,4)              118.7742         estimate D2E/DX2                !
 ! A2    A(3,1,14)             119.7612         estimate D2E/DX2                !
 ! A3    A(4,1,14)             121.4644         estimate D2E/DX2                !
 ! A4    A(4,2,5)              120.0464         estimate D2E/DX2                !
 ! A5    A(4,2,15)             120.2905         estimate D2E/DX2                !
 ! A6    A(5,2,15)             119.6622         estimate D2E/DX2                !
 ! A7    A(1,3,10)             121.5036         estimate D2E/DX2                !
 ! A8    A(1,3,16)             121.0358         estimate D2E/DX2                !
 ! A9    A(10,3,16)            117.4606         estimate D2E/DX2                !
 ! A10   A(1,4,2)              119.8655         estimate D2E/DX2                !
 ! A11   A(1,4,13)             120.0653         estimate D2E/DX2                !
 ! A12   A(2,4,13)             120.0691         estimate D2E/DX2                !
 ! A13   A(2,5,9)              119.2606         estimate D2E/DX2                !
 ! A14   A(2,5,10)             118.9277         estimate D2E/DX2                !
 ! A15   A(9,5,10)             121.7847         estimate D2E/DX2                !
 ! A16   A(7,6,11)             114.0117         estimate D2E/DX2                !
 ! A17   A(7,6,12)             122.6425         estimate D2E/DX2                !
 ! A18   A(11,6,12)            123.324          estimate D2E/DX2                !
 ! A19   A(6,7,17)             109.2071         estimate D2E/DX2                !
 ! A20   A(6,7,18)             109.4609         estimate D2E/DX2                !
 ! A21   A(6,7,19)             110.8402         estimate D2E/DX2                !
 ! A22   A(17,7,18)            109.4775         estimate D2E/DX2                !
 ! A23   A(17,7,19)            109.3407         estimate D2E/DX2                !
 ! A24   A(18,7,19)            108.4953         estimate D2E/DX2                !
 ! A25   A(10,8,20)            108.5576         estimate D2E/DX2                !
 ! A26   A(10,8,21)            108.0609         estimate D2E/DX2                !
 ! A27   A(10,8,22)            110.3308         estimate D2E/DX2                !
 ! A28   A(20,8,21)            111.8346         estimate D2E/DX2                !
 ! A29   A(20,8,22)            108.8393         estimate D2E/DX2                !
 ! A30   A(21,8,22)            109.2135         estimate D2E/DX2                !
 ! A31   A(5,9,11)             112.5688         estimate D2E/DX2                !
 ! A32   A(5,9,23)             110.0897         estimate D2E/DX2                !
 ! A33   A(5,9,24)             110.9919         estimate D2E/DX2                !
 ! A34   A(11,9,23)            108.8931         estimate D2E/DX2                !
 ! A35   A(11,9,24)            107.684          estimate D2E/DX2                !
 ! A36   A(23,9,24)            106.3859         estimate D2E/DX2                !
 ! A37   A(3,10,5)             120.8768         estimate D2E/DX2                !
 ! A38   A(3,10,8)             118.0307         estimate D2E/DX2                !
 ! A39   A(5,10,8)             121.0915         estimate D2E/DX2                !
 ! A40   A(6,11,9)             122.6962         estimate D2E/DX2                !
 ! A41   A(6,11,25)            118.8351         estimate D2E/DX2                !
 ! A42   A(9,11,25)            118.4399         estimate D2E/DX2                !
 ! D1    D(4,1,3,10)             0.0761         estimate D2E/DX2                !
 ! D2    D(4,1,3,16)          -179.8695         estimate D2E/DX2                !
 ! D3    D(14,1,3,10)          179.9063         estimate D2E/DX2                !
 ! D4    D(14,1,3,16)           -0.0394         estimate D2E/DX2                !
 ! D5    D(3,1,4,2)             -0.2302         estimate D2E/DX2                !
 ! D6    D(3,1,4,13)           179.6944         estimate D2E/DX2                !
 ! D7    D(14,1,4,2)           179.9426         estimate D2E/DX2                !
 ! D8    D(14,1,4,13)           -0.1328         estimate D2E/DX2                !
 ! D9    D(5,2,4,1)             -0.1835         estimate D2E/DX2                !
 ! D10   D(5,2,4,13)           179.8919         estimate D2E/DX2                !
 ! D11   D(15,2,4,1)           179.4665         estimate D2E/DX2                !
 ! D12   D(15,2,4,13)           -0.4581         estimate D2E/DX2                !
 ! D13   D(4,2,5,9)            178.9012         estimate D2E/DX2                !
 ! D14   D(4,2,5,10)             0.7539         estimate D2E/DX2                !
 ! D15   D(15,2,5,9)            -0.751          estimate D2E/DX2                !
 ! D16   D(15,2,5,10)         -178.8983         estimate D2E/DX2                !
 ! D17   D(1,3,10,5)             0.5124         estimate D2E/DX2                !
 ! D18   D(1,3,10,8)          -179.8408         estimate D2E/DX2                !
 ! D19   D(16,3,10,5)         -179.54           estimate D2E/DX2                !
 ! D20   D(16,3,10,8)            0.1067         estimate D2E/DX2                !
 ! D21   D(2,5,9,11)           -95.4331         estimate D2E/DX2                !
 ! D22   D(2,5,9,23)            26.2611         estimate D2E/DX2                !
 ! D23   D(2,5,9,24)           143.7819         estimate D2E/DX2                !
 ! D24   D(10,5,9,11)           82.6592         estimate D2E/DX2                !
 ! D25   D(10,5,9,23)         -155.6466         estimate D2E/DX2                !
 ! D26   D(10,5,9,24)          -38.1257         estimate D2E/DX2                !
 ! D27   D(2,5,10,3)            -0.9171         estimate D2E/DX2                !
 ! D28   D(2,5,10,8)           179.447          estimate D2E/DX2                !
 ! D29   D(9,5,10,3)          -179.0157         estimate D2E/DX2                !
 ! D30   D(9,5,10,8)             1.3484         estimate D2E/DX2                !
 ! D31   D(11,6,7,17)           84.4166         estimate D2E/DX2                !
 ! D32   D(11,6,7,18)         -155.743          estimate D2E/DX2                !
 ! D33   D(11,6,7,19)          -36.1056         estimate D2E/DX2                !
 ! D34   D(12,6,7,17)          -93.935          estimate D2E/DX2                !
 ! D35   D(12,6,7,18)           25.9054         estimate D2E/DX2                !
 ! D36   D(12,6,7,19)          145.5428         estimate D2E/DX2                !
 ! D37   D(7,6,11,9)           179.8597         estimate D2E/DX2                !
 ! D38   D(7,6,11,25)            1.8461         estimate D2E/DX2                !
 ! D39   D(12,6,11,9)           -1.8015         estimate D2E/DX2                !
 ! D40   D(12,6,11,25)        -179.8151         estimate D2E/DX2                !
 ! D41   D(20,8,10,3)          123.1681         estimate D2E/DX2                !
 ! D42   D(20,8,10,5)          -57.1859         estimate D2E/DX2                !
 ! D43   D(21,8,10,3)         -115.3562         estimate D2E/DX2                !
 ! D44   D(21,8,10,5)           64.2897         estimate D2E/DX2                !
 ! D45   D(22,8,10,3)            3.9822         estimate D2E/DX2                !
 ! D46   D(22,8,10,5)         -176.3719         estimate D2E/DX2                !
 ! D47   D(5,9,11,6)            85.0009         estimate D2E/DX2                !
 ! D48   D(5,9,11,25)          -96.978          estimate D2E/DX2                !
 ! D49   D(23,9,11,6)          -37.3702         estimate D2E/DX2                !
 ! D50   D(23,9,11,25)         140.6508         estimate D2E/DX2                !
 ! D51   D(24,9,11,6)         -152.336          estimate D2E/DX2                !
 ! D52   D(24,9,11,25)          25.6851         estimate D2E/DX2                !
 --------------------------------------------------------------------------------
 Trust Radius=3.00D-01 FncErr=1.00D-07 GrdErr=1.00D-06
 Number of steps in this run=    129 maximum allowed number of steps=    150.
 GradGradGradGradGradGradGradGradGradGradGradGradGradGradGradGradGradGrad

                          Input orientation:                          
 ---------------------------------------------------------------------
 Center     Atomic      Atomic             Coordinates (Angstroms)
 Number     Number       Type             X           Y           Z
 ---------------------------------------------------------------------
      1          6           0        0.988581   -0.418600    0.450008
      2          6           0        3.152421   -1.435740    0.568282
      3          6           0        0.793549   -0.754931    1.779890
      4          6           0        2.179807   -0.767031   -0.156113
      5          6           0        2.929035   -1.755377    1.917732
      6          6           0        4.168229   -4.774620    1.695769
      7          6           0        3.825058   -6.221983    1.918903
      8          6           0        1.450411   -1.733499    3.898084
      9          6           0        3.993173   -2.508074    2.685178
     10          7           0        1.739992   -1.410634    2.489070
     11          7           0        3.757174   -3.941102    2.705622
     12          8           0        4.737808   -4.377037    0.681830
     13         17           0        2.453799   -0.372951   -1.807507
     14          1           0        0.209293    0.106360   -0.092671
     15          1           0        4.089015   -1.720945    0.095755
     16          1           0       -0.128999   -0.501054    2.291674
     17          1           0        2.802136   -6.405474    1.579780
     18          1           0        4.515760   -6.851800    1.351555
     19          1           0        3.907861   -6.482718    2.977813
     20          1           0        1.548235   -2.812418    4.034560
     21          1           0        2.153887   -1.179218    4.524130
     22          1           0        0.430036   -1.436451    4.153800
     23          1           0        4.980010   -2.316931    2.246725
     24          1           0        4.044699   -2.165021    3.722414
     25          1           0        3.294693   -4.343698    3.515452
 ---------------------------------------------------------------------
                    Distance matrix (angstroms):
                    1          2          3          4          5
     1  C    0.000000
     2  C    2.393901   0.000000
     3  C    1.385548   2.737840   0.000000
     4  C    1.381234   1.384881   2.381169   0.000000
     5  C    2.776067   1.404665   2.362243   2.416403   0.000000
     6  C    5.535069   3.667590   5.249137   4.841906   3.271192
     7  C    6.624388   5.018440   6.252842   6.063748   4.555593
     8  C    3.719069   3.751410   2.424006   4.231145   2.471558
     9  C    4.288293   2.517541   3.759075   3.793739   1.512585
    10  N    2.388833   2.384327   1.352270   2.757654   1.363488
    11  N    5.016066   3.348251   4.448790   4.555473   2.466572
    12  O    5.457075   3.343288   5.466495   4.503072   3.416462
    13  Cl   2.691713   2.694803   3.971367   1.719730   4.001794
    14  H    1.085068   3.387762   2.142350   2.156331   3.860671
    15  H    3.381463   1.087122   3.824865   2.149061   2.160171
    16  H    2.155811   3.822490   1.085114   3.375351   3.326369
    17  H    6.356731   5.083707   6.000258   5.932339   4.664088
    18  H    7.391876   5.639673   7.156126   6.689854   5.367660
    19  H    7.189264   5.643449   6.628839   6.743644   4.942633
    20  H    4.346561   4.060017   3.144255   4.705766   2.739508
    21  H    4.305224   4.087984   3.092150   4.698430   2.779591
    22  H    3.881504   4.501924   2.496409   4.699486   3.368488
    23  H    4.771096   2.633202   4.492686   4.002118   2.151761
    24  H    4.806088   3.358059   4.041253   4.524949   2.160877
    25  H    5.488305   4.142738   4.706075   5.245561   3.063629
                    6          7          8          9         10
     6  C    0.000000
     7  C    1.504132   0.000000
     8  C    4.635207   5.450009   0.000000
     9  C    2.479276   3.795861   2.921771   0.000000
    10  N    4.223987   5.274625   1.474252   2.513893   0.000000
    11  N    1.372414   2.413701   3.408318   1.452475   3.243330
    12  O    1.229051   2.401519   5.304674   2.839174   4.588308
    13  Cl   5.881063   7.069488   5.950768   5.206979   4.477374
    14  H    6.534191   7.560960   4.566353   5.373030   3.362989
    15  H    3.448370   4.863424   4.628185   2.708112   3.367813
    16  H    6.089715   6.964377   2.567880   4.601660   2.087924
    17  H    2.130574   1.093180   5.387861   4.222582   5.186847
    18  H    2.133996   1.093445   6.486770   4.573796   6.213302
    19  H    2.151518   1.093677   5.425960   3.986316   5.537559
    20  H    4.023003   4.613574   1.091908   2.809125   2.095306
    21  H    4.998412   5.916883   1.092721   2.920715   2.089577
    22  H    5.582058   6.278715   1.093066   4.000146   2.118484
    23  H    2.646276   4.085439   3.940234   1.096642   3.373103
    24  H    3.306442   4.445203   2.635792   1.093709   2.720645
    25  H    2.063978   2.521549   3.218839   2.132310   3.474683
                   11         12         13         14         15
    11  N    0.000000
    12  O    2.290724   0.000000
    13  Cl   5.899052   5.238911   0.000000
    14  H    6.066288   6.419357   2.864996   0.000000
    15  H    3.442473   2.796290   2.848407   4.292644   0.000000
    16  H    5.206498   6.426558   4.846704   2.483646   4.909362
    17  H    2.872759   2.944095   6.927220   7.205824   5.079685
    18  H    3.298653   2.573381   7.497122   8.309478   5.299512
    19  H    2.560587   3.224011   7.895748   8.156177   5.568982
    20  H    2.814146   4.884897   6.395372   5.229347   4.812595
    21  H    3.674984   5.627253   6.389808   5.171945   4.862993
    22  H    4.409120   6.265662   6.384655   4.523440   5.471453
    23  H    2.084190   2.598383   5.157285   5.839936   2.403277
    24  H    2.066640   3.823423   6.026815   5.867229   3.654015
    25  H    1.015775   3.180112   6.693865   6.507016   4.382250
                   16         17         18         19         20
    16  H    0.000000
    17  H    6.630273   0.000000
    18  H    7.923987   1.785441   0.000000
    19  H    7.248953   1.784122   1.774959   0.000000
    20  H    3.345619   4.528605   5.685185   4.489505   0.000000
    21  H    3.264251   6.033504   6.915336   5.796088   1.809375
    22  H    2.157545   6.078127   7.339736   6.240435   1.777040
    23  H    5.422306   4.680185   4.645632   4.363230   3.901147
    24  H    4.715459   4.910833   5.273402   4.383567   2.597863
    25  H    5.290105   2.870602   3.530443   2.289200   2.380002
                   21         22         23         24         25
    21  H    0.000000
    22  H    1.781846   0.000000
    23  H    3.803674   5.011431   0.000000
    24  H    2.278097   3.712505   1.753722   0.000000
    25  H    3.511809   4.131081   2.925363   2.313434   0.000000
 Stoichiometry    C9H12ClN2O(1+)
 Framework group  C1[X(C9H12ClN2O)]
 Deg. of freedom    69
 Full point group                 C1      NOp   1
 Largest Abelian subgroup         C1      NOp   1
 Largest concise Abelian subgroup C1      NOp   1
                         Standard orientation:                         
 ---------------------------------------------------------------------
 Center     Atomic      Atomic             Coordinates (Angstroms)
 Number     Number       Type             X           Y           Z
 ---------------------------------------------------------------------
      1          6           0        2.504161    0.716734   -0.628590
      2          6           0        0.831261   -0.503404    0.572840
      3          6           0        1.665609    1.819590   -0.611782
      4          6           0        2.076378   -0.452923   -0.031338
      5          6           0        0.007021    0.633980    0.581367
      6          6           0       -2.732958   -1.004521   -0.131742
      7          6           0       -3.854577   -1.070951   -1.131728
      8          6           0       -0.382892    2.990040   -0.055459
      9          6           0       -1.359673    0.551809    1.224257
     10          7           0        0.447981    1.772598   -0.025430
     11          7           0       -2.411716    0.269948    0.263297
     12          8           0       -2.140341   -2.004642    0.267167
     13         17           0        3.087116   -1.844257   -0.039689
     14          1           0        3.474902    0.785473   -1.108495
     15          1           0        0.484080   -1.422911    1.037388
     16          1           0        1.963712    2.756119   -1.071696
     17          1           0       -3.450276   -0.920314   -2.136164
     18          1           0       -4.335223   -2.051478   -1.075440
     19          1           0       -4.606130   -0.303780   -0.924975
     20          1           0       -1.337316    2.747843   -0.527348
     21          1           0       -0.514086    3.336099    0.972680
     22          1           0        0.110491    3.772274   -0.638105
     23          1           0       -1.366420   -0.226608    1.996685
     24          1           0       -1.612513    1.488905    1.728363
     25          1           0       -2.949306    1.047945   -0.107533
 ---------------------------------------------------------------------
 Rotational constants (GHZ):      0.9292285      0.4569701      0.3355105
 Standard basis: 6-31G(d) (6D, 7F)
 There are   223 symmetry adapted basis functions of A   symmetry.
 Integral buffers will be    131072 words long.
 Raffenetti 2 integral format.
 Two-electron integral symmetry is turned on.
   223 basis functions,   436 primitive gaussians,   223 cartesian basis functions
    52 alpha electrons       52 beta electrons
       nuclear repulsion energy       879.1112738931 Hartrees.
 NAtoms=   25 NActive=   25 NUniq=   25 SFac= 1.00D+00 NAtFMM=   60 NAOKFM=F Big=F
 One-electron integrals computed using PRISM.
 NBasis=   223 RedAO= T  NBF=   223
 NBsUse=   223 1.00D-06 NBFU=   223
 Harris functional with IExCor=  402 diagonalized for initial guess.
 ExpMin= 1.43D-01 ExpMax= 2.52D+04 ExpMxC= 3.78D+03 IAcc=3 IRadAn=         5 AccDes= 0.00D+00
 HarFok:  IExCor=  402 AccDes= 0.00D+00 IRadAn=         5 IDoV= 1
 ScaDFX=  1.000000  1.000000  1.000000  1.000000
 FoFCou: FMM=F IPFlag=           0 FMFlag=      100000 FMFlg1=           0
         NFxFlg=           0 DoJE=T BraDBF=F KetDBF=T FulRan=T
         Omega=  0.000000  0.000000  1.000000  0.000000  0.000000 ICntrl=     500 IOpCl=  0
         NMat0=    1 NMatS0=    1 NMatT0=    0 NMatD0=    1 NMtDS0=    0 NMtDT0=    0
         I1Cent=           4 NGrid=           0.
 Petite list used in FoFCou.
 Initial guess orbital symmetries:
       Occupied  (A) (A) (A) (A) (A) (A) (A) (A) (A) (A) (A) (A)
                 (A) (A) (A) (A) (A) (A) (A) (A) (A) (A) (A) (A)
                 (A) (A) (A) (A) (A) (A) (A) (A) (A) (A) (A) (A)
                 (A) (A) (A) (A) (A) (A) (A) (A) (A) (A) (A) (A)
                 (A) (A) (A) (A)
       Virtual   (A) (A) (A) (A) (A) (A) (A) (A) (A) (A) (A) (A)
                 (A) (A) (A) (A) (A) (A) (A) (A) (A) (A) (A) (A)
                 (A) (A) (A) (A) (A) (A) (A) (A) (A) (A) (A) (A)
                 (A) (A) (A) (A) (A) (A) (A) (A) (A) (A) (A) (A)
                 (A) (A) (A) (A) (A) (A) (A) (A) (A) (A) (A) (A)
                 (A) (A) (A) (A) (A) (A) (A) (A) (A) (A) (A) (A)
                 (A) (A) (A) (A) (A) (A) (A) (A) (A) (A) (A) (A)
                 (A) (A) (A) (A) (A) (A) (A) (A) (A) (A) (A) (A)
                 (A) (A) (A) (A) (A) (A) (A) (A) (A) (A) (A) (A)
                 (A) (A) (A) (A) (A) (A) (A) (A) (A) (A) (A) (A)
                 (A) (A) (A) (A) (A) (A) (A) (A) (A) (A) (A) (A)
                 (A) (A) (A) (A) (A) (A) (A) (A) (A) (A) (A) (A)
                 (A) (A) (A) (A) (A) (A) (A) (A) (A) (A) (A) (A)
                 (A) (A) (A) (A) (A) (A) (A) (A) (A) (A) (A) (A)
                 (A) (A) (A)
 The electronic state of the initial guess is 1-A.
 Requested convergence on RMS density matrix=1.00D-08 within 128 cycles.
 Requested convergence on MAX density matrix=1.00D-06.
 Requested convergence on             energy=1.00D-06.
 No special actions if energy rises.
 Integral accuracy reduced to 1.0D-05 until final iterations.
 EnCoef did     2 forward-backward iterations
 Initial convergence to 1.0D-05 achieved.  Increase integral accuracy.
 SCF Done:  E(RB3LYP) =  -994.889788250     A.U. after   17 cycles
             Convg  =    0.5697D-08             -V/T =  2.0065
 Calling FoFJK, ICntrl=      2127 FMM=F ISym2X=0 I1Cent= 0 IOpClX= 0 NMat=1 NMatS=1 NMatT=0.
 ***** Axes restored to original set *****
 -------------------------------------------------------------------
 Center     Atomic                   Forces (Hartrees/Bohr)
 Number     Number              X              Y              Z
 -------------------------------------------------------------------
      1        6          -0.016715887    0.003677080    0.012168686
      2        6           0.005942900   -0.005845127    0.014528288
      3        6          -0.004010603    0.005222808   -0.012437112
      4        6           0.006473759    0.000734184   -0.013026871
      5        6           0.008782896    0.003110210   -0.020345803
      6        6           0.008482700   -0.005583850   -0.019760538
      7        6           0.004282466   -0.004369503    0.003895063
      8        6           0.002213653   -0.000750438    0.003999706
      9        6           0.003805444   -0.004492713    0.009953440
     10        7          -0.002903019    0.000516345   -0.000296963
     11        7          -0.006132938    0.006712138    0.008059657
     12        8          -0.006708005    0.007436498    0.012832953
     13       17           0.000233615    0.000255665   -0.000760933
     14        1           0.000333257   -0.000412097    0.001050387
     15        1          -0.001565210   -0.001868046    0.003397281
     16        1           0.002092372   -0.001230750    0.000681421
     17        1          -0.001332417   -0.002624089   -0.000418359
     18        1          -0.002396639    0.001637234   -0.000853251
     19        1          -0.002453909   -0.002937710    0.000809067
     20        1           0.000556960    0.001433630    0.002912740
     21        1          -0.001421429   -0.003087773    0.003307964
     22        1           0.002561992    0.000108076   -0.002793095
     23        1          -0.004641873   -0.000030824   -0.003051898
     24        1           0.000147369    0.001573850   -0.000501597
     25        1           0.004372547    0.000815200   -0.003350232
 -------------------------------------------------------------------
 Cartesian Forces:  Max     0.020345803 RMS     0.006247022

 GradGradGradGradGradGradGradGradGradGradGradGradGradGradGradGradGradGrad
 Berny optimization.
 Internal  Forces:  Max     0.018699557 RMS     0.004306634
 Search for a local minimum.
 Step number   1 out of a maximum of  129
 All quantities printed in internal units (Hartrees-Bohrs-Radians)
 Mixed Optimization -- RFO/linear search
 Second derivative matrix not updated -- first step.
 ITU=  0
     Eigenvalues ---    0.00599   0.00710   0.00711   0.00998   0.01257
     Eigenvalues ---    0.01425   0.01501   0.01641   0.02057   0.02118
     Eigenvalues ---    0.02168   0.02266   0.02297   0.02308   0.02308
     Eigenvalues ---    0.02319   0.04990   0.06495   0.07358   0.07510
     Eigenvalues ---    0.07545   0.07653   0.10077   0.13318   0.15994
     Eigenvalues ---    0.16000   0.16000   0.16000   0.16000   0.16000
     Eigenvalues ---    0.16000   0.16000   0.16000   0.16000   0.21962
     Eigenvalues ---    0.22001   0.22380   0.23496   0.24604   0.24986
     Eigenvalues ---    0.24990   0.25000   0.25000   0.25000   0.31092
     Eigenvalues ---    0.31948   0.33617   0.34056   0.34388   0.34391
     Eigenvalues ---    0.34418   0.34448   0.34461   0.34500   0.34593
     Eigenvalues ---    0.35147   0.35236   0.35383   0.35389   0.37923
     Eigenvalues ---    0.42304   0.45019   0.45272   0.46759   0.48425
     Eigenvalues ---    0.50515   0.51252   0.53448   0.91483
 RFO step:  Lambda=-9.66662480D-03 EMin= 5.99467262D-03
 Linear search not attempted -- first point.
 Iteration  1 RMS(Cart)=  0.14327124 RMS(Int)=  0.00618670
 Iteration  2 RMS(Cart)=  0.01318591 RMS(Int)=  0.00032356
 Iteration  3 RMS(Cart)=  0.00008905 RMS(Int)=  0.00032170
 Iteration  4 RMS(Cart)=  0.00000001 RMS(Int)=  0.00032170
 Variable       Old X    -DE/DX   Delta X   Delta X   Delta X     New X
                                 (Linear)    (Quad)   (Total)
    R1        2.61831  -0.00653   0.00000  -0.01270  -0.01270   2.60561
    R2        2.61015   0.01637   0.00000   0.03394   0.03394   2.64409
    R3        2.05048  -0.00096   0.00000  -0.00265  -0.00265   2.04783
    R4        2.61705   0.01134   0.00000   0.02353   0.02353   2.64058
    R5        2.65443  -0.01174   0.00000  -0.02630  -0.02630   2.62813
    R6        2.05436  -0.00233   0.00000  -0.00647  -0.00647   2.04790
    R7        2.55542   0.00724   0.00000   0.01262   0.01261   2.56803
    R8        2.05057  -0.00175   0.00000  -0.00480  -0.00480   2.04577
    R9        3.24982   0.00083   0.00000   0.00239   0.00239   3.25221
   R10        2.85837   0.00298   0.00000   0.00929   0.00929   2.86767
   R11        2.57662   0.00369   0.00000   0.00592   0.00591   2.58253
   R12        2.84240   0.00892   0.00000   0.02711   0.02711   2.86951
   R13        2.59349   0.00645   0.00000   0.01252   0.01252   2.60601
   R14        2.32257  -0.01129   0.00000  -0.01221  -0.01221   2.31036
   R15        2.06581   0.00182   0.00000   0.00513   0.00513   2.07094
   R16        2.06631  -0.00201   0.00000  -0.00569  -0.00569   2.06062
   R17        2.06675   0.00130   0.00000   0.00367   0.00367   2.07042
   R18        2.78593   0.00683   0.00000   0.01887   0.01887   2.80481
   R19        2.06341  -0.00100   0.00000  -0.00282  -0.00282   2.06059
   R20        2.06494  -0.00059   0.00000  -0.00165  -0.00165   2.06329
   R21        2.06560  -0.00302   0.00000  -0.00851  -0.00851   2.05708
   R22        2.74478  -0.00075   0.00000  -0.00192  -0.00192   2.74286
   R23        2.07235  -0.00296   0.00000  -0.00846  -0.00846   2.06389
   R24        2.06681   0.00003   0.00000   0.00007   0.00007   2.06688
   R25        1.91954  -0.00498   0.00000  -0.01084  -0.01084   1.90870
    A1        2.07300  -0.00265   0.00000  -0.00789  -0.00787   2.06513
    A2        2.09023   0.00064   0.00000  -0.00011  -0.00012   2.09011
    A3        2.11995   0.00201   0.00000   0.00800   0.00799   2.12794
    A4        2.09520   0.00137   0.00000   0.00556   0.00549   2.10070
    A5        2.09946   0.00260   0.00000   0.01652   0.01642   2.11589
    A6        2.08850  -0.00397   0.00000  -0.02220  -0.02228   2.06622
    A7        2.12064   0.00151   0.00000   0.00679   0.00680   2.12744
    A8        2.11247   0.00111   0.00000   0.00759   0.00759   2.12006
    A9        2.05007  -0.00262   0.00000  -0.01438  -0.01439   2.03569
   A10        2.09205  -0.00262   0.00000  -0.00715  -0.00713   2.08492
   A11        2.09554   0.00142   0.00000   0.00399   0.00398   2.09951
   A12        2.09560   0.00121   0.00000   0.00316   0.00315   2.09875
   A13        2.08149  -0.00051   0.00000  -0.00031  -0.00032   2.08117
   A14        2.07568   0.00168   0.00000   0.00303   0.00303   2.07871
   A15        2.12554  -0.00118   0.00000  -0.00291  -0.00291   2.12263
   A16        1.98988   0.01027   0.00000   0.03949   0.03949   2.02937
   A17        2.14051   0.00843   0.00000   0.03244   0.03243   2.17295
   A18        2.15241  -0.01870   0.00000  -0.07209  -0.07209   2.08032
   A19        1.90602   0.00210   0.00000   0.00896   0.00881   1.91483
   A20        1.91045  -0.00206   0.00000  -0.01317  -0.01321   1.89724
   A21        1.93453   0.00508   0.00000   0.03446   0.03431   1.96883
   A22        1.91074  -0.00195   0.00000  -0.02067  -0.02071   1.89003
   A23        1.90835  -0.00320   0.00000  -0.01672  -0.01697   1.89138
   A24        1.89360  -0.00006   0.00000   0.00644   0.00640   1.90000
   A25        1.89469   0.00368   0.00000   0.02161   0.02138   1.91607
   A26        1.88602   0.00670   0.00000   0.04088   0.04074   1.92675
   A27        1.92563  -0.00514   0.00000  -0.03166  -0.03144   1.89420
   A28        1.95188  -0.00447   0.00000  -0.02351  -0.02407   1.92781
   A29        1.89960   0.00004   0.00000  -0.00262  -0.00248   1.89712
   A30        1.90614  -0.00089   0.00000  -0.00519  -0.00489   1.90125
   A31        1.96470   0.00066   0.00000   0.00070  -0.00097   1.96372
   A32        1.92143  -0.00524   0.00000  -0.06478  -0.06571   1.85572
   A33        1.93717   0.00158   0.00000   0.03337   0.03248   1.96966
   A34        1.90054  -0.00093   0.00000  -0.03016  -0.03160   1.86894
   A35        1.87944   0.00276   0.00000   0.04821   0.04730   1.92674
   A36        1.85678   0.00132   0.00000   0.01468   0.01563   1.87241
   A37        2.10970   0.00071   0.00000  -0.00030  -0.00030   2.10940
   A38        2.06002   0.00159   0.00000   0.00765   0.00765   2.06767
   A39        2.11345  -0.00230   0.00000  -0.00736  -0.00736   2.10609
   A40        2.14145  -0.01404   0.00000  -0.06128  -0.06137   2.08009
   A41        2.07406   0.00615   0.00000   0.02519   0.02511   2.09917
   A42        2.06717   0.00787   0.00000   0.03540   0.03531   2.10248
    D1        0.00133   0.00008   0.00000   0.00274   0.00277   0.00410
    D2       -3.13932   0.00000   0.00000   0.00057   0.00058  -3.13874
    D3        3.13996   0.00004   0.00000   0.00119   0.00119   3.14115
    D4       -0.00069  -0.00004   0.00000  -0.00098  -0.00101  -0.00169
    D5       -0.00402  -0.00007   0.00000  -0.00229  -0.00233  -0.00635
    D6        3.13626  -0.00012   0.00000  -0.00398  -0.00406   3.13220
    D7        3.14059  -0.00003   0.00000  -0.00071  -0.00070   3.13989
    D8       -0.00232  -0.00008   0.00000  -0.00239  -0.00243  -0.00475
    D9       -0.00320   0.00007   0.00000   0.00222   0.00224  -0.00097
   D10        3.13971   0.00013   0.00000   0.00390   0.00397  -3.13951
   D11        3.13228  -0.00068   0.00000  -0.02135  -0.02159   3.11069
   D12       -0.00800  -0.00063   0.00000  -0.01967  -0.01986  -0.02785
   D13        3.12242  -0.00028   0.00000  -0.00897  -0.00894   3.11348
   D14        0.01316  -0.00010   0.00000  -0.00250  -0.00247   0.01068
   D15       -0.01311   0.00044   0.00000   0.01431   0.01409   0.00098
   D16       -3.12236   0.00063   0.00000   0.02078   0.02055  -3.10181
   D17        0.00894  -0.00013   0.00000  -0.00316  -0.00315   0.00580
   D18       -3.13881  -0.00017   0.00000  -0.00468  -0.00470   3.13967
   D19       -3.13356  -0.00005   0.00000  -0.00105  -0.00104  -3.13460
   D20        0.00186  -0.00009   0.00000  -0.00257  -0.00260  -0.00073
   D21       -1.66562   0.00402   0.00000   0.10778   0.10743  -1.55819
   D22        0.45834  -0.00046   0.00000   0.02332   0.02409   0.48244
   D23        2.50947  -0.00112   0.00000   0.02150   0.02103   2.53050
   D24        1.44268   0.00389   0.00000   0.10123   0.10091   1.54359
   D25       -2.71654  -0.00060   0.00000   0.01677   0.01758  -2.69897
   D26       -0.66542  -0.00126   0.00000   0.01495   0.01451  -0.65091
   D27       -0.01601   0.00010   0.00000   0.00293   0.00288  -0.01313
   D28        3.13194   0.00013   0.00000   0.00445   0.00441   3.13635
   D29       -3.12441   0.00027   0.00000   0.00952   0.00944  -3.11497
   D30        0.02353   0.00031   0.00000   0.01103   0.01098   0.03451
   D31        1.47335   0.00082   0.00000   0.00861   0.00863   1.48198
   D32       -2.71823  -0.00153   0.00000  -0.01913  -0.01919  -2.73742
   D33       -0.63016   0.00024   0.00000   0.00190   0.00176  -0.62840
   D34       -1.63947   0.00115   0.00000   0.01553   0.01567  -1.62381
   D35        0.45213  -0.00120   0.00000  -0.01222  -0.01216   0.43998
   D36        2.54020   0.00058   0.00000   0.00882   0.00880   2.54900
   D37        3.13914  -0.00123   0.00000  -0.03757  -0.03762   3.10153
   D38        0.03222  -0.00067   0.00000  -0.01457  -0.01471   0.01751
   D39       -0.03144  -0.00105   0.00000  -0.04256  -0.04242  -0.07387
   D40       -3.13837  -0.00050   0.00000  -0.01957  -0.01952   3.12530
   D41        2.14969  -0.00052   0.00000  -0.00748  -0.00775   2.14194
   D42       -0.99808  -0.00055   0.00000  -0.00898  -0.00928  -1.00736
   D43       -2.01335   0.00022   0.00000   0.00109   0.00145  -2.01190
   D44        1.12207   0.00018   0.00000  -0.00041  -0.00008   1.12199
   D45        0.06950   0.00023   0.00000   0.00121   0.00115   0.07066
   D46       -3.07827   0.00019   0.00000  -0.00029  -0.00037  -3.07864
   D47        1.48355  -0.00491   0.00000  -0.12241  -0.12245   1.36110
   D48       -1.69259  -0.00549   0.00000  -0.14550  -0.14560  -1.83818
   D49       -0.65223   0.00197   0.00000  -0.01905  -0.01940  -0.67164
   D50        2.45482   0.00139   0.00000  -0.04214  -0.04255   2.41227
   D51       -2.65876  -0.00056   0.00000  -0.04623  -0.04575  -2.70452
   D52        0.44829  -0.00114   0.00000  -0.06933  -0.06890   0.37939
         Item               Value     Threshold  Converged?
 Maximum Force            0.018700     0.000450     NO 
 RMS     Force            0.004307     0.000300     NO 
 Maximum Displacement     0.538509     0.001800     NO 
 RMS     Displacement     0.151239     0.001200     NO 
 Predicted change in Energy=-5.355129D-03
 GradGradGradGradGradGradGradGradGradGradGradGradGradGradGradGradGradGrad

                          Input orientation:                          
 ---------------------------------------------------------------------
 Center     Atomic      Atomic             Coordinates (Angstroms)
 Number     Number       Type             X           Y           Z
 ---------------------------------------------------------------------
      1          6           0        1.006736   -0.473036    0.418774
      2          6           0        3.149891   -1.568072    0.621324
      3          6           0        0.805527   -0.720915    1.760133
      4          6           0        2.201534   -0.908454   -0.164846
      5          6           0        2.910603   -1.789944    1.973245
      6          6           0        4.107357   -4.707264    1.680899
      7          6           0        3.896539   -6.208832    1.762306
      8          6           0        1.436947   -1.590065    3.955246
      9          6           0        3.941629   -2.541266    2.795023
     10          7           0        1.731262   -1.365521    2.517913
     11          7           0        3.722214   -3.976006    2.784837
     12          8           0        4.553143   -4.122512    0.704138
     13         17           0        2.499294   -0.638127   -1.838192
     14          1           0        0.244767    0.043641   -0.152870
     15          1           0        4.072317   -1.942507    0.193148
     16          1           0       -0.101132   -0.408951    2.262737
     17          1           0        2.870689   -6.454696    1.465372
     18          1           0        4.580299   -6.696166    1.066589
     19          1           0        4.070058   -6.608140    2.767704
     20          1           0        1.485021   -2.656055    4.179657
     21          1           0        2.141832   -1.036658    4.578950
     22          1           0        0.428738   -1.235165    4.161470
     23          1           0        4.906536   -2.360868    2.316236
     24          1           0        4.015180   -2.174222    3.822714
     25          1           0        3.338685   -4.441143    3.595227
 ---------------------------------------------------------------------
                    Distance matrix (angstroms):
                    1          2          3          4          5
     1  C    0.000000
     2  C    2.415211   0.000000
     3  C    1.378830   2.740548   0.000000
     4  C    1.399194   1.397333   2.385278   0.000000
     5  C    2.788429   1.390747   2.370566   2.418933   0.000000
     6  C    5.397730   3.448763   5.176807   4.633562   3.166772
     7  C    6.561661   4.836939   6.298539   5.889055   4.532454
     8  C    3.733560   3.748293   2.443898   4.245509   2.477890
     9  C    4.305546   2.509765   3.770916   3.801950   1.517504
    10  N    2.393293   2.377096   1.358945   2.761750   1.366617
    11  N    5.024229   3.287323   4.489176   4.519178   2.469061
    12  O    5.096774   2.915671   5.170165   4.076194   3.122410
    13  Cl   2.710882   2.708743   3.977894   1.720995   4.002863
    14  H    1.083665   3.411267   2.135082   2.176136   3.871574
    15  H    3.407058   1.083700   3.823564   2.167315   2.131104
    16  H    2.152133   3.821904   1.082572   3.383036   3.325882
    17  H    6.352161   4.966837   6.101477   5.819466   4.692488
    18  H    7.205370   5.342441   7.101656   6.377504   5.261266
    19  H    7.248511   5.554813   6.806745   6.676650   5.019015
    20  H    4.374765   4.076424   3.171841   4.737320   2.765987
    21  H    4.348928   4.118421   3.135464   4.745903   2.819245
    22  H    3.862990   4.477514   2.484521   4.686849   3.354960
    23  H    4.729980   2.566526   4.451626   3.947444   2.104126
    24  H    4.850936   3.371208   4.082672   4.559837   2.188218
    25  H    5.592290   4.139357   4.860510   5.283100   3.137345
                    6          7          8          9         10
     6  C    0.000000
     7  C    1.518479   0.000000
     8  C    4.692619   5.673764   0.000000
     9  C    2.441370   3.810457   2.919646   0.000000
    10  N    4.184933   5.358828   1.484240   2.518906   0.000000
    11  N    1.379040   2.462006   3.504999   1.451457   3.293899
    12  O    1.222589   2.429729   5.166591   2.691856   4.342095
    13  Cl   5.614957   6.778542   5.966464   5.212384   4.482703
    14  H    6.391667   7.489777   4.578963   5.388748   3.365782
    15  H    3.139827   4.549141   4.606818   2.673078   3.349326
    16  H    6.043625   7.061900   2.573967   4.601523   2.082741
    17  H    2.151585   1.095895   5.649755   4.269639   5.320324
    18  H    2.134662   1.090433   6.655619   4.545171   6.216038
    19  H    2.189947   1.095619   5.790044   4.068993   5.746079
    20  H    4.162679   4.927599   1.090416   2.822288   2.118373
    21  H    5.073001   6.145232   1.091846   2.947119   2.127108
    22  H    5.633909   6.520659   1.088562   3.989170   2.101152
    23  H    2.558889   4.016685   3.913890   1.092166   3.333730
    24  H    3.318459   4.531825   2.646901   1.093746   2.751869
    25  H    2.079982   2.606823   3.445993   2.147883   3.633712
                   11         12         13         14         15
    11  N    0.000000
    12  O    2.245265   0.000000
    13  Cl   5.831755   4.777308   0.000000
    14  H    6.072917   6.054205   2.896206   0.000000
    15  H    3.312785   2.290136   2.881345   4.326044   0.000000
    16  H    5.254945   6.154838   4.861311   2.481862   4.904352
    17  H    2.934278   2.974763   6.699548   7.193231   4.839661
    18  H    3.329858   2.599193   7.033361   8.106103   4.859857
    19  H    2.655074   3.266501   7.702119   8.210286   5.328834
    20  H    2.948360   4.862417   6.427697   5.253321   4.805778
    21  H    3.788960   5.509182   6.439434   5.211144   4.876740
    22  H    4.500478   6.107424   6.374919   4.503634   5.433560
    23  H    2.056910   2.413946   5.101169   5.797434   2.319149
    24  H    2.099868   3.716283   6.058329   5.911024   3.637404
    25  H    1.010038   3.151956   6.685024   6.613157   4.284336
                   16         17         18         19         20
    16  H    0.000000
    17  H    6.783697   0.000000
    18  H    7.929416   1.772033   0.000000
    19  H    7.488909   1.777104   1.778170   0.000000
    20  H    3.352602   4.870020   5.966107   4.928996   0.000000
    21  H    3.284775   6.291323   7.093154   6.167664   1.792563
    22  H    2.137424   6.362041   7.525707   6.638573   1.770591
    23  H    5.374903   4.650599   4.523589   4.352337   3.907203
    24  H    4.742756   5.018902   5.325745   4.558035   2.600245
    25  H    5.465020   2.968113   3.608427   2.432196   2.638971
                   21         22         23         24         25
    21  H    0.000000
    22  H    1.774368   0.000000
    23  H    3.810118   4.972199   0.000000
    24  H    2.318486   3.722787   1.760349   0.000000
    25  H    3.740413   4.366545   2.901985   2.376621   0.000000
 Stoichiometry    C9H12ClN2O(1+)
 Framework group  C1[X(C9H12ClN2O)]
 Deg. of freedom    69
 Full point group                 C1      NOp   1
 Largest Abelian subgroup         C1      NOp   1
 Largest concise Abelian subgroup C1      NOp   1
                         Standard orientation:                         
 ---------------------------------------------------------------------
 Center     Atomic      Atomic             Coordinates (Angstroms)
 Number     Number       Type             X           Y           Z
 ---------------------------------------------------------------------
      1          6           0        2.494665    0.666794   -0.618804
      2          6           0        0.720530   -0.461004    0.570214
      3          6           0        1.708409    1.799468   -0.623504
      4          6           0        1.989966   -0.489136   -0.013122
      5          6           0       -0.036206    0.705683    0.551032
      6          6           0       -2.613296   -1.006390   -0.124139
      7          6           0       -3.738245   -1.328835   -1.091763
      8          6           0       -0.306899    3.080268   -0.103195
      9          6           0       -1.426367    0.697669    1.159477
     10          7           0        0.473516    1.818623   -0.056579
     11          7           0       -2.450328    0.323799    0.201118
     12          8           0       -1.841998   -1.832934    0.341314
     13         17           0        2.922679   -1.935288    0.009571
     14          1           0        3.474258    0.690187   -1.081599
     15          1           0        0.289975   -1.346984    1.021953
     16          1           0        2.047192    2.720734   -1.080077
     17          1           0       -3.386482   -1.204534   -2.122198
     18          1           0       -4.030879   -2.370104   -0.953310
     19          1           0       -4.617812   -0.691602   -0.947965
     20          1           0       -1.264832    2.903778   -0.593320
     21          1           0       -0.460260    3.470284    0.905018
     22          1           0        0.252501    3.811821   -0.683600
     23          1           0       -1.417377   -0.070754    1.935540
     24          1           0       -1.684027    1.644460    1.642674
     25          1           0       -3.069469    1.022032   -0.185292
 ---------------------------------------------------------------------
 Rotational constants (GHZ):      0.8961074      0.4914528      0.3469919
 Standard basis: 6-31G(d) (6D, 7F)
 There are   223 symmetry adapted basis functions of A   symmetry.
 Integral buffers will be    131072 words long.
 Raffenetti 2 integral format.
 Two-electron integral symmetry is turned on.
   223 basis functions,   436 primitive gaussians,   223 cartesian basis functions
    52 alpha electrons       52 beta electrons
       nuclear repulsion energy       885.0845527364 Hartrees.
 NAtoms=   25 NActive=   25 NUniq=   25 SFac= 1.00D+00 NAtFMM=   60 NAOKFM=F Big=F
 One-electron integrals computed using PRISM.
 NBasis=   223 RedAO= T  NBF=   223
 NBsUse=   223 1.00D-06 NBFU=   223
 Initial guess read from the read-write file.
 B after Tr=     0.000000    0.000000    0.000000
         Rot=    1.000000    0.000000    0.000000    0.000000 Ang=   0.00 deg.
 Initial guess orbital symmetries:
       Occupied  (A) (A) (A) (A) (A) (A) (A) (A) (A) (A) (A) (A)
                 (A) (A) (A) (A) (A) (A) (A) (A) (A) (A) (A) (A)
                 (A) (A) (A) (A) (A) (A) (A) (A) (A) (A) (A) (A)
                 (A) (A) (A) (A) (A) (A) (A) (A) (A) (A) (A) (A)
                 (A) (A) (A) (A)
       Virtual   (A) (A) (A) (A) (A) (A) (A) (A) (A) (A) (A) (A)
                 (A) (A) (A) (A) (A) (A) (A) (A) (A) (A) (A) (A)
                 (A) (A) (A) (A) (A) (A) (A) (A) (A) (A) (A) (A)
                 (A) (A) (A) (A) (A) (A) (A) (A) (A) (A) (A) (A)
                 (A) (A) (A) (A) (A) (A) (A) (A) (A) (A) (A) (A)
                 (A) (A) (A) (A) (A) (A) (A) (A) (A) (A) (A) (A)
                 (A) (A) (A) (A) (A) (A) (A) (A) (A) (A) (A) (A)
                 (A) (A) (A) (A) (A) (A) (A) (A) (A) (A) (A) (A)
                 (A) (A) (A) (A) (A) (A) (A) (A) (A) (A) (A) (A)
                 (A) (A) (A) (A) (A) (A) (A) (A) (A) (A) (A) (A)
                 (A) (A) (A) (A) (A) (A) (A) (A) (A) (A) (A) (A)
                 (A) (A) (A) (A) (A) (A) (A) (A) (A) (A) (A) (A)
                 (A) (A) (A) (A) (A) (A) (A) (A) (A) (A) (A) (A)
                 (A) (A) (A) (A) (A) (A) (A) (A) (A) (A) (A) (A)
                 (A) (A) (A)
 Harris functional with IExCor=  402 diagonalized for initial guess.
 ExpMin= 1.43D-01 ExpMax= 2.52D+04 ExpMxC= 3.78D+03 IAcc=3 IRadAn=         5 AccDes= 0.00D+00
 HarFok:  IExCor=  402 AccDes= 0.00D+00 IRadAn=         5 IDoV= 1
 ScaDFX=  1.000000  1.000000  1.000000  1.000000
 FoFCou: FMM=F IPFlag=           0 FMFlag=      100000 FMFlg1=           0
         NFxFlg=           0 DoJE=T BraDBF=F KetDBF=T FulRan=T
         Omega=  0.000000  0.000000  1.000000  0.000000  0.000000 ICntrl=     500 IOpCl=  0
         NMat0=    1 NMatS0=    1 NMatT0=    0 NMatD0=    1 NMtDS0=    0 NMtDT0=    0
         I1Cent=           4 NGrid=           0.
 Petite list used in FoFCou.
 Requested convergence on RMS density matrix=1.00D-08 within 128 cycles.
 Requested convergence on MAX density matrix=1.00D-06.
 Requested convergence on             energy=1.00D-06.
 No special actions if energy rises.
 Integral accuracy reduced to 1.0D-05 until final iterations.
 Initial convergence to 1.0D-05 achieved.  Increase integral accuracy.
 SCF Done:  E(RB3LYP) =  -994.893780074     A.U. after   14 cycles
             Convg  =    0.6853D-08             -V/T =  2.0066
 Calling FoFJK, ICntrl=      2127 FMM=F ISym2X=0 I1Cent= 0 IOpClX= 0 NMat=1 NMatS=1 NMatT=0.
 ***** Axes restored to original set *****
 -------------------------------------------------------------------
 Center     Atomic                   Forces (Hartrees/Bohr)
 Number     Number              X              Y              Z
 -------------------------------------------------------------------
      1        6          -0.001246804   -0.000338056    0.002067175
      2        6          -0.000202970    0.002805468   -0.000901693
      3        6          -0.000274367    0.000751946   -0.002085266
      4        6           0.001118174   -0.000282045   -0.001649232
      5        6          -0.000591212    0.001004552   -0.004004858
      6        6          -0.001777917   -0.001635595    0.000172053
      7        6           0.001885540    0.002026214    0.000989230
      8        6          -0.001287053    0.000523670   -0.000684635
      9        6           0.004600725   -0.001206418    0.001101211
     10        7           0.000086536   -0.000063703    0.002959775
     11        7          -0.004591032   -0.001029835    0.004533585
     12        8           0.003013336   -0.003547485   -0.003953538
     13       17          -0.000240584   -0.000045848    0.001598563
     14        1           0.000289105   -0.000096277   -0.000229699
     15        1          -0.001079401    0.000007315    0.000445589
     16        1           0.000089447   -0.000145182    0.000709227
     17        1          -0.000203861    0.000003523   -0.000300046
     18        1          -0.000008387    0.000329285   -0.000976395
     19        1          -0.000659193    0.001109554   -0.000220085
     20        1           0.000756424   -0.000435208   -0.000282719
     21        1           0.000437438   -0.000118474   -0.000598891
     22        1          -0.000277353    0.000195722    0.000158210
     23        1           0.000934423    0.001353860    0.000673936
     24        1          -0.002368421   -0.001206960   -0.000940310
     25        1           0.001597408    0.000039976    0.001418811
 -------------------------------------------------------------------
 Cartesian Forces:  Max     0.004600725 RMS     0.001614057

 GradGradGradGradGradGradGradGradGradGradGradGradGradGradGradGradGradGrad
 Berny optimization.
 Using GEDIIS/GDIIS optimizer.
 Internal  Forces:  Max     0.007793932 RMS     0.001799417
 Search for a local minimum.
 Step number   2 out of a maximum of  129
 All quantities printed in internal units (Hartrees-Bohrs-Radians)
 Mixed Optimization -- RFO/linear search
 Update second derivatives using D2CorX and points    1    2
 DE= -3.99D-03 DEPred=-5.36D-03 R= 7.45D-01
 SS=  1.41D+00  RLast= 3.31D-01 DXNew= 5.0454D-01 9.9308D-01
 Trust test= 7.45D-01 RLast= 3.31D-01 DXMaxT set to 5.05D-01
 ITU=  1  0
 Use linear search instead of GDIIS.
     Eigenvalues ---    0.00621   0.00710   0.00711   0.01058   0.01222
     Eigenvalues ---    0.01410   0.01507   0.01642   0.02081   0.02119
     Eigenvalues ---    0.02172   0.02266   0.02297   0.02307   0.02309
     Eigenvalues ---    0.02319   0.05630   0.06821   0.07079   0.07369
     Eigenvalues ---    0.07506   0.07628   0.09951   0.13316   0.15553
     Eigenvalues ---    0.15982   0.15995   0.16000   0.16000   0.16000
     Eigenvalues ---    0.16000   0.16000   0.16000   0.16113   0.21520
     Eigenvalues ---    0.22368   0.22723   0.23479   0.24190   0.24610
     Eigenvalues ---    0.24995   0.24999   0.25000   0.28939   0.31007
     Eigenvalues ---    0.33057   0.33738   0.34122   0.34350   0.34397
     Eigenvalues ---    0.34429   0.34448   0.34499   0.34566   0.34676
     Eigenvalues ---    0.35066   0.35375   0.35386   0.35669   0.38193
     Eigenvalues ---    0.42245   0.44121   0.45046   0.46591   0.48238
     Eigenvalues ---    0.50074   0.51176   0.53369   0.91641
 RFO step:  Lambda=-1.26281210D-03 EMin= 6.20984944D-03
 Quartic linear search produced a step of -0.18395.
 Iteration  1 RMS(Cart)=  0.07228819 RMS(Int)=  0.00105534
 Iteration  2 RMS(Cart)=  0.00202993 RMS(Int)=  0.00017706
 Iteration  3 RMS(Cart)=  0.00000121 RMS(Int)=  0.00017706
 Iteration  4 RMS(Cart)=  0.00000000 RMS(Int)=  0.00017706
 Variable       Old X    -DE/DX   Delta X   Delta X   Delta X     New X
                                 (Linear)    (Quad)   (Total)
    R1        2.60561  -0.00153   0.00234  -0.00660  -0.00428   2.60133
    R2        2.64409   0.00102  -0.00624   0.01222   0.00597   2.65007
    R3        2.04783  -0.00013   0.00049  -0.00113  -0.00064   2.04719
    R4        2.64058  -0.00021  -0.00433   0.00700   0.00268   2.64325
    R5        2.62813   0.00032   0.00484  -0.00757  -0.00272   2.62541
    R6        2.04790  -0.00110   0.00119  -0.00458  -0.00339   2.04451
    R7        2.56803   0.00009  -0.00232   0.00401   0.00168   2.56972
    R8        2.04577   0.00021   0.00088  -0.00103  -0.00015   2.04562
    R9        3.25221  -0.00160  -0.00044  -0.00311  -0.00355   3.24866
   R10        2.86767   0.00486  -0.00171   0.01565   0.01394   2.88160
   R11        2.58253   0.00110  -0.00109   0.00357   0.00249   2.58502
   R12        2.86951  -0.00360  -0.00499  -0.00052  -0.00551   2.86400
   R13        2.60601   0.00497  -0.00230   0.01189   0.00958   2.61559
   R14        2.31036   0.00256   0.00225  -0.00145   0.00080   2.31116
   R15        2.07094   0.00027  -0.00094   0.00226   0.00132   2.07226
   R16        2.06062   0.00047   0.00105  -0.00069   0.00036   2.06098
   R17        2.07042  -0.00071  -0.00068  -0.00052  -0.00119   2.06923
   R18        2.80481  -0.00131  -0.00347   0.00294  -0.00054   2.80427
   R19        2.06059   0.00040   0.00052   0.00005   0.00057   2.06116
   R20        2.06329  -0.00012   0.00030  -0.00081  -0.00050   2.06279
   R21        2.05708   0.00035   0.00157  -0.00187  -0.00030   2.05678
   R22        2.74286   0.00277   0.00035   0.00533   0.00568   2.74854
   R23        2.06389   0.00075   0.00156  -0.00088   0.00067   2.06457
   R24        2.06688  -0.00145  -0.00001  -0.00339  -0.00341   2.06347
   R25        1.90870   0.00051   0.00199  -0.00246  -0.00046   1.90823
    A1        2.06513   0.00012   0.00145  -0.00231  -0.00088   2.06424
    A2        2.09011   0.00031   0.00002   0.00166   0.00168   2.09179
    A3        2.12794  -0.00043  -0.00147   0.00067  -0.00079   2.12715
    A4        2.10070  -0.00017  -0.00101   0.00130   0.00028   2.10098
    A5        2.11589   0.00019  -0.00302   0.00614   0.00309   2.11898
    A6        2.06622  -0.00002   0.00410  -0.00798  -0.00392   2.06230
    A7        2.12744  -0.00024  -0.00125   0.00115  -0.00012   2.12732
    A8        2.12006   0.00083  -0.00140   0.00671   0.00532   2.12538
    A9        2.03569  -0.00059   0.00265  -0.00786  -0.00521   2.03048
   A10        2.08492   0.00032   0.00131  -0.00123   0.00008   2.08500
   A11        2.09951  -0.00025  -0.00073   0.00045  -0.00028   2.09923
   A12        2.09875  -0.00007  -0.00058   0.00079   0.00021   2.09896
   A13        2.08117   0.00589   0.00006   0.01915   0.01913   2.10029
   A14        2.07871  -0.00069  -0.00056  -0.00077  -0.00140   2.07732
   A15        2.12263  -0.00518   0.00054  -0.01759  -0.01715   2.10548
   A16        2.02937  -0.00334  -0.00726   0.00246  -0.00524   2.02413
   A17        2.17295  -0.00442  -0.00597  -0.00336  -0.00976   2.16319
   A18        2.08032   0.00779   0.01326   0.00255   0.01537   2.09569
   A19        1.91483  -0.00003  -0.00162   0.00138  -0.00022   1.91461
   A20        1.89724  -0.00050   0.00243  -0.00649  -0.00405   1.89319
   A21        1.96883  -0.00090  -0.00631   0.00794   0.00165   1.97048
   A22        1.89003  -0.00001   0.00381  -0.00917  -0.00536   1.88467
   A23        1.89138   0.00029   0.00312  -0.00514  -0.00197   1.88941
   A24        1.90000   0.00120  -0.00118   0.01088   0.00971   1.90971
   A25        1.91607  -0.00070  -0.00393   0.00321  -0.00069   1.91538
   A26        1.92675  -0.00101  -0.00749   0.00771   0.00024   1.92699
   A27        1.89420   0.00059   0.00578  -0.00628  -0.00054   1.89365
   A28        1.92781   0.00026   0.00443  -0.00941  -0.00488   1.92293
   A29        1.89712   0.00051   0.00046   0.00357   0.00400   1.90113
   A30        1.90125   0.00039   0.00090   0.00118   0.00202   1.90327
   A31        1.96372   0.00471   0.00018   0.01662   0.01689   1.98062
   A32        1.85572  -0.00014   0.01209  -0.00820   0.00369   1.85941
   A33        1.96966  -0.00293  -0.00598  -0.01582  -0.02164   1.94802
   A34        1.86894   0.00120   0.00581   0.01383   0.01969   1.88864
   A35        1.92674  -0.00338  -0.00870  -0.01242  -0.02092   1.90582
   A36        1.87241   0.00074  -0.00288   0.00764   0.00472   1.87713
   A37        2.10940   0.00066   0.00006   0.00206   0.00211   2.11151
   A38        2.06767  -0.00016  -0.00141   0.00195   0.00054   2.06821
   A39        2.10609  -0.00050   0.00135  -0.00398  -0.00263   2.10346
   A40        2.08009   0.00562   0.01129  -0.00020   0.01023   2.09032
   A41        2.09917  -0.00231  -0.00462  -0.00113  -0.00663   2.09255
   A42        2.10248  -0.00337  -0.00650  -0.00283  -0.01018   2.09230
    D1        0.00410  -0.00013  -0.00051  -0.00366  -0.00420  -0.00010
    D2       -3.13874  -0.00017  -0.00011  -0.00631  -0.00640   3.13805
    D3        3.14115   0.00004  -0.00022   0.00193   0.00169  -3.14035
    D4       -0.00169  -0.00001   0.00018  -0.00072  -0.00051  -0.00220
    D5       -0.00635   0.00016   0.00043   0.00449   0.00490  -0.00145
    D6        3.13220   0.00023   0.00075   0.00698   0.00776   3.13996
    D7        3.13989  -0.00001   0.00013  -0.00123  -0.00113   3.13877
    D8       -0.00475   0.00006   0.00045   0.00126   0.00174  -0.00301
    D9       -0.00097   0.00004  -0.00041   0.00508   0.00472   0.00375
   D10       -3.13951  -0.00003  -0.00073   0.00259   0.00186  -3.13765
   D11        3.11069  -0.00018   0.00397  -0.01646  -0.01237   3.09832
   D12       -0.02785  -0.00025   0.00365  -0.01894  -0.01523  -0.04308
   D13        3.11348   0.00012   0.00164   0.00678   0.00867   3.12215
   D14        0.01068  -0.00030   0.00045  -0.01560  -0.01515  -0.00446
   D15        0.00098   0.00034  -0.00259   0.02748   0.02510   0.02608
   D16       -3.10181  -0.00009  -0.00378   0.00510   0.00128  -3.10053
   D17        0.00580  -0.00012   0.00058  -0.00707  -0.00644  -0.00064
   D18        3.13967  -0.00003   0.00086  -0.00270  -0.00175   3.13792
   D19       -3.13460  -0.00008   0.00019  -0.00456  -0.00436  -3.13897
   D20       -0.00073   0.00002   0.00048  -0.00019   0.00033  -0.00040
   D21       -1.55819  -0.00317  -0.01976  -0.03142  -0.05116  -1.60936
   D22        0.48244   0.00073  -0.00443  -0.01077  -0.01531   0.46713
   D23        2.53050  -0.00006  -0.00387  -0.01529  -0.01908   2.51141
   D24        1.54359  -0.00263  -0.01856  -0.00804  -0.02658   1.51701
   D25       -2.69897   0.00128  -0.00323   0.01261   0.00928  -2.68969
   D26       -0.65091   0.00049  -0.00267   0.00809   0.00550  -0.64540
   D27       -0.01313   0.00033  -0.00053   0.01659   0.01604   0.00291
   D28        3.13635   0.00023  -0.00081   0.01210   0.01124  -3.13559
   D29       -3.11497  -0.00036  -0.00174  -0.00720  -0.00869  -3.12366
   D30        0.03451  -0.00046  -0.00202  -0.01169  -0.01349   0.02102
   D31        1.48198   0.00064  -0.00159   0.03979   0.03803   1.52001
   D32       -2.73742   0.00031   0.00353   0.02568   0.02907  -2.70836
   D33       -0.62840   0.00089  -0.00032   0.04005   0.03959  -0.58881
   D34       -1.62381  -0.00044  -0.00288  -0.01484  -0.01758  -1.64139
   D35        0.43998  -0.00077   0.00224  -0.02894  -0.02655   0.41343
   D36        2.54900  -0.00018  -0.00162  -0.01457  -0.01602   2.53298
   D37        3.10153  -0.00047   0.00692  -0.06328  -0.05663   3.04490
   D38        0.01751   0.00080   0.00271   0.01922   0.02173   0.03924
   D39       -0.07387   0.00029   0.00780  -0.01184  -0.00384  -0.07771
   D40        3.12530   0.00157   0.00359   0.07066   0.07452  -3.08337
   D41        2.14194   0.00046   0.00143   0.00279   0.00425   2.14619
   D42       -1.00736   0.00056   0.00171   0.00717   0.00894  -0.99842
   D43       -2.01190  -0.00034  -0.00027  -0.00181  -0.00216  -2.01405
   D44        1.12199  -0.00024   0.00001   0.00257   0.00254   1.12453
   D45        0.07066  -0.00011  -0.00021   0.00033   0.00012   0.07078
   D46       -3.07864   0.00000   0.00007   0.00472   0.00482  -3.07383
   D47        1.36110   0.00302   0.02253   0.01273   0.03534   1.39644
   D48       -1.83818   0.00178   0.02678  -0.06987  -0.04288  -1.88107
   D49       -0.67164  -0.00014   0.00357   0.00504   0.00844  -0.66320
   D50        2.41227  -0.00139   0.00783  -0.07756  -0.06979   2.34248
   D51       -2.70452   0.00008   0.00842  -0.00535   0.00298  -2.70154
   D52        0.37939  -0.00116   0.01267  -0.08795  -0.07525   0.30414
         Item               Value     Threshold  Converged?
 Maximum Force            0.007794     0.000450     NO 
 RMS     Force            0.001799     0.000300     NO 
 Maximum Displacement     0.292329     0.001800     NO 
 RMS     Displacement     0.071330     0.001200     NO 
 Predicted change in Energy=-8.787053D-04
 GradGradGradGradGradGradGradGradGradGradGradGradGradGradGradGradGradGrad

                          Input orientation:                          
 ---------------------------------------------------------------------
 Center     Atomic      Atomic             Coordinates (Angstroms)
 Number     Number       Type             X           Y           Z
 ---------------------------------------------------------------------
      1          6           0        0.991421   -0.398536    0.431142
      2          6           0        3.136681   -1.506115    0.585259
      3          6           0        0.798895   -0.688629    1.762951
      4          6           0        2.185663   -0.816230   -0.173769
      5          6           0        2.900460   -1.780449    1.926571
      6          6           0        4.093789   -4.762428    1.684593
      7          6           0        3.927824   -6.260424    1.843941
      8          6           0        1.444714   -1.629900    3.924881
      9          6           0        3.926692   -2.554694    2.746723
     10          7           0        1.728000   -1.361462    2.493164
     11          7           0        3.693222   -3.990224    2.761168
     12          8           0        4.567744   -4.229763    0.690918
     13         17           0        2.478530   -0.483433   -1.834742
     14          1           0        0.229517    0.140452   -0.118935
     15          1           0        4.050832   -1.877415    0.141427
     16          1           0       -0.100033   -0.390405    2.287153
     17          1           0        2.918642   -6.555699    1.532687
     18          1           0        4.642019   -6.758972    1.187564
     19          1           0        4.081995   -6.599047    2.873779
     20          1           0        1.493946   -2.702725    4.115371
     21          1           0        2.158524   -1.101666    4.559696
     22          1           0        0.440031   -1.277083    4.150168
     23          1           0        4.898343   -2.371464    2.282045
     24          1           0        3.978922   -2.189087    3.774314
     25          1           0        3.349292   -4.435547    3.599668
 ---------------------------------------------------------------------
                    Distance matrix (angstroms):
                    1          2          3          4          5
     1  C    0.000000
     2  C    2.419219   0.000000
     3  C    1.376567   2.742351   0.000000
     4  C    1.402355   1.398749   2.385433   0.000000
     5  C    2.791132   1.389308   2.373904   2.419107   0.000000
     6  C    5.499034   3.567655   5.240067   4.760980   3.220991
     7  C    6.706727   4.981329   6.390747   6.061808   4.597008
     8  C    3.732016   3.745818   2.444793   4.243819   2.476915
     9  C    4.315871   2.528945   3.772681   3.818732   1.524879
    10  N    2.392009   2.376007   1.359835   2.760301   1.367934
    11  N    5.062507   3.348898   4.502677   4.578300   2.491612
    12  O    5.247463   3.078533   5.281392   4.251376   3.210267
    13  Cl   2.711629   2.708403   3.975761   1.719115   4.000968
    14  H    1.083324   3.414480   2.133791   2.178246   3.874002
    15  H    3.410428   1.081907   3.823304   2.168945   2.125910
    16  H    2.153164   3.823293   1.082495   3.385538   3.326440
    17  H    6.545093   5.142320   6.242504   6.032475   4.791502
    18  H    7.372529   5.497392   7.207617   6.572906   5.325866
    19  H    7.346050   5.662940   6.851695   6.806217   5.050952
    20  H    4.374398   4.073345   3.173886   4.736460   2.760385
    21  H    4.347583   4.112970   3.137033   4.742141   2.818611
    22  H    3.860962   4.475819   2.484727   4.685728   3.354322
    23  H    4.752086   2.594488   4.461711   3.975979   2.113574
    24  H    4.827839   3.368367   4.050868   4.548393   2.178123
    25  H    5.647704   4.208733   4.890546   5.356520   3.170213
                    6          7          8          9         10
     6  C    0.000000
     7  C    1.515562   0.000000
     8  C    4.674315   5.651362   0.000000
     9  C    2.455632   3.814112   2.898882   0.000000
    10  N    4.221056   5.409302   1.483956   2.514427   0.000000
    11  N    1.384111   2.459705   3.461380   1.454464   3.293071
    12  O    1.223011   2.421269   5.193373   2.728211   4.420338
    13  Cl   5.771012   7.000484   5.962921   5.232314   4.479397
    14  H    6.497965   7.648632   4.578570   5.398603   3.365153
    15  H    3.272079   4.703663   4.600830   2.694751   3.345508
    16  H    6.088169   7.132825   2.569970   4.594547   2.080167
    17  H    2.149388   1.096592   5.670851   4.300941   5.414817
    18  H    2.129268   1.090622   6.634986   4.540773   6.271301
    19  H    2.188029   1.094989   5.722979   4.049327   5.754864
    20  H    4.112206   4.872410   1.090716   2.795240   2.117858
    21  H    5.041096   6.092498   1.091580   2.919689   2.126829
    22  H    5.619309   6.505157   1.088403   3.969730   2.100392
    23  H    2.592482   4.032103   3.895688   1.092522   3.334030
    24  H    3.316958   4.506078   2.599532   1.091944   2.719000
    25  H    2.080538   2.597586   3.406587   2.144415   3.647319
                   11         12         13         14         15
    11  N    0.000000
    12  O    2.260111   0.000000
    13  Cl   5.907237   4.977827   0.000000
    14  H    6.111852   6.210866   2.896772   0.000000
    15  H    3.384507   2.470360   2.884539   4.329207   0.000000
    16  H    5.250921   6.251142   4.862886   2.485894   4.903572
    17  H    2.948016   2.972893   6.957420   7.402546   5.010369
    18  H    3.323012   2.578580   7.293656   8.293321   5.027276
    19  H    2.640034   3.257965   7.883019   8.319782   5.455320
    20  H    2.885886   4.848398   6.426391   5.254691   4.796982
    21  H    3.732797   5.527819   6.432220   5.210903   4.868646
    22  H    4.457994   6.141884   6.372167   4.503217   5.428470
    23  H    2.074190   2.468655   5.134987   5.819997   2.354698
    24  H    2.086189   3.744116   6.051607   5.885761   3.646941
    25  H    1.009793   3.160348   6.775709   6.670890   4.358397
                   16         17         18         19         20
    16  H    0.000000
    17  H    6.905974   0.000000
    18  H    8.015910   1.769310   0.000000
    19  H    7.508710   1.775893   1.783962   0.000000
    20  H    3.351115   4.852363   5.910631   4.839512   0.000000
    21  H    3.281984   6.283872   7.038760   6.063271   1.789547
    22  H    2.132767   6.392066   7.515639   6.573916   1.773245
    23  H    5.376652   4.689198   4.529219   4.346151   3.880817
    24  H    4.699444   5.021592   5.292903   4.502147   2.560322
    25  H    5.475738   2.992142   3.589943   2.396769   2.590547
                   21         22         23         24         25
    21  H    0.000000
    22  H    1.775303   0.000000
    23  H    3.782419   4.956218   0.000000
    24  H    2.261229   3.673794   1.762233   0.000000
    25  H    3.668017   4.329289   2.897608   2.339555   0.000000
 Stoichiometry    C9H12ClN2O(1+)
 Framework group  C1[X(C9H12ClN2O)]
 Deg. of freedom    69
 Full point group                 C1      NOp   1
 Largest Abelian subgroup         C1      NOp   1
 Largest concise Abelian subgroup C1      NOp   1
                         Standard orientation:                         
 ---------------------------------------------------------------------
 Center     Atomic      Atomic             Coordinates (Angstroms)
 Number     Number       Type             X           Y           Z
 ---------------------------------------------------------------------
      1          6           0        2.528620    0.684903   -0.620543
      2          6           0        0.772996   -0.487353    0.561076
      3          6           0        1.723400    1.801372   -0.613214
      4          6           0        2.044650   -0.487070   -0.021500
      5          6           0       -0.007984    0.661536    0.543723
      6          6           0       -2.688448   -0.986773   -0.144011
      7          6           0       -3.883602   -1.234917   -1.042322
      8          6           0       -0.315201    3.039690   -0.076847
      9          6           0       -1.404217    0.653068    1.156682
     10          7           0        0.487479    1.791937   -0.046151
     11          7           0       -2.454102    0.332620    0.202471
     12          8           0       -1.962989   -1.871853    0.287378
     13         17           0        3.006173   -1.912027   -0.003429
     14          1           0        3.508319    0.729668   -1.080734
     15          1           0        0.352548   -1.384046    0.996609
     16          1           0        2.041372    2.736441   -1.056312
     17          1           0       -3.584341   -1.132732   -2.092329
     18          1           0       -4.225357   -2.259007   -0.887729
     19          1           0       -4.710433   -0.542624   -0.852375
     20          1           0       -1.271680    2.850562   -0.565764
     21          1           0       -0.477430    3.412951    0.936022
     22          1           0        0.231323    3.787919   -0.647887
     23          1           0       -1.399351   -0.117969    1.930687
     24          1           0       -1.636826    1.603916    1.640543
     25          1           0       -3.084092    1.055579   -0.113956
 ---------------------------------------------------------------------
 Rotational constants (GHZ):      0.9180951      0.4687697      0.3372920
 Standard basis: 6-31G(d) (6D, 7F)
 There are   223 symmetry adapted basis functions of A   symmetry.
 Integral buffers will be    131072 words long.
 Raffenetti 2 integral format.
 Two-electron integral symmetry is turned on.
   223 basis functions,   436 primitive gaussians,   223 cartesian basis functions
    52 alpha electrons       52 beta electrons
       nuclear repulsion energy       880.3874918901 Hartrees.
 NAtoms=   25 NActive=   25 NUniq=   25 SFac= 1.00D+00 NAtFMM=   60 NAOKFM=F Big=F
 One-electron integrals computed using PRISM.
 NBasis=   223 RedAO= T  NBF=   223
 NBsUse=   223 1.00D-06 NBFU=   223
 Initial guess read from the read-write file.
 B after Tr=     0.000000    0.000000    0.000000
         Rot=    1.000000    0.000000    0.000000    0.000000 Ang=   0.00 deg.
 Initial guess orbital symmetries:
       Occupied  (A) (A) (A) (A) (A) (A) (A) (A) (A) (A) (A) (A)
                 (A) (A) (A) (A) (A) (A) (A) (A) (A) (A) (A) (A)
                 (A) (A) (A) (A) (A) (A) (A) (A) (A) (A) (A) (A)
                 (A) (A) (A) (A) (A) (A) (A) (A) (A) (A) (A) (A)
                 (A) (A) (A) (A)
       Virtual   (A) (A) (A) (A) (A) (A) (A) (A) (A) (A) (A) (A)
                 (A) (A) (A) (A) (A) (A) (A) (A) (A) (A) (A) (A)
                 (A) (A) (A) (A) (A) (A) (A) (A) (A) (A) (A) (A)
                 (A) (A) (A) (A) (A) (A) (A) (A) (A) (A) (A) (A)
                 (A) (A) (A) (A) (A) (A) (A) (A) (A) (A) (A) (A)
                 (A) (A) (A) (A) (A) (A) (A) (A) (A) (A) (A) (A)
                 (A) (A) (A) (A) (A) (A) (A) (A) (A) (A) (A) (A)
                 (A) (A) (A) (A) (A) (A) (A) (A) (A) (A) (A) (A)
                 (A) (A) (A) (A) (A) (A) (A) (A) (A) (A) (A) (A)
                 (A) (A) (A) (A) (A) (A) (A) (A) (A) (A) (A) (A)
                 (A) (A) (A) (A) (A) (A) (A) (A) (A) (A) (A) (A)
                 (A) (A) (A) (A) (A) (A) (A) (A) (A) (A) (A) (A)
                 (A) (A) (A) (A) (A) (A) (A) (A) (A) (A) (A) (A)
                 (A) (A) (A) (A) (A) (A) (A) (A) (A) (A) (A) (A)
                 (A) (A) (A)
 Harris functional with IExCor=  402 diagonalized for initial guess.
 ExpMin= 1.43D-01 ExpMax= 2.52D+04 ExpMxC= 3.78D+03 IAcc=3 IRadAn=         5 AccDes= 0.00D+00
 HarFok:  IExCor=  402 AccDes= 0.00D+00 IRadAn=         5 IDoV= 1
[...]
 98,0.00004963,-0.00000222,-0.00000457,-0.00000337,-0.00001574,-0.00003
 669,-0.00000976,0.00000590,-0.00000746,0.00000210,0.07764919,0.1130276
 8,-0.00000229,0.00000262,-0.00000701,0.00000372,0.00001225,-0.00003889
 ,0.00000729,-0.00001331,0.00000957,0.00001166,-0.00002600,0.00006360,-
 0.00000426,-0.00009527,0.00006852,0.00625894,0.00168255,0.00468977,-0.
 10973961,-0.08647042,-0.18300133,-0.00000836,0.00000324,-0.00000723,-0
 .00002773,0.00012795,0.00019945,-0.00001469,-0.00000058,0.00000821,-0.
 00111385,0.00101635,0.00042274,-0.00018322,0.00071729,0.00011787,0.000
 00474,0.00001073,-0.00003085,-0.00000012,-0.00000071,0.00000208,-0.000
 00293,-0.00000861,0.00001024,0.00000016,-0.00000377,-0.00000149,0.1192
 1100,0.09344549,0.19222781,0.00001286,0.00000043,-0.00001202,0.0000042
 5,-0.00000673,0.00001590,0.00001273,-0.00001238,0.00001180,-0.00001787
 ,0.00001482,-0.00001540,-0.00002632,0.00005177,-0.00001449,0.00395482,
 0.00069950,-0.00064450,-0.27702744,0.09098422,0.02005276,0.00001150,-0
 .00001026,0.00000884,-0.00034032,0.00015898,-0.00009848,-0.00001462,0.
 00001444,0.00000598,-0.00004689,-0.00052955,-0.00085397,0.00019276,-0.
 00029935,0.00069817,0.00000182,-0.00000314,0.00000890,-0.00000041,-0.0
 0000115,-0.00000097,0.00000258,0.00001462,-0.00000705,0.00000067,-0.00
 000489,-0.00000032,-0.01664862,0.00688550,0.00235562,0.29917119,0.0000
 1529,-0.00000137,-0.00000676,0.00001666,-0.00000169,0.00004852,0.00000
 106,-0.00002359,-0.00000065,-0.00001346,0.00002281,-0.00005053,-0.0001
 3049,0.00029631,-0.00010704,0.03525863,-0.01351465,-0.00225287,0.09507
 255,-0.08240545,-0.00620710,-0.00001015,0.00002466,0.00000260,-0.00126
 087,-0.00043320,-0.00051541,-0.00000520,0.00003730,0.00003284,-0.00220
 001,-0.00211353,0.00054545,-0.00438587,0.00032292,-0.00006106,-0.00000
 123,-0.00000944,0.00003299,-0.00000031,0.00000080,-0.00000073,0.000011
 11,0.00002069,-0.00001818,-0.00000118,-0.00000809,0.00000041,-0.014708
 95,0.00655198,0.00210938,-0.10072622,0.08950647,-0.00001412,-0.0000033
 2,0.00001621,-0.00000332,0.00002533,-0.00003997,-0.00002242,0.00001402
 ,-0.00002295,0.00002408,-0.00003276,0.00005547,0.00003185,-0.00001527,
 -0.00001199,-0.00705226,0.00073294,-0.00134108,0.01941317,-0.00543367,
 -0.04606316,0.00000136,0.00002828,-0.00002150,-0.00036186,-0.00000378,
 0.00003921,0.00002098,-0.00001667,-0.00000072,-0.00032323,-0.00086682,
 0.00028241,0.00221068,0.00138555,-0.00087619,0.00000224,0.00000983,-0.
 00002544,-0.00000033,-0.00000049,0.00000255,-0.00001193,-0.00002364,0.
 00001608,0.00000027,0.00000134,-0.00000181,-0.02147513,0.00956772,0.00
 236842,-0.02139742,0.00722115,0.04641553,-0.00000130,0.00000480,-0.000
 00115,-0.00000309,-0.00001535,0.00000723,-0.00000650,0.00000649,0.0000
 0098,-0.00002029,0.00001416,-0.00004753,0.00006572,0.00008616,0.000003
 41,-0.00284732,0.00207843,-0.00131040,-0.08203879,-0.02178217,0.087709
 12,-0.00001076,0.00003087,0.00000299,-0.00013468,0.00000207,-0.0000834
 7,-0.00001986,-0.00000702,-0.00001140,0.00002870,-0.00012571,-0.000310
 44,0.00189867,0.00071805,-0.00027553,-0.00000371,-0.00000440,0.0000187
 8,-0.00000027,0.00000298,-0.00000033,0.00000298,0.00001129,0.00000468,
 -0.00000315,0.00000600,0.00000014,0.00829407,0.00574966,-0.01703583,-0
 .00895242,-0.00738807,0.02831551,0.08349442,0.00007285,0.00003717,-0.0
 0010180,-0.00005939,-0.00004054,0.00009353,0.00012618,-0.00009430,0.00
 012554,-0.00013342,0.00001198,-0.00008252,0.00003538,0.00023946,0.0001
 4701,-0.01290765,0.00139360,0.03259526,-0.02104432,-0.06241697,0.04539
 410,0.00000143,-0.00008612,0.00008245,0.00019270,0.00044548,0.00016074
 ,-0.00010483,0.00006080,-0.00012821,0.00128401,0.00063511,-0.00203507,
 0.00111667,-0.00922988,0.00242681,-0.00000651,-0.00000828,0.00002617,0
 .00000539,0.00000498,-0.00000414,0.00006026,0.00007365,-0.00002180,-0.
 00000177,-0.00000022,0.00000248,0.00776897,0.00350314,-0.01316704,0.00
 301435,0.00270656,-0.01244775,0.02145414,0.06405895,-0.00007276,-0.000
 01625,0.00009114,-0.00001450,0.00007235,-0.00008266,-0.00007827,0.0000
 7070,-0.00010570,0.00013156,-0.00004835,0.00004503,0.00007546,-0.00007
 892,0.00002148,-0.00056746,-0.00200858,-0.00616510,0.08771340,0.048505
 17,-0.27584356,0.00000025,0.00006545,-0.00006078,-0.00022509,0.0004761
 7,0.00027965,0.00005214,-0.00005639,0.00005653,-0.00082213,-0.00120318
 ,0.00057565,0.00096714,0.00231956,0.00171308,-0.00000086,0.00000654,-0
 .00000748,-0.00000077,-0.00000343,0.00000211,-0.00001578,-0.00005459,0
 .00000038,0.00000095,0.00000397,-0.00000176,0.00914242,0.00506668,-0.0
 1732962,-0.00009548,-0.00039858,-0.00071336,-0.09670037,-0.05257233,0.
 29670964,-0.00017888,-0.00016308,0.00032089,0.00013331,0.00028855,-0.0
 0021058,-0.00133142,0.00068828,-0.00061250,0.00034915,-0.00019006,-0.0
 0014531,0.00068419,-0.00061939,0.00063619,0.00045784,0.00190955,0.0031
 1967,-0.00004419,-0.00015279,-0.00012545,-0.06215923,0.05418875,-0.005
 13214,-0.00129157,-0.00173848,0.00074689,0.00128427,-0.00759481,0.0017
 5442,0.00052326,-0.00104133,-0.00175002,-0.00021863,0.00031720,-0.0015
 7699,-0.00004393,-0.00003457,0.00019739,-0.00000874,0.00004827,0.00007
 222,0.00000626,-0.00003866,0.00005850,0.00043265,0.00019630,0.00003439
 ,0.00000725,-0.00007136,-0.00000433,-0.00003141,-0.00001608,0.00000236
 ,0.00003177,0.00000704,0.00001585,0.06114301,0.00001445,-0.00010777,0.
 00021564,-0.00002330,-0.00002423,0.00022743,-0.00137343,-0.00016974,-0
 .00051154,0.00008001,-0.00001463,-0.00017870,0.00094680,-0.00006645,0.
 00009303,0.00039519,-0.00012989,-0.00054602,0.00001199,0.00000852,-0.0
 0006385,0.05063519,-0.32147171,0.02215868,0.00005933,0.00067146,0.0004
 1527,0.00085462,-0.00470585,0.00573393,0.00091722,-0.00102049,-0.00093
 923,-0.00010127,-0.00024089,0.00013397,-0.00000414,0.00001757,0.000019
 67,-0.00000368,0.00003973,0.00004885,0.00000414,0.00001378,-0.00000932
 ,-0.00006385,-0.00008298,0.00004535,-0.00000256,-0.00001280,0.00000242
 ,-0.00001891,-0.00000994,0.00002678,0.00004532,-0.00006958,0.00003778,
 -0.05702775,0.34263726,-0.00076982,-0.00027966,-0.00172368,-0.00040431
 ,-0.00059339,-0.00045620,0.00387136,0.00104800,-0.00199547,-0.00058411
 ,0.00019351,0.00061365,-0.00149744,0.00109180,0.00120204,0.00029526,-0
 .00100065,-0.00196988,-0.00007111,0.00005709,0.00008107,-0.00234050,0.
 01214541,-0.04975471,0.00127093,0.00158096,0.00032757,-0.00769933,0.03
 790035,-0.01350954,-0.00150271,0.00041413,0.00050809,0.00004227,-0.000
 37069,0.00067229,0.00015721,0.00018150,-0.00034332,0.00006142,-0.00006
 321,-0.00034251,-0.00001469,-0.00002467,-0.00003824,0.00005462,0.00036
 163,0.00000667,0.00002806,0.00000234,-0.00003072,0.00000760,0.00001984
 ,0.00000013,0.00001710,-0.00001836,0.00002756,0.00363794,-0.02654733,0
 .06135375,-0.00016706,-0.00001171,0.00031750,-0.00001773,-0.00046400,-
 0.00039311,-0.00055747,0.00058757,-0.00038106,0.00034113,-0.00002578,-
 0.00001844,-0.00038157,0.00044150,0.00077501,0.00003730,0.00004458,0.0
 0056000,-0.00001171,-0.00002464,-0.00006671,-0.14506991,-0.08660364,-0
 .09919342,-0.00001561,0.00021790,0.00158955,0.00659240,0.00619110,0.00
 683516,0.00005548,-0.00042493,-0.00081984,-0.00003510,0.00017110,-0.00
 019677,-0.00004457,-0.00006572,0.00015572,-0.00003500,-0.00006311,0.00
 000100,-0.00002180,-0.00002439,-0.00001515,0.00010596,-0.00040395,-0.0
 0016255,-0.00000154,-0.00001688,0.00000552,0.00000030,-0.00000088,-0.0
 0000022,-0.00000052,0.00001089,-0.00000533,0.00467175,0.00414909,0.005
 46944,0.15046010,0.00001487,-0.00095044,-0.00017222,0.00007673,-0.0005
 7037,0.00015516,-0.00044599,0.00003337,0.00169215,-0.00011525,0.000142
 33,-0.00012378,0.00033988,0.00080661,-0.00069062,-0.00017015,-0.000178
 63,-0.00015048,0.00006356,0.00003777,0.00004548,-0.08773742,-0.1311397
 2,-0.09376529,-0.00034974,-0.00027094,-0.00028787,0.00925277,0.0073063
 8,0.01199511,0.00034865,0.00019158,0.00010763,0.00007788,0.00011580,0.
 00016947,0.00001161,0.00002285,0.00016147,-0.00003433,-0.00004613,0.00
 008681,-0.00001664,0.00000406,-0.00003659,0.00018041,0.00029120,0.0001
 6776,-0.00000852,0.00002722,0.00000985,0.00000924,-0.00000567,-0.00001
 159,-0.00002282,0.00001421,-0.00002185,-0.02018240,-0.01347127,-0.0195
 1693,0.09356327,0.13311564,0.00049875,0.00136263,-0.00108018,0.0003111
 6,0.00091406,-0.00012265,0.00272878,-0.00266134,-0.00087930,-0.0007327
 4,-0.00016574,0.00060040,-0.00305679,0.00049742,0.00033553,-0.00002587
 ,-0.00014673,-0.00048823,-0.00003494,0.00003592,0.00002823,-0.09448742
 ,-0.08846647,-0.14822452,-0.00034974,-0.00064871,-0.00023688,-0.016455
 33,-0.01028211,-0.03143457,-0.00008973,0.00016983,0.00054201,0.0000934
 2,-0.00007696,0.00024267,0.00009073,0.00005135,-0.00046203,0.00014020,
 0.00018062,-0.00013251,0.00005869,0.00010099,-0.00001550,-0.00024002,-
 0.00019133,-0.00020647,0.00000464,0.00000347,-0.00000553,-0.00000135,0
 .00000514,0.00000529,0.00000635,-0.00002024,0.00001338,0.00239298,0.00
 083560,0.00397442,0.10466141,0.09453143,0.17083731,0.00058273,-0.00012
 128,0.00002623,-0.00001305,0.00011299,0.00006938,0.00038712,0.00135378
 ,-0.00295476,-0.00004496,0.00013785,-0.00017480,0.00105242,-0.00023994
 ,-0.00043483,-0.00000917,-0.00015946,-0.00022679,-0.00000076,0.0000229
 5,0.00002216,-0.31715411,0.05024273,0.05464023,-0.00009376,-0.00017108
 ,-0.00010149,-0.00476804,0.00082977,0.00125233,-0.00013802,0.00011615,
 0.00025418,0.00003458,0.00002741,0.00013024,0.00003136,-0.00003766,0.0
 0000371,-0.00003239,-0.00003499,0.00001025,0.00000743,-0.00005166,0.00
 002489,0.00107402,0.00005220,-0.00080854,-0.00000080,0.00000928,0.0000
 0039,0.00000387,0.00000399,-0.00000137,-0.00000311,0.00000024,-0.00000
 333,-0.00261783,0.00020848,-0.00024197,-0.01508968,0.00444821,0.003299
 11,0.33652059,-0.00016490,-0.00009199,-0.00018081,-0.00024041,0.000535
 17,0.00036002,-0.00134606,0.00033342,0.00128513,-0.00004513,0.00004340
 ,-0.00002461,0.00022831,-0.00047013,0.00195916,0.00022170,0.00069464,0
 .00111539,-0.00001039,-0.00005656,-0.00002971,0.05572451,-0.06127392,-
 0.01118983,-0.00032176,-0.00074811,0.00038283,-0.01155485,-0.00029076,
 0.00350040,0.00141466,-0.00096391,-0.00137483,-0.00010149,0.00009801,-
 0.00058450,0.00001928,-0.00001017,0.00005910,-0.00000367,-0.00003644,-
 0.00002074,-0.00000812,-0.00013847,0.00009592,0.00032711,0.00017910,0.
 00120905,0.00000160,-0.00001994,-0.00000453,-0.00001364,-0.00000786,-0
 .00000170,0.00000915,0.00000459,0.00000653,0.03061371,-0.00118446,-0.0
 0602326,-0.01761790,0.00422324,0.00417553,-0.05682750,0.05904489,-0.00
 029657,-0.00009524,0.00030529,0.00152702,-0.00045453,-0.00070810,0.003
 08213,-0.00106788,-0.00006950,0.00039155,-0.00018695,0.00026279,-0.002
 02255,0.00338966,-0.00473439,-0.00001258,-0.00021713,-0.00040764,-0.00
 000571,0.00002964,0.00001841,0.04011867,-0.00739188,-0.05793593,-0.000
 69377,0.00013593,-0.00048601,0.03630734,-0.00563980,-0.01478477,-0.000
 36615,0.00017002,0.00053038,0.00003391,-0.00002190,0.00025058,-0.00007
 070,0.00006859,-0.00008212,-0.00002343,-0.00002889,-0.00002089,-0.0000
 6010,0.00015573,-0.00043505,-0.00080186,0.00116285,-0.00093595,0.00000
 558,0.00000230,-0.00000233,0.00000016,0.00000152,0.00000117,0.00000263
 ,-0.00001122,0.00000432,-0.00327887,-0.00090569,0.00101621,-0.01939171
 ,0.00549931,0.00621549,-0.05502175,0.00534791,0.07147088,0.00015185,-0
 .00004194,-0.00015880,0.00058166,-0.00058716,0.00178814,-0.00039641,-0
 .00025055,0.00120432,0.00016938,-0.00006221,0.00002247,-0.02360384,0.0
 0241371,0.01289768,0.00105875,0.00064660,0.00356476,-0.00010307,-0.000
 04459,-0.00006462,0.00031693,0.00000020,-0.00076253,-0.24127848,-0.011
 77488,0.11418880,-0.00289010,0.00244389,-0.00364039,-0.00005993,-0.010
 36970,0.00311884,0.00010795,0.00157078,-0.00140560,0.00002567,-0.00001
 155,-0.00003613,0.00006632,-0.00000869,-0.00005417,0.00041732,0.000186
 39,-0.00109649,-0.00021320,0.00018463,-0.00019854,-0.00001506,0.000014
 13,-0.00002733,-0.00002912,0.00005295,-0.00004431,0.00000401,0.0000505
 3,-0.00006377,0.00006467,-0.00007651,-0.00003793,0.00002943,0.00009666
 ,0.00005598,0.00004114,-0.00001555,0.00013845,0.25983688,-0.00012846,0
 .00003091,0.00024316,0.00089612,-0.00056886,-0.00036034,0.00036526,0.0
 0020708,-0.00095798,0.00017642,-0.00001429,-0.00016314,0.01287746,0.00
 083839,-0.00821887,-0.00189981,0.00231488,0.00901978,0.00123515,-0.000
 31634,0.00017190,0.00008742,-0.00022962,0.00021014,-0.01182462,-0.0474
 0101,0.00666184,0.00316181,-0.00081563,0.00245453,-0.02972888,-0.02012
 126,0.01752484,0.00104915,0.00206562,-0.00334730,-0.00002327,-0.000047
 34,0.00015906,-0.00002730,0.00000061,0.00002276,0.00006876,0.00026029,
 0.00046936,0.00009594,-0.00026478,0.00011850,-0.00005955,0.00009726,-0
 .00000456,-0.00005954,-0.00033544,-0.00012845,-0.00001113,0.00021016,-
 0.00017196,0.00015009,-0.00037329,-0.00014721,-0.00000154,0.00019199,0
 .00017561,0.00007410,0.00005603,0.00008632,0.01444329,0.06385975,-0.00
 010068,-0.00004332,0.00014037,-0.00212771,0.00089680,0.00000020,-0.000
 73306,0.00048686,0.00065830,0.00014508,-0.00031190,0.00025122,-0.01653
 076,-0.00015143,0.00796957,-0.00162738,-0.00202769,-0.00066806,0.00040
 216,0.00014605,-0.00013748,0.00027174,-0.00025021,-0.00080945,0.120484
 21,0.00557217,-0.12469478,-0.00282199,0.00209994,-0.00263074,0.0036404
 0,0.00796730,-0.00092019,0.00041246,0.00014541,0.00083390,0.00002350,0
 .00000610,-0.00005187,0.00002275,-0.00000964,-0.00001471,-0.00038139,0
 .00048578,-0.00060655,-0.00016298,0.00026796,-0.00009746,-0.00001188,0
 .00001777,0.00004233,0.00001868,-0.00006476,0.00003874,0.00000183,0.00
 006095,0.00002611,-0.00027554,0.00011932,0.00013077,0.00001623,0.00020
 551,0.00025255,0.00004399,0.00002490,0.00022396,-0.12627332,-0.0175446
 4,0.13337633,-0.00070647,-0.00020679,0.00082493,-0.00256351,0.00200313
 ,-0.00056574,-0.00032322,0.00145222,-0.00119866,0.00154209,0.00034219,
 0.00000016,-0.00458688,-0.00978475,-0.02366165,-0.00012578,-0.00129955
 ,0.00234303,0.00016208,-0.00006995,-0.00027215,-0.00100926,-0.00082914
 ,-0.00108652,-0.05690456,-0.01521068,-0.03012030,0.00192165,-0.0007598
 9,0.00066702,-0.00208932,-0.00600169,-0.00810296,0.00069274,0.00140768
 ,0.00001739,-0.00018301,-0.00001014,-0.00021361,-0.00000855,-0.0000268
 9,0.00003964,-0.00001697,-0.00008909,-0.00023429,0.00004582,0.00006671
 ,0.00007793,0.00000254,-0.00003061,-0.00000838,-0.00000667,-0.00007067
 ,0.00000798,0.00001289,0.00003120,-0.00001184,-0.00044440,-0.00010740,
 0.00025391,-0.00079091,0.00067783,0.00095466,0.00019086,0.00011720,0.0
 0026490,0.00676319,0.01223738,0.02425352,0.05725760,0.00038651,0.00004
 304,-0.00033665,0.00142664,-0.00153491,0.00100075,0.00001066,-0.000760
 04,0.00075170,-0.00078580,-0.00072309,-0.00034082,0.00188286,0.0083267
 5,0.01508613,-0.00192405,-0.00451727,0.00552948,0.00012656,-0.00048575
 ,-0.00143656,0.00062835,0.00047754,0.00046665,-0.01343100,-0.09499376,
 -0.09580679,-0.00058477,0.00080583,-0.00066040,-0.00577587,-0.02383487
 ,-0.03401384,0.00014433,0.00141450,0.00004770,0.00011663,-0.00002656,0
 .00030639,0.00002363,0.00005842,-0.00001085,0.00032310,0.00038836,0.00
 016768,-0.00003310,-0.00001103,-0.00004865,0.00004555,-0.00042681,0.00
 008552,-0.00003522,-0.00022390,-0.00001990,-0.00001703,0.00011285,0.00
 003866,-0.00021558,-0.00025448,-0.00043652,0.00022845,0.00029259,-0.00
 026727,0.00004491,-0.00011096,0.00012953,0.00125311,0.00171377,0.00165
 503,0.01568539,0.11365808,-0.00002946,-0.00014116,0.00006605,-0.002024
 73,0.00027505,-0.00028721,-0.00029106,0.00038449,-0.00026686,0.0001154
 2,0.00068998,-0.00006946,-0.00292894,-0.00318469,-0.01526664,0.0005267
 1,0.00154864,-0.00194739,-0.00018158,0.00009750,0.00025976,0.00107558,
 -0.00008202,0.00033122,-0.03257246,-0.10628609,-0.26317311,0.00164230,
 0.00011269,-0.00054342,0.00217833,0.00652201,0.00755706,-0.00033071,-0
 .00160270,0.00060508,-0.00008354,0.00007220,-0.00011453,-0.00004624,-0
 .00004915,0.00000429,-0.00029287,-0.00033247,0.00010776,-0.00000897,0.
 00004980,0.00003999,0.00001976,0.00003601,0.00001493,0.00000128,0.0000
 5602,0.00000081,0.00000417,-0.00004985,0.00000741,0.00003883,-0.000351
 38,-0.00015489,0.00022119,0.00009857,0.00026511,0.00019532,-0.00008964
 ,0.00036010,-0.00276059,-0.00623858,-0.01315752,0.03552175,0.10859784,
 0.28414707,-0.00022604,-0.00001498,0.00035308,-0.00024096,-0.00015799,
 0.00007501,-0.00051674,0.00014243,-0.00033135,0.00029067,-0.00018047,-
 0.00018313,-0.00037914,0.00190763,-0.00088627,-0.00745793,0.00289496,0
 .00857722,-0.00073624,0.00012441,-0.00123783,0.00067322,0.00098280,-0.
 00089146,-0.00408906,-0.00527720,0.01108340,0.00014495,-0.00015706,0.0
 0008929,-0.02579356,0.03235448,-0.10984597,0.00637513,0.00061772,-0.00
 034052,-0.00004487,0.00000438,0.00007939,-0.00000651,-0.00000249,0.000
 02735,0.00011740,-0.00003989,-0.00001501,-0.00007672,0.00003536,-0.000
 03871,-0.00023668,-0.00015416,0.00031393,-0.00022723,0.00048740,0.0006
 7741,0.00021252,-0.00097434,0.00057856,-0.00141915,0.00048098,-0.00000
 320,-0.00005367,-0.00007831,0.00017708,0.00003959,-0.00040586,0.000173
 41,-0.00104595,-0.00315426,0.00131016,0.00116804,0.00047573,0.00001051
 ,0.03352891,0.00016660,-0.00007687,-0.00022386,0.00107974,-0.00044750,
 0.00052152,0.00031384,-0.00006775,0.00024599,-0.00008957,0.00052973,0.
 00019717,-0.00290546,-0.00422746,0.00057590,-0.00628235,0.01908178,-0.
 01499977,0.00115941,-0.00059372,-0.00066727,-0.00033369,-0.00038845,0.
 00032395,0.00971669,-0.00944838,0.02593743,-0.00026785,0.00006443,0.00
 022922,0.02599441,-0.12439320,0.12812108,0.00125390,-0.00249064,-0.007
 86524,0.00002941,-0.00009390,0.00005157,-0.00000292,-0.00001992,-0.000
 02862,-0.00005902,-0.00026933,-0.00011797,0.00005995,0.00001190,0.0000
 4309,-0.00009260,0.00013046,0.00056913,-0.00012687,-0.00039668,-0.0000
 0712,-0.00084587,-0.00156682,-0.00003517,0.00067861,0.00002214,0.00002
 533,0.00014362,-0.00018366,-0.00011266,-0.00004149,0.00019118,-0.00015
 818,-0.00011354,-0.00135888,0.00024575,0.00047631,0.00061168,-0.000133
 05,-0.02991127,0.12537987,0.00021732,-0.00004259,-0.00017670,0.0006088
 1,-0.00025931,0.00056502,0.00015583,-0.00006132,0.00014680,-0.00034014
 ,0.00034448,-0.00016639,-0.00019137,-0.00136969,0.00009605,-0.00524343
 ,0.01717768,-0.01962613,0.00177961,0.00028560,0.00117533,-0.00008679,-
 0.00003974,0.00015742,0.00026522,-0.00428546,0.00310220,-0.00002991,0.
 00008025,0.00008016,-0.08635678,0.12791421,-0.36679082,-0.00054907,-0.
 00578705,-0.00380435,0.00000338,-0.00009785,0.00015183,-0.00000280,0.0
 0001387,-0.00001057,-0.00007717,0.00000270,-0.00003484,0.00003066,-0.0
 0000907,0.00003006,-0.00007963,0.00044486,0.00020949,-0.00004423,-0.00
 039218,-0.00012386,-0.00031848,-0.00045471,0.00073656,0.00008320,-0.00
 006066,0.00040493,0.00003655,-0.00014852,-0.00002400,-0.00000280,0.000
 00230,-0.00005688,-0.00035491,-0.00003475,-0.00015553,0.00024927,-0.00
 048482,0.00121440,0.09024766,-0.13273822,0.38289986\\-0.00000179,0.000
 00288,-0.00000061,0.00000208,0.00000009,0.00000740,0.00000219,-0.00000
 735,-0.00000159,-0.00000580,-0.00000127,-0.00000341,0.00001696,0.00000
 612,-0.00001270,0.00001705,0.00000336,-0.00001185,0.00001074,0.0000069
 4,0.00002025,-0.00000348,-0.00000184,0.00000494,0.00000220,0.00000771,
 0.00000041,-0.00001369,0.00000653,-0.00000032,-0.00000564,-0.00000786,
 0.00001732,-0.00000581,-0.00000705,-0.00000293,0.00000287,0.00000214,0
 .00000103,0.00000078,-0.00000149,-0.00000153,0.00000044,-0.00000112,0.
 00000159,-0.00000014,-0.00000066,-0.00000148,-0.00000352,-0.00000250,-
 0.00000472,-0.00000609,0.00000349,-0.00000647,-0.00000708,-0.00000419,
 -0.00000418,0.00000182,-0.00000278,0.00000102,0.00000035,-0.00000468,-
 0.00000091,0.00000260,0.00000633,-0.00000157,-0.00000169,-0.00000191,-
 0.00000028,-0.00000363,-0.00000357,-0.00000080,-0.00000173,0.00000269,
 0.00000142\\\@


 NATURE WILL TELL YOU A DIRECT LIE IF SHE CAN.

                                -- CHARLES DARWIN
 Job cpu time:  0 days  1 hours 26 minutes 38.3 seconds.
 File lengths (MBytes):  RWF=    168 Int=      0 D2E=      0 Chk=      5 Scr=      1
 Normal termination of Gaussian 09 at Fri Feb 16 20:11:32 2018.
