 Entering Gaussian System, Link 0=g09
 Initial command:
 /home/fb_chem/chemsoft/lx24-amd64/Gaussian_09_C.01_NBO_3.1_64_istanbul-64/g09/l1.exe /local/2400019.1.parallel/Gau-23751.inp -scrdir=/local/2400019.1.parallel/
 Entering Link 1 = /home/fb_chem/chemsoft/lx24-amd64/Gaussian_09_C.01_NBO_3.1_64_istanbul-64/g09/l1.exe PID=     23753.
  
 Copyright (c) 1988,1990,1992,1993,1995,1998,2003,2009,2011,
            Gaussian, Inc.  All Rights Reserved.
  
 This is part of the Gaussian(R) 09 program.  It is based on
 the Gaussian(R) 03 system (copyright 2003, Gaussian, Inc.),
 the Gaussian(R) 98 system (copyright 1998, Gaussian, Inc.),
 the Gaussian(R) 94 system (copyright 1995, Gaussian, Inc.),
 the Gaussian 92(TM) system (copyright 1992, Gaussian, Inc.),
 the Gaussian 90(TM) system (copyright 1990, Gaussian, Inc.),
 the Gaussian 88(TM) system (copyright 1988, Gaussian, Inc.),
 the Gaussian 86(TM) system (copyright 1986, Carnegie Mellon
 University), and the Gaussian 82(TM) system (copyright 1983,
 Carnegie Mellon University). Gaussian is a federally registered
 trademark of Gaussian, Inc.
  
 This software contains proprietary and confidential information,
 including trade secrets, belonging to Gaussian, Inc.
  
 This software is provided under written license and may be
 used, copied, transmitted, or stored only in accord with that
 written license.
  
 The following legend is applicable only to US Government
 contracts under FAR:
  
                    RESTRICTED RIGHTS LEGEND
  
 Use, reproduction and disclosure by the US Government is
 subject to restrictions as set forth in subparagraphs (a)
 and (c) of the Commercial Computer Software - Restricted
 Rights clause in FAR 52.227-19.
  
 Gaussian, Inc.
 340 Quinnipiac St., Bldg. 40, Wallingford CT 06492
  
  
 ---------------------------------------------------------------
 Warning -- This program may not be used in any manner that
 competes with the business of Gaussian, Inc. or will provide
 assistance to any competitor of Gaussian, Inc.  The licensee
 of this program is prohibited from giving any competitor of
 Gaussian, Inc. access to this program.  By using this program,
 the user acknowledges that Gaussian, Inc. is engaged in the
 business of creating and licensing software in the field of
 computational chemistry and represents and warrants to the
 licensee that it is not a competitor of Gaussian, Inc. and that
 it will not use this program in any manner prohibited above.
 ---------------------------------------------------------------
  

 Cite this work as:
 Gaussian 09, Revision C.01,
 M. J. Frisch, G. W. Trucks, H. B. Schlegel, G. E. Scuseria, 
 M. A. Robb, J. R. Cheeseman, G. Scalmani, V. Barone, B. Mennucci, 
 G. A. Petersson, H. Nakatsuji, M. Caricato, X. Li, H. P. Hratchian, 
 A. F. Izmaylov, J. Bloino, G. Zheng, J. L. Sonnenberg, M. Hada, 
 M. Ehara, K. Toyota, R. Fukuda, J. Hasegawa, M. Ishida, T. Nakajima, 
 Y. Honda, O. Kitao, H. Nakai, T. Vreven, J. A. Montgomery, Jr., 
 J. E. Peralta, F. Ogliaro, M. Bearpark, J. J. Heyd, E. Brothers, 
 K. N. Kudin, V. N. Staroverov, T. Keith, R. Kobayashi, J. Normand, 
 K. Raghavachari, A. Rendell, J. C. Burant, S. S. Iyengar, J. Tomasi, 
 M. Cossi, N. Rega, J. M. Millam, M. Klene, J. E. Knox, J. B. Cross, 
 V. Bakken, C. Adamo, J. Jaramillo, R. Gomperts, R. E. Stratmann, 
 O. Yazyev, A. J. Austin, R. Cammi, C. Pomelli, J. W. Ochterski, 
 R. L. Martin, K. Morokuma, V. G. Zakrzewski, G. A. Voth, 
 P. Salvador, J. J. Dannenberg, S. Dapprich, A. D. Daniels, 
 O. Farkas, J. B. Foresman, J. V. Ortiz, J. Cioslowski, 
 and D. J. Fox, Gaussian, Inc., Wallingford CT, 2010.
 
 ******************************************
 Gaussian 09:  AM64L-G09RevC.01 23-Sep-2011
                17-Feb-2018 
 ******************************************
 %nprocs=2
 Will use up to    2 processors via shared memory.
 %chk=frag21-conf1.chk
 ----------------------------------------------------------------------
 #HF/6-31G* Geom=AllCheck Guess=Read Pop=(MK,ReadRadii) Integral=(Grid=
 UltraFine) iop(6/33=2)
 ----------------------------------------------------------------------
 1/29=7,38=1/1;
 2/12=2,40=1/2;
 3/5=1,6=6,7=1,11=9,14=-4,16=1,25=1,30=1,75=-5,116=-2/1,2,3;
 4/5=1/1;
 5/5=2,38=6/2;
 6/7=2,8=2,9=2,10=2,15=8,20=101,28=1,33=2/1,2;
 99/5=1,9=1/99;
 Structure from the checkpoint file:  frag21-conf1.chk
 -----------------------------
 Optimization for frag21-conf1
 -----------------------------
 Charge =  1 Multiplicity = 1
 Redundant internal coordinates found in file.
 C,0,1.0055178811,-0.3675980864,0.4538551674
 C,0,3.2190803811,-1.3249279798,0.5417247588
 C,0,0.8117928654,-0.8123530643,1.7417111511
 C,0,2.237820314,-0.6254893285,-0.1611249494
 C,0,2.9866355281,-1.7517616422,1.8426501696
 C,0,3.7567619172,-4.7481075812,1.7476935238
 C,0,3.7171223765,-6.2286767495,2.0507730486
 C,0,1.4973793951,-1.9027781204,3.8174995915
 C,0,4.0630239879,-2.4928539746,2.6194035501
 N,0,1.7789180429,-1.4830766812,2.4236641672
 N,0,3.7355757452,-3.8951884252,2.8462558617
 O,0,3.8017799661,-4.2813335097,0.6199101672
 Cl,0,2.5316128682,-0.098104163,-1.7698549685
 H,0,0.2141608103,0.1639464655,-0.0609540324
 H,0,4.1615558833,-1.5765858325,0.0726814526
 H,0,-0.1182351493,-0.6450114788,2.2703801577
 H,0,3.1012947925,-6.7267925434,1.2988631918
 H,0,4.7313968702,-6.6364966551,1.9685457433
 H,0,3.3306551849,-6.4531576839,3.0490385594
 H,0,1.7018749728,-2.9685245737,3.9167973124
 H,0,2.1223184083,-1.3302089185,4.5073269744
 H,0,0.4493060195,-1.7057350423,4.037150131
 H,0,4.9920884705,-2.3955890432,2.0483148417
 H,0,4.2190722564,-2.014691847,3.591219447
 H,0,3.9671545508,-4.2798497184,3.7542105312
 Recover connectivity data from disk.
                          Input orientation:                          
 ---------------------------------------------------------------------
 Center     Atomic      Atomic             Coordinates (Angstroms)
 Number     Number       Type             X           Y           Z
 ---------------------------------------------------------------------
      1          6           0        1.005518   -0.367598    0.453855
      2          6           0        3.219080   -1.324928    0.541725
      3          6           0        0.811793   -0.812353    1.741711
      4          6           0        2.237820   -0.625489   -0.161125
      5          6           0        2.986636   -1.751762    1.842650
      6          6           0        3.756762   -4.748108    1.747694
      7          6           0        3.717122   -6.228677    2.050773
      8          6           0        1.497379   -1.902778    3.817500
      9          6           0        4.063024   -2.492854    2.619404
     10          7           0        1.778918   -1.483077    2.423664
     11          7           0        3.735576   -3.895188    2.846256
     12          8           0        3.801780   -4.281334    0.619910
     13         17           0        2.531613   -0.098104   -1.769855
     14          1           0        0.214161    0.163946   -0.060954
     15          1           0        4.161556   -1.576586    0.072681
     16          1           0       -0.118235   -0.645011    2.270380
     17          1           0        3.101295   -6.726793    1.298863
     18          1           0        4.731397   -6.636497    1.968546
     19          1           0        3.330655   -6.453158    3.049039
     20          1           0        1.701875   -2.968525    3.916797
     21          1           0        2.122318   -1.330209    4.507327
     22          1           0        0.449306   -1.705735    4.037150
     23          1           0        4.992088   -2.395589    2.048315
     24          1           0        4.219072   -2.014692    3.591219
     25          1           0        3.967155   -4.279850    3.754211
 ---------------------------------------------------------------------
                    Distance matrix (angstroms):
                    1          2          3          4          5
     1  C    0.000000
     2  C    2.413309   0.000000
     3  C    1.376194   2.738199   0.000000
     4  C    1.401170   1.395021   2.385216   0.000000
     5  C    2.787380   1.388749   2.371206   2.417505   0.000000
     6  C    5.332188   3.669008   4.915592   4.790277   3.095190
     7  C    6.652457   5.154806   6.154106   6.202946   4.540891
     8  C    3.729988   3.745513   2.442939   4.243722   2.478048
     9  C    4.307512   2.528446   3.763633   3.814414   1.520255
    10  N    2.392193   2.375031   1.360243   2.761735   1.366876
    11  N    5.061689   3.490540   4.390034   4.688128   2.482421
    12  O    4.812897   3.014297   4.715112   4.052306   2.925455
    13  Cl   2.710439   2.705755   3.974799   1.718273   3.998978
    14  H    1.083427   3.407273   2.135398   2.174498   3.870434
    15  H    3.401106   1.082402   3.819768   2.158705   2.131646
    16  H    2.153960   3.819452   1.082796   3.385793   3.323864
    17  H    6.748753   5.455939   6.357557   6.332697   5.005975
    18  H    7.448191   5.704006   7.023916   6.847308   5.188514
    19  H    7.012509   5.709449   6.314463   6.742489   4.865886
    20  H    4.386536   4.049004   3.189408   4.733551   2.726391
    21  H    4.313293   4.114476   3.103914   4.722755   2.832888
    22  H    3.865228   4.476010   2.489692   4.689481   3.354995
    23  H    4.748452   2.561188   4.480571   3.949794   2.116283
    24  H    4.783608   3.282556   4.059046   4.464900   2.155348
    25  H    5.913489   4.428458   5.101960   5.628037   3.317636
                    6          7          8          9         10
     6  C    0.000000
     7  C    1.511792   0.000000
     8  C    4.181484   5.173198   0.000000
     9  C    2.437179   3.794649   2.892431   0.000000
    10  N    3.876755   5.139689   1.482630   2.505016   0.000000
    11  N    1.390956   2.465421   3.150006   1.457816   3.134546
    12  O    1.221393   2.417991   4.603517   2.695344   3.895605
    13  Cl   5.957908   7.320284   5.961964   5.229306   4.479989
    14  H    6.320562   7.589187   4.578253   5.390422   3.366672
    15  H    3.609442   5.074674   4.607375   2.708330   3.348556
    16  H    5.667822   6.777574   2.566275   4.584677   2.079673
    17  H    2.132201   1.092122   5.673375   4.538170   5.523623
    18  H    2.136516   1.096281   6.023752   4.247365   5.956677
    19  H    2.186838   1.093747   4.965620   4.050303   5.244110
    20  H    3.477713   4.262847   1.089722   2.735785   2.107590
    21  H    4.687111   5.707280   1.092816   2.946580   2.117296
    22  H    5.043501   5.922949   1.088821   3.960874   2.102566
    23  H    2.674088   4.039568   3.947894   1.094881   3.361254
    24  H    3.329246   4.514709   2.733375   1.094265   2.756837
    25  H    2.071145   2.600412   3.428449   2.119040   3.792186
                   11         12         13         14         15
    11  N    0.000000
    12  O    2.260554   0.000000
    13  Cl   6.097201   4.982340   0.000000
    14  H    6.109731   5.752834   2.891297   0.000000
    15  H    3.640068   2.782905   2.870115   4.316160   0.000000
    16  H    5.074164   5.595838   4.862541   2.489984   4.900441
    17  H    3.288574   2.632855   7.326737   7.593874   5.399287
    18  H    3.045785   2.868763   7.846354   8.412510   5.433389
    19  H    2.597747   3.292331   8.015417   7.947997   5.773218
    20  H    2.478044   4.123413   6.423846   5.277137   4.771242
    21  H    3.455557   5.161563   6.410040   5.171340   4.887256
    22  H    4.124500   5.436020   6.375091   4.510594   5.432724
    23  H    2.112897   2.648246   5.090265   5.816256   2.294271
    24  H    2.079665   3.760382   5.938177   5.841588   3.546175
    25  H    1.012904   3.138660   7.075527   6.956132   4.571552
                   16         17         18         19         20
    16  H    0.000000
    17  H    6.949624   0.000000
    18  H    7.714138   1.764614   0.000000
    19  H    6.799685   1.786224   1.778526   0.000000
    20  H    3.379675   4.789210   5.140788   3.943171   0.000000
    21  H    3.239368   6.354191   6.435013   5.461803   1.791529
    22  H    2.137455   6.304148   6.850389   5.640617   1.782709
    23  H    5.406408   4.784987   4.249661   4.497296   3.826877
    24  H    4.736336   5.358005   4.925102   4.558862   2.711472
    25  H    5.666058   3.572950   3.053924   2.371849   2.622499
                   21         22         23         24         25
    21  H    0.000000
    22  H    1.777936   0.000000
    23  H    3.926494   5.006819   0.000000
    24  H    2.388336   3.808602   1.767255   0.000000
    25  H    3.559633   4.368224   2.740622   2.284944   0.000000
 Stoichiometry    C9H12ClN2O(1+)
 Framework group  C1[X(C9H12ClN2O)]
 Deg. of freedom    69
 Full point group                 C1      NOp   1
 Largest Abelian subgroup         C1      NOp   1
 Largest concise Abelian subgroup C1      NOp   1
                         Standard orientation:                         
 ---------------------------------------------------------------------
 Center     Atomic      Atomic             Coordinates (Angstroms)
 Number     Number       Type             X           Y           Z
 ---------------------------------------------------------------------
      1          6           0        2.367648    0.887654   -0.717153
      2          6           0        0.928915   -0.483926    0.651378
      3          6           0        1.374750    1.840540   -0.725510
      4          6           0        2.143360   -0.301180   -0.010296
      5          6           0       -0.045789    0.504921    0.623863
      6          6           0       -2.584321   -1.034264   -0.251904
      7          6           0       -3.907635   -1.310353   -0.928756
      8          6           0       -0.806897    2.747791   -0.104813
      9          6           0       -1.360407    0.318470    1.364262
     10          7           0        0.198366    1.658651   -0.067257
     11          7           0       -2.498159    0.152784    0.467995
     12          8           0       -1.618004   -1.779120   -0.308652
     13         17           0        3.346517   -1.527292    0.028723
     14          1           0        3.293196    1.064385   -1.251887
     15          1           0        0.713644   -1.411803    1.165475
     16          1           0        1.487527    2.778903   -1.253906
     17          1           0       -3.718274   -1.780064   -1.896353
     18          1           0       -4.476225   -2.024483   -0.321669
     19          1           0       -4.514468   -0.411370   -1.069705
     20          1           0       -1.761908    2.339843   -0.435006
     21          1           0       -0.906412    3.190844    0.889192
     22          1           0       -0.469634    3.511054   -0.804250
     23          1           0       -1.240732   -0.557287    2.010398
     24          1           0       -1.552781    1.182199    2.007986
     25          1           0       -3.359871    0.616766    0.729048
 ---------------------------------------------------------------------
 Rotational constants (GHZ):      1.0496852      0.4445341      0.3466577
 Standard basis: 6-31G(d) (6D, 7F)
 There are   223 symmetry adapted basis functions of A   symmetry.
 Integral buffers will be    131072 words long.
 Raffenetti 1 integral format.
 Two-electron integral symmetry is turned on.
   223 basis functions,   436 primitive gaussians,   223 cartesian basis functions
    52 alpha electrons       52 beta electrons
       nuclear repulsion energy       886.9540185237 Hartrees.
 NAtoms=   25 NActive=   25 NUniq=   25 SFac= 1.00D+00 NAtFMM=   60 NAOKFM=F Big=F
 One-electron integrals computed using PRISM.
 NBasis=   223 RedAO= T  NBF=   223
 NBsUse=   223 1.00D-06 NBFU=   223
 Initial guess read from the checkpoint file:  frag21-conf1.chk
 B after Tr=     0.000000    0.000000    0.000000
         Rot=    1.000000    0.000000    0.000000    0.000000 Ang=   0.00 deg.
 Initial guess orbital symmetries:
       Occupied  (A) (A) (A) (A) (A) (A) (A) (A) (A) (A) (A) (A)
                 (A) (A) (A) (A) (A) (A) (A) (A) (A) (A) (A) (A)
                 (A) (A) (A) (A) (A) (A) (A) (A) (A) (A) (A) (A)
                 (A) (A) (A) (A) (A) (A) (A) (A) (A) (A) (A) (A)
                 (A) (A) (A) (A)
       Virtual   (A) (A) (A) (A) (A) (A) (A) (A) (A) (A) (A) (A)
                 (A) (A) (A) (A) (A) (A) (A) (A) (A) (A) (A) (A)
                 (A) (A) (A) (A) (A) (A) (A) (A) (A) (A) (A) (A)
                 (A) (A) (A) (A) (A) (A) (A) (A) (A) (A) (A) (A)
                 (A) (A) (A) (A) (A) (A) (A) (A) (A) (A) (A) (A)
                 (A) (A) (A) (A) (A) (A) (A) (A) (A) (A) (A) (A)
                 (A) (A) (A) (A) (A) (A) (A) (A) (A) (A) (A) (A)
                 (A) (A) (A) (A) (A) (A) (A) (A) (A) (A) (A) (A)
                 (A) (A) (A) (A) (A) (A) (A) (A) (A) (A) (A) (A)
                 (A) (A) (A) (A) (A) (A) (A) (A) (A) (A) (A) (A)
                 (A) (A) (A) (A) (A) (A) (A) (A) (A) (A) (A) (A)
                 (A) (A) (A) (A) (A) (A) (A) (A) (A) (A) (A) (A)
                 (A) (A) (A) (A) (A) (A) (A) (A) (A) (A) (A) (A)
                 (A) (A) (A) (A) (A) (A) (A) (A) (A) (A) (A) (A)
                 (A) (A) (A)
 Requested convergence on RMS density matrix=1.00D-08 within 128 cycles.
 Requested convergence on MAX density matrix=1.00D-06.
 Requested convergence on             energy=1.00D-06.
 No special actions if energy rises.
 SCF Done:  E(RHF) =  -990.849404269     A.U. after   14 cycles
             Convg  =    0.4268D-08             -V/T =  2.0016

 **********************************************************************

            Population analysis using the SCF density.

 **********************************************************************

 Orbital symmetries:
 BldTbl:  Degeneracy threshold= 1.00D-02
       Occupied  (A) (A) (A) (A) (A) (A) (A) (A) (A) (A) (A) (A)
                 (A) (A) (A) (A) (A) (A) (A) (A) (A) (A) (A) (A)
                 (A) (A) (A) (A) (A) (A) (A) (A) (A) (A) (A) (A)
                 (A) (A) (A) (A) (A) (A) (A) (A) (A) (A) (A) (A)
                 (A) (A) (A) (A)
       Virtual   (A) (A) (A) (A) (A) (A) (A) (A) (A) (A) (A) (A)
                 (A) (A) (A) (A) (A) (A) (A) (A) (A) (A) (A) (A)
                 (A) (A) (A) (A) (A) (A) (A) (A) (A) (A) (A) (A)
                 (A) (A) (A) (A) (A) (A) (A) (A) (A) (A) (A) (A)
                 (A) (A) (A) (A) (A) (A) (A) (A) (A) (A) (A) (A)
                 (A) (A) (A) (A) (A) (A) (A) (A) (A) (A) (A) (A)
                 (A) (A) (A) (A) (A) (A) (A) (A) (A) (A) (A) (A)
                 (A) (A) (A) (A) (A) (A) (A) (A) (A) (A) (A) (A)
                 (A) (A) (A) (A) (A) (A) (A) (A) (A) (A) (A) (A)
                 (A) (A) (A) (A) (A) (A) (A) (A) (A) (A) (A) (A)
                 (A) (A) (A) (A) (A) (A) (A) (A) (A) (A) (A) (A)
                 (A) (A) (A) (A) (A) (A) (A) (A) (A) (A) (A) (A)
                 (A) (A) (A) (A) (A) (A) (A) (A) (A) (A) (A) (A)
                 (A) (A) (A) (A) (A) (A) (A) (A) (A) (A) (A) (A)
                 (A) (A) (A)
 The electronic state is 1-A.
 Alpha  occ. eigenvalues -- -104.98022 -20.66172 -15.84780 -15.73570 -11.50010
 Alpha  occ. eigenvalues --  -11.49363 -11.48721 -11.48666 -11.44414 -11.44281
 Alpha  occ. eigenvalues --  -11.42576 -11.42029 -11.35094 -10.71330  -8.18270
 Alpha  occ. eigenvalues --   -8.17901  -8.17883  -1.51744  -1.50862  -1.37161
 Alpha  occ. eigenvalues --   -1.34269  -1.25152  -1.24112  -1.14744  -1.13647
 Alpha  occ. eigenvalues --   -1.09439  -1.05914  -0.99383  -0.92728  -0.88877
 Alpha  occ. eigenvalues --   -0.87780  -0.84396  -0.83109  -0.80853  -0.79005
 Alpha  occ. eigenvalues --   -0.78360  -0.78126  -0.74367  -0.74144  -0.71919
 Alpha  occ. eigenvalues --   -0.71321  -0.70990  -0.70708  -0.68812  -0.67035
 Alpha  occ. eigenvalues --   -0.65093  -0.63125  -0.60133  -0.56442  -0.54233
 Alpha  occ. eigenvalues --   -0.53827  -0.51988
 Alpha virt. eigenvalues --   -0.09444  -0.04412   0.04359   0.06159   0.06806
 Alpha virt. eigenvalues --    0.09676   0.11274   0.12496   0.13526   0.14461
 Alpha virt. eigenvalues --    0.15466   0.16261   0.17073   0.17499   0.19366
 Alpha virt. eigenvalues --    0.20103   0.21640   0.23243   0.24586   0.25776
 Alpha virt. eigenvalues --    0.28659   0.29535   0.29652   0.32290   0.34600
 Alpha virt. eigenvalues --    0.35923   0.43023   0.43841   0.44800   0.46259
 Alpha virt. eigenvalues --    0.49587   0.49985   0.50773   0.52744   0.55413
 Alpha virt. eigenvalues --    0.57360   0.59683   0.60581   0.61431   0.62636
 Alpha virt. eigenvalues --    0.64241   0.64406   0.66157   0.67093   0.67917
 Alpha virt. eigenvalues --    0.69660   0.72049   0.72744   0.73938   0.76390
 Alpha virt. eigenvalues --    0.78049   0.78939   0.80439   0.82761   0.83972
 Alpha virt. eigenvalues --    0.86356   0.88558   0.88827   0.92301   0.92585
 Alpha virt. eigenvalues --    0.93458   0.95372   0.96800   0.97714   0.98229
 Alpha virt. eigenvalues --    0.98656   1.00074   1.00876   1.01504   1.03364
 Alpha virt. eigenvalues --    1.04043   1.04928   1.05185   1.07441   1.07716
 Alpha virt. eigenvalues --    1.08579   1.09590   1.10541   1.11657   1.15160
 Alpha virt. eigenvalues --    1.16217   1.19599   1.23147   1.26014   1.27878
 Alpha virt. eigenvalues --    1.29641   1.30242   1.33685   1.36064   1.37835
 Alpha virt. eigenvalues --    1.38647   1.44728   1.45733   1.46998   1.51248
 Alpha virt. eigenvalues --    1.52169   1.54020   1.54607   1.59093   1.60621
 Alpha virt. eigenvalues --    1.62927   1.65824   1.71990   1.75745   1.78219
 Alpha virt. eigenvalues --    1.82438   1.86704   1.93041   1.94121   1.96181
 Alpha virt. eigenvalues --    1.98513   1.99933   2.00231   2.02348   2.05009
 Alpha virt. eigenvalues --    2.07314   2.09104   2.10515   2.14727   2.15259
 Alpha virt. eigenvalues --    2.16056   2.20295   2.23607   2.25714   2.26604
 Alpha virt. eigenvalues --    2.28347   2.31640   2.33276   2.37002   2.38107
 Alpha virt. eigenvalues --    2.39271   2.41523   2.42963   2.44716   2.46658
 Alpha virt. eigenvalues --    2.48062   2.49821   2.53679   2.56087   2.59346
 Alpha virt. eigenvalues --    2.64765   2.71295   2.74302   2.76813   2.79495
 Alpha virt. eigenvalues --    2.82193   2.84357   2.87101   2.89116   2.93666
 Alpha virt. eigenvalues --    2.97024   2.98284   3.04002   3.10207   3.23987
 Alpha virt. eigenvalues --    3.27358   3.34569   3.58754   4.24605   4.27652
 Alpha virt. eigenvalues --    4.30158   4.34914   4.39759   4.47475   4.53124
 Alpha virt. eigenvalues --    4.55879   4.61628   4.63599   4.70443   4.78432
 Alpha virt. eigenvalues --    4.91365
          Condensed to atoms (all electrons):
              1          2          3          4          5          6
     1  C    5.018624  -0.054078   0.564109   0.478748  -0.016776  -0.000007
     2  C   -0.054078   5.013969  -0.021049   0.477139   0.565905   0.000578
     3  C    0.564109  -0.021049   4.705757  -0.045535  -0.056472   0.000009
     4  C    0.478748   0.477139  -0.045535   4.997294  -0.039009   0.000020
     5  C   -0.016776   0.565905  -0.056472  -0.039009   4.660023  -0.004952
     6  C   -0.000007   0.000578   0.000009   0.000020  -0.004952   4.214735
     7  C    0.000000   0.000025   0.000000  -0.000001  -0.000270   0.354606
     8  C    0.003207   0.001999  -0.033897  -0.000091  -0.030384   0.000065
     9  C   -0.000060  -0.029897   0.001792   0.002804   0.308793  -0.031915
    10  N   -0.030383  -0.034330   0.357010  -0.032571   0.331928  -0.000014
    11  N   -0.000001  -0.001310  -0.000019  -0.000045  -0.063821   0.237746
    12  O    0.000002  -0.000521   0.000041  -0.000210  -0.005325   0.586382
    13  Cl  -0.066844  -0.067675   0.002659   0.252696   0.002381   0.000001
    14  H    0.373717   0.001899  -0.020768  -0.019493   0.000079   0.000000
    15  H    0.001939   0.370072   0.000044  -0.020884  -0.018038   0.000005
    16  H   -0.019403  -0.000143   0.382866   0.002132   0.001990   0.000001
    17  H    0.000000   0.000001   0.000000   0.000000   0.000015  -0.029895
    18  H    0.000000   0.000000   0.000000   0.000000  -0.000002  -0.026480
    19  H    0.000000  -0.000001   0.000000   0.000000  -0.000020  -0.038168
    20  H   -0.000091   0.000064   0.001218   0.000020  -0.004003   0.000138
    21  H   -0.000125   0.000007   0.000026   0.000034  -0.001513  -0.000005
    22  H    0.000616  -0.000055  -0.001440  -0.000024   0.002099   0.000002
    23  H   -0.000009  -0.000408  -0.000078   0.000347  -0.053026  -0.000510
    24  H    0.000005   0.001461   0.000000  -0.000069  -0.043879   0.003742
    25  H    0.000000  -0.000045   0.000001   0.000001   0.003983  -0.013147
              7          8          9         10         11         12
     1  C    0.000000   0.003207  -0.000060  -0.030383  -0.000001   0.000002
     2  C    0.000025   0.001999  -0.029897  -0.034330  -0.001310  -0.000521
     3  C    0.000000  -0.033897   0.001792   0.357010  -0.000019   0.000041
     4  C   -0.000001  -0.000091   0.002804  -0.032571  -0.000045  -0.000210
     5  C   -0.000270  -0.030384   0.308793   0.331928  -0.063821  -0.005325
     6  C    0.354606   0.000065  -0.031915  -0.000014   0.237746   0.586382
     7  C    5.256166  -0.000007   0.004781  -0.000014  -0.099020  -0.062822
     8  C   -0.000007   5.074896  -0.011856   0.162573  -0.009210   0.000012
     9  C    0.004781  -0.011856   4.976728  -0.045832   0.207985   0.014144
    10  N   -0.000014   0.162573  -0.045832   7.091462   0.003529  -0.000670
    11  N   -0.099020  -0.009210   0.207985   0.003529   7.377276  -0.107565
    12  O   -0.062822   0.000012   0.014144  -0.000670  -0.107565   8.164974
    13  Cl   0.000000   0.000003  -0.000058  -0.000021   0.000001   0.000003
    14  H    0.000000  -0.000051   0.000003   0.002031   0.000000   0.000000
    15  H    0.000012  -0.000053  -0.002156   0.002440  -0.000091   0.002298
    16  H    0.000000  -0.003172  -0.000063  -0.036187   0.000004   0.000000
    17  H    0.383439   0.000001  -0.000108   0.000000   0.003167   0.000890
    18  H    0.377420   0.000000  -0.000224   0.000000   0.000694  -0.000169
    19  H    0.377511  -0.000007   0.000140   0.000002   0.003951   0.002197
    20  H   -0.000024   0.391010  -0.002763  -0.034424   0.007459  -0.000052
    21  H    0.000000   0.393971  -0.001140  -0.038860  -0.000021   0.000000
    22  H    0.000000   0.396517   0.000237  -0.032455   0.000150   0.000000
    23  H   -0.000037   0.000101   0.413499   0.002908  -0.038613   0.002241
    24  H    0.000011  -0.001119   0.411787  -0.002952  -0.039269   0.000460
    25  H    0.001073   0.000195  -0.027741  -0.000127   0.321181   0.002239
             13         14         15         16         17         18
     1  C   -0.066844   0.373717   0.001939  -0.019403   0.000000   0.000000
     2  C   -0.067675   0.001899   0.370072  -0.000143   0.000001   0.000000
     3  C    0.002659  -0.020768   0.000044   0.382866   0.000000   0.000000
     4  C    0.252696  -0.019493  -0.020884   0.002132   0.000000   0.000000
     5  C    0.002381   0.000079  -0.018038   0.001990   0.000015  -0.000002
     6  C    0.000001   0.000000   0.000005   0.000001  -0.029895  -0.026480
     7  C    0.000000   0.000000   0.000012   0.000000   0.383439   0.377420
     8  C    0.000003  -0.000051  -0.000053  -0.003172   0.000001   0.000000
     9  C   -0.000058   0.000003  -0.002156  -0.000063  -0.000108  -0.000224
    10  N   -0.000021   0.002031   0.002440  -0.036187   0.000000   0.000000
    11  N    0.000001   0.000000  -0.000091   0.000004   0.003167   0.000694
    12  O    0.000003   0.000000   0.002298   0.000000   0.000890  -0.000169
    13  Cl  16.725170  -0.000114  -0.000235  -0.000045   0.000000   0.000000
    14  H   -0.000114   0.361134  -0.000059  -0.000628   0.000000   0.000000
    15  H   -0.000235  -0.000059   0.354518   0.000005   0.000000   0.000000
    16  H   -0.000045  -0.000628   0.000005   0.375524   0.000000   0.000000
    17  H    0.000000   0.000000   0.000000   0.000000   0.437405  -0.015350
    18  H    0.000000   0.000000   0.000000   0.000000  -0.015350   0.451635
    19  H    0.000000   0.000000   0.000000   0.000000  -0.020154  -0.021084
    20  H    0.000000   0.000001   0.000001   0.000092  -0.000003   0.000001
    21  H    0.000000   0.000001   0.000000   0.000060   0.000000   0.000000
    22  H    0.000000  -0.000002   0.000001   0.001029   0.000000   0.000000
    23  H   -0.000011   0.000000   0.001957   0.000001  -0.000009   0.000023
    24  H    0.000001   0.000000   0.000049   0.000001   0.000001   0.000001
    25  H    0.000000   0.000000  -0.000005   0.000000   0.000019  -0.000089
             19         20         21         22         23         24
     1  C    0.000000  -0.000091  -0.000125   0.000616  -0.000009   0.000005
     2  C   -0.000001   0.000064   0.000007  -0.000055  -0.000408   0.001461
     3  C    0.000000   0.001218   0.000026  -0.001440  -0.000078   0.000000
     4  C    0.000000   0.000020   0.000034  -0.000024   0.000347  -0.000069
     5  C   -0.000020  -0.004003  -0.001513   0.002099  -0.053026  -0.043879
     6  C   -0.038168   0.000138  -0.000005   0.000002  -0.000510   0.003742
     7  C    0.377511  -0.000024   0.000000   0.000000  -0.000037   0.000011
     8  C   -0.000007   0.391010   0.393971   0.396517   0.000101  -0.001119
     9  C    0.000140  -0.002763  -0.001140   0.000237   0.413499   0.411787
    10  N    0.000002  -0.034424  -0.038860  -0.032455   0.002908  -0.002952
    11  N    0.003951   0.007459  -0.000021   0.000150  -0.038613  -0.039269
    12  O    0.002197  -0.000052   0.000000   0.000000   0.002241   0.000460
    13  Cl   0.000000   0.000000   0.000000   0.000000  -0.000011   0.000001
    14  H    0.000000   0.000001   0.000001  -0.000002   0.000000   0.000000
    15  H    0.000000   0.000001   0.000000   0.000001   0.001957   0.000049
    16  H    0.000000   0.000092   0.000060   0.001029   0.000001   0.000001
    17  H   -0.020154  -0.000003   0.000000   0.000000  -0.000009   0.000001
    18  H   -0.021084   0.000001   0.000000   0.000000   0.000023   0.000001
    19  H    0.503966   0.000035   0.000000   0.000000   0.000011  -0.000017
    20  H    0.000035   0.429642  -0.025089  -0.017695   0.000159  -0.000992
    21  H    0.000000  -0.025089   0.456715  -0.020247  -0.000001   0.001196
    22  H    0.000000  -0.017695  -0.020247   0.435631   0.000002   0.000040
    23  H    0.000011   0.000159  -0.000001   0.000002   0.437789  -0.018777
    24  H   -0.000017  -0.000992   0.001196   0.000040  -0.018777   0.459576
    25  H    0.000564  -0.000298   0.000053  -0.000006   0.000717  -0.003397
             25
     1  C    0.000000
     2  C   -0.000045
     3  C    0.000001
     4  C    0.000001
     5  C    0.003983
     6  C   -0.013147
     7  C    0.001073
     8  C    0.000195
     9  C   -0.027741
    10  N   -0.000127
    11  N    0.321181
    12  O    0.002239
    13  Cl   0.000000
    14  H    0.000000
    15  H   -0.000005
    16  H    0.000000
    17  H    0.000019
    18  H   -0.000089
    19  H    0.000564
    20  H   -0.000298
    21  H    0.000053
    22  H   -0.000006
    23  H    0.000717
    24  H   -0.003397
    25  H    0.305364
 Mulliken atomic charges:
              1
     1  C   -0.253188
     2  C   -0.223607
     3  C    0.163725
     4  C   -0.053302
     5  C    0.460293
     6  C    0.747061
     7  C   -0.592851
     8  C   -0.334701
     9  C   -0.188879
    10  N   -0.665043
    11  N   -0.804157
    12  O   -0.598550
    13  Cl   0.152088
    14  H    0.302252
    15  H    0.308178
    16  H    0.295938
    17  H    0.240581
    18  H    0.233626
    19  H    0.191073
    20  H    0.255595
    21  H    0.234938
    22  H    0.235600
    23  H    0.251725
    24  H    0.232142
    25  H    0.409463
 Sum of Mulliken atomic charges =   1.00000
 Mulliken charges with hydrogens summed into heavy atoms:
              1
     1  C    0.049064
     2  C    0.084571
     3  C    0.459663
     4  C   -0.053302
     5  C    0.460293
     6  C    0.747061
     7  C    0.072429
     8  C    0.391432
     9  C    0.294988
    10  N   -0.665043
    11  N   -0.394694
    12  O   -0.598550
    13  Cl   0.152088
 Sum of Mulliken charges with hydrogens summed into heavy atoms =   1.00000
 DipInt: DoE/N= T F RetVal/Mat= T F Init=T NMatP=  1 IDeriv=0 Min/MaxMlt=  0  4
 Entering OneElI...
 OneElI was handed    33424358 working-precision words.
 Multipole integrals L=0 to 4 MinM= 0 MaxM= 0.
 Requested accuracy = 0.1000D-12
 PrsmSu:  NPrtUS=   1 ThrOK=F IAlg=1 NPAlg=1 LenDen=           0.
 Prism:   IPart=     0 DynPar=F LinDyn=F Incr=          26.
 PRISM was handed    33184695 working-precision words and  2680 shell-pairs
 IPart=  0 NShTot=        2680 NBatch=          67 AvBLen=        40.0
 PrSmSu:  NxtVal=             27.
 Electronic moments (au):
       -104.00000000         -0.87072048          2.85860503          0.33077439
      -2059.14411803       -847.98580197       -233.58358339          0.30744127
         -4.35818217         -3.25226845        387.71029342      -1069.04053977
       -101.86009872          5.62059034       3127.08086111        959.99896843
        343.78453714        -57.88796750        361.99312814        646.93520830
     -79381.58885433     -15827.98149732      -1873.02320679       -267.34052101
      -5041.47728578        893.63351281        476.20406859        120.06302658
       -173.22451386     -14273.93832985      -4529.15953675      -1570.61650172
      -1869.67299015       -543.94041335       -807.23791675
 Electronic spatial extent (au):  <R**2>=           3140.7135
 DipInt: DoE/N= F T RetVal/Mat= T F Init=T NMatP=  1 IDeriv=0 Min/MaxMlt=  0  4
 Nuclear    moments (au):
        105.00000000          0.00000000          0.00000000          0.00000000
       2024.48922021        799.62685403        177.94512998          0.00000000
          0.00000000          0.00000000       -473.61658839       1137.51080360
        105.94333350         -1.97122028      -3139.15608872       -979.31507859
       -354.30223343         61.32289100       -371.78245866       -668.44473099
      73545.34337042      13328.94017777       1095.45069498        356.03754485
       4963.64235099       -983.69982884       -577.25812419       -146.03259834
        177.52587753      12849.22762336       3303.89619906       1027.89201063
       1875.82062888        497.34776701        828.99386776
 Total      moments (au):
          1.00000000         -0.87072048          2.85860503          0.33077439
        -34.65489782        -48.35894794        -55.63845341          0.30744127
         -4.35818217         -3.25226845        -85.90629496         68.47026383
          4.08323479          3.64937006        -12.07522761        -19.31611016
        -10.51769630          3.43492350         -9.78933053        -21.50952269
      -5836.24548392      -2499.04131955       -777.57251181         88.69702384
        -77.83493479        -90.06631602       -101.05405560        -25.96957176
          4.30136366      -1424.71070650      -1225.26333769       -542.72449109
          6.14763873        -46.59264634         21.75595100
 Traceless Quadrup. (au):
         11.56253524         -2.14151488         -9.42102035          0.30744127
         -4.35818217         -3.25226845
 Charge=              1.0000 electrons
 Dipole moment (field-independent basis, Debye):
    X=             -2.2132    Y=              7.2658    Z=              0.8407  Tot=              7.6418
 Quadrupole moment (field-independent basis, Debye-Ang):
   XX=            -46.6120   YY=            -65.0444   ZZ=            -74.8356
   XY=              0.4135   XZ=             -5.8619   YZ=             -4.3744
 Traceless Quadrupole moment (field-independent basis, Debye-Ang):
   XX=             15.5520   YY=             -2.8804   ZZ=            -12.6716
   XY=              0.4135   XZ=             -5.8619   YZ=             -4.3744
 Octapole moment (field-independent basis, Debye-Ang**2):
  XXX=            -61.1448  YYY=             48.7345  ZZZ=              2.9063  XYY=              2.5975
  XXY=             -8.5947  XXZ=            -13.7485  XZZ=             -7.4861  YZZ=              2.4448
  YYZ=             -6.9677  XYZ=            -15.3096
 Hexadecapole moment (field-independent basis, Debye-Ang**3):
 XXXX=          -2198.2098 YYYY=           -941.2587 ZZZZ=           -292.8711 XXXY=             33.4076
 XXXZ=            -29.3164 YYYX=            -33.9233 YYYZ=            -38.0618 ZZZX=             -9.7814
 ZZZY=              1.6201 XXYY=           -536.6143 XXZZ=           -461.4929 YYZZ=           -204.4161
 XXYZ=              2.3155 YYXZ=            -17.5490 ZZXY=              8.1943
 N-N= 8.869540185237D+02 E-N=-4.091950497581D+03  KE= 9.892812937880D+02
 Entering OneElI...
 OneElI was handed    33324052 working-precision words.
 Calculate electrostatic properties
    NBasis =   223  MinDer = 0  MaxDer = 0
    NGrid  =    25  NMatD  =   1
 Requested accuracy = 0.1000D-12
 PrsmSu:  NPrtUS=   2 ThrOK=T IAlg=1 NPAlg=1 LenDen=           0.
 Prism:   IPart=     0 DynPar=F LinDyn=F Incr=         308.
 PRISM was handed    16512908 working-precision words and  2468 shell-pairs
 PRISM was handed    16512908 working-precision words and  2468 shell-pairs
 IPart=  0 NShTot=       31200 NBatch=        1248 AvBLen=        25.0
 IPart=  1 NShTot=       30500 NBatch=        1220 AvBLen=        25.0
 PrSmSu:  NxtVal=            617.
 --------------------------------------------------------
       Center         ----      EFG at Nuclei      ----
                      3XX-RR        3YY-RR        3ZZ-RR
 --------------------------------------------------------
     1   Atom        0.105008      0.024550     -0.129558
     2   Atom        0.032787      0.107947     -0.140734
     3   Atom       -0.014508      0.238937     -0.224428
     4   Atom        0.080893      0.042194     -0.123088
     5   Atom        0.263600     -0.010566     -0.253035
     6   Atom        0.335219     -0.048255     -0.286964
     7   Atom       -0.071151      0.041623      0.029529
     8   Atom       -0.048030     -0.155302      0.203332
     9   Atom       -0.179816      0.208159     -0.028343
    10   Atom       -0.074489     -0.080085      0.154573
    11   Atom       -0.452990      0.137372      0.315619
    12   Atom       -0.194365      0.115767      0.078598
    13   Atom       -0.912250     -1.025116      1.937366
    14   Atom       -0.177533      0.128427      0.049105
    15   Atom        0.122781     -0.177593      0.054812
    16   Atom        0.131458     -0.184011      0.052553
    17   Atom        0.128286      0.072332     -0.200618
    18   Atom        0.025166     -0.033213      0.008047
    19   Atom        0.012827     -0.157027      0.144200
    20   Atom       -0.191126      0.077474      0.113651
    21   Atom        0.143200      0.071910     -0.215110
    22   Atom        0.091417     -0.066869     -0.024548
    23   Atom        0.120749     -0.120410     -0.000339
    24   Atom        0.120334     -0.123327      0.002993
    25   Atom       -0.232745      0.074340      0.158405
 --------------------------------------------------------
                        XY            XZ            YZ
 --------------------------------------------------------
     1   Atom       -0.050559     -0.150163     -0.118841
     2   Atom       -0.030573     -0.116816     -0.164434
     3   Atom       -0.193421     -0.073870     -0.214434
     4   Atom        0.120740     -0.281970     -0.275856
     5   Atom       -0.198629     -0.225403     -0.093345
     6   Atom       -0.172458      0.263842      0.279190
     7   Atom       -0.022873     -0.076324      0.001050
     8   Atom        0.341237     -0.011300      0.028755
     9   Atom       -0.080747     -0.062600     -0.032029
    10   Atom        0.042383      0.173644      0.166147
    11   Atom        0.217461     -0.388617     -0.696601
    12   Atom        0.831904      0.758904      0.952748
    13   Atom        3.102198     -0.264547     -0.071766
    14   Atom       -0.057069      0.193892      0.046507
    15   Atom       -0.065930      0.055773      0.188968
    16   Atom       -0.031034      0.031091      0.191054
    17   Atom        0.031469      0.065824     -0.170052
    18   Atom       -0.149077      0.120293      0.159898
    19   Atom        0.198087     -0.037588      0.039175
    20   Atom       -0.131147     -0.116346     -0.048000
    21   Atom        0.027516      0.032363     -0.153640
    22   Atom       -0.083275      0.098795      0.199987
    23   Atom        0.035936     -0.027909      0.202288
    24   Atom        0.055718      0.041841     -0.200842
    25   Atom        0.221511      0.107053     -0.104255
 --------------------------------------------------------


 ---------------------------------------------------------------------------------
              Nuclear Quadrupole in Principal Axis System
 ---------------------------------------------------------------------------------

       Atom             a.u.   MegaHertz   Gauss  10(-4) cm-1        Axes

              Baa    -0.2611   -35.034   -12.501   -11.686  0.3939  0.4117  0.8218
     1 C(13)  Bbb     0.0824    11.059     3.946     3.689 -0.2371  0.9093 -0.3419
              Bcc     0.1787    23.975     8.555     7.997  0.8880  0.0602 -0.4558
 
              Baa    -0.2690   -36.103   -12.882   -12.043  0.3660  0.3968  0.8418
     2 C(13)  Bbb     0.0745    10.002     3.569     3.336  0.9113 -0.3362 -0.2377
              Bcc     0.1945    26.101     9.313     8.706  0.1886  0.8541 -0.4847
 
              Baa    -0.3690   -49.515   -17.668   -16.516  0.3971  0.4151  0.8186
     3 C(13)  Bbb    -0.0169    -2.271    -0.810    -0.758  0.8358  0.2050 -0.5093
              Bcc     0.3859    51.786    18.479    17.274 -0.3792  0.8864 -0.2655
 
              Baa    -0.3935   -52.808   -18.843   -17.615  0.3843  0.4155  0.8244
     4 C(13)  Bbb    -0.0597    -8.010    -2.858    -2.672 -0.6944  0.7186 -0.0385
              Bcc     0.4532    60.818    21.701    20.287  0.6084  0.5577 -0.5646
 
              Baa    -0.4054   -54.406   -19.413   -18.148  0.3965  0.3953  0.8286
     5 C(13)  Bbb    -0.0034    -0.461    -0.164    -0.154  0.2045  0.8418 -0.4995
              Bcc     0.4089    54.867    19.578    18.302  0.8950 -0.3675 -0.2529
 
              Baa    -0.5798   -77.806   -27.763   -25.953 -0.3257 -0.5203  0.7894
     6 C(13)  Bbb     0.1360    18.252     6.513     6.088 -0.0039  0.8357  0.5492
              Bcc     0.4438    59.554    21.250    19.865  0.9455 -0.1758  0.2742
 
              Baa    -0.1147   -15.394    -5.493    -5.135  0.8773  0.1252  0.4633
     7 C(13)  Bbb     0.0397     5.325     1.900     1.776  0.0617  0.9279 -0.3677
              Bcc     0.0750    10.069     3.593     3.359 -0.4759  0.3511  0.8063
 
              Baa    -0.4484   -60.171   -21.471   -20.071 -0.6487  0.7597 -0.0448
     8 C(13)  Bbb     0.2022    27.132     9.681     9.050 -0.2076 -0.1201  0.9708
              Bcc     0.2462    33.039    11.789    11.021  0.7321  0.6391  0.2357
 
              Baa    -0.2199   -29.515   -10.532    -9.845  0.9213  0.1988  0.3342
     9 C(13)  Bbb    -0.0059    -0.785    -0.280    -0.262 -0.3431  0.0111  0.9392
              Bcc     0.2258    30.300    10.812    10.107 -0.1830  0.9800 -0.0784
 
              Baa    -0.1984    -7.654    -2.731    -2.553  0.5905  0.5785 -0.5627
    10 N(14)  Bbb    -0.1197    -4.618    -1.648    -1.540 -0.6966  0.7174  0.0065
              Bcc     0.3182    12.272     4.379     4.093  0.4074  0.3882  0.8266
 
              Baa    -0.6309   -24.333    -8.683    -8.117  0.8329  0.2233  0.5063
    11 N(14)  Bbb    -0.4240   -16.354    -5.836    -5.455 -0.4783  0.7507  0.4557
              Bcc     1.0550    40.688    14.518    13.572 -0.2783 -0.6217  0.7321
 
              Baa    -0.8920    64.544    23.031    21.530 -0.6210  0.7445 -0.2452
    12 O(17)  Bbb    -0.8219    59.475    21.222    19.839 -0.5969 -0.2463  0.7636
              Bcc     1.7139  -124.019   -44.253   -41.368  0.5081  0.6206  0.5973
 
              Baa    -4.0744  -213.244   -76.091   -71.131 -0.7011  0.7127 -0.0223
    13 Cl(35) Bbb     1.7793    93.127    33.230    31.064  0.3854  0.4051  0.8291
              Bcc     2.2951   120.118    42.861    40.067  0.6000  0.5727 -0.5586
 
              Baa    -0.3011  -160.646   -57.323   -53.586  0.8530  0.1669 -0.4945
    14 H(1)   Bbb     0.1352    72.142    25.742    24.064 -0.3435  0.8928 -0.2913
              Bcc     0.1659    88.504    31.580    29.522  0.3929  0.4183  0.8189
 
              Baa    -0.3002  -160.192   -57.160   -53.434  0.1967  0.8524 -0.4846
    15 H(1)   Bbb     0.1309    69.843    24.922    23.297  0.8593 -0.3879 -0.3334
              Bcc     0.1693    90.349    32.239    30.137  0.4721  0.3508  0.8087
 
              Baa    -0.2946  -157.198   -56.092   -52.436  0.0987  0.8681 -0.4865
    16 H(1)   Bbb     0.1306    69.669    24.860    23.239  0.9166 -0.2697 -0.2952
              Bcc     0.1640    87.529    31.233    29.197  0.3875  0.4168  0.8223
 
              Baa    -0.2948  -157.275   -56.120   -52.461 -0.1699  0.4262  0.8885
    17 H(1)   Bbb     0.1409    75.160    26.819    25.071  0.9854  0.0799  0.1501
              Bcc     0.1539    82.115    29.301    27.390 -0.0070  0.9011 -0.4335
 
              Baa    -0.2901  -154.762   -55.223   -51.623  0.5191  0.6482 -0.5571
    18 H(1)   Bbb     0.1372    73.205    26.121    24.419  0.7293  0.0040  0.6842
              Bcc     0.1529    81.557    29.102    27.204 -0.4457  0.7615  0.4706
 
              Baa    -0.2941  -156.935   -55.998   -52.348 -0.5487  0.8272 -0.1210
    19 H(1)   Bbb     0.1367    72.917    26.019    24.323  0.6467  0.5116  0.5658
              Bcc     0.1575    84.018    29.980    28.025 -0.5299 -0.2322  0.8156
 
              Baa    -0.2843  -151.710   -54.134   -50.605  0.8829  0.3600  0.3015
    20 H(1)   Bbb     0.1309    69.828    24.916    23.292 -0.3842  0.9230  0.0228
              Bcc     0.1535    81.882    29.217    27.313 -0.2701 -0.1360  0.9532
 
              Baa    -0.2857  -152.433   -54.392   -50.846 -0.0944  0.3991  0.9120
    21 H(1)   Bbb     0.1299    69.285    24.723    23.111 -0.5787  0.7234 -0.3765
              Bcc     0.1558    83.147    29.669    27.735  0.8101  0.5633 -0.1627
 
              Baa    -0.2899  -154.652   -55.184   -51.586  0.3187  0.6960 -0.6434
    22 H(1)   Bbb     0.1251    66.737    23.813    22.261  0.8273 -0.5355 -0.1695
              Bcc     0.1648    87.916    31.371    29.326  0.4625  0.4783  0.7466
 
              Baa    -0.2766  -147.576   -52.659   -49.226 -0.1137  0.7961 -0.5944
    23 H(1)   Bbb     0.1259    67.188    23.975    22.412  0.9929  0.1121 -0.0399
              Bcc     0.1507    80.387    28.684    26.814 -0.0349  0.5947  0.8032
 
              Baa    -0.2827  -150.862   -53.831   -50.322 -0.1703  0.7943  0.5832
    24 H(1)   Bbb     0.1323    70.613    25.197    23.554  0.9845  0.1621  0.0668
              Bcc     0.1504    80.248    28.635    26.768  0.0415 -0.5856  0.8096
 
              Baa    -0.3866  -206.256   -73.597   -68.800  0.8476 -0.4651 -0.2555
    25 H(1)   Bbb     0.1519    81.046    28.919    27.034  0.5052  0.5597  0.6569
              Bcc     0.2347   125.210    44.678    41.766 -0.1626 -0.6858  0.7094
 

 ---------------------------------------------------------------------------------

 No NMR shielding tensors so no spin-rotation constants.
 Leave Link  601 at Sat Feb 17 21:00:00 2018, MaxMem=   33554432 cpu:       0.7
 Merz-Kollman atomic radii used.
 Read replacement radii for each type of atom:
 Atom Element Radius
    1     6    1.50
    2     6    1.50
    3     6    1.50
    4     6    1.50
    5     6    1.50
    6     6    1.50
    7     6    1.50
    8     6    1.50
    9     6    1.50
   10     7    1.50
   11     7    1.50
   12     8    1.40
   13    17    1.70
   14     1    1.20
   15     1    1.20
   16     1    1.20
   17     1    1.20
   18     1    1.20
   19     1    1.20
   20     1    1.20
   21     1    1.20
   22     1    1.20
   23     1    1.20
   24     1    1.20
   25     1    1.20
 Generate VDW surfaces: Layer= 4 Dens= 1 Start= 1.400 Inc= 0.200

 **********************************************************************

            Electrostatic Properties Using The SCF Density

 **********************************************************************

       Atomic Center    1 is at   2.367648  0.887654 -0.717153
       Atomic Center    2 is at   0.928915 -0.483926  0.651378
       Atomic Center    3 is at   1.374750  1.840540 -0.725510
       Atomic Center    4 is at   2.143360 -0.301180 -0.010296
       Atomic Center    5 is at  -0.045789  0.504921  0.623863
       Atomic Center    6 is at  -2.584321 -1.034264 -0.251904
       Atomic Center    7 is at  -3.907635 -1.310353 -0.928756
       Atomic Center    8 is at  -0.806897  2.747791 -0.104813
       Atomic Center    9 is at  -1.360407  0.318470  1.364262
       Atomic Center   10 is at   0.198366  1.658651 -0.067257
       Atomic Center   11 is at  -2.498159  0.152784  0.467995
       Atomic Center   12 is at  -1.618004 -1.779120 -0.308652
       Atomic Center   13 is at   3.346517 -1.527292  0.028723
       Atomic Center   14 is at   3.293196  1.064385 -1.251887
       Atomic Center   15 is at   0.713644 -1.411803  1.165475
       Atomic Center   16 is at   1.487527  2.778903 -1.253906
       Atomic Center   17 is at  -3.718274 -1.780064 -1.896353
       Atomic Center   18 is at  -4.476225 -2.024483 -0.321669
       Atomic Center   19 is at  -4.514468 -0.411370 -1.069705
       Atomic Center   20 is at  -1.761908  2.339843 -0.435006
       Atomic Center   21 is at  -0.906412  3.190844  0.889192
       Atomic Center   22 is at  -0.469634  3.511054 -0.804250
       Atomic Center   23 is at  -1.240732 -0.557287  2.010398
       Atomic Center   24 is at  -1.552781  1.182199  2.007986
       Atomic Center   25 is at  -3.359871  0.616766  0.729048
      ESP Fit Center   26 is at   2.892648  1.796980  1.101501
      ESP Fit Center   27 is at   4.186302  0.887654  0.332847
      ESP Fit Center   28 is at   3.897597  1.870892  0.332847
      ESP Fit Center   29 is at   3.123144  2.541959  0.332847
      ESP Fit Center   30 is at   1.842648 -0.021673 -2.535806
      ESP Fit Center   31 is at   2.892648 -0.021673 -2.535806
      ESP Fit Center   32 is at   2.367648  0.887654 -2.817153
      ESP Fit Center   33 is at   0.928915 -0.483926  2.751378
      ESP Fit Center   34 is at   1.978915 -0.483926  2.470032
      ESP Fit Center   35 is at   1.453915  0.425400  2.470032
      ESP Fit Center   36 is at   1.684411  1.170379  1.701378
      ESP Fit Center   37 is at   0.670094 -2.284068 -0.398622
      ESP Fit Center   38 is at   0.403915 -1.393253 -1.167275
      ESP Fit Center   39 is at   1.899750  2.749866  1.093143
      ESP Fit Center   40 is at   2.904698  2.823778  0.324490
      ESP Fit Center   41 is at   2.130246  3.494845  0.324490
      ESP Fit Center   42 is at   1.115928  3.640682  0.324490
      ESP Fit Center   43 is at   3.234207  2.816458 -0.725510
      ESP Fit Center   44 is at   0.324750  1.840540 -2.544164
      ESP Fit Center   45 is at   0.849750  0.931213 -2.544164
      ESP Fit Center   46 is at   1.374750  1.840540 -2.825510
      ESP Fit Center   47 is at   2.668360  0.608147  1.808358
      ESP Fit Center   48 is at   3.673308  0.682058  1.039704
      ESP Fit Center   49 is at   1.618360 -1.210507 -1.828949
      ESP Fit Center   50 is at   0.479211  1.414247  2.442516
      ESP Fit Center   51 is at   1.484159  1.488159  1.673863
      ESP Fit Center   52 is at  -3.109321 -1.943591  1.566750
      ESP Fit Center   53 is at  -1.054373 -0.051026 -1.301904
      ESP Fit Center   54 is at  -2.059321 -0.124937 -2.070557
      ESP Fit Center   55 is at  -5.652620 -0.797979  0.121244
      ESP Fit Center   56 is at  -3.654508 -3.395041 -0.928756
      ESP Fit Center   57 is at  -3.152139  0.343953 -1.978756
      ESP Fit Center   58 is at  -5.652620 -1.822726 -1.978756
      ESP Fit Center   59 is at   0.723051  3.731029  0.945187
      ESP Fit Center   60 is at  -1.551568  4.711325 -0.104813
      ESP Fit Center   61 is at  -2.378770  4.140348 -0.104813
      ESP Fit Center   62 is at  -1.997862  4.122237 -1.154813
      ESP Fit Center   63 is at  -1.360407  0.318470  3.464262
      ESP Fit Center   64 is at  -0.310407  0.318470  3.182915
      ESP Fit Center   65 is at  -2.410407  0.318470  3.182915
      ESP Fit Center   66 is at   0.723366  2.567977  1.751397
      ESP Fit Center   67 is at   0.953862  3.312956  0.982743
      ESP Fit Center   68 is at  -0.326634  0.749324 -1.885910
      ESP Fit Center   69 is at  -3.023159 -0.756543  2.286648
      ESP Fit Center   70 is at  -3.023159  1.062110 -1.350659
      ESP Fit Center   71 is at  -2.108004 -2.627825  1.388757
      ESP Fit Center   72 is at  -1.128004 -2.627825  1.388757
      ESP Fit Center   73 is at  -2.142533 -3.393453  0.671348
      ESP Fit Center   74 is at  -1.093476 -3.393453  0.671348
      ESP Fit Center   75 is at  -0.244771 -2.776833  0.671348
      ESP Fit Center   76 is at  -2.598004 -3.476530 -0.308652
      ESP Fit Center   77 is at  -1.618004 -3.739120 -0.308652
      ESP Fit Center   78 is at  -0.638004 -3.476530 -0.308652
      ESP Fit Center   79 is at   0.079406 -2.759120 -0.308652
      ESP Fit Center   80 is at   0.079406 -1.779120 -1.288652
      ESP Fit Center   81 is at  -0.244771 -0.781408 -1.288652
      ESP Fit Center   82 is at  -2.142533 -3.393453 -1.288652
      ESP Fit Center   83 is at  -1.093476 -3.393453 -1.288652
      ESP Fit Center   84 is at  -0.244771 -2.776833 -1.288652
      ESP Fit Center   85 is at  -0.638004 -1.779120 -2.006062
      ESP Fit Center   86 is at  -1.128004 -0.930415 -2.006062
      ESP Fit Center   87 is at  -2.108004 -2.627825 -2.006062
      ESP Fit Center   88 is at  -1.128004 -2.627825 -2.006062
      ESP Fit Center   89 is at  -1.618004 -1.779120 -2.268652
      ESP Fit Center   90 is at   3.346517 -1.527292  2.408723
      ESP Fit Center   91 is at   4.379160 -1.527292  2.173029
      ESP Fit Center   92 is at   3.862839 -0.632997  2.173029
      ESP Fit Center   93 is at   2.830195 -0.632997  2.173029
      ESP Fit Center   94 is at   2.313874 -1.527292  2.173029
      ESP Fit Center   95 is at   2.830195 -2.421588  2.173029
      ESP Fit Center   96 is at   3.862839 -2.421588  2.173029
      ESP Fit Center   97 is at   5.207276 -1.527292  1.512629
      ESP Fit Center   98 is at   4.851903 -0.433566  1.512629
      ESP Fit Center   99 is at   3.921523  0.242394  1.512629
      ESP Fit Center  100 is at   1.841131 -2.621019  1.512629
      ESP Fit Center  101 is at   2.771511 -3.296979  1.512629
      ESP Fit Center  102 is at   3.921523 -3.296979  1.512629
      ESP Fit Center  103 is at   4.851903 -2.621019  1.512629
      ESP Fit Center  104 is at   5.666845 -1.527292  0.558323
      ESP Fit Center  105 is at   5.401066 -0.448982  0.558323
      ESP Fit Center  106 is at   4.664614  0.382300  0.558323
      ESP Fit Center  107 is at   1.609726 -3.065955  0.558323
      ESP Fit Center  108 is at   2.523717 -3.696837  0.558323
      ESP Fit Center  109 is at   3.626202 -3.830703  0.558323
      ESP Fit Center  110 is at   4.664614 -3.436885  0.558323
      ESP Fit Center  111 is at   5.401066 -2.605603  0.558323
      ESP Fit Center  112 is at   5.666845 -1.527292 -0.500876
      ESP Fit Center  113 is at   5.401066 -0.448982 -0.500876
      ESP Fit Center  114 is at   4.664614  0.382300 -0.500876
      ESP Fit Center  115 is at   1.609726 -3.065955 -0.500876
      ESP Fit Center  116 is at   2.523717 -3.696837 -0.500876
      ESP Fit Center  117 is at   3.626202 -3.830703 -0.500876
      ESP Fit Center  118 is at   4.664614 -3.436885 -0.500876
      ESP Fit Center  119 is at   5.401066 -2.605603 -0.500876
      ESP Fit Center  120 is at   5.207276 -1.527292 -1.455182
      ESP Fit Center  121 is at   4.851903 -0.433566 -1.455182
      ESP Fit Center  122 is at   1.841131 -2.621019 -1.455182
      ESP Fit Center  123 is at   2.771511 -3.296979 -1.455182
      ESP Fit Center  124 is at   3.921523 -3.296979 -1.455182
      ESP Fit Center  125 is at   4.851903 -2.621019 -1.455182
      ESP Fit Center  126 is at   4.379160 -1.527292 -2.115582
      ESP Fit Center  127 is at   3.862839 -0.632997 -2.115582
      ESP Fit Center  128 is at   2.830195 -0.632997 -2.115582
      ESP Fit Center  129 is at   2.313874 -1.527292 -2.115582
      ESP Fit Center  130 is at   2.830195 -2.421588 -2.115582
      ESP Fit Center  131 is at   3.862839 -2.421588 -2.115582
      ESP Fit Center  132 is at   3.346517 -1.527292 -2.351277
      ESP Fit Center  133 is at   4.890971  1.064385 -0.732739
      ESP Fit Center  134 is at   4.517163  2.091414 -0.732739
      ESP Fit Center  135 is at   3.570647  2.637886 -0.732739
      ESP Fit Center  136 is at   4.890971  1.064385 -1.771036
      ESP Fit Center  137 is at   4.517163  2.091414 -1.771036
      ESP Fit Center  138 is at   3.570647  2.637886 -1.771036
      ESP Fit Center  139 is at   4.517163  0.037355 -1.771036
      ESP Fit Center  140 is at   4.280675  1.064385 -2.611036
      ESP Fit Center  141 is at   3.598344  2.003533 -2.611036
      ESP Fit Center  142 is at   3.598344  0.125236 -2.611036
      ESP Fit Center  143 is at   3.293196  1.064385 -2.931887
      ESP Fit Center  144 is at   0.713644 -1.411803  2.845475
      ESP Fit Center  145 is at   1.701123 -1.411803  2.524624
      ESP Fit Center  146 is at  -0.085243 -1.992229  2.524624
      ESP Fit Center  147 is at   1.018792 -2.350952  2.524624
      ESP Fit Center  148 is at  -0.085243 -2.795517  1.684624
      ESP Fit Center  149 is at   0.991095 -2.985304  1.684624
      ESP Fit Center  150 is at  -0.085243 -2.795517  0.646327
      ESP Fit Center  151 is at   0.991095 -2.985304  0.646327
      ESP Fit Center  152 is at   2.711494  3.805933 -0.734757
      ESP Fit Center  153 is at   1.764978  4.352404 -0.734757
      ESP Fit Center  154 is at   3.085302  2.778903 -1.773054
      ESP Fit Center  155 is at   2.711494  3.805933 -1.773054
      ESP Fit Center  156 is at   1.764978  4.352404 -1.773054
      ESP Fit Center  157 is at   2.475006  2.778903 -2.613054
      ESP Fit Center  158 is at   1.792675  3.718052 -2.613054
      ESP Fit Center  159 is at   0.688640  3.359329 -2.613054
      ESP Fit Center  160 is at   1.487527  2.778903 -2.933906
      ESP Fit Center  161 is at  -3.440823 -3.353565 -1.377205
      ESP Fit Center  162 is at  -2.120499 -1.780064 -2.415502
      ESP Fit Center  163 is at  -2.494307 -0.753034 -2.415502
      ESP Fit Center  164 is at  -5.219691 -2.326535 -2.415502
      ESP Fit Center  165 is at  -4.517161 -3.163777 -2.415502
      ESP Fit Center  166 is at  -3.440823 -3.353565 -2.415502
      ESP Fit Center  167 is at  -2.494307 -2.807093 -2.415502
      ESP Fit Center  168 is at  -2.730794 -1.780064 -3.255502
      ESP Fit Center  169 is at  -3.413126 -0.840915 -3.255502
      ESP Fit Center  170 is at  -4.517161 -1.199638 -3.255502
      ESP Fit Center  171 is at  -4.517161 -2.360489 -3.255502
      ESP Fit Center  172 is at  -3.413126 -2.719212 -3.255502
      ESP Fit Center  173 is at  -3.718274 -1.780064 -3.576353
      ESP Fit Center  174 is at  -4.476225 -2.024483  1.358331
      ESP Fit Center  175 is at  -5.275113 -1.444058  1.037479
      ESP Fit Center  176 is at  -5.275113 -2.604909  1.037479
      ESP Fit Center  177 is at  -4.171077 -2.963632  1.037479
      ESP Fit Center  178 is at  -5.977642 -1.478012  0.197479
      ESP Fit Center  179 is at  -5.977642 -2.570955  0.197479
      ESP Fit Center  180 is at  -5.275113 -3.408197  0.197479
      ESP Fit Center  181 is at  -4.198774 -3.597985  0.197479
      ESP Fit Center  182 is at  -3.252258 -3.051513  0.197479
      ESP Fit Center  183 is at  -5.977642 -2.570955 -0.840818
      ESP Fit Center  184 is at  -5.275113 -3.408197 -0.840818
      ESP Fit Center  185 is at  -4.198774 -3.597985 -0.840818
      ESP Fit Center  186 is at  -5.313355  0.169056  0.289444
      ESP Fit Center  187 is at  -5.313355  0.972344 -0.550556
      ESP Fit Center  188 is at  -6.015885  0.135102 -0.550556
      ESP Fit Center  189 is at  -6.015885 -0.957841 -0.550556
      ESP Fit Center  190 is at  -3.290501  0.615660 -1.588853
      ESP Fit Center  191 is at  -4.237017  1.162131 -1.588853
      ESP Fit Center  192 is at  -5.313355  0.972344 -1.588853
      ESP Fit Center  193 is at  -6.015885  0.135102 -1.588853
      ESP Fit Center  194 is at  -6.015885 -0.957841 -1.588853
      ESP Fit Center  195 is at  -4.209320  0.527779 -2.428853
      ESP Fit Center  196 is at  -5.313355  0.169056 -2.428853
      ESP Fit Center  197 is at  -4.514468 -0.411370 -2.749705
      ESP Fit Center  198 is at  -3.263326  2.886314  0.084143
      ESP Fit Center  199 is at  -2.560796  3.723557 -0.954154
      ESP Fit Center  200 is at  -3.263326  2.886314 -0.954154
      ESP Fit Center  201 is at  -3.263326  1.793372 -0.954154
      ESP Fit Center  202 is at  -2.560796  2.920269 -1.794154
      ESP Fit Center  203 is at  -2.560796  1.759417 -1.794154
      ESP Fit Center  204 is at  -1.456761  1.400695 -1.794154
      ESP Fit Center  205 is at  -1.761908  2.339843 -2.115006
      ESP Fit Center  206 is at  -0.906412  3.190844  2.569192
      ESP Fit Center  207 is at   0.081068  3.190844  2.248341
      ESP Fit Center  208 is at  -0.601264  4.129992  2.248341
      ESP Fit Center  209 is at  -1.705299  3.771269  2.248341
      ESP Fit Center  210 is at   0.691363  3.190844  1.408341
      ESP Fit Center  211 is at   0.317555  4.217874  1.408341
      ESP Fit Center  212 is at  -0.628961  4.764345  1.408341
      ESP Fit Center  213 is at  -1.705299  4.574557  1.408341
      ESP Fit Center  214 is at  -2.407829  3.737315  1.408341
      ESP Fit Center  215 is at  -2.407829  2.644372  1.408341
      ESP Fit Center  216 is at   0.754333  4.538084 -0.285102
      ESP Fit Center  217 is at  -0.192183  5.084555 -0.285102
      ESP Fit Center  218 is at  -1.268521  4.894768 -0.285102
      ESP Fit Center  219 is at   0.754333  4.538084 -1.323399
      ESP Fit Center  220 is at  -0.192183  5.084555 -1.323399
      ESP Fit Center  221 is at  -1.268521  4.894768 -1.323399
      ESP Fit Center  222 is at  -1.971051  4.057525 -1.323399
      ESP Fit Center  223 is at  -0.164486  4.450203 -2.163399
      ESP Fit Center  224 is at  -1.268521  4.091480 -2.163399
      ESP Fit Center  225 is at  -1.268521  2.930628 -2.163399
      ESP Fit Center  226 is at  -0.164486  2.571906 -2.163399
      ESP Fit Center  227 is at  -0.469634  3.511054 -2.484250
      ESP Fit Center  228 is at  -1.240732 -0.557287  3.690398
      ESP Fit Center  229 is at  -0.253253 -0.557287  3.369547
      ESP Fit Center  230 is at  -2.039619  0.023139  3.369547
      ESP Fit Center  231 is at  -2.039619 -1.137713  3.369547
      ESP Fit Center  232 is at  -0.935584 -1.496435  3.369547
      ESP Fit Center  233 is at  -2.742149 -1.103758  2.529547
      ESP Fit Center  234 is at  -2.039619 -1.941001  2.529547
      ESP Fit Center  235 is at  -0.963281 -2.130788  2.529547
      ESP Fit Center  236 is at  -1.552781  1.182199  3.687986
      ESP Fit Center  237 is at  -0.565302  1.182199  3.367134
      ESP Fit Center  238 is at  -1.247634  2.121347  3.367134
      ESP Fit Center  239 is at  -2.351669  1.762625  3.367134
      ESP Fit Center  240 is at  -2.351669  0.601773  3.367134
      ESP Fit Center  241 is at  -0.328815  2.209229  2.527134
      ESP Fit Center  242 is at  -1.275331  2.755700  2.527134
      ESP Fit Center  243 is at  -2.351669  2.565913  2.527134
      ESP Fit Center  244 is at  -3.054199  1.728670  2.527134
      ESP Fit Center  245 is at  -2.351669  2.565913  1.488837
      ESP Fit Center  246 is at  -3.359871  0.616766  2.409048
      ESP Fit Center  247 is at  -4.158758  1.197191  2.088196
      ESP Fit Center  248 is at  -4.158758  0.036340  2.088196
      ESP Fit Center  249 is at  -3.082420  2.190267  1.248196
      ESP Fit Center  250 is at  -4.158758  2.000479  1.248196
      ESP Fit Center  251 is at  -4.861288  1.163237  1.248196
      ESP Fit Center  252 is at  -4.861288  0.070294  1.248196
      ESP Fit Center  253 is at  -4.158758  2.000479  0.209899
      ESP Fit Center  254 is at  -4.861288  1.163237  0.209899
      ESP Fit Center  255 is at  -4.158758  1.197191 -0.630101
      ESP Fit Center  256 is at   2.888309  1.789464  1.445173
      ESP Fit Center  257 is at   3.946173  1.902110  0.779223
      ESP Fit Center  258 is at   3.147131  2.594483  0.779223
      ESP Fit Center  259 is at   3.826507  2.717004 -0.183102
      ESP Fit Center  260 is at   1.138871 -0.530432 -2.213528
      ESP Fit Center  261 is at   1.846988 -0.014157 -2.879478
      ESP Fit Center  262 is at   2.888309 -0.014157 -2.879478
      ESP Fit Center  263 is at   2.367648  0.887654 -3.117153
      ESP Fit Center  264 is at   0.928915 -0.483926  3.051378
      ESP Fit Center  265 is at   1.970236 -0.483926  2.813704
      ESP Fit Center  266 is at   1.449576  0.417884  2.813704
      ESP Fit Center  267 is at   1.708398  1.222903  2.147754
      ESP Fit Center  268 is at   0.661876 -2.341223 -0.844997
      ESP Fit Center  269 is at   0.408255 -1.385737 -1.510947
      ESP Fit Center  270 is at   1.895410  2.742350  1.436815
      ESP Fit Center  271 is at   2.953274  2.854996  0.770865
      ESP Fit Center  272 is at   2.154233  3.547369  0.770865
      ESP Fit Center  273 is at   2.833608  3.669890 -0.191460
      ESP Fit Center  274 is at   0.145972  0.422455 -2.221886
      ESP Fit Center  275 is at   0.333429  1.840540 -2.887836
      ESP Fit Center  276 is at   0.854089  0.938729 -2.887836
      ESP Fit Center  277 is at   1.374750  1.840540 -3.125510
      ESP Fit Center  278 is at   2.664020  0.600630  2.152030
      ESP Fit Center  279 is at   0.914582 -1.719265 -1.506671
      ESP Fit Center  280 is at   1.622699 -1.202990 -2.172621
      ESP Fit Center  281 is at   0.474871  1.406731  2.786188
      ESP Fit Center  282 is at   1.532735  1.519377  2.120238
      ESP Fit Center  283 is at  -3.104982 -1.936074  1.910422
      ESP Fit Center  284 is at  -2.851360 -2.891560  1.244472
      ESP Fit Center  285 is at  -1.005797 -0.019808 -1.748279
      ESP Fit Center  286 is at  -2.063661 -0.132453 -2.414229
      ESP Fit Center  287 is at  -5.708023 -0.781711  0.567620
      ESP Fit Center  288 is at  -6.247462 -1.310353 -1.462806
      ESP Fit Center  289 is at  -6.015746 -2.325565 -1.462806
      ESP Fit Center  290 is at  -4.428296 -3.591515 -1.462806
      ESP Fit Center  291 is at  -3.128152  0.396477 -2.425131
      ESP Fit Center  292 is at  -5.708023 -1.838994 -2.425131
      ESP Fit Center  293 is at  -4.428296 -0.408542 -3.091081
      ESP Fit Center  294 is at   0.651961  4.577141  0.429237
      ESP Fit Center  295 is at  -0.286237  5.028953  0.429237
      ESP Fit Center  296 is at  -1.327558  5.028953  0.429237
      ESP Fit Center  297 is at  -2.265756  4.577141  0.429237
      ESP Fit Center  298 is at  -2.915009  3.763003  0.429237
      ESP Fit Center  299 is at  -2.265756  4.577141 -0.638864
      ESP Fit Center  300 is at  -1.327558  1.845980 -2.267139
      ESP Fit Center  301 is at  -1.360407  0.318470  3.764262
      ESP Fit Center  302 is at  -0.319086  0.318470  3.526587
      ESP Fit Center  303 is at  -2.401728  0.318470  3.526587
      ESP Fit Center  304 is at  -3.160796 -0.210172  2.860637
      ESP Fit Center  305 is at   0.719026  2.560461  2.095069
      ESP Fit Center  306 is at   0.977849  3.365480  1.429119
      ESP Fit Center  307 is at  -1.030412  0.240565 -1.563632
      ESP Fit Center  308 is at  -0.322295  0.756840 -2.229582
      ESP Fit Center  309 is at  -3.539480  0.152784  2.630320
      ESP Fit Center  310 is at  -3.726937 -1.265301  1.964370
      ESP Fit Center  311 is at  -3.726937  1.570869 -1.028381
      ESP Fit Center  312 is at  -3.018820  1.054594 -1.694331
      ESP Fit Center  313 is at  -2.103954 -2.620810  1.709518
      ESP Fit Center  314 is at  -1.132054 -2.620810  1.709518
      ESP Fit Center  315 is at  -2.159186 -3.444708  1.087965
      ESP Fit Center  316 is at  -1.076822 -3.444708  1.087965
      ESP Fit Center  317 is at  -2.392404 -3.821045  0.189795
      ESP Fit Center  318 is at  -1.354772 -3.947036  0.189795
      ESP Fit Center  319 is at  -0.377443 -3.576384  0.189795
      ESP Fit Center  320 is at  -2.392404 -3.821045 -0.807099
      ESP Fit Center  321 is at  -1.354772 -3.947036 -0.807099
      ESP Fit Center  322 is at  -0.377443 -3.576384 -0.807099
      ESP Fit Center  323 is at   0.315689 -2.794001 -0.807099
      ESP Fit Center  324 is at   0.133298 -1.779120 -1.705270
      ESP Fit Center  325 is at  -0.201171 -0.749730 -1.705270
      ESP Fit Center  326 is at  -2.159186 -3.444708 -1.705270
      ESP Fit Center  327 is at  -1.076822 -3.444708 -1.705270
      ESP Fit Center  328 is at  -0.201171 -2.808510 -1.705270
      ESP Fit Center  329 is at  -0.646105 -1.779120 -2.326823
      ESP Fit Center  330 is at  -1.132054 -0.937431 -2.326823
      ESP Fit Center  331 is at  -1.132054 -2.620810 -2.326823
      ESP Fit Center  332 is at  -1.618004 -1.779120 -2.548652
      ESP Fit Center  333 is at   3.346517 -1.527292  2.748723
      ESP Fit Center  334 is at   4.387416 -1.527292  2.541676
      ESP Fit Center  335 is at   3.866966 -0.625848  2.541676
      ESP Fit Center  336 is at   2.826067 -0.625848  2.541676
      ESP Fit Center  337 is at   2.305618 -1.527292  2.541676
      ESP Fit Center  338 is at   2.826067 -2.428737  2.541676
      ESP Fit Center  339 is at   3.866966 -2.428737  2.541676
      ESP Fit Center  340 is at   5.269847 -1.527292  1.952054
      ESP Fit Center  341 is at   5.012170 -0.565627  1.952054
      ESP Fit Center  342 is at   4.308182  0.138361  1.952054
      ESP Fit Center  343 is at   3.346517  0.396038  1.952054
      ESP Fit Center  344 is at   2.384852 -3.192946  1.952054
      ESP Fit Center  345 is at   3.346517 -3.450623  1.952054
      ESP Fit Center  346 is at   4.308182 -3.192946  1.952054
      ESP Fit Center  347 is at   5.012170 -2.488958  1.952054
      ESP Fit Center  348 is at   5.859469 -1.527292  1.069622
      ESP Fit Center  349 is at   5.642213 -0.505183  1.069622
      ESP Fit Center  350 is at   5.028010  0.340195  1.069622
      ESP Fit Center  351 is at   4.123062  0.862667  1.069622
      ESP Fit Center  352 is at   2.090041 -3.703573  1.069622
      ESP Fit Center  353 is at   3.083842 -4.026479  1.069622
      ESP Fit Center  354 is at   4.123062 -3.917252  1.069622
      ESP Fit Center  355 is at   5.028010 -3.394780  1.069622
      ESP Fit Center  356 is at   5.642213 -2.549402  1.069622
      ESP Fit Center  357 is at   6.066517 -1.527292  0.028723
      ESP Fit Center  358 is at   5.882841 -0.544715  0.028723
      ESP Fit Center  359 is at   5.356621  0.305160  0.028723
      ESP Fit Center  360 is at   1.033926 -2.959188  0.028723
      ESP Fit Center  361 is at   1.707351 -3.697899  0.028723
      ESP Fit Center  362 is at   2.602154 -4.143458  0.028723
      ESP Fit Center  363 is at   3.597487 -4.235689  0.028723
      ESP Fit Center  364 is at   4.558925 -3.962137  0.028723
      ESP Fit Center  365 is at   5.356621 -3.359745  0.028723
      ESP Fit Center  366 is at   5.882841 -2.509870  0.028723
      ESP Fit Center  367 is at   5.859469 -1.527292 -1.012175
      ESP Fit Center  368 is at   5.642213 -0.505183 -1.012175
      ESP Fit Center  369 is at   1.313496 -3.004369 -1.012175
      ESP Fit Center  370 is at   2.090041 -3.703573 -1.012175
      ESP Fit Center  371 is at   3.083842 -4.026479 -1.012175
      ESP Fit Center  372 is at   4.123062 -3.917252 -1.012175
      ESP Fit Center  373 is at   5.028010 -3.394780 -1.012175
      ESP Fit Center  374 is at   5.642213 -2.549402 -1.012175
      ESP Fit Center  375 is at   5.269847 -1.527292 -1.894607
      ESP Fit Center  376 is at   5.012170 -0.565627 -1.894607
      ESP Fit Center  377 is at   1.680864 -2.488958 -1.894607
      ESP Fit Center  378 is at   2.384852 -3.192946 -1.894607
      ESP Fit Center  379 is at   3.346517 -3.450623 -1.894607
      ESP Fit Center  380 is at   4.308182 -3.192946 -1.894607
      ESP Fit Center  381 is at   5.012170 -2.488958 -1.894607
      ESP Fit Center  382 is at   4.387416 -1.527292 -2.484229
      ESP Fit Center  383 is at   3.866966 -0.625848 -2.484229
      ESP Fit Center  384 is at   2.305618 -1.527292 -2.484229
      ESP Fit Center  385 is at   2.826067 -2.428737 -2.484229
      ESP Fit Center  386 is at   3.866966 -2.428737 -2.484229
      ESP Fit Center  387 is at   3.346517 -1.527292 -2.691277
      ESP Fit Center  388 is at   4.955965  1.064385 -0.291887
      ESP Fit Center  389 is at   4.638404  2.041735 -0.291887
      ESP Fit Center  390 is at   5.213196  1.064385 -1.251887
      ESP Fit Center  391 is at   4.955965  2.024385 -1.251887
      ESP Fit Center  392 is at   4.253196  2.727153 -1.251887
      ESP Fit Center  393 is at   4.955965  1.064385 -2.211887
      ESP Fit Center  394 is at   4.638404  2.041735 -2.211887
      ESP Fit Center  395 is at   3.807020  2.645772 -2.211887
      ESP Fit Center  396 is at   4.638404  0.087034 -2.211887
      ESP Fit Center  397 is at   4.253196  1.064385 -2.914656
      ESP Fit Center  398 is at   3.773196  1.895769 -2.914656
      ESP Fit Center  399 is at   2.813196  1.895769 -2.914656
      ESP Fit Center  400 is at   3.773196  0.233000 -2.914656
      ESP Fit Center  401 is at   3.293196  1.064385 -3.171887
      ESP Fit Center  402 is at   0.713644 -1.411803  3.085475
      ESP Fit Center  403 is at   1.673644 -1.411803  2.828244
      ESP Fit Center  404 is at   0.233644 -2.243188  2.828244
      ESP Fit Center  405 is at   1.193644 -2.243188  2.828244
      ESP Fit Center  406 is at  -0.631564 -2.389154  2.125475
      ESP Fit Center  407 is at   0.199820 -2.993190  2.125475
      ESP Fit Center  408 is at   1.227468 -2.993190  2.125475
      ESP Fit Center  409 is at  -0.246356 -3.074572  1.165475
      ESP Fit Center  410 is at   0.713644 -3.331803  1.165475
      ESP Fit Center  411 is at   0.199820 -2.993190  0.205475
      ESP Fit Center  412 is at   2.832735  3.756254 -0.293906
      ESP Fit Center  413 is at   2.001351  4.360290 -0.293906
      ESP Fit Center  414 is at   3.150296  3.738903 -1.253906
      ESP Fit Center  415 is at   2.447527  4.441672 -1.253906
      ESP Fit Center  416 is at   1.487527  4.698903 -1.253906
      ESP Fit Center  417 is at   3.150296  2.778903 -2.213906
      ESP Fit Center  418 is at   2.832735  3.756254 -2.213906
      ESP Fit Center  419 is at   2.001351  4.360290 -2.213906
      ESP Fit Center  420 is at   0.973703  4.360290 -2.213906
      ESP Fit Center  421 is at   2.447527  2.778903 -2.916674
      ESP Fit Center  422 is at   1.967527  3.610288 -2.916674
      ESP Fit Center  423 is at   1.007527  3.610288 -2.916674
      ESP Fit Center  424 is at   0.527527  2.778903 -2.916674
      ESP Fit Center  425 is at   1.487527  2.778903 -3.173906
      ESP Fit Center  426 is at  -4.678274 -3.442832 -1.896353
      ESP Fit Center  427 is at  -3.718274 -3.700064 -1.896353
      ESP Fit Center  428 is at  -2.758274 -3.442832 -1.896353
      ESP Fit Center  429 is at  -2.055505 -1.780064 -2.856353
      ESP Fit Center  430 is at  -2.373065 -0.802713 -2.856353
      ESP Fit Center  431 is at  -5.381042 -1.780064 -2.856353
      ESP Fit Center  432 is at  -5.063482 -2.757415 -2.856353
      ESP Fit Center  433 is at  -4.232097 -3.361451 -2.856353
      ESP Fit Center  434 is at  -3.204450 -3.361451 -2.856353
      ESP Fit Center  435 is at  -2.373065 -2.757415 -2.856353
      ESP Fit Center  436 is at  -2.758274 -1.780064 -3.559122
      ESP Fit Center  437 is at  -3.238274 -0.948679 -3.559122
      ESP Fit Center  438 is at  -4.198274 -0.948679 -3.559122
      ESP Fit Center  439 is at  -4.678274 -1.780064 -3.559122
      ESP Fit Center  440 is at  -4.198274 -2.611448 -3.559122
      ESP Fit Center  441 is at  -3.238274 -2.611448 -3.559122
      ESP Fit Center  442 is at  -3.718274 -1.780064 -3.816353
      ESP Fit Center  443 is at  -4.476225 -2.024483  1.598331
      ESP Fit Center  444 is at  -4.956225 -1.193099  1.341099
      ESP Fit Center  445 is at  -5.436225 -2.024483  1.341099
      ESP Fit Center  446 is at  -4.956225 -2.855868  1.341099
      ESP Fit Center  447 is at  -3.996225 -2.855868  1.341099
      ESP Fit Center  448 is at  -5.821433 -1.047132  0.638331
      ESP Fit Center  449 is at  -6.138994 -2.024483  0.638331
      ESP Fit Center  450 is at  -5.821433 -3.001834  0.638331
      ESP Fit Center  451 is at  -4.990049 -3.605871  0.638331
      ESP Fit Center  452 is at  -3.962401 -3.605871  0.638331
      ESP Fit Center  453 is at  -6.396225 -2.024483 -0.321669
      ESP Fit Center  454 is at  -6.138994 -2.984483 -0.321669
      ESP Fit Center  455 is at  -5.436225 -3.687252 -0.321669
      ESP Fit Center  456 is at  -4.476225 -3.944483 -0.321669
      ESP Fit Center  457 is at  -3.516225 -3.687252 -0.321669
      ESP Fit Center  458 is at  -5.821433 -3.001834 -1.281669
      ESP Fit Center  459 is at  -4.990049 -3.605871 -1.281669
      ESP Fit Center  460 is at  -5.028292  1.170017 -0.109705
      ESP Fit Center  461 is at  -5.859676  0.565981 -0.109705
      ESP Fit Center  462 is at  -6.177237 -0.411370 -0.109705
      ESP Fit Center  463 is at  -4.514468  1.508630 -1.069705
      ESP Fit Center  464 is at  -5.474468  1.251399 -1.069705
      ESP Fit Center  465 is at  -6.177237  0.548630 -1.069705
      ESP Fit Center  466 is at  -6.434468 -0.411370 -1.069705
      ESP Fit Center  467 is at  -4.000644  1.170017 -2.029705
      ESP Fit Center  468 is at  -5.028292  1.170017 -2.029705
      ESP Fit Center  469 is at  -5.859676  0.565981 -2.029705
      ESP Fit Center  470 is at  -6.177237 -0.411370 -2.029705
      ESP Fit Center  471 is at  -4.034468  0.420015 -2.732473
      ESP Fit Center  472 is at  -4.994468  0.420015 -2.732473
      ESP Fit Center  473 is at  -5.474468 -0.411370 -2.732473
      ESP Fit Center  474 is at  -3.107117  3.317194  0.524994
      ESP Fit Center  475 is at  -3.424677  3.299843 -0.435006
      ESP Fit Center  476 is at  -3.681908  2.339843 -0.435006
      ESP Fit Center  477 is at  -3.107117  3.317194 -1.395006
      ESP Fit Center  478 is at  -3.424677  2.339843 -1.395006
      ESP Fit Center  479 is at  -2.241908  3.171228 -2.097774
      ESP Fit Center  480 is at  -2.721908  2.339843 -2.097774
      ESP Fit Center  481 is at  -2.241908  1.508459 -2.097774
      ESP Fit Center  482 is at  -1.761908  2.339843 -2.355006
      ESP Fit Center  483 is at  -0.906412  3.190844  2.809192
      ESP Fit Center  484 is at   0.053588  3.190844  2.551961
      ESP Fit Center  485 is at  -0.426412  4.022228  2.551961
      ESP Fit Center  486 is at  -1.386412  4.022228  2.551961
      ESP Fit Center  487 is at  -1.866412  3.190844  2.551961
      ESP Fit Center  488 is at   0.756357  3.190844  1.849192
      ESP Fit Center  489 is at   0.438797  4.168195  1.849192
      ESP Fit Center  490 is at  -0.392588  4.772231  1.849192
      ESP Fit Center  491 is at  -1.420236  4.772231  1.849192
      ESP Fit Center  492 is at  -2.251620  4.168195  1.849192
      ESP Fit Center  493 is at  -2.569180  3.190844  1.849192
      ESP Fit Center  494 is at   0.053588  4.853612  0.889192
      ESP Fit Center  495 is at  -0.906412  5.110844  0.889192
      ESP Fit Center  496 is at  -1.866412  4.853612  0.889192
      ESP Fit Center  497 is at  -2.569180  4.150844  0.889192
      ESP Fit Center  498 is at   0.875575  4.488405  0.155750
[...]
  479 Fit       0.134252
  480 Fit       0.131670
  481 Fit       0.134075
  482 Fit       0.137009
  483 Fit       0.145255
  484 Fit       0.144797
  485 Fit       0.134303
  486 Fit       0.134373
  487 Fit       0.147642
  488 Fit       0.150038
  489 Fit       0.137123
  490 Fit       0.130002
  491 Fit       0.129045
  492 Fit       0.134544
  493 Fit       0.149585
  494 Fit       0.136881
  495 Fit       0.131810
  496 Fit       0.132446
  497 Fit       0.138886
  498 Fit       0.150392
  499 Fit       0.137130
  500 Fit       0.137865
  501 Fit       0.130145
  502 Fit       0.130515
  503 Fit       0.134478
  504 Fit       0.128532
  505 Fit       0.130765
  506 Fit       0.139868
  507 Fit       0.131477
  508 Fit       0.134869
  509 Fit       0.140563
  510 Fit       0.122848
  511 Fit       0.128501
  512 Fit       0.123541
  513 Fit       0.117470
  514 Fit       0.120767
  515 Fit       0.119286
  516 Fit       0.113666
  517 Fit       0.119629
  518 Fit       0.110450
  519 Fit       0.106352
  520 Fit       0.129538
  521 Fit       0.135884
  522 Fit       0.134772
  523 Fit       0.132124
  524 Fit       0.130703
  525 Fit       0.131775
  526 Fit       0.149404
  527 Fit       0.147994
  528 Fit       0.142415
  529 Fit       0.139784
  530 Fit       0.141636
  531 Fit       0.155768
  532 Fit       0.158095
  533 Fit       0.146572
  534 Fit       0.137221
  535 Fit       0.149561
  536 Fit       0.139653
  537 Fit       0.134962
  538 Fit       0.133387
  539 Fit       0.158421
  540 Fit       0.144784
  541 Fit       0.138799
  542 Fit       0.136854
  543 Fit       0.147607
  544 Fit       0.141301
  545 Fit       0.125147
  546 Fit       0.114792
  547 Fit       0.123789
  548 Fit       0.114386
  549 Fit       0.120510
  550 Fit       0.111753
  551 Fit       0.111184
  552 Fit       0.110966
  553 Fit       0.116991
  554 Fit       0.124638
  555 Fit       0.115498
  556 Fit       0.124340
  557 Fit       0.120522
  558 Fit       0.131857
  559 Fit       0.084588
  560 Fit       0.096487
  561 Fit       0.136362
  562 Fit       0.125389
  563 Fit       0.132818
  564 Fit       0.129152
  565 Fit       0.138977
  566 Fit       0.123630
  567 Fit       0.129989
  568 Fit       0.121682
  569 Fit       0.126332
  570 Fit       0.120235
  571 Fit       0.124143
  572 Fit       0.096871
  573 Fit       0.106135
  574 Fit       0.139814
  575 Fit       0.134615
  576 Fit       0.144973
  577 Fit       0.114805
  578 Fit       0.094211
  579 Fit       0.119019
  580 Fit       0.128642
  581 Fit       0.125153
  582 Fit       0.095548
  583 Fit       0.111982
  584 Fit       0.111050
  585 Fit       0.091954
  586 Fit       0.088886
  587 Fit       0.085236
  588 Fit       0.083646
  589 Fit       0.110205
  590 Fit       0.111848
  591 Fit       0.090954
  592 Fit       0.086481
  593 Fit       0.095533
  594 Fit       0.134633
  595 Fit       0.135264
  596 Fit       0.124750
  597 Fit       0.125995
  598 Fit       0.125159
  599 Fit       0.129559
  600 Fit       0.133436
  601 Fit       0.136561
  602 Fit       0.123450
  603 Fit       0.127323
  604 Fit       0.123336
  605 Fit       0.134658
  606 Fit       0.138933
  607 Fit       0.124362
  608 Fit       0.145063
  609 Fit       0.136894
  610 Fit       0.120096
  611 Fit       0.129067
  612 Fit       0.130849
  613 Fit       0.119072
  614 Fit       0.131558
  615 Fit       0.126671
  616 Fit       0.096236
  617 Fit       0.100136
  618 Fit       0.086456
  619 Fit       0.072282
  620 Fit       0.076830
  621 Fit       0.078293
  622 Fit       0.062122
  623 Fit       0.060063
  624 Fit       0.070462
  625 Fit       0.057778
  626 Fit       0.054342
  627 Fit       0.061510
  628 Fit       0.078951
  629 Fit       0.086545
  630 Fit       0.059057
  631 Fit       0.056854
  632 Fit       0.067153
  633 Fit       0.078504
  634 Fit       0.096976
  635 Fit       0.065816
  636 Fit       0.083219
  637 Fit       0.092336
  638 Fit       0.083237
  639 Fit       0.093619
  640 Fit       0.107708
  641 Fit       0.108589
  642 Fit       0.091891
  643 Fit       0.082419
  644 Fit       0.078907
  645 Fit       0.084691
  646 Fit       0.096441
  647 Fit       0.112215
  648 Fit       0.090557
  649 Fit       0.080776
  650 Fit       0.077823
  651 Fit       0.077382
  652 Fit       0.077561
  653 Fit       0.081783
  654 Fit       0.091538
  655 Fit       0.106722
  656 Fit       0.098390
  657 Fit       0.082886
  658 Fit       0.077578
  659 Fit       0.076602
  660 Fit       0.076710
  661 Fit       0.076690
  662 Fit       0.077733
  663 Fit       0.081839
  664 Fit       0.092030
  665 Fit       0.109240
  666 Fit       0.092130
  667 Fit       0.080625
  668 Fit       0.076034
  669 Fit       0.075509
  670 Fit       0.076483
  671 Fit       0.077095
  672 Fit       0.077029
  673 Fit       0.078550
  674 Fit       0.083971
  675 Fit       0.097387
  676 Fit       0.081040
  677 Fit       0.076308
  678 Fit       0.074023
  679 Fit       0.074442
  680 Fit       0.075899
  681 Fit       0.076862
  682 Fit       0.077197
  683 Fit       0.079902
  684 Fit       0.088159
  685 Fit       0.085208
  686 Fit       0.078446
  687 Fit       0.074532
  688 Fit       0.073527
  689 Fit       0.074510
  690 Fit       0.075846
  691 Fit       0.077075
  692 Fit       0.082201
  693 Fit       0.094632
  694 Fit       0.101747
  695 Fit       0.086271
  696 Fit       0.078042
  697 Fit       0.075098
  698 Fit       0.075423
  699 Fit       0.077397
  700 Fit       0.085837
  701 Fit       0.102626
  702 Fit       0.096565
  703 Fit       0.083092
  704 Fit       0.079841
  705 Fit       0.090777
  706 Fit       0.110090
  707 Fit       0.113923
  708 Fit       0.107285
  709 Fit       0.111057
  710 Fit       0.119609
  711 Fit       0.107467
  712 Fit       0.112227
  713 Fit       0.123035
  714 Fit       0.105938
  715 Fit       0.109852
  716 Fit       0.118023
  717 Fit       0.109102
  718 Fit       0.115330
  719 Fit       0.120974
  720 Fit       0.114648
  721 Fit       0.114499
  722 Fit       0.109191
  723 Fit       0.106280
  724 Fit       0.101436
  725 Fit       0.102201
  726 Fit       0.088030
  727 Fit       0.094662
  728 Fit       0.082445
  729 Fit       0.134249
  730 Fit       0.130894
  731 Fit       0.128388
  732 Fit       0.133707
  733 Fit       0.128455
  734 Fit       0.127570
  735 Fit       0.134364
  736 Fit       0.130946
  737 Fit       0.127434
  738 Fit       0.132796
  739 Fit       0.137652
  740 Fit       0.129605
  741 Fit       0.081253
  742 Fit       0.076283
  743 Fit       0.067587
  744 Fit       0.086520
  745 Fit       0.102932
  746 Fit       0.084717
  747 Fit       0.081208
  748 Fit       0.078918
  749 Fit       0.077243
  750 Fit       0.077543
  751 Fit       0.088421
  752 Fit       0.094709
  753 Fit       0.091500
  754 Fit       0.085518
  755 Fit       0.082118
  756 Fit       0.082404
  757 Fit       0.086622
  758 Fit       0.109603
  759 Fit       0.118019
  760 Fit       0.099988
  761 Fit       0.094740
  762 Fit       0.099189
  763 Fit       0.097711
  764 Fit       0.090398
  765 Fit       0.087259
  766 Fit       0.086270
  767 Fit       0.086383
  768 Fit       0.093410
  769 Fit       0.087089
  770 Fit       0.083971
  771 Fit       0.082310
  772 Fit       0.080882
  773 Fit       0.086527
  774 Fit       0.083273
  775 Fit       0.082046
  776 Fit       0.119051
  777 Fit       0.105286
  778 Fit       0.132096
  779 Fit       0.116440
  780 Fit       0.104120
  781 Fit       0.096282
  782 Fit       0.093127
  783 Fit       0.120185
  784 Fit       0.110123
  785 Fit       0.100114
  786 Fit       0.093144
  787 Fit       0.090405
  788 Fit       0.105903
  789 Fit       0.098077
  790 Fit       0.092179
  791 Fit       0.146144
  792 Fit       0.129713
  793 Fit       0.134612
  794 Fit       0.126102
  795 Fit       0.126366
  796 Fit       0.131669
  797 Fit       0.127666
  798 Fit       0.125190
  799 Fit       0.128470
  800 Fit       0.137617
  801 Fit       0.137402
  802 Fit       0.126594
  803 Fit       0.126583
  804 Fit       0.140385
  805 Fit       0.131089
  806 Fit       0.123464
  807 Fit       0.121097
  808 Fit       0.124117
  809 Fit       0.134269
  810 Fit       0.125365
  811 Fit       0.124242
  812 Fit       0.128227
  813 Fit       0.131175
  814 Fit       0.131873
  815 Fit       0.123199
  816 Fit       0.121928
  817 Fit       0.128268
  818 Fit       0.121141
  819 Fit       0.121469
  820 Fit       0.131431
  821 Fit       0.123603
  822 Fit       0.127803
  823 Fit       0.132680
  824 Fit       0.116275
  825 Fit       0.121751
  826 Fit       0.117282
  827 Fit       0.110659
  828 Fit       0.113718
  829 Fit       0.119118
  830 Fit       0.109918
  831 Fit       0.106988
  832 Fit       0.114955
  833 Fit       0.102547
  834 Fit       0.122219
  835 Fit       0.128642
  836 Fit       0.127135
  837 Fit       0.124369
  838 Fit       0.123286
  839 Fit       0.142087
  840 Fit       0.140984
  841 Fit       0.136278
  842 Fit       0.132174
  843 Fit       0.133128
  844 Fit       0.147543
  845 Fit       0.137540
  846 Fit       0.128269
  847 Fit       0.145426
  848 Fit       0.132836
  849 Fit       0.126859
  850 Fit       0.124688
  851 Fit       0.139636
  852 Fit       0.130917
  853 Fit       0.127649
  854 Fit       0.133989
  855 Fit       0.120492
  856 Fit       0.109894
  857 Fit       0.118555
  858 Fit       0.106784
  859 Fit       0.112114
  860 Fit       0.113225
  861 Fit       0.105799
  862 Fit       0.117473
  863 Fit       0.105817
  864 Fit       0.104621
  865 Fit       0.110429
  866 Fit       0.118059
  867 Fit       0.110007
  868 Fit       0.118355
  869 Fit       0.110630
  870 Fit       0.113781
  871 Fit       0.124391
  872 Fit       0.119766
  873 Fit       0.126052
  874 Fit       0.119923
  875 Fit       0.127138
  876 Fit       0.121230
  877 Fit       0.125292
  878 Fit       0.116303
  879 Fit       0.121447
  880 Fit       0.115045
  881 Fit       0.118334
  882 Fit       0.117960
  883 Fit       0.104561
  884 Fit       0.093308
  885 Fit       0.126614
  886 Fit       0.135336
  887 Fit       0.113115
  888 Fit       0.103049
  889 Fit       0.094352
  890 Fit       0.114186
  891 Fit       0.122142
  892 Fit       0.094233
  893 Fit       0.106713
  894 Fit       0.108015
  895 Fit       0.098391
  896 Fit       0.092242
  897 Fit       0.083612
  898 Fit       0.077702
  899 Fit       0.073688
  900 Fit       0.119641
  901 Fit       0.081837
  902 Fit       0.079703
  903 Fit       0.103921
  904 Fit       0.105497
  905 Fit       0.100132
  906 Fit       0.086213
  907 Fit       0.082339
  908 Fit       0.091005
  909 Fit       0.127093
  910 Fit       0.137146
  911 Fit       0.133578
  912 Fit       0.124089
  913 Fit       0.118997
  914 Fit       0.117049
  915 Fit       0.117923
  916 Fit       0.122596
  917 Fit       0.116645
  918 Fit       0.120165
  919 Fit       0.118363
  920 Fit       0.122285
  921 Fit       0.125901
  922 Fit       0.128245
  923 Fit       0.115737
  924 Fit       0.118819
  925 Fit       0.115465
  926 Fit       0.124644
  927 Fit       0.128021
  928 Fit       0.115900
  929 Fit       0.137481
  930 Fit       0.129457
  931 Fit       0.114382
  932 Fit       0.117434
  933 Fit       0.113022
  934 Fit       0.082910
  935 Fit       0.077162
  936 Fit       0.085642
  937 Fit       0.074343
  938 Fit       0.065668
  939 Fit       0.067329
  940 Fit       0.080492
  941 Fit       0.062321
  942 Fit       0.058480
  943 Fit       0.062157
  944 Fit       0.073523
  945 Fit       0.058491
  946 Fit       0.057478
  947 Fit       0.064377
  948 Fit       0.086830
  949 Fit       0.104010
  950 Fit       0.061604
  951 Fit       0.061893
  952 Fit       0.071032
  953 Fit       0.080661
  954 Fit       0.095857
  955 Fit       0.069807
  956 Fit       0.084160
  957 Fit       0.089355
  958 Fit       0.081070
  959 Fit       0.090361
  960 Fit       0.102527
  961 Fit       0.103051
  962 Fit       0.088905
  963 Fit       0.080255
  964 Fit       0.076478
  965 Fit       0.082149
  966 Fit       0.092473
  967 Fit       0.106055
  968 Fit       0.087820
  969 Fit       0.078503
  970 Fit       0.075045
  971 Fit       0.074538
  972 Fit       0.074397
  973 Fit       0.078908
  974 Fit       0.087680
  975 Fit       0.100737
  976 Fit       0.081091
  977 Fit       0.074995
  978 Fit       0.072918
  979 Fit       0.072472
  980 Fit       0.072765
  981 Fit       0.073880
  982 Fit       0.077919
  983 Fit       0.086086
  984 Fit       0.098998
  985 Fit       0.086583
  986 Fit       0.077206
  987 Fit       0.073027
  988 Fit       0.071783
  989 Fit       0.071798
  990 Fit       0.072041
  991 Fit       0.072434
  992 Fit       0.074274
  993 Fit       0.078487
  994 Fit       0.086974
  995 Fit       0.101306
  996 Fit       0.079117
  997 Fit       0.074774
  998 Fit       0.071787
  999 Fit       0.070757
 1000 Fit       0.070979
 1001 Fit       0.071563
 1002 Fit       0.072032
 1003 Fit       0.072617
 1004 Fit       0.075300
 1005 Fit       0.081283
 1006 Fit       0.093848
 1007 Fit       0.073978
 1008 Fit       0.071588
 1009 Fit       0.070163
 1010 Fit       0.070202
 1011 Fit       0.070955
 1012 Fit       0.071777
 1013 Fit       0.072831
 1014 Fit       0.077015
 1015 Fit       0.085601
 1016 Fit       0.081322
 1017 Fit       0.075547
 1018 Fit       0.072021
 1019 Fit       0.070482
 1020 Fit       0.070615
 1021 Fit       0.071594
 1022 Fit       0.073295
 1023 Fit       0.079611
 1024 Fit       0.090954
 1025 Fit       0.096540
 1026 Fit       0.083310
 1027 Fit       0.075976
 1028 Fit       0.072855
 1029 Fit       0.072650
 1030 Fit       0.074574
 1031 Fit       0.083158
 1032 Fit       0.097294
 1033 Fit       0.092319
 1034 Fit       0.080756
 1035 Fit       0.077680
 1036 Fit       0.087507
 1037 Fit       0.101590
 1038 Fit       0.104828
 1039 Fit       0.112047
 1040 Fit       0.100426
 1041 Fit       0.103865
 1042 Fit       0.111146
 1043 Fit       0.126121
 1044 Fit       0.101188
 1045 Fit       0.105685
 1046 Fit       0.115441
 1047 Fit       0.099928
 1048 Fit       0.103881
 1049 Fit       0.111133
 1050 Fit       0.103434
 1051 Fit       0.109282
 1052 Fit       0.115244
 1053 Fit       0.109566
 1054 Fit       0.104453
 1055 Fit       0.104880
 1056 Fit       0.098128
 1057 Fit       0.097834
 1058 Fit       0.089731
 1059 Fit       0.092220
 1060 Fit       0.121889
 1061 Fit       0.125895
 1062 Fit       0.122945
 1063 Fit       0.119520
 1064 Fit       0.122387
 1065 Fit       0.120237
 1066 Fit       0.119355
 1067 Fit       0.124662
 1068 Fit       0.122483
 1069 Fit       0.119733
 1070 Fit       0.124040
 1071 Fit       0.122029
 1072 Fit       0.078315
 1073 Fit       0.075417
 1074 Fit       0.072429
 1075 Fit       0.068359
 1076 Fit       0.085523
 1077 Fit       0.097581
 1078 Fit       0.080399
 1079 Fit       0.077298
 1080 Fit       0.075576
 1081 Fit       0.075077
 1082 Fit       0.077186
 1083 Fit       0.084865
 1084 Fit       0.090175
 1085 Fit       0.087297
 1086 Fit       0.081733
 1087 Fit       0.078564
 1088 Fit       0.079188
 1089 Fit       0.082849
 1090 Fit       0.106057
 1091 Fit       0.097226
 1092 Fit       0.092131
 1093 Fit       0.097024
 1094 Fit       0.095368
 1095 Fit       0.087716
 1096 Fit       0.084516
 1097 Fit       0.083998
 1098 Fit       0.085544
 1099 Fit       0.086790
 1100 Fit       0.082315
 1101 Fit       0.080083
 1102 Fit       0.079059
 1103 Fit       0.078200
 1104 Fit       0.080765
 1105 Fit       0.078497
 1106 Fit       0.077340
 1107 Fit       0.119355
 1108 Fit       0.104719
 1109 Fit       0.124147
 1110 Fit       0.108027
 1111 Fit       0.097799
 1112 Fit       0.092452
 1113 Fit       0.124793
 1114 Fit       0.111172
 1115 Fit       0.100034
 1116 Fit       0.092350
 1117 Fit       0.088067
 1118 Fit       0.112986
 1119 Fit       0.103588
 1120 Fit       0.094628
 1121 Fit       0.088577
 1122 Fit       0.093948
 1123 Fit       0.129156
 1124 Fit       0.122010
 1125 Fit       0.129661
 1126 Fit       0.119521
 1127 Fit       0.119399
 1128 Fit       0.124236
 1129 Fit       0.119674
 1130 Fit       0.123147
 1131 Fit       0.130783
 1132 Fit       0.130498
 1133 Fit       0.120845
 1134 Fit       0.120939
 1135 Fit       0.123664
 1136 Fit       0.116994
 1137 Fit       0.114983
 1138 Fit       0.118025
 1139 Fit       0.127799
 1140 Fit       0.122837
 1141 Fit       0.117057
 1142 Fit       0.115369
 1143 Fit       0.117696
 1144 Fit       0.125095
 1145 Fit       0.126938
 1146 Fit       0.118789
 1147 Fit       0.117126
 1148 Fit       0.126925
 1149 Fit       0.117022
 1150 Fit       0.113914
 1151 Fit       0.115772
 1152 Fit       0.121388
 1153 Fit       0.114831
 1154 Fit       0.114927
 1155 Fit       0.124226
 1156 Fit       0.117684
 1157 Fit       0.121506
 1158 Fit       0.125729
 1159 Fit       0.110521
 1160 Fit       0.114627
 1161 Fit       0.111160
 1162 Fit       0.105396
 1163 Fit       0.107698
 1164 Fit       0.111915
 1165 Fit       0.104399
 1166 Fit       0.102204
 1167 Fit       0.107802
 1168 Fit       0.104390
 1169 Fit       0.097866
 1170 Fit       0.103762
 1171 Fit       0.115819
 1172 Fit       0.120837
 1173 Fit       0.119350
 1174 Fit       0.116993
 1175 Fit       0.116166
 1176 Fit       0.130388
 1177 Fit       0.128807
 1178 Fit       0.125293
 1179 Fit       0.122321
 1180 Fit       0.122468
 1181 Fit       0.133090
 1182 Fit       0.135380
 1183 Fit       0.130170
 1184 Fit       0.121730
 1185 Fit       0.137784
 1186 Fit       0.125240
 1187 Fit       0.119210
 1188 Fit       0.117185
 1189 Fit       0.136320
 1190 Fit       0.125223
 1191 Fit       0.119811
 1192 Fit       0.117813
 1193 Fit       0.126102
 1194 Fit       0.121818
 1195 Fit       0.127860
 -----------------------------------------------------------------
 Leave Link  602 at Sat Feb 17 21:00:00 2018, MaxMem=   33554432 cpu:       1.0

 Test job not archived.
 1\1\GINC-NODE003\SP\RHF\6-31G(d)\C9H12Cl1N2O1(1+)\WULSDORT\17-Feb-2018
 \0\\#HF/6-31G* Geom=AllCheck Guess=Read Pop=(MK,ReadRadii) Integral=(G
 rid=UltraFine) iop(6/33=2)\\Optimization for frag21-conf1\\1,1\C,0,1.0
 055178811,-0.3675980864,0.4538551674\C,0,3.2190803811,-1.3249279798,0.
 5417247588\C,0,0.8117928654,-0.8123530643,1.7417111511\C,0,2.237820314
 ,-0.6254893285,-0.1611249494\C,0,2.9866355281,-1.7517616422,1.84265016
 96\C,0,3.7567619172,-4.7481075812,1.7476935238\C,0,3.7171223765,-6.228
 6767495,2.0507730486\C,0,1.4973793951,-1.9027781204,3.8174995915\C,0,4
 .0630239879,-2.4928539746,2.6194035501\N,0,1.7789180429,-1.4830766812,
 2.4236641672\N,0,3.7355757452,-3.8951884252,2.8462558617\O,0,3.8017799
 661,-4.2813335097,0.6199101672\Cl,0,2.5316128682,-0.098104163,-1.76985
 49685\H,0,0.2141608103,0.1639464655,-0.0609540324\H,0,4.1615558833,-1.
 5765858325,0.0726814526\H,0,-0.1182351493,-0.6450114788,2.2703801577\H
 ,0,3.1012947925,-6.7267925434,1.2988631918\H,0,4.7313968702,-6.6364966
 551,1.9685457433\H,0,3.3306551849,-6.4531576839,3.0490385594\H,0,1.701
 8749728,-2.9685245737,3.9167973124\H,0,2.1223184083,-1.3302089185,4.50
 73269744\H,0,0.4493060195,-1.7057350423,4.037150131\H,0,4.9920884705,-
 2.3955890432,2.0483148417\H,0,4.2190722564,-2.014691847,3.591219447\H,
 0,3.9671545508,-4.2798497184,3.7542105312\\Version=AM64L-G09RevC.01\St
 ate=1-A\HF=-990.8494043\RMSD=4.268e-09\Dipole=-0.8931439,0.5083266,2.8
 254357\Quadrupole=-1.1410524,0.2587454,0.882307,-8.588142,1.0665651,-8
 .1984777\PG=C01 [X(C9H12Cl1N2O1)]\\@


 The cat could very well be man's best friend
 but would never stoop to admitting it.
                               -- Doug Larson
 Job cpu time:  0 days  0 hours  3 minutes 40.8 seconds.
 File lengths (MBytes):  RWF=     31 Int=      0 D2E=      0 Chk=      5 Scr=      1
 Normal termination of Gaussian 09 at Sat Feb 17 21:00:00 2018.
