 Entering Gaussian System, Link 0=g09
 Initial command:
 /home/fb_chem/chemsoft/lx24-amd64/Gaussian_09_C.01_NBO_3.1_64_istanbul-64/g09/l1.exe /local/2397362.1.parallel/Gau-21811.inp -scrdir=/local/2397362.1.parallel/
 Entering Link 1 = /home/fb_chem/chemsoft/lx24-amd64/Gaussian_09_C.01_NBO_3.1_64_istanbul-64/g09/l1.exe PID=     21812.
  
 Copyright (c) 1988,1990,1992,1993,1995,1998,2003,2009,2011,
            Gaussian, Inc.  All Rights Reserved.
  
 This is part of the Gaussian(R) 09 program.  It is based on
 the Gaussian(R) 03 system (copyright 2003, Gaussian, Inc.),
 the Gaussian(R) 98 system (copyright 1998, Gaussian, Inc.),
 the Gaussian(R) 94 system (copyright 1995, Gaussian, Inc.),
 the Gaussian 92(TM) system (copyright 1992, Gaussian, Inc.),
 the Gaussian 90(TM) system (copyright 1990, Gaussian, Inc.),
 the Gaussian 88(TM) system (copyright 1988, Gaussian, Inc.),
 the Gaussian 86(TM) system (copyright 1986, Carnegie Mellon
 University), and the Gaussian 82(TM) system (copyright 1983,
 Carnegie Mellon University). Gaussian is a federally registered
 trademark of Gaussian, Inc.
  
 This software contains proprietary and confidential information,
 including trade secrets, belonging to Gaussian, Inc.
  
 This software is provided under written license and may be
 used, copied, transmitted, or stored only in accord with that
 written license.
  
 The following legend is applicable only to US Government
 contracts under FAR:
  
                    RESTRICTED RIGHTS LEGEND
  
 Use, reproduction and disclosure by the US Government is
 subject to restrictions as set forth in subparagraphs (a)
 and (c) of the Commercial Computer Software - Restricted
 Rights clause in FAR 52.227-19.
  
 Gaussian, Inc.
 340 Quinnipiac St., Bldg. 40, Wallingford CT 06492
  
  
 ---------------------------------------------------------------
 Warning -- This program may not be used in any manner that
 competes with the business of Gaussian, Inc. or will provide
 assistance to any competitor of Gaussian, Inc.  The licensee
 of this program is prohibited from giving any competitor of
 Gaussian, Inc. access to this program.  By using this program,
 the user acknowledges that Gaussian, Inc. is engaged in the
 business of creating and licensing software in the field of
 computational chemistry and represents and warrants to the
 licensee that it is not a competitor of Gaussian, Inc. and that
 it will not use this program in any manner prohibited above.
 ---------------------------------------------------------------
  

 Cite this work as:
 Gaussian 09, Revision C.01,
 M. J. Frisch, G. W. Trucks, H. B. Schlegel, G. E. Scuseria, 
 M. A. Robb, J. R. Cheeseman, G. Scalmani, V. Barone, B. Mennucci, 
 G. A. Petersson, H. Nakatsuji, M. Caricato, X. Li, H. P. Hratchian, 
 A. F. Izmaylov, J. Bloino, G. Zheng, J. L. Sonnenberg, M. Hada, 
 M. Ehara, K. Toyota, R. Fukuda, J. Hasegawa, M. Ishida, T. Nakajima, 
 Y. Honda, O. Kitao, H. Nakai, T. Vreven, J. A. Montgomery, Jr., 
 J. E. Peralta, F. Ogliaro, M. Bearpark, J. J. Heyd, E. Brothers, 
 K. N. Kudin, V. N. Staroverov, T. Keith, R. Kobayashi, J. Normand, 
 K. Raghavachari, A. Rendell, J. C. Burant, S. S. Iyengar, J. Tomasi, 
 M. Cossi, N. Rega, J. M. Millam, M. Klene, J. E. Knox, J. B. Cross, 
 V. Bakken, C. Adamo, J. Jaramillo, R. Gomperts, R. E. Stratmann, 
 O. Yazyev, A. J. Austin, R. Cammi, C. Pomelli, J. W. Ochterski, 
 R. L. Martin, K. Morokuma, V. G. Zakrzewski, G. A. Voth, 
 P. Salvador, J. J. Dannenberg, S. Dapprich, A. D. Daniels, 
 O. Farkas, J. B. Foresman, J. V. Ortiz, J. Cioslowski, 
 and D. J. Fox, Gaussian, Inc., Wallingford CT, 2010.
 
 ******************************************
 Gaussian 09:  AM64L-G09RevC.01 23-Sep-2011
                16-Feb-2018 
 ******************************************
 %nprocs=4
 Will use up to    4 processors via shared memory.
 %chk=frag24-conf1.chk
 ---------------------------------------------------------
 #B3LYP/6-31G* Integral=(Grid=UltraFine) freq Opt pop=none
 ---------------------------------------------------------
 1/14=-1,18=20,19=15,26=3,38=1/1,3;
 2/9=110,12=2,17=6,18=5,40=1/2;
 3/5=1,6=6,7=1,11=2,16=1,25=1,30=1,71=1,74=-5,75=-5/1,2,3;
 4//1;
 5/5=2,38=5/2;
 7//1,2,3,16;
 1/14=-1,18=20,19=15/3(2);
 2/9=110/2;
 99//99;
 2/9=110/2;
 3/5=1,6=6,7=1,11=2,16=1,25=1,30=1,71=1,74=-5,75=-5/1,2,3;
 4/5=5,16=3/1;
 5/5=2,38=5/2;
 7//1,2,3,16;
 1/14=-1,18=20,19=15/3(-5);
 2/9=110/2;
 99/9=1/99;
 -----------------------------
 Optimization for frag24-conf1
 -----------------------------
 Charge =  0 Multiplicity = 1
 Symbolic Z-Matrix:
 C                    -0.30501  -2.66864   2.29886 
 C                     0.69093  -0.35872   2.39415 
 C                    -1.20061  -4.96233   2.393 
 C                    -2.71845  -3.16101   1.67888 
 C                    -2.74509   0.21876  -0.08518 
 C                    -0.46815  -1.19082   1.85097 
 N                    -0.45079  -1.1925    0.35661 
 N                    -1.38137  -3.54051   2.12217 
 O                     0.7692   -3.08155   2.75592 
 O                    -0.88947  -0.22202  -1.89903 
 O                    -0.34265   1.322     0.00422 
 S                    -1.01363   0.13802  -0.49721 
 H                     1.6384   -0.62519   1.91216 
 H                     0.52657   0.71059   2.23851 
 H                     0.80897  -0.51064   3.47292 
 H                    -1.85141  -5.24541   3.22565 
 H                    -0.1686   -5.21027   2.65222 
 H                    -1.48332  -5.52833   1.50027 
 H                    -2.85323  -3.51128   0.65148 
 H                    -2.88742  -2.08759   1.71649 
 H                    -3.45781  -3.64334   2.32568 
 H                    -3.1891    1.02215  -0.67757 
 H                    -3.21491  -0.73081  -0.34605 
 H                    -2.85738   0.44405   0.97559 
 H                    -1.40518  -0.80004   2.2503 
 H                    -0.81577  -2.06364  -0.04738 
 

 GradGradGradGradGradGradGradGradGradGradGradGradGradGradGradGradGradGrad
 Berny optimization.
 Initialization pass.
                           ----------------------------
                           !    Initial Parameters    !
                           ! (Angstroms and Degrees)  !
 --------------------------                            --------------------------
 ! Name  Definition              Value          Derivative Info.                !
 --------------------------------------------------------------------------------
 ! R1    R(1,6)                  1.5528         estimate D2E/DX2                !
 ! R2    R(1,8)                  1.3964         estimate D2E/DX2                !
 ! R3    R(1,9)                  1.2383         estimate D2E/DX2                !
 ! R4    R(2,6)                  1.5267         estimate D2E/DX2                !
 ! R5    R(2,13)                 1.0959         estimate D2E/DX2                !
 ! R6    R(2,14)                 1.093          estimate D2E/DX2                !
 ! R7    R(2,15)                 1.0958         estimate D2E/DX2                !
 ! R8    R(3,8)                  1.4586         estimate D2E/DX2                !
 ! R9    R(3,16)                 1.0941         estimate D2E/DX2                !
 ! R10   R(3,17)                 1.0926         estimate D2E/DX2                !
 ! R11   R(3,18)                 1.0942         estimate D2E/DX2                !
 ! R12   R(4,8)                  1.4589         estimate D2E/DX2                !
 ! R13   R(4,19)                 1.0938         estimate D2E/DX2                !
 ! R14   R(4,20)                 1.0873         estimate D2E/DX2                !
 ! R15   R(4,21)                 1.0944         estimate D2E/DX2                !
 ! R16   R(5,12)                 1.7816         estimate D2E/DX2                !
 ! R17   R(5,22)                 1.0925         estimate D2E/DX2                !
 ! R18   R(5,23)                 1.0911         estimate D2E/DX2                !
 ! R19   R(5,24)                 1.0902         estimate D2E/DX2                !
 ! R20   R(6,7)                  1.4945         estimate D2E/DX2                !
 ! R21   R(6,25)                 1.091          estimate D2E/DX2                !
 ! R22   R(7,12)                 1.6781         estimate D2E/DX2                !
 ! R23   R(7,26)                 1.0273         estimate D2E/DX2                !
 ! R24   R(10,12)                1.4526         estimate D2E/DX2                !
 ! R25   R(11,12)                1.4503         estimate D2E/DX2                !
 ! A1    A(6,1,8)              118.4733         estimate D2E/DX2                !
 ! A2    A(6,1,9)              120.9947         estimate D2E/DX2                !
 ! A3    A(8,1,9)              120.4766         estimate D2E/DX2                !
 ! A4    A(6,2,13)             111.5526         estimate D2E/DX2                !
 ! A5    A(6,2,14)             111.6157         estimate D2E/DX2                !
 ! A6    A(6,2,15)             110.8839         estimate D2E/DX2                !
 ! A7    A(13,2,14)            107.7736         estimate D2E/DX2                !
 ! A8    A(13,2,15)            107.827          estimate D2E/DX2                !
 ! A9    A(14,2,15)            106.9787         estimate D2E/DX2                !
 ! A10   A(8,3,16)             108.6512         estimate D2E/DX2                !
 ! A11   A(8,3,17)             112.4769         estimate D2E/DX2                !
 ! A12   A(8,3,18)             108.7064         estimate D2E/DX2                !
 ! A13   A(16,3,17)            108.8195         estimate D2E/DX2                !
 ! A14   A(16,3,18)            109.4754         estimate D2E/DX2                !
 ! A15   A(17,3,18)            108.6775         estimate D2E/DX2                !
 ! A16   A(8,4,19)             108.3632         estimate D2E/DX2                !
 ! A17   A(8,4,20)             112.8755         estimate D2E/DX2                !
 ! A18   A(8,4,21)             108.9637         estimate D2E/DX2                !
 ! A19   A(19,4,20)            109.2374         estimate D2E/DX2                !
 ! A20   A(19,4,21)            109.315          estimate D2E/DX2                !
 ! A21   A(20,4,21)            108.0402         estimate D2E/DX2                !
 ! A22   A(12,5,22)            107.6321         estimate D2E/DX2                !
 ! A23   A(12,5,23)            108.889          estimate D2E/DX2                !
 ! A24   A(12,5,24)            109.5406         estimate D2E/DX2                !
 ! A25   A(22,5,23)            109.5942         estimate D2E/DX2                !
 ! A26   A(22,5,24)            109.4975         estimate D2E/DX2                !
 ! A27   A(23,5,24)            111.6            estimate D2E/DX2                !
 ! A28   A(1,6,2)              109.6531         estimate D2E/DX2                !
 ! A29   A(1,6,7)              106.6264         estimate D2E/DX2                !
 ! A30   A(1,6,25)             108.9993         estimate D2E/DX2                !
 ! A31   A(2,6,7)              110.3377         estimate D2E/DX2                !
 ! A32   A(2,6,25)             109.0641         estimate D2E/DX2                !
 ! A33   A(7,6,25)             112.1098         estimate D2E/DX2                !
 ! A34   A(6,7,12)             120.2635         estimate D2E/DX2                !
 ! A35   A(6,7,26)             112.9584         estimate D2E/DX2                !
 ! A36   A(12,7,26)            110.6771         estimate D2E/DX2                !
 ! A37   A(1,8,3)              119.3145         estimate D2E/DX2                !
 ! A38   A(1,8,4)              125.6259         estimate D2E/DX2                !
 ! A39   A(3,8,4)              115.0596         estimate D2E/DX2                !
 ! A40   A(5,12,7)             104.1356         estimate D2E/DX2                !
 ! A41   A(5,12,10)            108.5098         estimate D2E/DX2                !
 ! A42   A(5,12,11)            109.43           estimate D2E/DX2                !
 ! A43   A(7,12,10)            105.4159         estimate D2E/DX2                !
 ! A44   A(7,12,11)            108.432          estimate D2E/DX2                !
 ! A45   A(10,12,11)           119.7643         estimate D2E/DX2                !
 ! D1    D(8,1,6,2)            168.1412         estimate D2E/DX2                !
 ! D2    D(8,1,6,7)            -72.4            estimate D2E/DX2                !
 ! D3    D(8,1,6,25)            48.8153         estimate D2E/DX2                !
 ! D4    D(9,1,6,2)            -14.5529         estimate D2E/DX2                !
 ! D5    D(9,1,6,7)            104.9059         estimate D2E/DX2                !
 ! D6    D(9,1,6,25)          -133.8788         estimate D2E/DX2                !
 ! D7    D(6,1,8,3)            173.0597         estimate D2E/DX2                !
 ! D8    D(6,1,8,4)             -6.9909         estimate D2E/DX2                !
 ! D9    D(9,1,8,3)             -4.2606         estimate D2E/DX2                !
 ! D10   D(9,1,8,4)            175.6888         estimate D2E/DX2                !
 ! D11   D(13,2,6,1)            68.6467         estimate D2E/DX2                !
 ! D12   D(13,2,6,7)           -48.5084         estimate D2E/DX2                !
 ! D13   D(13,2,6,25)         -172.0672         estimate D2E/DX2                !
 ! D14   D(14,2,6,1)          -170.7203         estimate D2E/DX2                !
 ! D15   D(14,2,6,7)            72.1246         estimate D2E/DX2                !
 ! D16   D(14,2,6,25)          -51.4342         estimate D2E/DX2                !
 ! D17   D(15,2,6,1)           -51.5521         estimate D2E/DX2                !
 ! D18   D(15,2,6,7)          -168.7072         estimate D2E/DX2                !
 ! D19   D(15,2,6,25)           67.734          estimate D2E/DX2                !
 ! D20   D(16,3,8,1)           116.3885         estimate D2E/DX2                !
 ! D21   D(16,3,8,4)           -63.5661         estimate D2E/DX2                !
 ! D22   D(17,3,8,1)            -4.1495         estimate D2E/DX2                !
 ! D23   D(17,3,8,4)           175.8959         estimate D2E/DX2                !
 ! D24   D(18,3,8,1)          -124.5468         estimate D2E/DX2                !
 ! D25   D(18,3,8,4)            55.4986         estimate D2E/DX2                !
 ! D26   D(19,4,8,1)           107.366          estimate D2E/DX2                !
 ! D27   D(19,4,8,3)           -72.6827         estimate D2E/DX2                !
 ! D28   D(20,4,8,1)           -13.7549         estimate D2E/DX2                !
 ! D29   D(20,4,8,3)           166.1964         estimate D2E/DX2                !
 ! D30   D(21,4,8,1)          -133.7806         estimate D2E/DX2                !
 ! D31   D(21,4,8,3)            46.1707         estimate D2E/DX2                !
 ! D32   D(22,5,12,7)         -175.482          estimate D2E/DX2                !
 ! D33   D(22,5,12,10)         -63.557          estimate D2E/DX2                !
 ! D34   D(22,5,12,11)          68.7595         estimate D2E/DX2                !
 ! D35   D(23,5,12,7)          -56.7531         estimate D2E/DX2                !
 ! D36   D(23,5,12,10)          55.172          estimate D2E/DX2                !
 ! D37   D(23,5,12,11)        -172.5116         estimate D2E/DX2                !
 ! D38   D(24,5,12,7)           65.5431         estimate D2E/DX2                !
 ! D39   D(24,5,12,10)         177.4681         estimate D2E/DX2                !
 ! D40   D(24,5,12,11)         -50.2154         estimate D2E/DX2                !
 ! D41   D(1,6,7,12)           163.2214         estimate D2E/DX2                !
 ! D42   D(1,6,7,26)            29.4991         estimate D2E/DX2                !
 ! D43   D(2,6,7,12)           -77.7648         estimate D2E/DX2                !
 ! D44   D(2,6,7,26)           148.5128         estimate D2E/DX2                !
 ! D45   D(25,6,7,12)           44.0094         estimate D2E/DX2                !
 ! D46   D(25,6,7,26)          -89.713          estimate D2E/DX2                !
 ! D47   D(6,7,12,5)           -64.1139         estimate D2E/DX2                !
 ! D48   D(6,7,12,10)         -178.2587         estimate D2E/DX2                !
 ! D49   D(6,7,12,11)           52.3431         estimate D2E/DX2                !
 ! D50   D(26,7,12,5)           70.548          estimate D2E/DX2                !
 ! D51   D(26,7,12,10)         -43.5968         estimate D2E/DX2                !
 ! D52   D(26,7,12,11)        -172.9951         estimate D2E/DX2                !
 --------------------------------------------------------------------------------
 Trust Radius=3.00D-01 FncErr=1.00D-07 GrdErr=1.00D-06
 Number of steps in this run=    132 maximum allowed number of steps=    156.
 GradGradGradGradGradGradGradGradGradGradGradGradGradGradGradGradGradGrad

                          Input orientation:                          
 ---------------------------------------------------------------------
 Center     Atomic      Atomic             Coordinates (Angstroms)
 Number     Number       Type             X           Y           Z
 ---------------------------------------------------------------------
      1          6           0       -0.305015   -2.668640    2.298860
      2          6           0        0.690932   -0.358719    2.394155
      3          6           0       -1.200614   -4.962331    2.393001
      4          6           0       -2.718452   -3.161012    1.678884
      5          6           0       -2.745092    0.218761   -0.085184
      6          6           0       -0.468149   -1.190820    1.850972
      7          7           0       -0.450790   -1.192500    0.356612
      8          7           0       -1.381369   -3.540509    2.122173
      9          8           0        0.769201   -3.081552    2.755915
     10          8           0       -0.889474   -0.222017   -1.899029
     11          8           0       -0.342652    1.321998    0.004216
     12         16           0       -1.013628    0.138017   -0.497212
     13          1           0        1.638401   -0.625193    1.912156
     14          1           0        0.526573    0.710588    2.238512
     15          1           0        0.808969   -0.510636    3.472919
     16          1           0       -1.851409   -5.245409    3.225645
     17          1           0       -0.168604   -5.210271    2.652221
     18          1           0       -1.483324   -5.528327    1.500275
     19          1           0       -2.853226   -3.511277    0.651475
     20          1           0       -2.887419   -2.087591    1.716493
     21          1           0       -3.457814   -3.643344    2.325679
     22          1           0       -3.189101    1.022155   -0.677569
     23          1           0       -3.214912   -0.730808   -0.346054
     24          1           0       -2.857383    0.444052    0.975589
     25          1           0       -1.405185   -0.800044    2.250296
     26          1           0       -0.815766   -2.063640   -0.047378
 ---------------------------------------------------------------------
                    Distance matrix (angstroms):
                    1          2          3          4          5
     1  C    0.000000
     2  C    2.517285   0.000000
     3  C    2.464138   4.977066   0.000000
     4  C    2.539976   4.470834   2.461411   0.000000
     5  C    4.469310   4.276314   5.947313   3.812547   0.000000
     6  C    1.552794   1.526731   3.880026   2.995854   3.304556
     7  N    2.443883   2.479980   4.349797   3.281118   2.729591
     8  N    1.396393   3.806862   1.458628   1.458874   4.567744
     9  O    1.238279   2.747874   2.747582   3.651032   5.595906
    10  O    4.893856   4.576877   6.402258   4.978385   2.632041
    11  O    4.603477   3.099179   6.777549   5.342875   2.645154
    12  S    4.024609   3.392974   5.865309   4.304117   1.781645
    13  H    2.846416   1.095915   5.205957   5.046481   4.890464
    14  H    3.480569   1.093003   5.932035   5.082583   4.042926
    15  H    2.697473   1.095785   5.002223   4.762957   5.081680
    16  H    3.144838   5.570872   1.094059   2.736594   6.451157
    17  H    2.569700   4.933858   1.092572   3.413000   6.603489
    18  H    3.194363   5.679019   1.094183   2.676120   6.093829
    19  H    3.149174   5.053376   2.805280   1.093809   3.803623
    20  H    2.710273   4.031478   3.401044   1.087289   2.930112
    21  H    3.300138   5.292026   2.615189   1.094369   4.608263
    22  H    5.549689   5.137796   7.014025   4.824238   1.092477
    23  H    4.383864   4.785688   5.428222   3.201990   1.091085
    24  H    4.237273   3.904780   5.829486   3.675652   1.090231
    25  H    2.168959   2.146897   4.169753   2.761404   2.878851
    26  H    2.476231   3.337360   3.808670   2.793640   2.988827
                    6          7          8          9         10
     6  C    0.000000
     7  N    1.494461   0.000000
     8  N    2.535462   3.081612   0.000000
     9  O    2.434096   3.288396   2.288498   0.000000
    10  O    3.895973   2.494434   5.236833   5.709348   0.000000
    11  O    3.120978   2.541373   5.404503   5.310303   2.511043
    12  S    2.752694   1.678118   4.530781   4.911918   1.452629
    13  H    2.182024   2.665760   4.202641   2.738820   4.591061
    14  H    2.180598   2.849303   4.661073   3.834957   4.471486
    15  H    2.173567   3.429767   3.975202   2.669323   5.641440
    16  H    4.499204   5.159376   2.084532   3.430820   7.240309
    17  H    4.109467   4.635939   2.130693   2.328449   6.790892
    18  H    4.468505   4.601465   2.085322   3.554885   6.329680
    19  H    3.537218   3.351921   2.080906   4.211331   4.602242
    20  H    2.583631   2.930464   2.131603   3.929278   4.532566
    21  H    3.895937   4.350408   2.088926   4.285834   6.012487
    22  H    4.323697   3.670501   5.650164   6.655627   2.885864
    23  H    3.547286   2.889164   4.165146   5.569682   2.842229
    24  H    3.024490   2.975420   4.401136   5.362047   3.546794
    25  H    1.090964   2.156601   2.743562   3.192002   4.221016
    26  H    2.118109   1.027278   2.684773   3.377383   2.612589
                   11         12         13         14         15
    11  O    0.000000
    12  S    1.450327   0.000000
    13  H    3.369920   3.663442   0.000000
    14  H    2.474157   3.191276   1.768327   0.000000
    15  H    4.088604   4.416396   1.771176   1.759231   0.000000
    16  H    7.468922   6.598699   5.937207   6.488692   5.436620
    17  H    7.050727   6.263959   4.983563   5.975867   4.869884
    18  H    7.103961   6.026443   5.827138   6.596115   5.858597
    19  H    5.484749   4.245110   5.485756   5.636122   5.511449
    20  H    4.586177   3.655806   4.760245   4.444957   4.385784
    21  H    6.304605   5.314269   5.937310   5.902512   5.416222
    22  H    2.942279   2.355188   5.720595   4.733585   5.963267
    23  H    3.547757   2.371362   5.354000   4.770358   5.551995
    24  H    2.835176   2.379545   4.715137   3.621763   4.537644
    25  H    3.267555   2.929519   3.067299   2.452312   2.545789
    26  H    3.418924   2.255836   3.454249   3.837122   4.176611
                   16         17         18         19         20
    16  H    0.000000
    17  H    1.778168   0.000000
    18  H    1.786738   1.776690   0.000000
    19  H    3.261473   3.754565   2.581778   0.000000
    20  H    3.650024   4.244840   3.722485   1.778290   0.000000
    21  H    2.440715   3.657976   2.851852   1.784916   1.765453
    22  H    7.503790   7.684662   7.110660   4.736156   3.936123
    23  H    5.915894   6.191545   5.424344   2.976052   2.490424
    24  H    6.200380   6.481666   6.150824   3.968589   2.638002
    25  H    4.572931   4.597910   4.788036   3.464655   2.034635
    26  H    4.680694   4.196181   3.852910   2.595245   2.720949
                   21         22         23         24         25
    21  H    0.000000
    22  H    5.555050   0.000000
    23  H    3.959800   1.784222   0.000000
    24  H    4.346270   1.782462   1.804125   0.000000
    25  H    3.507609   3.882674   3.165587   2.298158   0.000000
    26  H    3.886809   3.943601   2.760716   3.391634   2.687637
                   26
    26  H    0.000000
 Stoichiometry    C6H14N2O3S
 Framework group  C1[X(C6H14N2O3S)]
 Deg. of freedom    72
 Full point group                 C1      NOp   1
 Largest Abelian subgroup         C1      NOp   1
 Largest concise Abelian subgroup C1      NOp   1
                         Standard orientation:                         
 ---------------------------------------------------------------------
 Center     Atomic      Atomic             Coordinates (Angstroms)
 Number     Number       Type             X           Y           Z
 ---------------------------------------------------------------------
      1          6           0       -1.805210    0.654163   -0.003691
      2          6           0       -0.004254    2.309449   -0.598091
      3          6           0       -3.705110   -0.829613    0.506962
      4          6           0       -1.772295   -1.796282   -0.671309
      5          6           0        2.005864   -1.439383   -1.036891
      6          6           0       -0.334236    0.824224   -0.471115
      7          7           0        0.523114    0.189293    0.575416
      8          7           0       -2.381152   -0.616354   -0.066844
      9          8           0       -2.440704    1.609339    0.462274
     10          8           0        2.627861   -0.827457    1.446314
     11          8           0        2.777773    0.978473   -0.291927
     12         16           0        2.120164   -0.200434    0.238334
     13          1           0        0.024086    2.800710    0.381137
     14          1           0        0.964758    2.466972   -1.078567
     15          1           0       -0.752619    2.824900   -1.210469
     16          1           0       -4.394031   -1.107190   -0.296346
     17          1           0       -4.090602    0.060328    1.010066
     18          1           0       -3.645218   -1.644969    1.234178
     19          1           0       -1.463439   -2.473547    0.130151
     20          1           0       -0.910892   -1.557301   -1.290236
     21          1           0       -2.514338   -2.295988   -1.301634
     22          1           0        3.017780   -1.795003   -1.244416
     23          1           0        1.394977   -2.266520   -0.672024
     24          1           0        1.583738   -0.996192   -1.939108
     25          1           0       -0.213764    0.347888   -1.445175
     26          1           0        0.055211   -0.585903    1.060634
 ---------------------------------------------------------------------
 Rotational constants (GHZ):      1.3882753      0.4994303      0.4230110
 Standard basis: 6-31G(d) (6D, 7F)
 There are   212 symmetry adapted basis functions of A   symmetry.
 Integral buffers will be    131072 words long.
 Raffenetti 2 integral format.
 Two-electron integral symmetry is turned on.
   212 basis functions,   416 primitive gaussians,   212 cartesian basis functions
    52 alpha electrons       52 beta electrons
       nuclear repulsion energy       924.5778536265 Hartrees.
 NAtoms=   26 NActive=   26 NUniq=   26 SFac= 1.00D+00 NAtFMM=   60 NAOKFM=F Big=F
 One-electron integrals computed using PRISM.
 NBasis=   212 RedAO= T  NBF=   212
 NBsUse=   212 1.00D-06 NBFU=   212
 Harris functional with IExCor=  402 diagonalized for initial guess.
 ExpMin= 1.17D-01 ExpMax= 2.19D+04 ExpMxC= 3.30D+03 IAcc=3 IRadAn=         5 AccDes= 0.00D+00
 HarFok:  IExCor=  402 AccDes= 0.00D+00 IRadAn=         5 IDoV= 1
 ScaDFX=  1.000000  1.000000  1.000000  1.000000
 FoFCou: FMM=F IPFlag=           0 FMFlag=      100000 FMFlg1=           0
         NFxFlg=           0 DoJE=T BraDBF=F KetDBF=T FulRan=T
         Omega=  0.000000  0.000000  1.000000  0.000000  0.000000 ICntrl=     500 IOpCl=  0
         NMat0=    1 NMatS0=    1 NMatT0=    0 NMatD0=    1 NMtDS0=    0 NMtDT0=    0
         I1Cent=           4 NGrid=           0.
 Petite list used in FoFCou.
 Initial guess orbital symmetries:
       Occupied  (A) (A) (A) (A) (A) (A) (A) (A) (A) (A) (A) (A)
                 (A) (A) (A) (A) (A) (A) (A) (A) (A) (A) (A) (A)
                 (A) (A) (A) (A) (A) (A) (A) (A) (A) (A) (A) (A)
                 (A) (A) (A) (A) (A) (A) (A) (A) (A) (A) (A) (A)
                 (A) (A) (A) (A)
       Virtual   (A) (A) (A) (A) (A) (A) (A) (A) (A) (A) (A) (A)
                 (A) (A) (A) (A) (A) (A) (A) (A) (A) (A) (A) (A)
                 (A) (A) (A) (A) (A) (A) (A) (A) (A) (A) (A) (A)
                 (A) (A) (A) (A) (A) (A) (A) (A) (A) (A) (A) (A)
                 (A) (A) (A) (A) (A) (A) (A) (A) (A) (A) (A) (A)
                 (A) (A) (A) (A) (A) (A) (A) (A) (A) (A) (A) (A)
                 (A) (A) (A) (A) (A) (A) (A) (A) (A) (A) (A) (A)
                 (A) (A) (A) (A) (A) (A) (A) (A) (A) (A) (A) (A)
                 (A) (A) (A) (A) (A) (A) (A) (A) (A) (A) (A) (A)
                 (A) (A) (A) (A) (A) (A) (A) (A) (A) (A) (A) (A)
                 (A) (A) (A) (A) (A) (A) (A) (A) (A) (A) (A) (A)
                 (A) (A) (A) (A) (A) (A) (A) (A) (A) (A) (A) (A)
                 (A) (A) (A) (A) (A) (A) (A) (A) (A) (A) (A) (A)
                 (A) (A) (A) (A)
 The electronic state of the initial guess is 1-A.
 Requested convergence on RMS density matrix=1.00D-08 within 128 cycles.
 Requested convergence on MAX density matrix=1.00D-06.
 Requested convergence on             energy=1.00D-06.
 No special actions if energy rises.
 Integral accuracy reduced to 1.0D-05 until final iterations.
 Initial convergence to 1.0D-05 achieved.  Increase integral accuracy.
 SCF Done:  E(RB3LYP) =  -970.359810226     A.U. after   15 cycles
             Convg  =    0.5833D-08             -V/T =  2.0071
 Calling FoFJK, ICntrl=      2127 FMM=F ISym2X=0 I1Cent= 0 IOpClX= 0 NMat=1 NMatS=1 NMatT=0.
 ***** Axes restored to original set *****
 -------------------------------------------------------------------
 Center     Atomic                   Forces (Hartrees/Bohr)
 Number     Number              X              Y              Z
 -------------------------------------------------------------------
      1        6           0.011411561   -0.021864177    0.006508357
      2        6           0.005765332    0.006460665    0.006155142
      3        6          -0.001847119    0.000392381    0.000119273
      4        6           0.007816938   -0.005978767    0.000142365
      5        6          -0.009739563    0.005597525   -0.001099421
      6        6           0.014064144   -0.004707551   -0.002390835
      7        7          -0.005738054   -0.010783562    0.008660315
      8        7           0.014773223    0.018749947    0.003107958
      9        8          -0.019871716    0.011101136   -0.008683015
     10        8          -0.004408366   -0.005925681   -0.011125181
     11        8           0.000401210    0.010710997    0.009237840
     12       16           0.011243291   -0.007694598   -0.004869029
     13        1          -0.004064171   -0.002441480    0.000578949
     14        1          -0.002138220   -0.001440454   -0.003341357
     15        1          -0.001404692   -0.002886685   -0.001037285
     16        1          -0.001363271   -0.004168611    0.000882422
     17        1          -0.001392294    0.007512044   -0.001051941
     18        1          -0.001823965   -0.003413412   -0.000334125
     19        1          -0.007452702   -0.000396260   -0.003286443
     20        1           0.001797609    0.000791443    0.001003642
     21        1          -0.002243878   -0.000467467   -0.000861173
     22        1          -0.000494062    0.000565352    0.000383316
     23        1          -0.000829316    0.000212900   -0.000081952
     24        1          -0.001339198   -0.000101502    0.001042914
     25        1          -0.005330244    0.002066266    0.000838945
     26        1           0.004207520    0.008109551   -0.000499683
 -------------------------------------------------------------------
 Cartesian Forces:  Max     0.021864177 RMS     0.006743916

 GradGradGradGradGradGradGradGradGradGradGradGradGradGradGradGradGradGrad
 Berny optimization.
 Internal  Forces:  Max     0.024145578 RMS     0.004589609
 Search for a local minimum.
 Step number   1 out of a maximum of  132
 All quantities printed in internal units (Hartrees-Bohrs-Radians)
 Mixed Optimization -- RFO/linear search
 Second derivative matrix not updated -- first step.
 ITU=  0
     Eigenvalues ---    0.00230   0.00412   0.00442   0.00613   0.00835
     Eigenvalues ---    0.00913   0.00916   0.01144   0.01586   0.01739
     Eigenvalues ---    0.01982   0.04896   0.05057   0.05438   0.05542
     Eigenvalues ---    0.05968   0.06214   0.06237   0.07261   0.07315
     Eigenvalues ---    0.07724   0.07726   0.08376   0.08898   0.12841
     Eigenvalues ---    0.12967   0.16000   0.16000   0.16000   0.16000
     Eigenvalues ---    0.16000   0.16000   0.16000   0.16000   0.16000
     Eigenvalues ---    0.16000   0.16000   0.16000   0.16964   0.17439
     Eigenvalues ---    0.18262   0.22862   0.24978   0.25000   0.25000
     Eigenvalues ---    0.25000   0.25000   0.27415   0.27618   0.29727
     Eigenvalues ---    0.32965   0.34138   0.34153   0.34313   0.34334
     Eigenvalues ---    0.34348   0.34376   0.34468   0.34517   0.34528
     Eigenvalues ---    0.34688   0.34702   0.34786   0.35128   0.37106
     Eigenvalues ---    0.37137   0.38658   0.43197   0.46224   0.87722
     Eigenvalues ---    0.94775   0.95794
 RFO step:  Lambda=-8.97931789D-03 EMin= 2.30000000D-03
 Linear search not attempted -- first point.
 Iteration  1 RMS(Cart)=  0.06554520 RMS(Int)=  0.00146728
 Iteration  2 RMS(Cart)=  0.00189056 RMS(Int)=  0.00032373
 Iteration  3 RMS(Cart)=  0.00000355 RMS(Int)=  0.00032373
 Iteration  4 RMS(Cart)=  0.00000000 RMS(Int)=  0.00032373
 Variable       Old X    -DE/DX   Delta X   Delta X   Delta X     New X
                                 (Linear)    (Quad)   (Total)
    R1        2.93436  -0.00288   0.00000  -0.01017  -0.01017   2.92419
    R2        2.63880  -0.01447   0.00000  -0.03070  -0.03070   2.60810
    R3        2.34001  -0.02415   0.00000  -0.02725  -0.02725   2.31276
    R4        2.88510  -0.00073   0.00000  -0.00238  -0.00238   2.88273
    R5        2.07098  -0.00317   0.00000  -0.00906  -0.00906   2.06192
    R6        2.06548  -0.00061   0.00000  -0.00173  -0.00173   2.06375
    R7        2.07073  -0.00077   0.00000  -0.00220  -0.00220   2.06853
    R8        2.75641  -0.00118   0.00000  -0.00311  -0.00311   2.75330
    R9        2.06747   0.00256   0.00000   0.00727   0.00727   2.07474
   R10        2.06466  -0.00327   0.00000  -0.00923  -0.00923   2.05543
   R11        2.06771   0.00251   0.00000   0.00712   0.00712   2.07483
   R12        2.75687  -0.00059   0.00000  -0.00154  -0.00154   2.75533
   R13        2.06700   0.00413   0.00000   0.01171   0.01171   2.07871
   R14        2.05468   0.00054   0.00000   0.00149   0.00149   2.05617
   R15        2.06806   0.00121   0.00000   0.00345   0.00345   2.07150
   R16        3.36682   0.01239   0.00000   0.04346   0.04346   3.41028
   R17        2.06448   0.00041   0.00000   0.00115   0.00115   2.06564
   R18        2.06185   0.00019   0.00000   0.00054   0.00054   2.06239
   R19        2.06024   0.00113   0.00000   0.00317   0.00317   2.06341
   R20        2.82412  -0.00172   0.00000  -0.00509  -0.00509   2.81903
   R21        2.06162   0.00563   0.00000   0.01580   0.01580   2.07742
   R22        3.17118   0.00771   0.00000   0.01950   0.01950   3.19068
   R23        1.94127  -0.00817   0.00000  -0.01854  -0.01854   1.92273
   R24        2.74507   0.01183   0.00000   0.01236   0.01236   2.75743
   R25        2.74072   0.01212   0.00000   0.01254   0.01254   2.75326
    A1        2.06775  -0.00174   0.00000  -0.00631  -0.00647   2.06128
    A2        2.11176  -0.00284   0.00000  -0.01059  -0.01074   2.10101
    A3        2.10271   0.00461   0.00000   0.01825   0.01809   2.12081
    A4        1.94696  -0.00364   0.00000  -0.02636  -0.02669   1.92027
    A5        1.94806  -0.00337   0.00000  -0.01654  -0.01668   1.93139
    A6        1.93529  -0.00250   0.00000  -0.01338  -0.01354   1.92175
    A7        1.88100   0.00345   0.00000   0.01785   0.01756   1.89857
    A8        1.88194   0.00240   0.00000   0.00769   0.00733   1.88927
    A9        1.86713   0.00430   0.00000   0.03471   0.03474   1.90187
   A10        1.89632   0.00631   0.00000   0.03887   0.03867   1.93499
   A11        1.96309  -0.01200   0.00000  -0.07447  -0.07406   1.88903
   A12        1.89728   0.00466   0.00000   0.02939   0.02909   1.92637
   A13        1.89926   0.00186   0.00000   0.00734   0.00785   1.90711
   A14        1.91071  -0.00368   0.00000  -0.01448  -0.01534   1.89537
   A15        1.89678   0.00286   0.00000   0.01377   0.01407   1.91085
   A16        1.89130   0.01050   0.00000   0.06679   0.06667   1.95797
   A17        1.97005  -0.00529   0.00000  -0.03272  -0.03266   1.93739
   A18        1.90178   0.00154   0.00000   0.00582   0.00543   1.90720
   A19        1.90655  -0.00189   0.00000  -0.00526  -0.00497   1.90158
   A20        1.90791  -0.00513   0.00000  -0.02740  -0.02794   1.87997
   A21        1.88566   0.00006   0.00000  -0.00833  -0.00854   1.87712
   A22        1.87853   0.00029   0.00000   0.00129   0.00128   1.87982
   A23        1.90047   0.00079   0.00000   0.00491   0.00489   1.90536
   A24        1.91184   0.00155   0.00000   0.00941   0.00939   1.92124
   A25        1.91278  -0.00057   0.00000  -0.00382  -0.00382   1.90895
   A26        1.91109  -0.00094   0.00000  -0.00604  -0.00605   1.90504
   A27        1.94779  -0.00107   0.00000  -0.00542  -0.00546   1.94233
   A28        1.91381  -0.00091   0.00000   0.00080   0.00077   1.91458
   A29        1.86098  -0.00142   0.00000  -0.00525  -0.00538   1.85560
   A30        1.90240   0.00111   0.00000   0.00276   0.00268   1.90507
   A31        1.92576   0.00368   0.00000   0.02385   0.02388   1.94964
   A32        1.90353  -0.00063   0.00000  -0.00167  -0.00157   1.90195
   A33        1.95669  -0.00187   0.00000  -0.02044  -0.02045   1.93623
   A34        2.09899   0.00768   0.00000   0.03969   0.03885   2.13785
   A35        1.97150   0.00057   0.00000   0.02504   0.02444   1.99594
   A36        1.93168  -0.00531   0.00000  -0.01436  -0.01570   1.91597
   A37        2.08243  -0.00301   0.00000  -0.01164  -0.01169   2.07075
   A38        2.19259   0.00452   0.00000   0.01744   0.01739   2.20998
   A39        2.00817  -0.00151   0.00000  -0.00582  -0.00587   2.00230
   A40        1.81751   0.01412   0.00000   0.05105   0.05155   1.86906
   A41        1.89385  -0.00625   0.00000  -0.03195  -0.03246   1.86140
   A42        1.90991  -0.00850   0.00000  -0.04619  -0.04649   1.86342
   A43        1.83986  -0.00238   0.00000   0.00185   0.00242   1.84228
   A44        1.89250  -0.00267   0.00000  -0.00479  -0.00398   1.88852
   A45        2.09028   0.00749   0.00000   0.03664   0.03558   2.12587
    D1        2.93462  -0.00155   0.00000  -0.02406  -0.02392   2.91070
    D2       -1.26362   0.00153   0.00000   0.00181   0.00192  -1.26170
    D3        0.85199  -0.00092   0.00000  -0.02416  -0.02408   0.82791
    D4       -0.25400  -0.00090   0.00000   0.00923   0.00914  -0.24485
    D5        1.83095   0.00218   0.00000   0.03509   0.03498   1.86593
    D6       -2.33663  -0.00027   0.00000   0.00912   0.00898  -2.32764
    D7        3.02046   0.00060   0.00000   0.03254   0.03275   3.05321
    D8       -0.12201   0.00020   0.00000   0.01318   0.01331  -0.10870
    D9       -0.07436   0.00015   0.00000   0.00024   0.00011  -0.07425
   D10        3.06635  -0.00024   0.00000  -0.01912  -0.01933   3.04702
   D11        1.19811  -0.00082   0.00000  -0.03405  -0.03400   1.16412
   D12       -0.84663  -0.00072   0.00000  -0.04224  -0.04223  -0.88886
   D13       -3.00314  -0.00039   0.00000  -0.03122  -0.03123  -3.03437
   D14       -2.97963  -0.00127   0.00000  -0.04098  -0.04086  -3.02049
   D15        1.25881  -0.00116   0.00000  -0.04917  -0.04910   1.20971
   D16       -0.89770  -0.00083   0.00000  -0.03815  -0.03810  -0.93579
   D17       -0.89975   0.00028   0.00000  -0.01702  -0.01709  -0.91684
   D18       -2.94450   0.00038   0.00000  -0.02521  -0.02532  -2.96982
   D19        1.18218   0.00071   0.00000  -0.01419  -0.01432   1.16786
   D20        2.03136  -0.00115   0.00000  -0.02029  -0.02074   2.01063
   D21       -1.10944  -0.00080   0.00000  -0.00293  -0.00358  -1.11301
   D22       -0.07242  -0.00014   0.00000  -0.00856  -0.00837  -0.08079
   D23        3.06996   0.00021   0.00000   0.00881   0.00879   3.07875
   D24       -2.17375   0.00073   0.00000   0.00153   0.00209  -2.17166
   D25        0.96863   0.00109   0.00000   0.01889   0.01925   0.98789
   D26        1.87389   0.00067   0.00000   0.02518   0.02492   1.89881
   D27       -1.26855   0.00028   0.00000   0.00654   0.00614  -1.26241
   D28       -0.24007  -0.00083   0.00000   0.00654   0.00680  -0.23326
   D29        2.90067  -0.00122   0.00000  -0.01210  -0.01198   2.88870
   D30       -2.33491   0.00143   0.00000   0.03402   0.03422  -2.30069
   D31        0.80583   0.00104   0.00000   0.01537   0.01544   0.82127
   D32       -3.06274  -0.00057   0.00000  -0.02120  -0.02125  -3.08399
   D33       -1.10928   0.00072   0.00000  -0.00848  -0.00896  -1.11824
   D34        1.20008  -0.00092   0.00000  -0.02111  -0.02058   1.17950
   D35       -0.99053  -0.00065   0.00000  -0.02233  -0.02239  -1.01292
   D36        0.96293   0.00064   0.00000  -0.00961  -0.01009   0.95284
   D37       -3.01089  -0.00100   0.00000  -0.02223  -0.02171  -3.03261
   D38        1.14394  -0.00049   0.00000  -0.01997  -0.02002   1.12393
   D39        3.09740   0.00081   0.00000  -0.00725  -0.00772   3.08968
   D40       -0.87642  -0.00084   0.00000  -0.01988  -0.01934  -0.89576
   D41        2.84875   0.00025   0.00000   0.02336   0.02385   2.87260
   D42        0.51486  -0.00059   0.00000  -0.02905  -0.02943   0.48543
   D43       -1.35725   0.00034   0.00000   0.03427   0.03476  -1.32249
   D44        2.59204  -0.00050   0.00000  -0.01814  -0.01851   2.57353
   D45        0.76811   0.00086   0.00000   0.03495   0.03527   0.80338
   D46       -1.56579   0.00002   0.00000  -0.01746  -0.01800  -1.58379
   D47       -1.11900  -0.00090   0.00000  -0.02732  -0.02704  -1.14604
   D48       -3.11120   0.00114   0.00000  -0.01374  -0.01359  -3.12479
   D49        0.91356  -0.00480   0.00000  -0.05695  -0.05668   0.85688
   D50        1.23129   0.00218   0.00000   0.03962   0.03943   1.27073
   D51       -0.76091   0.00422   0.00000   0.05320   0.05288  -0.70803
   D52       -3.01933  -0.00172   0.00000   0.00999   0.00979  -3.00954
         Item               Value     Threshold  Converged?
 Maximum Force            0.024146     0.000450     NO 
 RMS     Force            0.004590     0.000300     NO 
 Maximum Displacement     0.222678     0.001800     NO 
 RMS     Displacement     0.066028     0.001200     NO 
 Predicted change in Energy=-4.800340D-03
 GradGradGradGradGradGradGradGradGradGradGradGradGradGradGradGradGradGrad

                          Input orientation:                          
 ---------------------------------------------------------------------
 Center     Atomic      Atomic             Coordinates (Angstroms)
 Number     Number       Type             X           Y           Z
 ---------------------------------------------------------------------
      1          6           0       -0.282839   -2.699848    2.287456
      2          6           0        0.695765   -0.390164    2.430555
      3          6           0       -1.171167   -4.970010    2.400507
      4          6           0       -2.702156   -3.183485    1.700421
      5          6           0       -2.783050    0.308871   -0.163091
      6          6           0       -0.456488   -1.219356    1.872147
      7          7           0       -0.476552   -1.202031    0.380616
      8          7           0       -1.355115   -3.552327    2.119191
      9          8           0        0.784442   -3.095408    2.737210
     10          8           0       -0.902118   -0.257076   -1.905713
     11          8           0       -0.367187    1.321772    0.021401
     12         16           0       -1.019917    0.129730   -0.503684
     13          1           0        1.632100   -0.681923    1.952332
     14          1           0        0.526563    0.673902    2.252259
     15          1           0        0.793739   -0.559299    3.507580
     16          1           0       -1.790237   -5.283412    3.251346
     17          1           0       -0.123012   -5.136518    2.638638
     18          1           0       -1.448052   -5.572424    1.525333
     19          1           0       -2.927992   -3.525439    0.679596
     20          1           0       -2.845338   -2.106103    1.752003
     21          1           0       -3.430663   -3.646496    2.376095
     22          1           0       -3.158187    1.132095   -0.776616
     23          1           0       -3.297124   -0.612972   -0.440617
     24          1           0       -2.938859    0.547757    0.890912
     25          1           0       -1.402624   -0.838322    2.282214
     26          1           0       -0.819232   -2.060584   -0.044467
 ---------------------------------------------------------------------
                    Distance matrix (angstroms):
                    1          2          3          4          5
     1  C    0.000000
     2  C    2.512526   0.000000
     3  C    2.440397   4.945839   0.000000
     4  C    2.536062   4.458880   2.454734   0.000000
     5  C    4.616126   4.395202   6.085785   3.959264   0.000000
     6  C    1.547414   1.525473   3.854521   2.988364   3.448269
     7  N    2.432493   2.497140   4.331295   3.259043   2.810404
     8  N    1.380148   3.781843   1.456983   1.458058   4.707086
     9  O    1.223861   2.724013   2.729818   3.638551   5.720826
    10  O    4.892168   4.623220   6.389653   4.980784   2.625821
    11  O    4.616877   3.140799   6.774441   5.344954   2.626100
    12  S    4.042309   3.438548   5.870651   4.320347   1.804642
    13  H    2.802021   1.091121   5.142650   5.010693   4.995021
    14  H    3.469663   1.092087   5.895592   5.060493   4.113478
    15  H    2.688806   1.094618   4.953871   4.730059   5.198169
    16  H    3.142631   5.549575   1.097905   2.765259   6.627041
    17  H    2.467029   4.820951   1.087686   3.368467   6.676657
    18  H    3.192216   5.680775   1.097951   2.703787   6.262797
    19  H    3.203692   5.101708   2.852149   1.100008   3.928493
    20  H    2.684333   3.993030   3.380143   1.088078   3.082785
    21  H    3.288282   5.256812   2.618704   1.096192   4.744659
    22  H    5.686823   5.239863   7.160868   4.996790   1.093087
    23  H    4.569830   4.923051   5.619204   3.397877   1.091370
    24  H    4.421733   4.057177   5.987434   3.825376   1.091909
    25  H    2.172378   2.150834   4.139856   2.743548   3.033338
    26  H    2.476740   3.348322   3.816610   2.801953   3.079767
                    6          7          8          9         10
     6  C    0.000000
     7  N    1.491767   0.000000
     8  N    2.512233   3.052607   0.000000
     9  O    2.409940   3.275442   2.273418   0.000000
    10  O    3.923875   2.510248   5.221469   5.697135   0.000000
    11  O    3.144928   2.551584   5.397553   5.311624   2.548074
    12  S    2.789634   1.688437   4.533142   4.915345   1.459171
    13  H    2.158115   2.680898   4.146144   2.675717   4.635436
    14  H    2.166865   2.833445   4.628114   3.809117   4.494061
    15  H    2.161802   3.435790   3.937438   2.650548   5.680759
    16  H    4.494176   5.159896   2.113707   3.417699   7.255899
    17  H    4.005355   4.550148   2.073057   2.235916   6.713202
    18  H    4.478022   4.621096   2.107628   3.547997   6.350043
    19  H    3.584484   3.390748   2.132393   4.266248   4.633593
    20  H    2.550953   2.882568   2.108828   3.889044   4.535845
    21  H    3.871781   4.322513   2.093506   4.266289   6.017939
    22  H    4.454711   3.738783   5.794875   6.764841   2.880018
    23  H    3.712922   2.996171   4.354747   5.737617   2.830057
    24  H    3.201200   3.063514   4.563728   5.526703   3.552068
    25  H    1.099325   2.146152   2.719312   3.175644   4.257591
    26  H    2.124302   1.017467   2.682142   3.373479   2.593019
                   11         12         13         14         15
    11  O    0.000000
    12  S    1.456962   0.000000
    13  H    3.426432   3.704590   0.000000
    14  H    2.489026   3.206704   1.774945   0.000000
    15  H    4.127908   4.455822   1.771068   1.779888   0.000000
    16  H    7.489064   6.632929   5.879925   6.469569   5.390717
    17  H    6.972737   6.197741   4.836822   5.859370   4.748307
    18  H    7.138630   6.067518   5.795400   6.591215   5.838352
    19  H    5.521449   4.289657   5.522669   5.660538   5.535952
    20  H    4.570180   3.663227   4.702751   4.398682   4.326377
    21  H    6.293899   5.325852   5.882162   5.860104   5.353188
    22  H    2.909036   2.377273   5.803850   4.791807   6.069010
    23  H    3.541360   2.396092   5.479800   4.850589   5.685623
    24  H    2.822879   2.408731   4.851020   3.725363   4.690929
    25  H    3.293845   2.974024   3.056605   2.451425   2.530492
    26  H    3.413066   2.246915   3.449194   3.816220   4.180021
                   16         17         18         19         20
    16  H    0.000000
    17  H    1.782310   0.000000
    18  H    1.783182   1.784711   0.000000
    19  H    3.316452   3.781711   2.663765   0.000000
    20  H    3.668318   4.169004   3.744218   1.780843   0.000000
    21  H    2.477208   3.637259   2.892014   1.773539   1.762074
    22  H    7.697694   7.757046   7.292058   4.885301   4.120402
    23  H    6.141197   6.326078   5.646255   3.142228   2.690935
    24  H    6.394804   6.579858   6.331005   4.078689   2.791630
    25  H    4.565992   4.498770   4.794440   3.480765   1.992439
    26  H    4.710823   4.140670   3.897783   2.667759   2.708224
                   21         22         23         24         25
    21  H    0.000000
    22  H    5.731383   0.000000
    23  H    4.141734   1.782542   0.000000
    24  H    4.476539   1.780507   1.802392   0.000000
    25  H    3.465198   4.039924   3.324713   2.493382   0.000000
    26  H    3.897924   4.024916   2.896975   3.488724   2.692158
                   26
    26  H    0.000000
 Stoichiometry    C6H14N2O3S
 Framework group  C1[X(C6H14N2O3S)]
 Deg. of freedom    72
 Full point group                 C1      NOp   1
 Largest Abelian subgroup         C1      NOp   1
 Largest concise Abelian subgroup C1      NOp   1
                         Standard orientation:                         
 ---------------------------------------------------------------------
 Center     Atomic      Atomic             Coordinates (Angstroms)
 Number     Number       Type             X           Y           Z
 ---------------------------------------------------------------------
      1          6           0       -1.830387    0.628624    0.015009
      2          6           0       -0.080885    2.320552   -0.609021
      3          6           0       -3.700213   -0.865315    0.491908
      4          6           0       -1.762512   -1.808394   -0.683521
      5          6           0        2.163341   -1.434410   -1.035061
      6          6           0       -0.375446    0.830085   -0.471872
      7          7           0        0.501139    0.186108    0.549040
      8          7           0       -2.373314   -0.637713   -0.065168
      9          8           0       -2.466643    1.569791    0.470222
     10          8           0        2.613164   -0.806006    1.474461
     11          8           0        2.759362    1.015615   -0.301209
     12         16           0        2.124547   -0.172322    0.254265
     13          1           0       -0.089955    2.795129    0.373444
     14          1           0        0.897650    2.479373   -1.067168
     15          1           0       -0.845715    2.799881   -1.228270
     16          1           0       -4.415531   -1.130769   -0.297554
     17          1           0       -4.026650    0.050894    0.978797
     18          1           0       -3.671512   -1.680436    1.226926
     19          1           0       -1.440066   -2.550865    0.061316
     20          1           0       -0.907217   -1.525563   -1.293759
     21          1           0       -2.492999   -2.292279   -1.342217
     22          1           0        3.207478   -1.717111   -1.192219
     23          1           0        1.598653   -2.306247   -0.700227
     24          1           0        1.757141   -1.032415   -1.965473
     25          1           0       -0.253776    0.349906   -1.453269
     26          1           0        0.064534   -0.583154    1.051884
 ---------------------------------------------------------------------
 Rotational constants (GHZ):      1.3808813      0.4939967      0.4194965
 Standard basis: 6-31G(d) (6D, 7F)
 There are   212 symmetry adapted basis functions of A   symmetry.
 Integral buffers will be    131072 words long.
 Raffenetti 2 integral format.
 Two-electron integral symmetry is turned on.
   212 basis functions,   416 primitive gaussians,   212 cartesian basis functions
    52 alpha electrons       52 beta electrons
       nuclear repulsion energy       921.7130232502 Hartrees.
 NAtoms=   26 NActive=   26 NUniq=   26 SFac= 1.00D+00 NAtFMM=   60 NAOKFM=F Big=F
 One-electron integrals computed using PRISM.
 NBasis=   212 RedAO= T  NBF=   212
 NBsUse=   212 1.00D-06 NBFU=   212
 Initial guess read from the read-write file.
 B after Tr=     0.000000    0.000000    0.000000
         Rot=    1.000000    0.000000    0.000000    0.000000 Ang=   0.00 deg.
 Initial guess orbital symmetries:
       Occupied  (A) (A) (A) (A) (A) (A) (A) (A) (A) (A) (A) (A)
                 (A) (A) (A) (A) (A) (A) (A) (A) (A) (A) (A) (A)
                 (A) (A) (A) (A) (A) (A) (A) (A) (A) (A) (A) (A)
                 (A) (A) (A) (A) (A) (A) (A) (A) (A) (A) (A) (A)
                 (A) (A) (A) (A)
       Virtual   (A) (A) (A) (A) (A) (A) (A) (A) (A) (A) (A) (A)
                 (A) (A) (A) (A) (A) (A) (A) (A) (A) (A) (A) (A)
                 (A) (A) (A) (A) (A) (A) (A) (A) (A) (A) (A) (A)
                 (A) (A) (A) (A) (A) (A) (A) (A) (A) (A) (A) (A)
                 (A) (A) (A) (A) (A) (A) (A) (A) (A) (A) (A) (A)
                 (A) (A) (A) (A) (A) (A) (A) (A) (A) (A) (A) (A)
                 (A) (A) (A) (A) (A) (A) (A) (A) (A) (A) (A) (A)
                 (A) (A) (A) (A) (A) (A) (A) (A) (A) (A) (A) (A)
                 (A) (A) (A) (A) (A) (A) (A) (A) (A) (A) (A) (A)
                 (A) (A) (A) (A) (A) (A) (A) (A) (A) (A) (A) (A)
                 (A) (A) (A) (A) (A) (A) (A) (A) (A) (A) (A) (A)
                 (A) (A) (A) (A) (A) (A) (A) (A) (A) (A) (A) (A)
                 (A) (A) (A) (A) (A) (A) (A) (A) (A) (A) (A) (A)
                 (A) (A) (A) (A)
 Harris functional with IExCor=  402 diagonalized for initial guess.
 ExpMin= 1.17D-01 ExpMax= 2.19D+04 ExpMxC= 3.30D+03 IAcc=3 IRadAn=         5 AccDes= 0.00D+00
 HarFok:  IExCor=  402 AccDes= 0.00D+00 IRadAn=         5 IDoV= 1
 ScaDFX=  1.000000  1.000000  1.000000  1.000000
 FoFCou: FMM=F IPFlag=           0 FMFlag=      100000 FMFlg1=           0
         NFxFlg=           0 DoJE=T BraDBF=F KetDBF=T FulRan=T
         Omega=  0.000000  0.000000  1.000000  0.000000  0.000000 ICntrl=     500 IOpCl=  0
         NMat0=    1 NMatS0=    1 NMatT0=    0 NMatD0=    1 NMtDS0=    0 NMtDT0=    0
         I1Cent=           4 NGrid=           0.
 Petite list used in FoFCou.
 Requested convergence on RMS density matrix=1.00D-08 within 128 cycles.
 Requested convergence on MAX density matrix=1.00D-06.
 Requested convergence on             energy=1.00D-06.
 No special actions if energy rises.
 Integral accuracy reduced to 1.0D-05 until final iterations.
 Initial convergence to 1.0D-05 achieved.  Increase integral accuracy.
 SCF Done:  E(RB3LYP) =  -970.364395833     A.U. after   12 cycles
             Convg  =    0.6893D-08             -V/T =  2.0071
 Calling FoFJK, ICntrl=      2127 FMM=F ISym2X=0 I1Cent= 0 IOpClX= 0 NMat=1 NMatS=1 NMatT=0.
 ***** Axes restored to original set *****
 -------------------------------------------------------------------
 Center     Atomic                   Forces (Hartrees/Bohr)
 Number     Number              X              Y              Z
 -------------------------------------------------------------------
      1        6          -0.000243711   -0.003840723    0.002829520
      2        6           0.001304102    0.003094040    0.000757316
      3        6           0.001504460   -0.001314100   -0.000144469
      4        6           0.002539296    0.000959068    0.001708961
      5        6          -0.004090265   -0.000367179    0.001585572
      6        6           0.002297250    0.000480673   -0.002943413
      7        7          -0.004404446    0.001473710    0.003121156
      8        7          -0.003008910    0.001154604   -0.003156114
      9        8          -0.000607041    0.001147067   -0.001240907
     10        8           0.000479959   -0.003498092   -0.003031868
     11        8           0.002582148    0.003552819    0.003336358
     12       16           0.000614437   -0.001387132   -0.000411089
     13        1           0.000132668   -0.000828923    0.000339477
     14        1          -0.000218647   -0.000609028   -0.001115372
     15        1          -0.000809985   -0.000460133   -0.000654633
     16        1          -0.000304932    0.000374694   -0.000230488
     17        1           0.000582815   -0.000552213    0.000472410
     18        1          -0.000473455    0.000380848    0.000312584
     19        1           0.000669109   -0.000384210    0.000157526
     20        1          -0.000858071    0.000624262   -0.000789647
     21        1          -0.000323990   -0.000275821    0.000092422
     22        1           0.001904299    0.000124650   -0.000261358
     23        1          -0.000596097   -0.000310944    0.000000901
     24        1           0.000139347   -0.000554912    0.000498605
     25        1          -0.000646702    0.000320888    0.000291247
     26        1           0.001836365    0.000696087   -0.001524697
 -------------------------------------------------------------------
 Cartesian Forces:  Max     0.004404446 RMS     0.001646424

 GradGradGradGradGradGradGradGradGradGradGradGradGradGradGradGradGradGrad
 Berny optimization.
 Using GEDIIS/GDIIS optimizer.
 Internal  Forces:  Max     0.005265419 RMS     0.001097582
 Search for a local minimum.
 Step number   2 out of a maximum of  132
 All quantities printed in internal units (Hartrees-Bohrs-Radians)
 Mixed Optimization -- RFO/linear search
 Update second derivatives using D2CorX and points    1    2
 DE= -4.59D-03 DEPred=-4.80D-03 R= 9.55D-01
 SS=  1.41D+00  RLast= 2.62D-01 DXNew= 5.0454D-01 7.8568D-01
 Trust test= 9.55D-01 RLast= 2.62D-01 DXMaxT set to 5.05D-01
 ITU=  1  0
 Use linear search instead of GDIIS.
     Eigenvalues ---    0.00230   0.00409   0.00443   0.00612   0.00856
     Eigenvalues ---    0.00912   0.00916   0.01148   0.01584   0.01732
     Eigenvalues ---    0.01775   0.04729   0.04994   0.05637   0.05728
     Eigenvalues ---    0.05890   0.06203   0.06314   0.07160   0.07461
     Eigenvalues ---    0.07626   0.07676   0.08398   0.08878   0.13142
     Eigenvalues ---    0.13250   0.15331   0.16000   0.16000   0.16000
     Eigenvalues ---    0.16000   0.16000   0.16000   0.16000   0.16000
     Eigenvalues ---    0.16000   0.16000   0.17057   0.17265   0.18207
     Eigenvalues ---    0.18712   0.22981   0.24158   0.24995   0.24998
     Eigenvalues ---    0.24999   0.25522   0.27132   0.27641   0.29754
     Eigenvalues ---    0.32974   0.34129   0.34163   0.34302   0.34339
     Eigenvalues ---    0.34355   0.34398   0.34465   0.34525   0.34615
     Eigenvalues ---    0.34633   0.34725   0.34785   0.35135   0.37103
     Eigenvalues ---    0.37208   0.39571   0.43149   0.46131   0.86393
     Eigenvalues ---    0.93767   0.95429
 RFO step:  Lambda=-1.38315213D-03 EMin= 2.29785621D-03
 Quartic linear search produced a step of  0.03193.
 Iteration  1 RMS(Cart)=  0.08385912 RMS(Int)=  0.00190891
 Iteration  2 RMS(Cart)=  0.00318639 RMS(Int)=  0.00012347
 Iteration  3 RMS(Cart)=  0.00000479 RMS(Int)=  0.00012344
 Iteration  4 RMS(Cart)=  0.00000000 RMS(Int)=  0.00012344
 Variable       Old X    -DE/DX   Delta X   Delta X   Delta X     New X
                                 (Linear)    (Quad)   (Total)
    R1        2.92419   0.00160  -0.00032   0.00500   0.00467   2.92886
    R2        2.60810  -0.00066  -0.00098  -0.00436  -0.00534   2.60276
    R3        2.31276  -0.00136  -0.00087  -0.00417  -0.00504   2.30772
    R4        2.88273   0.00071  -0.00008   0.00223   0.00215   2.88488
    R5        2.06192   0.00019  -0.00029  -0.00029  -0.00058   2.06134
    R6        2.06375  -0.00038  -0.00006  -0.00129  -0.00134   2.06241
    R7        2.06853  -0.00065  -0.00007  -0.00215  -0.00222   2.06631
    R8        2.75330   0.00132  -0.00010   0.00336   0.00326   2.75656
    R9        2.07474  -0.00011   0.00023   0.00035   0.00058   2.07532
   R10        2.05543   0.00075  -0.00029   0.00135   0.00106   2.05649
   R11        2.07483  -0.00034   0.00023  -0.00034  -0.00011   2.07472
   R12        2.75533  -0.00197  -0.00005  -0.00560  -0.00564   2.74968
   R13        2.07871  -0.00017   0.00037   0.00061   0.00099   2.07970
   R14        2.05617   0.00069   0.00005   0.00216   0.00221   2.05838
   R15        2.07150   0.00039   0.00011   0.00149   0.00160   2.07310
   R16        3.41028   0.00282   0.00139   0.01453   0.01591   3.42619
   R17        2.06564  -0.00041   0.00004  -0.00112  -0.00108   2.06456
   R18        2.06239   0.00054   0.00002   0.00165   0.00167   2.06406
   R19        2.06341   0.00034   0.00010   0.00130   0.00140   2.06481
   R20        2.81903  -0.00330  -0.00016  -0.01072  -0.01088   2.80815
   R21        2.07742   0.00078   0.00050   0.00378   0.00428   2.08171
   R22        3.19068  -0.00316   0.00062  -0.00653  -0.00590   3.18478
   R23        1.92273  -0.00057  -0.00059  -0.00310  -0.00369   1.91904
   R24        2.75743   0.00388   0.00039   0.00537   0.00577   2.76320
   R25        2.75326   0.00527   0.00040   0.00683   0.00723   2.76049
    A1        2.06128  -0.00143  -0.00021  -0.00672  -0.00754   2.05374
    A2        2.10101  -0.00037  -0.00034  -0.00279  -0.00373   2.09728
    A3        2.12081   0.00179   0.00058   0.00870   0.00865   2.12946
    A4        1.92027  -0.00014  -0.00085  -0.00414  -0.00503   1.91524
    A5        1.93139  -0.00081  -0.00053  -0.00577  -0.00632   1.92506
    A6        1.92175  -0.00112  -0.00043  -0.00865  -0.00912   1.91263
    A7        1.89857   0.00055   0.00056   0.00564   0.00618   1.90475
    A8        1.88927   0.00041   0.00023   0.00137   0.00154   1.89081
    A9        1.90187   0.00117   0.00111   0.01203   0.01313   1.91500
   A10        1.93499  -0.00088   0.00123  -0.00347  -0.00225   1.93274
   A11        1.88903   0.00110  -0.00236   0.00195  -0.00041   1.88862
   A12        1.92637  -0.00044   0.00093  -0.00052   0.00039   1.92676
   A13        1.90711  -0.00001   0.00025   0.00141   0.00167   1.90878
   A14        1.89537   0.00007  -0.00049  -0.00457  -0.00509   1.89028
   A15        1.91085   0.00018   0.00045   0.00540   0.00585   1.91670
   A16        1.95797  -0.00161   0.00213  -0.00600  -0.00387   1.95410
   A17        1.93739   0.00178  -0.00104   0.00980   0.00874   1.94613
   A18        1.90720   0.00014   0.00017   0.00178   0.00192   1.90913
   A19        1.90158  -0.00025  -0.00016  -0.00288  -0.00302   1.89856
   A20        1.87997   0.00019  -0.00089  -0.00443  -0.00534   1.87462
   A21        1.87712  -0.00025  -0.00027   0.00161   0.00129   1.87841
   A22        1.87982  -0.00284   0.00004  -0.01902  -0.01898   1.86083
   A23        1.90536   0.00106   0.00016   0.00816   0.00832   1.91368
   A24        1.92124  -0.00006   0.00030   0.00061   0.00089   1.92212
   A25        1.90895   0.00085  -0.00012   0.00490   0.00481   1.91376
   A26        1.90504   0.00120  -0.00019   0.00514   0.00491   1.90995
   A27        1.94233  -0.00029  -0.00017  -0.00040  -0.00060   1.94173
   A28        1.91458   0.00144   0.00002   0.01279   0.01279   1.92736
   A29        1.85560  -0.00040  -0.00017  -0.00052  -0.00075   1.85485
   A30        1.90507  -0.00030   0.00009  -0.00080  -0.00075   1.90432
   A31        1.94964  -0.00041   0.00076   0.00125   0.00198   1.95162
   A32        1.90195  -0.00013  -0.00005  -0.00076  -0.00083   1.90113
   A33        1.93623  -0.00017  -0.00065  -0.01166  -0.01232   1.92391
   A34        2.13785  -0.00073   0.00124   0.00471   0.00562   2.14347
   A35        1.99594   0.00168   0.00078   0.02139   0.02191   2.01784
   A36        1.91597  -0.00062  -0.00050   0.00160   0.00062   1.91660
   A37        2.07075  -0.00022  -0.00037  -0.00202  -0.00240   2.06835
   A38        2.20998  -0.00055   0.00056  -0.00062  -0.00007   2.20991
   A39        2.00230   0.00077  -0.00019   0.00257   0.00238   2.00468
   A40        1.86906  -0.00036   0.00165  -0.00153   0.00013   1.86919
   A41        1.86140   0.00104  -0.00104   0.00471   0.00363   1.86503
   A42        1.86342   0.00021  -0.00148  -0.00111  -0.00264   1.86078
   A43        1.84228  -0.00151   0.00008  -0.01274  -0.01265   1.82963
   A44        1.88852  -0.00077  -0.00013  -0.00909  -0.00920   1.87932
   A45        2.12587   0.00124   0.00114   0.01807   0.01911   2.14498
    D1        2.91070   0.00075  -0.00076   0.10954   0.10867   3.01937
    D2       -1.26170   0.00082   0.00006   0.11784   0.11781  -1.14389
    D3        0.82791   0.00022  -0.00077   0.10328   0.10240   0.93031
    D4       -0.24485   0.00011   0.00029   0.04485   0.04524  -0.19962
    D5        1.86593   0.00018   0.00112   0.05315   0.05437   1.92030
    D6       -2.32764  -0.00041   0.00029   0.03859   0.03897  -2.28867
    D7        3.05321   0.00001   0.00105  -0.01219  -0.01127   3.04193
    D8       -0.10870  -0.00002   0.00043  -0.01679  -0.01650  -0.12520
    D9       -0.07425   0.00067   0.00000   0.05338   0.05351  -0.02074
   D10        3.04702   0.00064  -0.00062   0.04877   0.04829   3.09531
   D11        1.16412  -0.00058  -0.00109  -0.07504  -0.07610   1.08801
   D12       -0.88886  -0.00075  -0.00135  -0.08330  -0.08465  -0.97351
   D13       -3.03437  -0.00017  -0.00100  -0.06884  -0.06982  -3.10419
   D14       -3.02049  -0.00051  -0.00130  -0.07440  -0.07569  -3.09618
   D15        1.20971  -0.00068  -0.00157  -0.08266  -0.08424   1.12548
   D16       -0.93579  -0.00010  -0.00122  -0.06820  -0.06941  -1.00520
   D17       -0.91684  -0.00031  -0.00055  -0.06876  -0.06931  -0.98615
   D18       -2.96982  -0.00048  -0.00081  -0.07702  -0.07786  -3.04767
   D19        1.16786   0.00010  -0.00046  -0.06256  -0.06303   1.10483
   D20        2.01063   0.00029  -0.00066   0.00131   0.00063   2.01126
   D21       -1.11301   0.00033  -0.00011   0.00541   0.00527  -1.10774
   D22       -0.08079   0.00015  -0.00027   0.00044   0.00018  -0.08061
   D23        3.07875   0.00019   0.00028   0.00454   0.00483   3.08358
   D24       -2.17166  -0.00049   0.00007  -0.00703  -0.00695  -2.17860
   D25        0.98789  -0.00045   0.00061  -0.00293  -0.00231   0.98558
   D26        1.89881   0.00035   0.00080   0.02122   0.02200   1.92081
   D27       -1.26241   0.00031   0.00020   0.01672   0.01690  -1.24552
   D28       -0.23326   0.00053   0.00022   0.02211   0.02235  -0.21092
   D29        2.88870   0.00049  -0.00038   0.01761   0.01724   2.90594
   D30       -2.30069  -0.00033   0.00109   0.01308   0.01417  -2.28652
   D31        0.82127  -0.00037   0.00049   0.00858   0.00907   0.83034
   D32       -3.08399  -0.00013  -0.00068  -0.02846  -0.02911  -3.11310
   D33       -1.11824  -0.00154  -0.00029  -0.04151  -0.04181  -1.16004
   D34        1.17950   0.00083  -0.00066  -0.01671  -0.01731   1.16219
   D35       -1.01292  -0.00015  -0.00071  -0.02894  -0.02967  -1.04259
   D36        0.95284  -0.00156  -0.00032  -0.04200  -0.04237   0.91047
   D37       -3.03261   0.00081  -0.00069  -0.01719  -0.01788  -3.05048
   D38        1.12393   0.00015  -0.00064  -0.02371  -0.02435   1.09958
   D39        3.08968  -0.00126  -0.00025  -0.03677  -0.03705   3.05263
   D40       -0.89576   0.00111  -0.00062  -0.01196  -0.01255  -0.90832
   D41        2.87260  -0.00077   0.00076  -0.03296  -0.03204   2.84056
   D42        0.48543  -0.00104  -0.00094  -0.07232  -0.07338   0.41205
   D43       -1.32249   0.00050   0.00111  -0.01705  -0.01581  -1.33830
   D44        2.57353   0.00022  -0.00059  -0.05641  -0.05715   2.51638
   D45        0.80338  -0.00008   0.00113  -0.02537  -0.02412   0.77926
   D46       -1.58379  -0.00035  -0.00057  -0.06474  -0.06546  -1.64925
   D47       -1.14604  -0.00014  -0.00086  -0.00836  -0.00915  -1.15519
   D48       -3.12479  -0.00047  -0.00043  -0.00723  -0.00760  -3.13239
   D49        0.85688  -0.00046  -0.00181  -0.01488  -0.01662   0.84026
   D50        1.27073   0.00099   0.00126   0.03680   0.03799   1.30871
   D51       -0.70803   0.00066   0.00169   0.03793   0.03954  -0.66849
   D52       -3.00954   0.00067   0.00031   0.03028   0.03052  -2.97902
         Item               Value     Threshold  Converged?
 Maximum Force            0.005265     0.000450     NO 
 RMS     Force            0.001098     0.000300     NO 
 Maximum Displacement     0.297158     0.001800     NO 
 RMS     Displacement     0.083772     0.001200     NO 
 Predicted change in Energy=-7.824163D-04
 GradGradGradGradGradGradGradGradGradGradGradGradGradGradGradGradGradGrad

                          Input orientation:                          
 ---------------------------------------------------------------------
 Center     Atomic      Atomic             Coordinates (Angstroms)
 Number     Number       Type             X           Y           Z
 ---------------------------------------------------------------------
      1          6           0       -0.290806   -2.682501    2.350313
      2          6           0        0.753515   -0.382507    2.412899
      3          6           0       -1.191653   -4.947267    2.394452
      4          6           0       -2.659509   -3.149954    1.591502
      5          6           0       -2.831288    0.269442   -0.097637
      6          6           0       -0.430073   -1.203717    1.907650
      7          7           0       -0.498895   -1.218054    0.423306
      8          7           0       -1.350018   -3.527047    2.101663
      9          8           0        0.760025   -3.084569    2.825091
     10          8           0       -0.976397   -0.349245   -1.869521
     11          8           0       -0.407164    1.291784    0.021332
     12         16           0       -1.067707    0.088019   -0.477199
     13          1           0        1.677988   -0.760208    1.974073
     14          1           0        0.630416    0.666893    2.139564
     15          1           0        0.826076   -0.474568    3.500043
     16          1           0       -1.874419   -5.257405    3.196771
     17          1           0       -0.163931   -5.117017    2.709495
     18          1           0       -1.411775   -5.548641    1.502677
     19          1           0       -2.818477   -3.506099    0.562398
     20          1           0       -2.801329   -2.070227    1.614744
     21          1           0       -3.438363   -3.600860    2.218846
     22          1           0       -3.198375    1.098552   -0.707075
     23          1           0       -3.361042   -0.647011   -0.366879
     24          1           0       -2.965641    0.508419    0.960062
     25          1           0       -1.359270   -0.787395    2.328093
     26          1           0       -0.817189   -2.087889    0.006960
 ---------------------------------------------------------------------
                    Distance matrix (angstroms):
                    1          2          3          4          5
     1  C    0.000000
     2  C    2.526756   0.000000
     3  C    2.437753   4.961961   0.000000
     4  C    2.530822   4.470144   2.455538   0.000000
     5  C    4.600052   4.424775   6.009407   3.817717   0.000000
     6  C    1.549887   1.526612   3.851123   2.976268   3.457919
     7  N    2.429252   2.495025   4.274619   3.124927   2.814975
     8  N    1.377321   3.796031   1.458709   1.455071   4.630811
     9  O    1.221195   2.733329   2.732057   3.635825   5.717452
    10  O    4.870433   4.618747   6.274521   4.759781   2.638743
    11  O    4.607888   3.141659   6.721078   5.221831   2.633574
    12  S    4.034127   3.448320   5.797918   4.159065   1.813064
    13  H    2.777214   1.090815   5.093429   4.967003   5.068109
    14  H    3.480159   1.091378   5.907935   5.068757   4.140825
    15  H    2.728420   1.093445   5.029771   4.790565   5.183933
    16  H    3.139179   5.593310   1.098212   2.763079   6.504979
    17  H    2.464138   4.831694   1.088246   3.368554   6.633908
    18  H    3.192149   5.675027   1.097892   2.705259   6.198880
    19  H    3.203759   5.093163   2.842525   1.100529   3.832822
    20  H    2.686758   4.015267   3.387678   1.089248   2.899517
    21  H    3.281429   5.288411   2.625139   1.097037   4.551249
    22  H    5.665505   5.248353   7.085079   4.860415   1.092516
    23  H    4.577412   4.972596   5.551883   3.254554   1.092254
    24  H    4.389705   4.091039   5.913461   3.725067   1.092652
    25  H    2.175670   2.152902   4.163777   2.795509   3.027854
    26  H    2.474256   3.341255   3.743846   2.651960   3.102346
                    6          7          8          9         10
     6  C    0.000000
     7  N    1.486008   0.000000
     8  N    2.506352   2.978715   0.000000
     9  O    2.407413   3.292010   2.274074   0.000000
    10  O    3.910961   2.497978   5.099835   5.704081   0.000000
    11  O    3.128298   2.543479   5.332718   5.326900   2.567553
    12  S    2.786155   1.685313   4.449599   4.930622   1.462223
    13  H    2.155234   2.711701   4.103717   2.639989   4.689122
    14  H    2.162777   2.788173   4.638177   3.815785   4.437020
    15  H    2.155292   3.431418   4.001059   2.696670   5.665406
    16  H    4.492255   5.089256   2.113858   3.435062   7.110822
    17  H    4.003462   4.532194   2.074673   2.235599   6.660266
    18  H    4.472819   4.555478   2.109369   3.540782   6.212487
    19  H    3.579824   3.261129   2.127475   4.254778   4.390127
    20  H    2.541553   2.728906   2.113225   3.895776   4.293281
    21  H    3.859138   4.188341   2.092932   4.273236   5.774861
    22  H    4.449800   3.732508   5.718531   6.756007   2.895614
    23  H    3.751531   3.023634   4.293311   5.754437   2.834277
    24  H    3.202879   3.058374   4.494271   5.501680   3.563596
    25  H    1.101592   2.133993   2.749009   3.164716   4.237750
    26  H    2.131723   1.015514   2.596702   3.379768   2.563087
                   11         12         13         14         15
    11  O    0.000000
    12  S    1.460788   0.000000
    13  H    3.517347   3.777177   0.000000
    14  H    2.440075   3.172722   1.778036   0.000000
    15  H    4.091737   4.440875   1.770855   1.786650   0.000000
    16  H    7.424831   6.536236   5.859980   6.518373   5.500925
    17  H    6.954000   6.169621   4.786993   5.865955   4.812215
    18  H    7.070717   5.984164   5.718211   6.573358   5.894375
    19  H    5.396931   4.130816   5.454442   5.638810   5.576980
    20  H    4.424264   3.469827   4.680764   4.420876   4.388456
    21  H    6.160779   5.147474   5.857155   5.897030   5.440643
    22  H    2.891154   2.369339   5.867065   4.790545   6.030817
    23  H    3.554578   2.410772   5.557400   4.892886   5.702173
    24  H    2.835609   2.417563   4.919443   3.787871   4.668499
    25  H    3.248174   2.953137   3.057942   2.471709   2.499413
    26  H    3.404485   2.243155   3.443570   3.772584   4.183868
                   16         17         18         19         20
    16  H    0.000000
    17  H    1.784073   0.000000
    18  H    1.780115   1.788805   0.000000
    19  H    3.301248   3.775142   2.652341   0.000000
    20  H    3.676965   4.175797   3.747369   1.780296   0.000000
    21  H    2.479193   3.641617   2.900656   1.771174   1.764536
    22  H    7.575689   7.714539   7.229116   4.791523   3.948373
    23  H    6.013765   6.298139   5.596503   3.054884   2.503129
    24  H    6.279996   6.523467   6.276695   4.036849   2.665525
    25  H    4.582682   4.507764   4.832549   3.555041   2.057683
    26  H    4.619356   4.111697   3.816740   2.514952   2.553839
                   21         22         23         24         25
    21  H    0.000000
    22  H    5.541036   0.000000
    23  H    3.926471   1.785829   0.000000
    24  H    4.323676   1.783752   1.803368   0.000000
    25  H    3.500021   4.018873   3.360010   2.476099   0.000000
    26  H    3.748609   4.041448   2.947384   3.502152   2.715289
                   26
    26  H    0.000000
 Stoichiometry    C6H14N2O3S
 Framework group  C1[X(C6H14N2O3S)]
 Deg. of freedom    72
 Full point group                 C1      NOp   1
 Largest Abelian subgroup         C1      NOp   1
 Largest concise Abelian subgroup C1      NOp   1
                         Standard orientation:                         
 ---------------------------------------------------------------------
 Center     Atomic      Atomic             Coordinates (Angstroms)
 Number     Number       Type             X           Y           Z
 ---------------------------------------------------------------------
      1          6           0       -1.847109    0.632384   -0.026724
      2          6           0       -0.089674    2.381938   -0.511473
      3          6           0       -3.647825   -0.940347    0.449279
      4          6           0       -1.622573   -1.815520   -0.628726
      5          6           0        2.143908   -1.393964   -1.087938
      6          6           0       -0.380915    0.884199   -0.461481
      7          7           0        0.474248    0.188184    0.534752
      8          7           0       -2.314862   -0.662219   -0.073872
      9          8           0       -2.521305    1.548448    0.417802
     10          8           0        2.543445   -0.857583    1.464636
     11          8           0        2.737259    1.034639   -0.259967
     12         16           0        2.095806   -0.173727    0.252177
     13          1           0       -0.204819    2.812990    0.483923
     14          1           0        0.928769    2.558099   -0.861967
     15          1           0       -0.800719    2.871404   -1.182636
     16          1           0       -4.318363   -1.275693   -0.353211
     17          1           0       -4.039215   -0.024259    0.887315
     18          1           0       -3.602571   -1.728186    1.212580
     19          1           0       -1.302855   -2.519611    0.154345
     20          1           0       -0.750484   -1.516686   -1.208916
     21          1           0       -2.299065   -2.357509   -1.301108
     22          1           0        3.195651   -1.644784   -1.244519
     23          1           0        1.593347   -2.288904   -0.789640
     24          1           0        1.732727   -0.962919   -2.003917
     25          1           0       -0.223440    0.455916   -1.464117
     26          1           0        0.032379   -0.578159    1.033490
 ---------------------------------------------------------------------
[...]
 005515,-0.00019418,-0.00052216,0.00003530,0.00017640,0.00023488,-0.000
 43054,0.00075173,-0.00012033,0.11010933,0.08316348,0.20320762,0.002157
 84,0.00149833,-0.00028612,0.00012140,-0.00023582,-0.00047720,-0.006286
 65,0.00017857,0.00046041,-0.05423378,-0.01924645,0.00259498,-0.0000319
 8,0.00020684,-0.00000381,-0.00301367,-0.00059960,0.00115270,-0.0002918
 2,-0.00015879,0.00006042,0.00162417,0.03684945,-0.00458104,-0.00011333
 ,-0.00043429,0.00000238,-0.00019312,0.00019344,-0.00001898,-0.00092696
 ,0.00028270,0.00008476,0.00085126,-0.00140799,0.00044608,0.00018413,0.
 00011411,-0.00001921,0.00003863,0.00003527,0.00001234,-0.00001865,0.00
 000937,0.00003388,0.00010934,-0.00012295,-0.00028885,0.00010468,0.0020
 0963,-0.00018706,0.00007226,0.00006776,0.00027609,0.00011168,-0.016996
 46,0.00373526,0.06275511,-0.00117045,-0.00116358,0.00056518,-0.0001224
 6,0.00037011,0.00030240,0.00280667,0.00083305,-0.00037437,-0.00708527,
 -0.33015251,0.03192681,0.00019606,-0.00010766,-0.00012959,-0.00219941,
 -0.00097618,-0.00003330,-0.00074321,-0.00090900,0.00027164,0.00158143,
 -0.01127415,0.00092439,0.00032336,0.00025106,-0.00011886,0.00036139,-0
 .00030689,-0.00024951,0.00058572,-0.00039014,-0.00127195,-0.00183453,0
 .00138584,0.00209387,-0.00020227,-0.00005584,-0.00000483,0.00000911,-0
 .00000698,0.00000826,0.00001786,-0.00000288,-0.00001747,-0.00013866,0.
 00016797,-0.00002489,-0.00025807,-0.00064452,0.00012273,-0.00013212,0.
 00017145,-0.00000347,-0.00141268,-0.01028377,0.00167707,0.01376693,0.3
 5695968,-0.00028254,-0.00011117,0.00072916,0.00007163,-0.00011514,-0.0
 0027417,0.00023897,0.00003588,-0.00006466,0.00126544,0.03377567,-0.053
 72375,0.00002882,0.00001375,-0.00004253,0.00060847,0.00026728,0.001202
 05,-0.00012934,0.00029885,-0.00065719,0.00004653,-0.00152551,-0.002029
 42,0.00013667,-0.00001913,-0.00014042,-0.00031971,-0.00014000,0.000136
 26,-0.00040270,-0.00070524,-0.00018482,0.00151523,0.00137901,-0.001110
 11,0.00007382,0.00002294,0.00000338,-0.00000352,0.00002768,0.00002728,
 -0.00009921,-0.00000905,-0.00004549,-0.00011837,-0.00032729,0.00036814
 ,0.00002457,-0.00000824,0.00057594,0.00001292,0.00041655,0.00020629,-0
 .00064027,-0.02570399,0.00410256,-0.00191622,-0.03614867,0.05208747,0.
 00315731,0.00662040,0.00337837,0.00012898,-0.00020039,0.00011423,0.000
 49149,-0.00302237,0.00076687,-0.09113721,-0.02397200,0.09031960,-0.000
 00068,-0.00007218,0.00001956,-0.00018015,0.00018851,-0.00042466,0.0005
 4208,-0.00011452,0.00007914,-0.03108022,-0.00609216,0.02709721,-0.0040
 6995,-0.00051028,-0.00101525,0.00011574,-0.00012031,0.00006676,0.00021
 635,-0.00003981,-0.00001086,-0.00058681,0.00016921,-0.00006231,0.00003
 723,0.00009826,-0.00005793,-0.00005927,-0.00007697,-0.00001630,0.00000
 434,0.00003996,0.00002848,0.00045325,0.00094918,-0.00069893,-0.0000252
 3,-0.00029587,-0.00023316,0.00008543,0.00050862,-0.00015478,0.00922467
 ,0.00417849,-0.01485582,-0.00010074,-0.00115909,0.00075482,0.11276910,
 -0.00070415,-0.00192537,-0.00052099,-0.00003750,0.00013306,0.00010360,
 0.00090123,0.00172230,-0.00214126,-0.02615739,-0.06628716,0.05179726,0
 .00001535,-0.00001224,0.00002106,0.00018413,-0.00046324,0.00015398,-0.
 00050364,-0.00005308,0.00017135,0.01091805,0.00308244,-0.01159111,0.00
 151541,0.00016730,0.00033349,-0.00010022,-0.00012643,0.00012668,-0.000
 11988,-0.00043874,0.00017100,0.00025918,0.00066577,-0.00062307,-0.0000
 7900,-0.00003750,-0.00000377,0.00000241,0.00001192,0.00000823,-0.00003
 600,-0.00001366,-0.00003762,-0.00045201,0.00021579,0.00068530,-0.00009
 968,0.00019660,-0.00000178,-0.00005403,-0.00015258,0.00012113,0.005461
 85,0.00342497,-0.01326636,-0.01356128,-0.00353570,0.02933642,0.0230466
 0,0.06348922,-0.00289072,-0.00097030,-0.00005291,-0.00001646,0.0000311
 0,-0.00000341,-0.00057440,0.00050648,0.00053361,0.09387002,0.05087004,
 -0.24999724,-0.00008498,0.00002864,0.00002687,-0.00009131,-0.00001116,
 -0.00003038,0.00020120,0.00040430,-0.00000642,0.00461292,-0.00114235,0
 .00781316,0.00063068,-0.00042706,-0.00023686,0.00005333,0.00019352,-0.
 00004668,-0.00008032,0.00019029,0.00009340,0.00007459,-0.00061280,0.00
 000620,-0.00000241,-0.00001965,0.00000970,0.00001587,0.00001985,-0.000
 00427,0.00001472,-0.00000881,0.00001038,0.00042288,-0.00087864,0.00006
 081,-0.00003936,-0.00013763,0.00032261,-0.00008137,0.00003557,-0.00050
 425,0.00939451,0.00672998,-0.02257091,-0.00033653,0.00035147,-0.001403
 73,-0.10526779,-0.05508988,0.26605562,-0.00026439,-0.00052896,-0.00009
 187,-0.00001729,0.00018378,-0.00040090,0.00004460,-0.00004702,-0.00000
 018,-0.00012796,0.00002181,-0.00000835,-0.11464513,0.11347850,-0.03515
 792,-0.00069419,0.00022905,0.00109927,-0.00111909,0.00048383,-0.004830
 32,0.00013768,0.00015907,-0.00003308,0.00002962,0.00020952,0.00001801,
 0.00113382,-0.00261633,0.00118471,0.00097413,-0.00136276,0.00076942,-0
 .01008556,0.01782028,-0.00404765,0.00001347,-0.00000713,0.00001902,-0.
 00001943,-0.00002679,-0.00000822,-0.00013157,-0.00008609,-0.00002835,0
 .00000709,0.00001771,-0.00000639,-0.00000961,-0.00001839,0.00000785,0.
 00000509,0.00002945,0.00000556,0.00005787,0.00005619,0.00001030,-0.000
 04591,0.00000333,-0.00004021,0.00003523,-0.00000077,0.00001857,0.11847
 609,-0.00019813,-0.00033272,-0.00010366,0.00003293,0.00003949,-0.00003
 941,0.00002242,-0.00002056,-0.00000954,-0.00008807,-0.00000506,-0.0000
 2567,0.11337247,-0.24341838,0.06284894,-0.00043380,0.00059635,0.000107
 01,-0.00073554,0.00092397,-0.00192400,0.00009174,0.00010573,0.00000004
 ,0.00001367,0.00014561,0.00002754,0.00038474,-0.00020069,-0.00025419,-
 0.00005487,-0.00008397,0.00082306,-0.00483737,0.00636386,-0.00214587,0
 .00000174,0.00000073,0.00000098,0.00000002,-0.00000827,0.00000923,-0.0
 0002692,-0.00002988,-0.00001913,0.00000283,0.00000988,0.00000173,-0.00
 000571,-0.00000957,0.00000350,0.00000629,0.00002224,0.00000237,0.00005
 247,0.00005189,0.00000280,-0.00002371,-0.00002740,-0.00002881,0.000026
 74,-0.00000187,0.00002639,-0.12286282,0.25819002,-0.00022469,-0.000580
 85,-0.00010495,-0.00003073,0.00023707,-0.00051153,0.00003674,-0.000068
 91,0.00000592,-0.00008264,0.00002064,-0.00000024,-0.03544504,0.0632542
 4,-0.06700499,-0.00114130,0.00026781,0.00111578,-0.00254572,0.00090219
 ,-0.00464093,0.00013038,0.00016901,-0.00005447,-0.00000172,0.00024692,
 0.00003884,0.00161597,-0.00182503,0.00063990,0.00205349,-0.00199997,0.
 00066047,-0.01167809,0.02091572,-0.00572350,0.00001872,-0.00000555,0.0
 0001914,-0.00001352,-0.00002471,0.00000095,-0.00016554,-0.00009600,-0.
 00005232,0.00000924,0.00002191,-0.00000944,-0.00001176,-0.00001629,0.0
 0000662,0.00000851,0.00003034,0.00000636,0.00002163,0.00000127,0.00001
 580,-0.00006248,0.00003245,0.00004354,0.00001828,0.00002323,-0.0000223
 4,0.04074247,-0.06716038,0.06894706,0.00003724,0.00003572,0.00011112,0
 .00003464,-0.00005137,0.00010352,0.00000245,0.00001281,-0.00000109,-0.
 00002368,-0.00002990,-0.00000174,-0.12837691,0.05234926,0.11731305,0.0
 0016579,-0.00018895,0.00002764,-0.00057848,0.00030634,0.00193278,0.000
 01071,-0.00001310,0.00000786,-0.00000074,-0.00001443,-0.00001952,-0.00
 077503,0.00120886,0.00119629,-0.00147186,-0.00147245,-0.00668411,0.012
 18186,-0.00832288,-0.01555470,-0.00001565,0.00001634,-0.00000463,0.000
 03070,0.00000693,-0.00000093,0.00002192,0.00000598,0.00001355,-0.00000
 315,-0.00000176,-0.00000047,0.00000231,0.00000112,-0.00000211,-0.00000
 221,-0.00000467,0.00000035,0.00000565,0.00005598,0.00001275,-0.0000309
 6,-0.00007140,-0.00002799,0.00000452,-0.00000398,0.00000955,-0.0073037
 6,0.00364799,0.01269329,0.13515831,-0.00004298,-0.00003516,0.00010322,
 -0.00000417,0.00001813,-0.00000150,0.00002118,0.00000039,0.00001780,-0
 .00003401,0.00003213,0.00002635,0.05205625,-0.08293865,-0.07513254,-0.
 00006976,-0.00000894,-0.00015871,-0.00015628,-0.00029856,0.00035076,0.
 00003542,-0.00000502,-0.00003158,0.00000731,0.00000984,-0.00004559,-0.
 00088980,0.00005529,0.00130438,-0.00083707,0.00101083,-0.00127487,0.00
 516254,-0.00373589,-0.00473763,-0.00000447,0.00000869,-0.00000072,0.00
 001102,-0.00000372,-0.00000809,-0.00000657,-0.00000488,-0.00000511,0.0
 0000096,0.00000039,-0.00001096,0.00000021,-0.00000659,0.00000408,-0.00
 000910,-0.00000741,0.00000180,-0.00000311,0.00003749,0.00001416,-0.000
 03568,-0.00004064,-0.00003710,0.00000912,-0.00001050,-0.00000288,0.012
 17971,-0.00756432,-0.02146209,-0.05701354,0.08308657,0.00007079,0.0000
 8200,0.00003317,0.00006419,-0.00006594,0.00021578,-0.00003920,0.000005
 44,-0.00002430,0.00001512,-0.00010542,-0.00004013,0.11740359,-0.075961
 43,-0.21329330,0.00005141,0.00019452,-0.00033705,-0.00085387,0.0009714
 5,0.00283000,-0.00003193,0.00000071,0.00004983,-0.00004682,-0.00000124
 ,0.00001179,-0.00144888,0.00147914,0.00286376,-0.00340568,-0.00169583,
 -0.00461303,0.01583620,-0.00764370,-0.01802273,-0.00002645,0.00001340,
 -0.00001106,0.00002529,0.00000921,-0.00002233,0.00005932,0.00001550,0.
 00001904,-0.00000244,-0.00000484,0.00001299,0.00000107,0.00001177,-0.0
 0000524,0.00000955,0.00000327,-0.00000096,0.00001428,0.00002045,-0.000
 00280,0.00002630,-0.00006651,0.00002348,-0.00000515,0.00000887,0.00001
 984,-0.00536901,0.00363996,0.00977990,-0.12483727,0.08243121,0.2268440
 0,-0.00027479,-0.00014829,-0.00013710,0.00005239,-0.00014401,0.0002040
 4,0.00002768,0.00003943,-0.00002664,-0.00015158,0.00003582,-0.00000658
 ,-0.16200017,-0.12437202,0.06482368,0.00023666,0.00049811,-0.00030341,
 0.00117220,0.00129634,-0.00001386,0.00009118,0.00007224,0.00004274,0.0
 0012288,0.00002164,0.00002170,-0.00286081,-0.00226691,-0.00363397,0.00
 183282,0.00219062,-0.00023678,-0.01324817,-0.01360331,0.00940598,0.000
 00441,-0.00000910,-0.00000183,0.00000825,0.00002963,0.00004739,0.00006
 995,0.00004616,0.00001316,-0.00000537,0.00000185,0.00001328,0.00000249
 ,-0.00000887,-0.00000046,0.00000418,0.00002040,-0.00000163,0.00012673,
 0.00010902,0.00000323,0.00001574,-0.00007065,-0.00017837,0.00005784,-0
 .00005171,0.00007676,0.01342218,0.01175739,-0.00541052,-0.00880368,-0.
 01049654,0.00348131,0.17007993,0.00010318,0.00008506,-0.00003287,-0.00
 001270,-0.00006432,0.00004854,0.00001178,-0.00000002,0.00003507,0.0001
 9491,0.00013548,0.00008452,-0.12484974,-0.18585986,0.06877727,0.000023
 35,0.00014135,-0.00009167,0.00101137,0.00013652,-0.00027575,-0.0000841
 6,-0.00007727,-0.00002501,-0.00004938,-0.00001471,0.00000993,-0.001222
 13,0.00109146,-0.00130417,0.00160502,0.00087067,-0.00046847,-0.0040533
 8,-0.00635745,0.00414829,0.00000087,0.00000035,-0.00000540,0.00000246,
 0.00001476,0.00002356,0.00002015,0.00002731,-0.00000014,0.00000143,-0.
 00000378,-0.00001031,-0.00000087,-0.00000296,-0.00000164,-0.00000499,-
 0.00001619,-0.00000383,-0.00009735,-0.00009836,-0.00000738,-0.00003629
 ,0.00004240,-0.00000011,-0.00004941,-0.00001003,-0.00006285,-0.0173541
 2,-0.01471159,0.00713309,0.00922746,0.01013034,-0.00349251,0.13545837,
 0.19445032,-0.00033103,-0.00027534,-0.00003549,0.00003484,-0.00011496,
 0.00008001,0.00010119,0.00004455,0.00001565,-0.00019066,0.00018080,0.0
 0005377,0.06624403,0.06980515,-0.08232818,0.00026448,0.00027697,-0.000
 00494,0.00073468,0.00023472,-0.00047277,0.00018007,0.00006247,-0.00001
 881,0.00017780,0.00003740,-0.00003177,-0.00621441,-0.00321071,-0.00271
 714,0.00142883,0.00194557,-0.00013771,-0.01471761,-0.01684961,0.008802
 66,0.00000765,-0.00000317,0.00000005,0.00002126,0.00002319,0.00006494,
 0.00002435,0.00004021,-0.00000286,-0.00000709,0.00000778,-0.00000948,0
 .00000204,-0.00002807,0.00000417,-0.00001322,0.00001006,0.00000055,0.0
 0008640,0.00017969,0.00002767,-0.00013702,-0.00012727,-0.00028690,0.00
 006880,-0.00007066,0.00004902,0.00598343,0.00427258,-0.00281911,0.0142
 8885,0.01842433,-0.00584384,-0.06817004,-0.07462058,0.08567469,-0.0008
 2675,0.00176939,-0.00247055,-0.02132064,0.01129610,0.01738507,0.000024
 50,0.00007518,0.00008623,-0.00165791,-0.00194787,-0.00014325,-0.000111
 33,-0.00007670,0.00023682,-0.16988539,0.07622918,0.11595867,0.00873505
 ,-0.00663488,-0.00728308,-0.00040028,0.00031918,-0.00000943,0.00120182
 ,0.00006228,0.00065977,-0.00011865,0.00022949,-0.00001855,-0.00203092,
 0.00114461,-0.00077846,0.00122890,0.00121265,-0.00134229,-0.00432111,-
 0.00279028,-0.00128532,0.00126178,-0.00012457,0.00017545,0.00101418,0.
 00048100,-0.00040607,-0.00000066,-0.00002158,0.00003205,-0.00006445,0.
 00000916,0.00001745,0.00002825,-0.00003020,0.00002865,-0.00001964,0.00
 008962,-0.00004823,-0.00291615,-0.00310838,-0.00049192,-0.00008522,-0.
 00025155,0.00010165,0.00003529,0.00000476,0.00002829,0.00010119,-0.000
 00507,0.00010704,-0.00001168,-0.00000440,-0.00002744,0.19093290,0.0233
 5865,-0.00836786,-0.02163156,-0.01195980,0.00710958,0.01014532,0.00002
 922,-0.00012275,0.00054994,-0.00055410,-0.00120100,0.00004470,0.000374
 57,-0.00011704,-0.00054654,0.07642200,-0.09955271,-0.07672487,-0.00476
 819,0.00327913,0.00479030,-0.00082902,0.00044898,0.00158431,0.00086029
 ,-0.00703397,0.00285966,0.00038205,-0.00016529,-0.00032109,0.00145789,
 -0.00184514,-0.00035434,-0.00127666,0.00095400,0.00384940,-0.00343457,
 -0.00135074,-0.00041739,0.00049658,0.00050608,0.00038629,0.00089230,0.
 00040926,-0.00017579,0.00001771,-0.00010378,0.00005572,0.00007590,0.00
 027732,-0.00005788,-0.00004970,0.00021188,-0.00004839,-0.00007331,0.00
 051539,-0.00006800,-0.00262886,-0.00015039,-0.00056345,-0.00018450,0.0
 0013135,-0.00000473,-0.00001445,-0.00000546,0.00003081,-0.00021556,-0.
 00003124,-0.00020165,-0.00001878,0.00000467,-0.00002880,-0.07868877,0.
 10675683,-0.00344401,0.00125710,0.00588145,-0.00359573,0.00242581,0.00
 498387,-0.00019286,-0.00010666,0.00000283,0.00076905,-0.00017986,0.000
 45405,-0.00019324,0.00001870,0.00016195,0.10709257,-0.06760680,-0.1483
 5711,0.01884682,-0.01092367,-0.03031655,0.00013099,-0.00016422,-0.0001
 8760,-0.00093645,0.00166848,-0.00090220,-0.00086792,0.00079173,0.00033
 629,-0.00045859,-0.00076580,0.00332542,0.00524471,-0.00309936,-0.00483
 040,-0.00162769,-0.00054029,0.00081181,0.00025111,0.00003852,-0.000033
 98,0.00034755,0.00022527,0.00053939,0.00000387,0.00002766,-0.00002747,
 0.00001197,0.00002678,-0.00000762,0.00002956,0.00001133,-0.00002377,0.
 00002921,0.00020081,-0.00004127,-0.00041160,0.00034220,0.00062555,0.00
 011234,0.00034952,-0.00012904,-0.00003762,0.00006375,0.00002822,0.0000
 9569,0.00004980,0.00020677,-0.00000355,0.00000215,-0.00002559,-0.11776
 647,0.07482558,0.17297334,0.00117746,-0.00119226,0.00058321,0.00245619
 ,-0.00093356,-0.00150462,0.00005910,-0.00003871,0.00006750,-0.00008750
 ,0.00020687,0.00021497,-0.00002706,0.00049057,-0.00052413,0.00933272,-
 0.00390223,-0.01417381,-0.24149548,0.07187245,0.19662673,-0.00029148,-
 0.00006254,-0.00001013,-0.00079402,0.00004020,0.00027426,0.00090448,-0
 .00157723,-0.00056114,0.00107800,0.00265227,-0.00051421,-0.01039442,-0
 .00564084,0.01077266,-0.00051210,0.00073036,0.00041798,-0.00005623,-0.
 00011882,-0.00000231,-0.00039998,0.00007145,0.00031403,0.00000346,0.00
 000623,-0.00003267,0.00000436,0.00000354,0.00000883,-0.00003216,-0.000
 02811,0.00000006,-0.00006309,-0.00001996,0.00000952,0.00005747,0.00005
 679,-0.00012753,0.00000190,-0.00009144,-0.00003158,0.00009173,-0.00015
 126,-0.00056326,-0.00037120,0.00012445,-0.00109875,0.00002875,0.000158
 55,0.00015985,-0.00079307,0.00032914,-0.00342971,0.24012216,-0.0023560
 4,0.00214046,0.00201670,0.00029606,-0.00033490,0.00039013,0.00002227,0
 .00004778,0.00013042,-0.00011343,0.00049158,0.00025501,-0.00107435,-0.
 00068947,0.00129231,-0.00445966,0.00217105,0.00116056,0.03870503,-0.03
 718908,-0.01214983,0.00004318,-0.00059552,-0.00033454,0.00112231,-0.00
 096676,-0.00152386,-0.00438123,0.00337354,0.00190389,0.00480758,-0.005
 81041,-0.00066195,0.02877783,-0.00911833,-0.02359127,0.00016070,0.0004
 7354,-0.00017360,-0.00004072,-0.00036626,-0.00045250,0.00019094,-0.000
 04098,0.00045574,0.00002429,-0.00003623,-0.00005528,0.00000989,-0.0000
 6064,0.00004796,-0.00006601,-0.00007872,-0.00000020,0.00000929,-0.0000
 4475,0.00001210,0.00027575,-0.00015331,-0.00013115,0.00007480,-0.00017
 263,-0.00001888,0.00005339,-0.00003003,-0.00004693,0.00052921,0.000301
 42,0.00035217,-0.00038683,0.00008587,-0.00021628,0.00076164,-0.0005570
 8,0.00106147,-0.06298589,0.04715984,0.00187831,-0.00121768,-0.00084412
 ,0.00122404,-0.00047532,0.00258129,0.00002979,0.00003919,0.00006078,-0
 .00011836,0.00002746,0.00012665,0.00006943,-0.00027103,-0.00038040,0.0
 2550826,-0.00480466,-0.02436970,0.16889783,-0.02864642,-0.21304248,-0.
 00024165,0.00006599,0.00016450,-0.00110243,0.00024792,0.00062351,-0.00
 088355,0.00196871,-0.00102237,-0.00192674,0.00301141,0.00218650,-0.001
 55931,-0.00244103,0.00641250,-0.00143164,-0.00007321,0.00000283,-0.000
 34185,-0.00031283,-0.00013609,0.00033495,0.00038307,0.00073177,-0.0000
 2362,-0.00000958,-0.00000843,0.00001676,0.00004384,-0.00000492,-0.0000
 2106,0.00000581,-0.00000754,-0.00002761,0.00006800,0.00000463,-0.00015
 948,-0.00004777,-0.00016789,-0.00002151,-0.00006463,0.00000723,0.00020
 147,-0.00011922,-0.00036466,-0.00067173,0.00018144,-0.00069359,-0.0000
 0852,0.00014028,-0.00003859,-0.00274605,0.00202244,-0.00544833,-0.1868
 7574,0.03027781,0.23362695\\-0.00000840,0.00000575,0.00000385,0.000000
 37,0.00000286,0.00000269,0.00000121,-0.00000132,0.00000218,0.00000128,
 -0.00000132,0.00000513,-0.00000074,0.00000109,0.00000096,-0.00000222,-
 0.00000506,0.00000051,0.00000162,-0.00000120,-0.00000682,-0.00000042,-
 0.00000108,-0.00000714,0.00000594,-0.00000313,0.00000204,0.00000166,0.
 00000509,-0.00000030,-0.00000192,0.00000394,0.00000517,-0.00000576,-0.
 00000590,-0.00000491,0.00000085,0.00000052,-0.00000102,0.00000006,-0.0
 0000056,-0.00000068,0.00000069,-0.00000073,-0.00000159,0.00000031,0.00
 000033,-0.00000029,0.00000059,-0.00000038,0.00000074,0.00000200,0.0000
 0019,0.00000017,-0.00000066,0.00000087,0.00000024,0.00000077,0.0000003
 5,0.00000093,0.00000058,-0.00000055,0.00000001,0.00000071,-0.00000026,
 -0.00000115,-0.00000093,-0.00000101,-0.00000023,-0.00000048,0.00000019
 ,-0.00000017,-0.00000073,0.00000115,0.00000107,0.00000361,0.00000018,-
 0.00000141\\\@


 "THE ACADEMIC HIERARCHY"


 THE PRESIDENT:
   LEAPS TALL BUILDINGS IN A SINGLE BOUND,
     IS MORE POWERFUL THAN A LOCOMOTIVE,
       IS FASTER THAN A SPEEDING BULLET,
         WALKS ON WATER,
           GIVES POLICY TO GOD.

 THE VICE PRESIDENT FOR ACADEMIC AFFAIRS:
   LEAPS SHORT BUILDINGS IN A SINGLE BOUND,
     IS MORE POWERFUL THAN A SWITCH ENGINE,
       IS JUST AS FAST AS A SPEEDING BULLET,
         WALKS ON WATER IF SEA IS CALM,
           TALKS WITH GOD.

 PROFESSOR:
   LEAPS SHORT BUILDINGS WITH A RUNNING START AND FAVORABLE WINDS,
     IS ALMOST AS POWERFUL AS A SWITCH ENGINE,
       CAN FIRE A SPEEDING BULLET,
         WALKS ON WATER IN AN INDOOR SWIMMING POOL,
          TALKS WITH GOD IF SPECIAL REQUEST IS APPROVED.

 ASSOCIATE PROFESSOR:
   BARELY CLEARS A QUONSET HUT,
     LOSES TUG OF WAR WITH LOCOMOTIVE,
       MISFIRES FREQUENTLY,
         SWIMS WELL,
           IS OCCASIONALLY ADDRESSED BY GOD.

 ASSISTANT PROFESSOR:
   MAKES HIGH MARKS ON WALLS WHEN TRYING TO LEAP TALL BUILDINGS,
     IS RUN OVER BY LOCOMOTIVES,
       CAN SOMETIMES HANDLE A GUN WITHOUT INFLICTING SELF INJURY,
         DOG PADDLES,
           TALKS TO ANIMALS.

 GRADUATE STUDENT:
   RUNS INTO BUILDINGS,
     RECOGNIZES LOCOMOTIVES TWO OUT OF THREE TIMES,
       IS NOT ISSUED AMMUNITION,
         CAN STAY AFLOAT WITH A LIFE JACKET,
           TALKS TO WALLS.

 UNDERGRADUATE AND WORK STUDY STUDENT:
   FALLS OVER DOORSTEP WHEN TRYING TO ENTER BUILDINGS,
     SAYS, "LOOK AT THE CHOO-CHOO,"
       WETS HIMSELF WITH A WATER PISTOL,
        PLAYS IN MUD PUDDLES,
          MUMBLES TO HIMSELF.

 DEPARTMENT SECRETARY:
   LIFTS TALL BUILDINGS AND WALKS UNDER THEM,
     KICKS LOCOMOTIVES OFF THE TRACKS,
       CATCHES SPEEDING BULLETS IN HER TEETH AND EATS THEM,
         FREEZES WATER WITH A SINGLE GLANCE,
           IS GOD.
 Job cpu time:  0 days  1 hours 22 minutes 42.8 seconds.
 File lengths (MBytes):  RWF=    162 Int=      0 D2E=      0 Chk=      4 Scr=      1
 Normal termination of Gaussian 09 at Fri Feb 16 20:40:11 2018.
