 Entering Gaussian System, Link 0=g09
 Initial command:
 /home/fb_chem/chemsoft/lx24-amd64/Gaussian_09_C.01_NBO_3.1_64_istanbul-64/g09/l1.exe /local/2399967.1.parallel_long/Gau-23234.inp -scrdir=/local/2399967.1.parallel_long/
 Entering Link 1 = /home/fb_chem/chemsoft/lx24-amd64/Gaussian_09_C.01_NBO_3.1_64_istanbul-64/g09/l1.exe PID=     23235.
  
 Copyright (c) 1988,1990,1992,1993,1995,1998,2003,2009,2011,
            Gaussian, Inc.  All Rights Reserved.
  
 This is part of the Gaussian(R) 09 program.  It is based on
 the Gaussian(R) 03 system (copyright 2003, Gaussian, Inc.),
 the Gaussian(R) 98 system (copyright 1998, Gaussian, Inc.),
 the Gaussian(R) 94 system (copyright 1995, Gaussian, Inc.),
 the Gaussian 92(TM) system (copyright 1992, Gaussian, Inc.),
 the Gaussian 90(TM) system (copyright 1990, Gaussian, Inc.),
 the Gaussian 88(TM) system (copyright 1988, Gaussian, Inc.),
 the Gaussian 86(TM) system (copyright 1986, Carnegie Mellon
 University), and the Gaussian 82(TM) system (copyright 1983,
 Carnegie Mellon University). Gaussian is a federally registered
 trademark of Gaussian, Inc.
  
 This software contains proprietary and confidential information,
 including trade secrets, belonging to Gaussian, Inc.
  
 This software is provided under written license and may be
 used, copied, transmitted, or stored only in accord with that
 written license.
  
 The following legend is applicable only to US Government
 contracts under FAR:
  
                    RESTRICTED RIGHTS LEGEND
  
 Use, reproduction and disclosure by the US Government is
 subject to restrictions as set forth in subparagraphs (a)
 and (c) of the Commercial Computer Software - Restricted
 Rights clause in FAR 52.227-19.
  
 Gaussian, Inc.
 340 Quinnipiac St., Bldg. 40, Wallingford CT 06492
  
  
 ---------------------------------------------------------------
 Warning -- This program may not be used in any manner that
 competes with the business of Gaussian, Inc. or will provide
 assistance to any competitor of Gaussian, Inc.  The licensee
 of this program is prohibited from giving any competitor of
 Gaussian, Inc. access to this program.  By using this program,
 the user acknowledges that Gaussian, Inc. is engaged in the
 business of creating and licensing software in the field of
 computational chemistry and represents and warrants to the
 licensee that it is not a competitor of Gaussian, Inc. and that
 it will not use this program in any manner prohibited above.
 ---------------------------------------------------------------
  

 Cite this work as:
 Gaussian 09, Revision C.01,
 M. J. Frisch, G. W. Trucks, H. B. Schlegel, G. E. Scuseria, 
 M. A. Robb, J. R. Cheeseman, G. Scalmani, V. Barone, B. Mennucci, 
 G. A. Petersson, H. Nakatsuji, M. Caricato, X. Li, H. P. Hratchian, 
 A. F. Izmaylov, J. Bloino, G. Zheng, J. L. Sonnenberg, M. Hada, 
 M. Ehara, K. Toyota, R. Fukuda, J. Hasegawa, M. Ishida, T. Nakajima, 
 Y. Honda, O. Kitao, H. Nakai, T. Vreven, J. A. Montgomery, Jr., 
 J. E. Peralta, F. Ogliaro, M. Bearpark, J. J. Heyd, E. Brothers, 
 K. N. Kudin, V. N. Staroverov, T. Keith, R. Kobayashi, J. Normand, 
 K. Raghavachari, A. Rendell, J. C. Burant, S. S. Iyengar, J. Tomasi, 
 M. Cossi, N. Rega, J. M. Millam, M. Klene, J. E. Knox, J. B. Cross, 
 V. Bakken, C. Adamo, J. Jaramillo, R. Gomperts, R. E. Stratmann, 
 O. Yazyev, A. J. Austin, R. Cammi, C. Pomelli, J. W. Ochterski, 
 R. L. Martin, K. Morokuma, V. G. Zakrzewski, G. A. Voth, 
 P. Salvador, J. J. Dannenberg, S. Dapprich, A. D. Daniels, 
 O. Farkas, J. B. Foresman, J. V. Ortiz, J. Cioslowski, 
 and D. J. Fox, Gaussian, Inc., Wallingford CT, 2010.
 
 ******************************************
 Gaussian 09:  AM64L-G09RevC.01 23-Sep-2011
                17-Feb-2018 
 ******************************************
 %nprocs=4
 Will use up to    4 processors via shared memory.
 %chk=frag3-conf0.chk
 ---------------------------------------------------------
 #B3LYP/6-31G* Integral=(Grid=UltraFine) freq Opt pop=none
 ---------------------------------------------------------
 1/14=-1,18=20,19=15,26=3,38=1/1,3;
 2/9=110,12=2,17=6,18=5,40=1/2;
 3/5=1,6=6,7=1,11=2,16=1,25=1,30=1,71=1,74=-5,75=-5/1,2,3;
 4//1;
 5/5=2,38=5/2;
 7//1,2,3,16;
 1/14=-1,18=20,19=15/3(2);
 2/9=110/2;
 99//99;
 2/9=110/2;
 3/5=1,6=6,7=1,11=2,16=1,25=1,30=1,71=1,74=-5,75=-5/1,2,3;
 4/5=5,16=3/1;
 5/5=2,38=5/2;
 7//1,2,3,16;
 1/14=-1,18=20,19=15/3(-5);
 2/9=110/2;
 99/9=1/99;
 ----------------------------
 Optimization for frag3-conf0
 ----------------------------
 Charge =  1 Multiplicity = 1
 Symbolic Z-Matrix:
 C                     5.48863  -3.52046   3.92303 
 C                     5.65188  -2.1378    3.98025 
 C                     5.26894  -4.14504   2.69691 
 C                     5.59498  -1.37799   2.8113 
 C                     5.21192  -3.38765   1.52634 
 C                     5.3755   -1.99697   1.57306 
 C                     2.83021  -1.571    -0.23481 
 C                     0.56414  -2.49276   0.07875 
 C                     1.15325  -0.3833    1.22479 
 C                     5.28396  -1.16813   0.30911 
 C                     3.90365  -0.51672   0.13697 
 N                     1.55395  -1.45022   0.31536 
 N                     3.98977   0.49619  -0.95517 
 O                     3.08388  -2.45973  -1.0608 
 H                     5.53247  -4.11223   4.83564 
 H                     5.82335  -1.64948   4.93812 
 H                     5.14005  -5.22516   2.65193 
 H                     5.72383  -0.2977    2.87512 
 H                     5.03444  -3.8923    0.57655 
 H                     0.28451  -2.93323   1.04051 
 H                     0.94252  -3.28401  -0.57284 
 H                    -0.31676  -2.04132  -0.38704 
 H                     0.06418  -0.27933   1.22327 
 H                     1.5883    0.57019   0.91724 
 H                     1.49777  -0.6382    2.23087 
 H                     6.06336  -0.39536   0.35485 
 H                     5.53954  -1.79084  -0.55811 
 H                     3.64163   0.03496   1.04201 
 H                     4.68703   1.21394  -0.7603 
 H                     3.09343   0.9635   -1.09328 
 H                     4.23296   0.05053  -1.84151 
 

 GradGradGradGradGradGradGradGradGradGradGradGradGradGradGradGradGradGrad
 Berny optimization.
 Initialization pass.
                           ----------------------------
                           !    Initial Parameters    !
                           ! (Angstroms and Degrees)  !
 --------------------------                            --------------------------
 ! Name  Definition              Value          Derivative Info.                !
 --------------------------------------------------------------------------------
 ! R1    R(1,2)                  1.3934         estimate D2E/DX2                !
 ! R2    R(1,3)                  1.3935         estimate D2E/DX2                !
 ! R3    R(1,15)                 1.0886         estimate D2E/DX2                !
 ! R4    R(2,4)                  1.3953         estimate D2E/DX2                !
 ! R5    R(2,16)                 1.0888         estimate D2E/DX2                !
 ! R6    R(3,5)                  1.3954         estimate D2E/DX2                !
 ! R7    R(3,17)                 1.0887         estimate D2E/DX2                !
 ! R8    R(4,6)                  1.4016         estimate D2E/DX2                !
 ! R9    R(4,18)                 1.0898         estimate D2E/DX2                !
 ! R10   R(5,6)                  1.401          estimate D2E/DX2                !
 ! R11   R(5,19)                 1.0901         estimate D2E/DX2                !
 ! R12   R(6,10)                 1.5142         estimate D2E/DX2                !
 ! R13   R(7,11)                 1.5498         estimate D2E/DX2                !
 ! R14   R(7,12)                 1.395          estimate D2E/DX2                !
 ! R15   R(7,14)                 1.2395         estimate D2E/DX2                !
 ! R16   R(8,12)                 1.4569         estimate D2E/DX2                !
 ! R17   R(8,20)                 1.0942         estimate D2E/DX2                !
 ! R18   R(8,21)                 1.0926         estimate D2E/DX2                !
 ! R19   R(8,22)                 1.094          estimate D2E/DX2                !
 ! R20   R(9,12)                 1.4581         estimate D2E/DX2                !
 ! R21   R(9,23)                 1.094          estimate D2E/DX2                !
 ! R22   R(9,24)                 1.0922         estimate D2E/DX2                !
 ! R23   R(9,25)                 1.0936         estimate D2E/DX2                !
 ! R24   R(10,11)                1.536          estimate D2E/DX2                !
 ! R25   R(10,26)                1.0985         estimate D2E/DX2                !
 ! R26   R(10,27)                1.0978         estimate D2E/DX2                !
 ! R27   R(11,13)                1.492          estimate D2E/DX2                !
 ! R28   R(11,28)                1.0918         estimate D2E/DX2                !
 ! R29   R(13,29)                1.0195         estimate D2E/DX2                !
 ! R30   R(13,30)                1.0202         estimate D2E/DX2                !
 ! R31   R(13,31)                1.0214         estimate D2E/DX2                !
 ! A1    A(2,1,3)              119.9576         estimate D2E/DX2                !
 ! A2    A(2,1,15)             120.0183         estimate D2E/DX2                !
 ! A3    A(3,1,15)             120.0241         estimate D2E/DX2                !
 ! A4    A(1,2,4)              120.0758         estimate D2E/DX2                !
 ! A5    A(1,2,16)             119.9752         estimate D2E/DX2                !
 ! A6    A(4,2,16)             119.949          estimate D2E/DX2                !
 ! A7    A(1,3,5)              120.0856         estimate D2E/DX2                !
 ! A8    A(1,3,17)             119.9806         estimate D2E/DX2                !
 ! A9    A(5,3,17)             119.9338         estimate D2E/DX2                !
 ! A10   A(2,4,6)              120.3979         estimate D2E/DX2                !
 ! A11   A(2,4,18)             119.0711         estimate D2E/DX2                !
 ! A12   A(6,4,18)             120.531          estimate D2E/DX2                !
 ! A13   A(3,5,6)              120.3988         estimate D2E/DX2                !
 ! A14   A(3,5,19)             119.0974         estimate D2E/DX2                !
 ! A15   A(6,5,19)             120.5034         estimate D2E/DX2                !
 ! A16   A(4,6,5)              119.0843         estimate D2E/DX2                !
 ! A17   A(4,6,10)             120.3414         estimate D2E/DX2                !
 ! A18   A(5,6,10)             120.5584         estimate D2E/DX2                !
 ! A19   A(11,7,12)            118.6949         estimate D2E/DX2                !
 ! A20   A(11,7,14)            120.3871         estimate D2E/DX2                !
 ! A21   A(12,7,14)            120.804          estimate D2E/DX2                !
 ! A22   A(12,8,20)            108.599          estimate D2E/DX2                !
 ! A23   A(12,8,21)            112.3205         estimate D2E/DX2                !
 ! A24   A(12,8,22)            108.7193         estimate D2E/DX2                !
 ! A25   A(20,8,21)            108.7331         estimate D2E/DX2                !
 ! A26   A(20,8,22)            109.5475         estimate D2E/DX2                !
 ! A27   A(21,8,22)            108.892          estimate D2E/DX2                !
 ! A28   A(12,9,23)            110.0135         estimate D2E/DX2                !
 ! A29   A(12,9,24)            110.7131         estimate D2E/DX2                !
 ! A30   A(12,9,25)            108.4624         estimate D2E/DX2                !
 ! A31   A(23,9,24)            108.2496         estimate D2E/DX2                !
 ! A32   A(23,9,25)            109.6979         estimate D2E/DX2                !
 ! A33   A(24,9,25)            109.6972         estimate D2E/DX2                !
 ! A34   A(6,10,11)            112.3343         estimate D2E/DX2                !
 ! A35   A(6,10,26)            107.9032         estimate D2E/DX2                !
 ! A36   A(6,10,27)            109.5629         estimate D2E/DX2                !
 ! A37   A(11,10,26)           110.1161         estimate D2E/DX2                !
 ! A38   A(11,10,27)           111.1767         estimate D2E/DX2                !
 ! A39   A(26,10,27)           105.47           estimate D2E/DX2                !
 ! A40   A(7,11,10)            111.1499         estimate D2E/DX2                !
 ! A41   A(7,11,13)            109.038          estimate D2E/DX2                !
 ! A42   A(7,11,28)            112.1077         estimate D2E/DX2                !
 ! A43   A(10,11,13)           108.5464         estimate D2E/DX2                !
 ! A44   A(10,11,28)           109.6974         estimate D2E/DX2                !
 ! A45   A(13,11,28)           106.1157         estimate D2E/DX2                !
 ! A46   A(7,12,8)             119.7054         estimate D2E/DX2                !
 ! A47   A(7,12,9)             124.1083         estimate D2E/DX2                !
 ! A48   A(8,12,9)             115.9895         estimate D2E/DX2                !
 ! A49   A(11,13,29)           112.1804         estimate D2E/DX2                !
 ! A50   A(11,13,30)           111.0592         estimate D2E/DX2                !
 ! A51   A(11,13,31)           110.6538         estimate D2E/DX2                !
 ! A52   A(29,13,30)           107.7147         estimate D2E/DX2                !
 ! A53   A(29,13,31)           108.0717         estimate D2E/DX2                !
 ! A54   A(30,13,31)           106.95           estimate D2E/DX2                !
 ! D1    D(3,1,2,4)              0.0299         estimate D2E/DX2                !
 ! D2    D(3,1,2,16)           179.988          estimate D2E/DX2                !
 ! D3    D(15,1,2,4)          -179.9556         estimate D2E/DX2                !
 ! D4    D(15,1,2,16)            0.0024         estimate D2E/DX2                !
 ! D5    D(2,1,3,5)             -0.0137         estimate D2E/DX2                !
 ! D6    D(2,1,3,17)          -179.9203         estimate D2E/DX2                !
 ! D7    D(15,1,3,5)           179.9719         estimate D2E/DX2                !
 ! D8    D(15,1,3,17)            0.0652         estimate D2E/DX2                !
 ! D9    D(1,2,4,6)             -0.0794         estimate D2E/DX2                !
 ! D10   D(1,2,4,18)           179.939          estimate D2E/DX2                !
 ! D11   D(16,2,4,6)           179.9625         estimate D2E/DX2                !
 ! D12   D(16,2,4,18)           -0.0191         estimate D2E/DX2                !
 ! D13   D(1,3,5,6)              0.0468         estimate D2E/DX2                !
 ! D14   D(1,3,5,19)          -179.7068         estimate D2E/DX2                !
 ! D15   D(17,3,5,6)           179.9535         estimate D2E/DX2                !
 ! D16   D(17,3,5,19)            0.1999         estimate D2E/DX2                !
 ! D17   D(2,4,6,5)              0.1111         estimate D2E/DX2                !
 ! D18   D(2,4,6,10)           178.6663         estimate D2E/DX2                !
 ! D19   D(18,4,6,5)          -179.9076         estimate D2E/DX2                !
 ! D20   D(18,4,6,10)           -1.3524         estimate D2E/DX2                !
 ! D21   D(3,5,6,4)             -0.0948         estimate D2E/DX2                !
 ! D22   D(3,5,6,10)          -178.6468         estimate D2E/DX2                !
 ! D23   D(19,5,6,4)           179.6553         estimate D2E/DX2                !
 ! D24   D(19,5,6,10)            1.1034         estimate D2E/DX2                !
 ! D25   D(4,6,10,11)          -79.9342         estimate D2E/DX2                !
 ! D26   D(4,6,10,26)           41.6302         estimate D2E/DX2                !
 ! D27   D(4,6,10,27)          155.9783         estimate D2E/DX2                !
 ! D28   D(5,6,10,11)           98.5995         estimate D2E/DX2                !
 ! D29   D(5,6,10,26)         -139.8361         estimate D2E/DX2                !
 ! D30   D(5,6,10,27)          -25.488          estimate D2E/DX2                !
 ! D31   D(12,7,11,10)         141.6317         estimate D2E/DX2                !
 ! D32   D(12,7,11,13)         -98.7463         estimate D2E/DX2                !
 ! D33   D(12,7,11,28)          18.4547         estimate D2E/DX2                !
 ! D34   D(14,7,11,10)         -42.2191         estimate D2E/DX2                !
 ! D35   D(14,7,11,13)          77.403          estimate D2E/DX2                !
 ! D36   D(14,7,11,28)        -165.3961         estimate D2E/DX2                !
 ! D37   D(11,7,12,8)         -174.4612         estimate D2E/DX2                !
 ! D38   D(11,7,12,9)            0.23           estimate D2E/DX2                !
 ! D39   D(14,7,12,8)            9.4062         estimate D2E/DX2                !
 ! D40   D(14,7,12,9)         -175.9027         estimate D2E/DX2                !
 ! D41   D(20,8,12,7)          118.0852         estimate D2E/DX2                !
 ! D42   D(20,8,12,9)          -57.0258         estimate D2E/DX2                !
 ! D43   D(21,8,12,7)           -2.2104         estimate D2E/DX2                !
 ! D44   D(21,8,12,9)         -177.3213         estimate D2E/DX2                !
 ! D45   D(22,8,12,7)         -122.7861         estimate D2E/DX2                !
 ! D46   D(22,8,12,9)           62.103          estimate D2E/DX2                !
 ! D47   D(23,9,12,7)          159.0361         estimate D2E/DX2                !
 ! D48   D(23,9,12,8)          -26.0934         estimate D2E/DX2                !
 ! D49   D(24,9,12,7)           39.4294         estimate D2E/DX2                !
 ! D50   D(24,9,12,8)         -145.7            estimate D2E/DX2                !
 ! D51   D(25,9,12,7)          -80.9775         estimate D2E/DX2                !
 ! D52   D(25,9,12,8)           93.893          estimate D2E/DX2                !
 ! D53   D(6,10,11,7)          -71.9463         estimate D2E/DX2                !
 ! D54   D(6,10,11,13)         168.1393         estimate D2E/DX2                !
 ! D55   D(6,10,11,28)          52.6027         estimate D2E/DX2                !
 ! D56   D(26,10,11,7)         167.7618         estimate D2E/DX2                !
 ! D57   D(26,10,11,13)         47.8473         estimate D2E/DX2                !
 ! D58   D(26,10,11,28)        -67.6892         estimate D2E/DX2                !
 ! D59   D(27,10,11,7)          51.2406         estimate D2E/DX2                !
 ! D60   D(27,10,11,13)        -68.6739         estimate D2E/DX2                !
 ! D61   D(27,10,11,28)        175.7896         estimate D2E/DX2                !
 ! D62   D(7,11,13,29)        -179.8119         estimate D2E/DX2                !
 ! D63   D(7,11,13,30)          59.5847         estimate D2E/DX2                !
 ! D64   D(7,11,13,31)         -59.0357         estimate D2E/DX2                !
 ! D65   D(10,11,13,29)        -58.5892         estimate D2E/DX2                !
 ! D66   D(10,11,13,30)       -179.1927         estimate D2E/DX2                !
 ! D67   D(10,11,13,31)         62.1869         estimate D2E/DX2                !
 ! D68   D(28,11,13,29)         59.25           estimate D2E/DX2                !
 ! D69   D(28,11,13,30)        -61.3534         estimate D2E/DX2                !
 ! D70   D(28,11,13,31)       -179.9738         estimate D2E/DX2                !
 --------------------------------------------------------------------------------
 Trust Radius=3.00D-01 FncErr=1.00D-07 GrdErr=1.00D-06
 Number of steps in this run=    165 maximum allowed number of steps=    186.
 GradGradGradGradGradGradGradGradGradGradGradGradGradGradGradGradGradGrad

                          Input orientation:                          
 ---------------------------------------------------------------------
 Center     Atomic      Atomic             Coordinates (Angstroms)
 Number     Number       Type             X           Y           Z
 ---------------------------------------------------------------------
      1          6           0        5.488633   -3.520456    3.923030
      2          6           0        5.651876   -2.137802    3.980247
      3          6           0        5.268938   -4.145041    2.696908
      4          6           0        5.594978   -1.377990    2.811305
      5          6           0        5.211915   -3.387649    1.526339
      6          6           0        5.375496   -1.996971    1.573065
      7          6           0        2.830209   -1.570996   -0.234806
      8          6           0        0.564142   -2.492755    0.078748
      9          6           0        1.153249   -0.383298    1.224794
     10          6           0        5.283957   -1.168133    0.309114
     11          6           0        3.903646   -0.516723    0.136975
     12          7           0        1.553952   -1.450216    0.315364
     13          7           0        3.989771    0.496185   -0.955167
     14          8           0        3.083878   -2.459728   -1.060800
     15          1           0        5.532475   -4.112230    4.835644
     16          1           0        5.823349   -1.649478    4.938118
     17          1           0        5.140050   -5.225159    2.651927
     18          1           0        5.723830   -0.297698    2.875124
     19          1           0        5.034443   -3.892299    0.576546
     20          1           0        0.284510   -2.933231    1.040507
     21          1           0        0.942519   -3.284006   -0.572838
     22          1           0       -0.316761   -2.041322   -0.387037
     23          1           0        0.064184   -0.279334    1.223268
     24          1           0        1.588301    0.570192    0.917243
     25          1           0        1.497775   -0.638203    2.230870
     26          1           0        6.063362   -0.395362    0.354847
     27          1           0        5.539537   -1.790837   -0.558115
     28          1           0        3.641628    0.034962    1.042012
     29          1           0        4.687029    1.213944   -0.760296
     30          1           0        3.093430    0.963496   -1.093283
     31          1           0        4.232957    0.050535   -1.841515
 ---------------------------------------------------------------------
                    Distance matrix (angstroms):
                    1          2          3          4          5
     1  C    0.000000
     2  C    1.393433   0.000000
     3  C    1.393466   2.413009   0.000000
     4  C    2.416072   1.395342   2.788541   0.000000
     5  C    2.416265   2.788790   1.395395   2.415906   0.000000
     6  C    2.802881   2.427086   2.426640   1.401624   1.401045
     7  C    5.306148   5.103896   4.600876   4.118251   3.474822
     8  C    6.331294   6.421272   5.632044   5.832571   4.949561
     9  C    5.993145   5.559537   5.766865   4.820310   5.058639
    10  C    4.316909   3.814819   3.816251   2.530165   2.532406
    11  C    5.086139   4.522715   4.645641   3.279394   3.447335
    12  N    5.725633   5.540500   5.170587   4.750246   4.312866
    13  N    6.494367   5.835992   6.042757   4.502836   4.768195
    14  O    5.634408   5.666605   4.662097   4.740146   3.476043
    15  H    1.088569   2.155070   2.155161   3.402635   3.402834
    16  H    2.154761   1.088751   3.399739   2.156198   3.877541
    17  H    2.154814   3.399732   1.088710   3.877250   2.156050
    18  H    3.396998   2.147663   3.878239   1.089819   3.410143
    19  H    3.397574   3.878745   2.148209   3.410292   1.090080
    20  H    5.978015   6.171175   5.390424   5.809955   4.972108
    21  H    6.398116   6.649994   5.490949   6.060585   4.758679
    22  H    7.380184   7.396426   6.718362   6.754115   6.003322
    23  H    6.871552   6.502087   6.648667   5.858207   6.021014
    24  H    6.401621   5.764362   6.240811   4.841110   5.400564
    25  H    5.205549   4.750335   5.170762   4.203721   4.674469
    26  H    4.777913   4.043383   4.491821   2.686843   3.324325
    27  H    4.803627   4.552992   4.026249   3.395071   2.646147
    28  H    4.934845   4.170759   4.781135   2.990386   3.796663
    29  H    6.707507   5.885395   6.403874   4.505422   5.165159
    30  H    7.141864   6.473361   6.722763   5.194815   5.502987
    31  H    6.896280   6.379268   6.266849   5.054158   4.911406
                    6          7          8          9         10
     6  C    0.000000
     7  C    3.150926   0.000000
     8  C    5.062402   2.466377   0.000000
     9  C    4.533498   2.520567   2.471898   0.000000
    10  C    1.514240   2.545394   4.907581   4.303161   0.000000
    11  C    2.533739   1.549832   3.880771   2.960716   1.535978
    12  N    4.060167   1.395030   1.456914   1.458061   3.740662
    13  N    3.811564   2.477245   4.662369   3.683963   2.458309
    14  O    3.521775   1.239539   2.765633   3.641817   2.895727
    15  H    3.891450   6.282482   7.066477   6.791229   5.405455
    16  H    3.412463   5.976971   7.209983   6.099330   4.685116
    17  H    3.411828   5.198220   5.918295   6.432333   4.687103
    18  H    2.168922   4.434636   6.265810   4.860157   2.745096
    19  H    2.168325   3.302330   4.710639   5.272284   2.748610
    20  H    5.203685   3.156373   1.094164   2.700153   5.352101
    21  H    5.090446   2.571389   1.092617   3.419064   4.909465
    22  H    6.020445   3.185562   1.093955   2.740068   5.710966
    23  H    5.593091   3.383085   2.541479   1.094016   5.373237
    24  H    4.622042   2.730245   3.336708   1.092246   4.129101
    25  H    4.161212   2.953818   2.990429   1.093555   4.278920
    26  H    2.126586   3.490428   5.892089   4.986599   1.098517
    27  H    2.147400   2.737393   5.064864   4.939581   1.097801
    28  H    2.723430   2.206302   4.097335   2.529898   2.163753
    29  H    4.028466   3.388187   5.607300   4.356532   2.678479
    30  H    4.591471   2.688851   4.440341   3.309326   3.362881
    31  H    4.142104   2.679287   4.859623   4.367501   2.686067
                   11         12         13         14         15
    11  C    0.000000
    12  N    2.534619   0.000000
    13  N    1.492037   3.366889   0.000000
    14  O    2.425274   2.292076   3.093416   0.000000
    15  H    6.136632   6.583913   7.559823   6.595032   0.000000
    16  H    5.293332   6.295818   6.534270   6.644413   2.481986
    17  H    5.479329   5.706998   6.860615   5.065550   2.482182
    18  H    3.295224   5.026784   4.278825   5.209148   4.293123
    19  H    3.586982   4.259789   4.764061   2.921963   4.293754
    20  H    4.444551   2.082463   5.428865   3.532161   6.582875
    21  H    4.114604   2.127331   4.870500   2.345838   7.141801
    22  H    4.517834   2.083828   5.030699   3.491900   8.110402
    23  H    3.997230   2.101109   4.556011   4.369168   7.592269
    24  H    2.674140   2.108432   3.046056   3.915331   7.268800
    25  H    3.191766   2.081270   4.200918   4.082740   5.927269
    26  H    2.174068   4.631313   2.609746   3.891400   5.845895
    27  H    2.186929   4.094372   2.791039   2.594296   5.872099
    28  H    1.091835   2.663112   2.079100   3.310043   5.930105
    29  H    2.100950   4.250996   1.019471   4.019485   7.771580
    30  H    2.088308   3.190656   1.020237   3.423391   8.177048
    31  H    2.084382   3.752526   1.021448   2.869027   7.975074
                   16         17         18         19         20
    16  H    0.000000
    17  H    4.298727   0.000000
    18  H    2.468432   4.966939   0.000000
    19  H    4.967486   2.468779   4.322021   0.000000
    20  H    6.893340   5.605879   6.316491   4.867950   0.000000
    21  H    7.540876   5.637947   6.608132   4.293593   1.777330
    22  H    8.137062   7.010628   7.083125   5.743692   1.787432
    23  H    6.988947   7.229568   5.895808   6.178611   2.669291
    24  H    6.247400   7.014994   4.657160   5.648521   3.740192
    25  H    5.202160   5.872276   4.288421   5.082711   2.855894
    26  H    4.757812   5.427340   2.544919   3.651903   6.348704
    27  H    5.505370   4.717894   3.748407   2.441049   5.610345
    28  H    4.772514   5.701401   2.794016   4.192848   4.481118
    29  H    6.477833   7.301406   4.071399   5.289760   6.310636
    30  H    7.117435   7.517626   4.925228   5.489500   5.256194
    31  H    7.168180   6.989047   4.958896   4.694181   5.727054
                   21         22         23         24         25
    21  H    0.000000
    22  H    1.778925   0.000000
    23  H    3.609089   2.417189   0.000000
    24  H    4.182370   3.485744   1.771518   0.000000
    25  H    3.894787   3.480621   1.788639   1.787185   0.000000
    26  H    5.952134   6.630652   6.062817   4.612457   4.941965
    27  H    4.833461   5.864149   5.952937   4.833571   5.044091
    28  H    4.572579   4.692758   3.595794   2.125603   2.542172
    29  H    5.855600   5.981136   5.247389   3.581992   4.748564
    30  H    4.789421   4.599686   4.010905   2.542108   4.020143
    31  H    4.853420   5.214529   5.184629   3.856812   4.953777
                   26         27         28         29         30
    26  H    0.000000
    27  H    1.747925   0.000000
    28  H    2.553854   3.081560   0.000000
    29  H    2.393262   3.129913   2.393987   0.000000
    30  H    3.572684   3.722391   2.392108   1.647168   0.000000
    31  H    2.893650   2.597098   2.943576   1.651889   1.640693
                   31
    31  H    0.000000
 Stoichiometry    C11H17N2O(1+)
 Framework group  C1[X(C11H17N2O)]
 Deg. of freedom    87
 Full point group                 C1      NOp   1
 Largest Abelian subgroup         C1      NOp   1
 Largest concise Abelian subgroup C1      NOp   1
                         Standard orientation:                         
 ---------------------------------------------------------------------
 Center     Atomic      Atomic             Coordinates (Angstroms)
 Number     Number       Type             X           Y           Z
 ---------------------------------------------------------------------
      1          6           0        3.578514   -1.050986    0.286904
      2          6           0        3.245753   -0.052735    1.200370
      3          6           0        2.863790   -1.171498   -0.903220
      4          6           0        2.197328    0.825869    0.924981
      5          6           0        1.815086   -0.293990   -1.181298
      6          6           0        1.473078    0.713501   -0.269751
      7          6           0       -1.577294   -0.050520   -0.469352
      8          6           0       -2.614822   -2.271825   -0.200360
      9          6           0       -2.214149   -0.900168    1.816642
     10          6           0        0.316268    1.648397   -0.553800
     11          6           0       -0.969407    1.223175    0.171081
     12          7           0       -2.146467   -1.013205    0.364546
     13          7           0       -1.958686    2.335934    0.074815
     14          8           0       -1.619612   -0.173445   -1.702055
     15          1           0        4.396144   -1.736374    0.503026
     16          1           0        3.803867    0.041560    2.130420
     17          1           0        3.122622   -1.952126   -1.616602
     18          1           0        1.950411    1.599883    1.651370
     19          1           0        1.263677   -0.405889   -2.114947
     20          1           0       -2.041006   -3.089609    0.245911
     21          1           0       -2.494216   -2.309942   -1.285631
     22          1           0       -3.674519   -2.393000    0.042736
     23          1           0       -3.000220   -1.553415    2.206811
     24          1           0       -2.442946    0.125607    2.114030
     25          1           0       -1.247516   -1.197617    2.232584
     26          1           0        0.612268    2.657804   -0.237225
     27          1           0        0.156358    1.716573   -1.637750
     28          1           0       -0.765106    1.090513    1.235395
     29          1           0       -1.605004    3.201559    0.480923
     30          1           0       -2.825775    2.098346    0.557091
     31          1           0       -2.200953    2.519270   -0.900404
 ---------------------------------------------------------------------
 Rotational constants (GHZ):      0.9858511      0.4436559      0.3956991
 Standard basis: 6-31G(d) (6D, 7F)
 There are   244 symmetry adapted basis functions of A   symmetry.
 Integral buffers will be    131072 words long.
 Raffenetti 2 integral format.
 Two-electron integral symmetry is turned on.
   244 basis functions,   460 primitive gaussians,   244 cartesian basis functions
    52 alpha electrons       52 beta electrons
       nuclear repulsion energy       910.1093001275 Hartrees.
 NAtoms=   31 NActive=   31 NUniq=   31 SFac= 1.00D+00 NAtFMM=   60 NAOKFM=F Big=F
 One-electron integrals computed using PRISM.
 NBasis=   244 RedAO= T  NBF=   244
 NBsUse=   244 1.00D-06 NBFU=   244
 Harris functional with IExCor=  402 diagonalized for initial guess.
 ExpMin= 1.61D-01 ExpMax= 5.48D+03 ExpMxC= 8.25D+02 IAcc=3 IRadAn=         5 AccDes= 0.00D+00
 HarFok:  IExCor=  402 AccDes= 0.00D+00 IRadAn=         5 IDoV= 1
 ScaDFX=  1.000000  1.000000  1.000000  1.000000
 FoFCou: FMM=F IPFlag=           0 FMFlag=      100000 FMFlg1=           0
         NFxFlg=           0 DoJE=T BraDBF=F KetDBF=T FulRan=T
         Omega=  0.000000  0.000000  1.000000  0.000000  0.000000 ICntrl=     500 IOpCl=  0
         NMat0=    1 NMatS0=    1 NMatT0=    0 NMatD0=    1 NMtDS0=    0 NMtDT0=    0
         I1Cent=           4 NGrid=           0.
 Petite list used in FoFCou.
 Initial guess orbital symmetries:
       Occupied  (A) (A) (A) (A) (A) (A) (A) (A) (A) (A) (A) (A)
                 (A) (A) (A) (A) (A) (A) (A) (A) (A) (A) (A) (A)
                 (A) (A) (A) (A) (A) (A) (A) (A) (A) (A) (A) (A)
                 (A) (A) (A) (A) (A) (A) (A) (A) (A) (A) (A) (A)
                 (A) (A) (A) (A)
       Virtual   (A) (A) (A) (A) (A) (A) (A) (A) (A) (A) (A) (A)
                 (A) (A) (A) (A) (A) (A) (A) (A) (A) (A) (A) (A)
                 (A) (A) (A) (A) (A) (A) (A) (A) (A) (A) (A) (A)
                 (A) (A) (A) (A) (A) (A) (A) (A) (A) (A) (A) (A)
                 (A) (A) (A) (A) (A) (A) (A) (A) (A) (A) (A) (A)
                 (A) (A) (A) (A) (A) (A) (A) (A) (A) (A) (A) (A)
                 (A) (A) (A) (A) (A) (A) (A) (A) (A) (A) (A) (A)
                 (A) (A) (A) (A) (A) (A) (A) (A) (A) (A) (A) (A)
                 (A) (A) (A) (A) (A) (A) (A) (A) (A) (A) (A) (A)
                 (A) (A) (A) (A) (A) (A) (A) (A) (A) (A) (A) (A)
                 (A) (A) (A) (A) (A) (A) (A) (A) (A) (A) (A) (A)
                 (A) (A) (A) (A) (A) (A) (A) (A) (A) (A) (A) (A)
                 (A) (A) (A) (A) (A) (A) (A) (A) (A) (A) (A) (A)
                 (A) (A) (A) (A) (A) (A) (A) (A) (A) (A) (A) (A)
                 (A) (A) (A) (A) (A) (A) (A) (A) (A) (A) (A) (A)
                 (A) (A) (A) (A) (A) (A) (A) (A) (A) (A) (A) (A)
 The electronic state of the initial guess is 1-A.
 Requested convergence on RMS density matrix=1.00D-08 within 128 cycles.
 Requested convergence on MAX density matrix=1.00D-06.
 Requested convergence on             energy=1.00D-06.
 No special actions if energy rises.
 Integral accuracy reduced to 1.0D-05 until final iterations.
 Initial convergence to 1.0D-05 achieved.  Increase integral accuracy.
 SCF Done:  E(RB3LYP) =  -613.898787057     A.U. after   15 cycles
             Convg  =    0.5835D-08             -V/T =  2.0098
 Calling FoFJK, ICntrl=      2127 FMM=F ISym2X=0 I1Cent= 0 IOpClX= 0 NMat=1 NMatS=1 NMatT=0.
 ***** Axes restored to original set *****
 -------------------------------------------------------------------
 Center     Atomic                   Forces (Hartrees/Bohr)
 Number     Number              X              Y              Z
 -------------------------------------------------------------------
      1        6          -0.000104233   -0.002823527    0.003203690
      2        6           0.000153860    0.003294277    0.001990046
      3        6          -0.000282814   -0.001896301   -0.000489689
      4        6          -0.000910328    0.000186731    0.001522087
      5        6          -0.000814521   -0.002988685   -0.002063702
      6        6          -0.003543908   -0.002543265    0.001820831
      7        6          -0.037670316   -0.017624212   -0.011573462
      8        6          -0.003467742   -0.004283321   -0.001160946
      9        6           0.005992755   -0.004667387    0.003745776
     10        6           0.010433893   -0.003210965    0.000782476
     11        6           0.005027256   -0.016864665    0.017842893
     12        7           0.032311547    0.004175715   -0.014381092
     13        7          -0.008197005    0.006106498   -0.010491273
     14        8           0.009621121    0.019633261    0.012698415
     15        1           0.000153808    0.001009911   -0.001372547
     16        1           0.000103736   -0.000437637   -0.001841768
     17        1           0.000500683    0.001881303   -0.000537935
     18        1           0.000820083   -0.000529514   -0.001019238
     19        1           0.000360538    0.002835924    0.001069562
     20        1          -0.002679665   -0.001054699    0.000440131
     21        1           0.003635221    0.005081526    0.001401332
     22        1          -0.002266128   -0.001477630    0.000294530
     23        1           0.002112724   -0.000623680   -0.000669869
     24        1          -0.002434959    0.002837833    0.002059742
     25        1          -0.003666415    0.005530859    0.005429382
     26        1          -0.002455468    0.004747277    0.000248124
     27        1          -0.006663966    0.001012704   -0.000458027
     28        1           0.001019090    0.000015726   -0.001161555
     29        1           0.006040120    0.003435538    0.001499029
     30        1          -0.005108808    0.004486989   -0.002853394
     31        1           0.001979843   -0.005246584   -0.005973549
 -------------------------------------------------------------------
 Cartesian Forces:  Max     0.037670316 RMS     0.007576091

 GradGradGradGradGradGradGradGradGradGradGradGradGradGradGradGradGradGrad
 Berny optimization.
 Internal  Forces:  Max     0.027665665 RMS     0.004634204
 Search for a local minimum.
 Step number   1 out of a maximum of  165
 All quantities printed in internal units (Hartrees-Bohrs-Radians)
 Mixed Optimization -- RFO/linear search
 Second derivative matrix not updated -- first step.
 ITU=  0
     Eigenvalues ---    0.00230   0.00290   0.00474   0.00578   0.00855
     Eigenvalues ---    0.00924   0.00939   0.01168   0.01471   0.01758
     Eigenvalues ---    0.02081   0.02107   0.02114   0.02139   0.02161
     Eigenvalues ---    0.02163   0.02169   0.02175   0.03996   0.04303
     Eigenvalues ---    0.04819   0.05271   0.05425   0.05441   0.05640
     Eigenvalues ---    0.07349   0.07490   0.07656   0.07743   0.09428
     Eigenvalues ---    0.12845   0.15978   0.16000   0.16000   0.16000
     Eigenvalues ---    0.16000   0.16000   0.16000   0.16000   0.16000
     Eigenvalues ---    0.16000   0.16000   0.16000   0.16000   0.16000
     Eigenvalues ---    0.16000   0.17624   0.21882   0.22000   0.22000
     Eigenvalues ---    0.23474   0.24892   0.24938   0.24955   0.24992
     Eigenvalues ---    0.25000   0.27665   0.28878   0.30928   0.33227
     Eigenvalues ---    0.33847   0.33926   0.34336   0.34353   0.34360
     Eigenvalues ---    0.34405   0.34512   0.34554   0.34601   0.34803
     Eigenvalues ---    0.34834   0.34957   0.34962   0.34979   0.37208
     Eigenvalues ---    0.37353   0.41901   0.41944   0.44108   0.44300
     Eigenvalues ---    0.44423   0.45612   0.46148   0.46397   0.46454
     Eigenvalues ---    0.46664   0.87225
 RFO step:  Lambda=-1.37984276D-02 EMin= 2.30000000D-03
 Linear search not attempted -- first point.
 Iteration  1 RMS(Cart)=  0.13636977 RMS(Int)=  0.00457746
 Iteration  2 RMS(Cart)=  0.00857811 RMS(Int)=  0.00044320
 Iteration  3 RMS(Cart)=  0.00003160 RMS(Int)=  0.00044289
 Iteration  4 RMS(Cart)=  0.00000002 RMS(Int)=  0.00044289
 Variable       Old X    -DE/DX   Delta X   Delta X   Delta X     New X
                                 (Linear)    (Quad)   (Total)
    R1        2.63321   0.00261   0.00000   0.00567   0.00568   2.63888
    R2        2.63327   0.00229   0.00000   0.00504   0.00503   2.63830
    R3        2.05710  -0.00169   0.00000  -0.00466  -0.00466   2.05244
    R4        2.63681  -0.00030   0.00000  -0.00064  -0.00063   2.63618
    R5        2.05744  -0.00180   0.00000  -0.00495  -0.00495   2.05249
    R6        2.63691   0.00056   0.00000   0.00119   0.00118   2.63810
    R7        2.05736  -0.00190   0.00000  -0.00524  -0.00524   2.05213
    R8        2.64868   0.00024   0.00000   0.00024   0.00024   2.64893
    R9        2.05946  -0.00049   0.00000  -0.00135  -0.00135   2.05811
   R10        2.64759  -0.00061   0.00000  -0.00156  -0.00157   2.64602
   R11        2.05995  -0.00230   0.00000  -0.00637  -0.00637   2.05359
   R12        2.86150   0.00279   0.00000   0.00863   0.00863   2.87013
   R13        2.92876  -0.00574   0.00000  -0.01976  -0.01976   2.90900
   R14        2.63622  -0.02767   0.00000  -0.05784  -0.05784   2.57839
   R15        2.34239  -0.02057   0.00000  -0.02322  -0.02322   2.31917
   R16        2.75317   0.00433   0.00000   0.01118   0.01118   2.76435
   R17        2.06767   0.00150   0.00000   0.00419   0.00419   2.07186
   R18        2.06475  -0.00326   0.00000  -0.00907  -0.00907   2.05567
   R19        2.06728   0.00109   0.00000   0.00305   0.00305   2.07032
   R20        2.75534   0.00829   0.00000   0.02148   0.02148   2.77682
   R21        2.06739  -0.00216   0.00000  -0.00605  -0.00605   2.06134
   R22        2.06405   0.00093   0.00000   0.00258   0.00258   2.06663
   R23        2.06652   0.00255   0.00000   0.00713   0.00713   2.07365
   R24        2.90258  -0.00193   0.00000  -0.00638  -0.00638   2.89620
   R25        2.07590   0.00161   0.00000   0.00456   0.00456   2.08046
   R26        2.07454  -0.00176   0.00000  -0.00500  -0.00500   2.06955
   R27        2.81954   0.01870   0.00000   0.05404   0.05404   2.87358
   R28        2.06327  -0.00120   0.00000  -0.00333  -0.00333   2.05994
   R29        1.92652   0.00684   0.00000   0.01493   0.01493   1.94145
   R30        1.92797   0.00693   0.00000   0.01517   0.01517   1.94314
   R31        1.93026   0.00794   0.00000   0.01746   0.01746   1.94772
    A1        2.09365  -0.00062   0.00000  -0.00156  -0.00155   2.09210
    A2        2.09471   0.00017   0.00000  -0.00002  -0.00003   2.09469
    A3        2.09482   0.00045   0.00000   0.00157   0.00156   2.09638
    A4        2.09572  -0.00059   0.00000  -0.00200  -0.00199   2.09373
    A5        2.09396   0.00077   0.00000   0.00375   0.00372   2.09768
    A6        2.09350  -0.00018   0.00000  -0.00174  -0.00177   2.09173
    A7        2.09589   0.00020   0.00000   0.00148   0.00147   2.09736
    A8        2.09406   0.00050   0.00000   0.00270   0.00269   2.09675
    A9        2.09324  -0.00069   0.00000  -0.00417  -0.00417   2.08907
   A10        2.10134   0.00056   0.00000   0.00183   0.00181   2.10315
   A11        2.07818   0.00063   0.00000   0.00430   0.00423   2.08242
   A12        2.10366  -0.00119   0.00000  -0.00613  -0.00619   2.09747
   A13        2.10135  -0.00034   0.00000  -0.00191  -0.00191   2.09945
   A14        2.07864   0.00223   0.00000   0.01282   0.01281   2.09145
   A15        2.10318  -0.00189   0.00000  -0.01089  -0.01090   2.09228
   A16        2.07841   0.00080   0.00000   0.00215   0.00216   2.08057
   A17        2.10035  -0.00035   0.00000  -0.00081  -0.00083   2.09953
   A18        2.10414  -0.00045   0.00000  -0.00118  -0.00120   2.10294
   A19        2.07162  -0.00102   0.00000  -0.00280  -0.00330   2.06831
   A20        2.10115  -0.01681   0.00000  -0.06284  -0.06336   2.03779
   A21        2.10843   0.01790   0.00000   0.06911   0.06862   2.17705
   A22        1.89541   0.00419   0.00000   0.02573   0.02558   1.92099
   A23        1.96036  -0.00951   0.00000  -0.05742  -0.05719   1.90317
   A24        1.89751   0.00439   0.00000   0.02622   0.02607   1.92358
   A25        1.89775   0.00202   0.00000   0.00956   0.00979   1.90754
   A26        1.91196  -0.00276   0.00000  -0.01012  -0.01063   1.90133
   A27        1.90052   0.00168   0.00000   0.00636   0.00658   1.90710
   A28        1.92010  -0.00489   0.00000  -0.03546  -0.03509   1.88501
   A29        1.93231   0.00446   0.00000   0.02684   0.02569   1.95799
   A30        1.89303   0.01191   0.00000   0.07460   0.07371   1.96673
   A31        1.88931  -0.00241   0.00000  -0.02550  -0.02541   1.86390
   A32        1.91459  -0.00424   0.00000  -0.02710  -0.02650   1.88809
   A33        1.91458  -0.00502   0.00000  -0.01448  -0.01655   1.89803
   A34        1.96060  -0.00196   0.00000  -0.01429  -0.01441   1.94619
   A35        1.88327   0.00325   0.00000   0.03275   0.03249   1.91576
   A36        1.91223   0.00285   0.00000   0.01441   0.01341   1.92564
   A37        1.92189  -0.00218   0.00000  -0.01785  -0.01768   1.90421
   A38        1.94040  -0.00412   0.00000  -0.04412  -0.04427   1.89613
   A39        1.84080   0.00266   0.00000   0.03440   0.03352   1.87432
   A40        1.93993   0.00084   0.00000  -0.00696  -0.00733   1.93260
   A41        1.90307  -0.00800   0.00000  -0.05753  -0.05743   1.84564
   A42        1.95665   0.00303   0.00000   0.02716   0.02759   1.98424
   A43        1.89449   0.00451   0.00000   0.01194   0.01113   1.90562
   A44        1.91458  -0.00247   0.00000  -0.00134  -0.00164   1.91294
   A45        1.85207   0.00218   0.00000   0.02740   0.02766   1.87973
   A46        2.08925  -0.00628   0.00000  -0.02454  -0.02461   2.06465
   A47        2.16610   0.00573   0.00000   0.02117   0.02102   2.18712
   A48        2.02440   0.00049   0.00000   0.00127   0.00117   2.02557
   A49        1.95792  -0.00162   0.00000  -0.01025  -0.01049   1.94743
   A50        1.93835   0.00447   0.00000   0.03107   0.03114   1.96948
   A51        1.93127  -0.00334   0.00000  -0.02362  -0.02371   1.90756
   A52        1.87998  -0.00041   0.00000   0.00565   0.00558   1.88556
   A53        1.88621   0.00126   0.00000  -0.00254  -0.00292   1.88329
   A54        1.86663  -0.00030   0.00000   0.00009   0.00029   1.86692
    D1        0.00052  -0.00002   0.00000  -0.00048  -0.00047   0.00005
    D2        3.14138   0.00037   0.00000   0.01066   0.01070  -3.13110
    D3       -3.14082  -0.00026   0.00000  -0.00741  -0.00742   3.13495
    D4        0.00004   0.00013   0.00000   0.00373   0.00375   0.00380
    D5       -0.00024  -0.00003   0.00000  -0.00101  -0.00102  -0.00125
    D6       -3.14020  -0.00021   0.00000  -0.00634  -0.00637   3.13661
    D7        3.14110   0.00021   0.00000   0.00592   0.00594  -3.13614
    D8        0.00114   0.00002   0.00000   0.00059   0.00058   0.00172
    D9       -0.00139  -0.00001   0.00000  -0.00006  -0.00006  -0.00144
   D10        3.14053   0.00063   0.00000   0.01809   0.01813  -3.12452
   D11        3.14094  -0.00040   0.00000  -0.01121  -0.01120   3.12974
   D12       -0.00033   0.00024   0.00000   0.00694   0.00699   0.00666
   D13        0.00082   0.00012   0.00000   0.00305   0.00304   0.00386
   D14       -3.13648  -0.00006   0.00000  -0.00201  -0.00204  -3.13851
   D15        3.14078   0.00030   0.00000   0.00839   0.00838  -3.13402
   D16        0.00349   0.00012   0.00000   0.00333   0.00330   0.00679
   D17        0.00194   0.00010   0.00000   0.00207   0.00206   0.00400
   D18        3.11831   0.00029   0.00000   0.00909   0.00908   3.12739
   D19       -3.13998  -0.00055   0.00000  -0.01635  -0.01629   3.12691
   D20       -0.02360  -0.00036   0.00000  -0.00932  -0.00927  -0.03287
   D21       -0.00166  -0.00015   0.00000  -0.00355  -0.00354  -0.00519
   D22       -3.11797  -0.00034   0.00000  -0.01060  -0.01058  -3.12855
   D23        3.13558   0.00004   0.00000   0.00163   0.00160   3.13718
   D24        0.01926  -0.00015   0.00000  -0.00542  -0.00544   0.01382
   D25       -1.39512  -0.00131   0.00000  -0.03221  -0.03225  -1.42736
   D26        0.72658  -0.00306   0.00000  -0.04130  -0.04169   0.68490
   D27        2.72233   0.00329   0.00000   0.02427   0.02473   2.74706
   D28        1.72089  -0.00109   0.00000  -0.02503  -0.02509   1.69580
   D29       -2.44060  -0.00285   0.00000  -0.03412  -0.03453  -2.47513
   D30       -0.44485   0.00351   0.00000   0.03145   0.03189  -0.41296
   D31        2.47194  -0.00327   0.00000  -0.13444  -0.13378   2.33816
   D32       -1.72345  -0.00229   0.00000  -0.16085  -0.15949  -1.88293
   D33        0.32209  -0.00287   0.00000  -0.14732  -0.14644   0.17565
   D34       -0.73686  -0.00141   0.00000  -0.07327  -0.07455  -0.81141
   D35        1.35094  -0.00044   0.00000  -0.09969  -0.10026   1.25068
   D36       -2.88671  -0.00102   0.00000  -0.08616  -0.08721  -2.97392
   D37       -3.04492  -0.00096   0.00000  -0.00705  -0.00571  -3.05064
   D38        0.00401  -0.00166   0.00000  -0.03528  -0.03394  -0.02992
   D39        0.16417  -0.00143   0.00000  -0.06320  -0.06454   0.09963
   D40       -3.07008  -0.00213   0.00000  -0.09143  -0.09277   3.12034
   D41        2.06098  -0.00086   0.00000  -0.01789  -0.01800   2.04298
   D42       -0.99529  -0.00052   0.00000   0.00692   0.00642  -0.98887
   D43       -0.03858  -0.00022   0.00000  -0.01099  -0.01078  -0.04936
   D44       -3.09484   0.00012   0.00000   0.01383   0.01364  -3.08120
   D45       -2.14302   0.00076   0.00000  -0.00019   0.00030  -2.14272
   D46        1.08390   0.00109   0.00000   0.02462   0.02472   1.10862
   D47        2.77570  -0.00047   0.00000  -0.00156  -0.00118   2.77453
   D48       -0.45542  -0.00150   0.00000  -0.03014  -0.03012  -0.48553
   D49        0.68817   0.00284   0.00000   0.03588   0.03687   0.72505
   D50       -2.54295   0.00182   0.00000   0.00729   0.00793  -2.53501
   D51       -1.41332  -0.00126   0.00000  -0.00998  -0.01083  -1.42415
   D52        1.63874  -0.00228   0.00000  -0.03856  -0.03977   1.59897
   D53       -1.25570  -0.00220   0.00000  -0.00801  -0.00830  -1.26400
   D54        2.93458   0.00427   0.00000   0.05956   0.05941   2.99399
   D55        0.91809   0.00049   0.00000   0.02095   0.02075   0.93884
   D56        2.92800  -0.00352   0.00000  -0.02775  -0.02780   2.90020
   D57        0.83509   0.00295   0.00000   0.03982   0.03991   0.87501
   D58       -1.18140  -0.00082   0.00000   0.00121   0.00126  -1.18014
   D59        0.89432  -0.00297   0.00000  -0.03249  -0.03239   0.86193
   D60       -1.19859   0.00349   0.00000   0.03508   0.03532  -1.16327
   D61        3.06811  -0.00028   0.00000  -0.00353  -0.00334   3.06477
   D62       -3.13831   0.00192   0.00000   0.04962   0.04939  -3.08892
   D63        1.03995   0.00043   0.00000   0.02765   0.02743   1.06738
   D64       -1.03037   0.00009   0.00000   0.02288   0.02290  -1.00747
   D65       -1.02258   0.00087   0.00000   0.01379   0.01367  -1.00891
   D66       -3.12750  -0.00062   0.00000  -0.00818  -0.00829  -3.13579
   D67        1.08537  -0.00096   0.00000  -0.01294  -0.01282   1.07254
   D68        1.03411   0.00142   0.00000   0.03282   0.03292   1.06703
   D69       -1.07082  -0.00008   0.00000   0.01085   0.01096  -1.05986
   D70       -3.14114  -0.00042   0.00000   0.00609   0.00643  -3.13471
         Item               Value     Threshold  Converged?
 Maximum Force            0.027666     0.000450     NO 
 RMS     Force            0.004634     0.000300     NO 
 Maximum Displacement     0.574226     0.001800     NO 
 RMS     Displacement     0.139302     0.001200     NO 
 Predicted change in Energy=-8.110097D-03
 GradGradGradGradGradGradGradGradGradGradGradGradGradGradGradGradGradGrad

                          Input orientation:                          
 ---------------------------------------------------------------------
 Center     Atomic      Atomic             Coordinates (Angstroms)
 Number     Number       Type             X           Y           Z
 ---------------------------------------------------------------------
      1          6           0        5.353232   -3.475767    3.934424
      2          6           0        5.582303   -2.098959    3.978705
      3          6           0        5.105463   -4.100386    2.710645
      4          6           0        5.563048   -1.351255    2.801159
      5          6           0        5.084768   -3.351912    1.532413
      6          6           0        5.316643   -1.971500    1.568482
      7          6           0        2.844012   -1.504456   -0.288502
      8          6           0        0.664546   -2.514958    0.061560
      9          6           0        1.277295   -0.524129    1.421203
     10          6           0        5.278486   -1.150055    0.291551
     11          6           0        3.917497   -0.471859    0.100150
     12          7           0        1.638861   -1.462600    0.349865
     13          7           0        4.001666    0.496132   -1.069563
     14          8           0        3.142082   -2.307065   -1.167778
     15          1           0        5.374143   -4.059762    4.849921
     16          1           0        5.785234   -1.609276    4.926705
     17          1           0        4.931358   -5.171530    2.670647
     18          1           0        5.758917   -0.280843    2.845948
     19          1           0        4.888515   -3.843278    0.583211
     20          1           0        0.456389   -3.093748    0.969152
     21          1           0        1.071074   -3.175851   -0.700869
     22          1           0       -0.270767   -2.075513   -0.302239
     23          1           0        0.188876   -0.469195    1.468159
     24          1           0        1.636480    0.489249    1.221110
     25          1           0        1.646811   -0.841588    2.404465
     26          1           0        6.064118   -0.379364    0.321044
     27          1           0        5.477330   -1.787102   -0.576781
     28          1           0        3.667999    0.105245    0.990631
     29          1           0        4.734293    1.201568   -0.924286
     30          1           0        3.116058    0.988362   -1.244884
     31          1           0        4.230529   -0.026210   -1.928109
 ---------------------------------------------------------------------
                    Distance matrix (angstroms):
                    1          2          3          4          5
     1  C    0.000000
     2  C    1.396437   0.000000
     3  C    1.396128   2.416829   0.000000
     4  C    2.416995   1.395007   2.788422   0.000000
     5  C    2.420138   2.793166   1.396020   2.416836   0.000000
     6  C    2.803897   2.428167   2.425137   1.401753   1.400216
     7  C    5.292954   5.104971   4.565950   4.118572   3.427800
     8  C    6.156786   6.300906   5.408603   5.731922   4.733103
     9  C    5.625097   5.249190   5.395104   4.577783   4.744004
    10  C    4.322620   3.819401   3.819216   2.533691   2.534846
    11  C    5.078037   4.523518   4.625166   3.282777   3.421784
    12  N    5.540619   5.396681   4.954647   4.628227   4.103924
    13  N    6.530131   5.892192   6.052795   4.564345   4.769784
    14  O    5.682211   5.699498   4.702450   4.746274   3.486656
    15  H    1.086104   2.155713   2.156465   3.401341   3.404504
    16  H    2.157554   1.086129   3.402741   2.152647   3.879260
    17  H    2.156553   3.402269   1.085938   3.874347   2.151771
    18  H    3.399544   2.149390   3.877399   1.089107   3.407539
    19  H    3.403183   3.879867   2.153868   3.403596   1.086711
    20  H    5.737408   6.026775   5.065571   5.698289   4.669668
    21  H    6.317655   6.588573   5.363720   5.980901   4.596551
    22  H    7.179093   7.251583   6.487020   6.647482   5.803179
    23  H    6.464713   6.168308   6.237159   5.606839   5.681896
    24  H    6.074346   5.465590   5.942837   4.615404   5.171279
    25  H    4.797628   4.421234   4.761910   3.969136   4.345314
    26  H    4.811401   4.070335   4.524954   2.710464   3.355977
    27  H    4.818502   4.567354   4.036922   3.407020   2.655454
    28  H    4.932502   4.177518   4.765720   2.998435   3.775274
    29  H    6.772563   5.970922   6.439038   4.591588   5.185787
    30  H    7.194347   6.549794   6.745317   5.275608   5.516084
    31  H    6.894142   6.404220   6.235580   5.088942   4.874960
                    6          7          8          9         10
     6  C    0.000000
     7  C    3.127367   0.000000
     8  C    4.920180   2.427701   0.000000
     9  C    4.293356   2.517684   2.487467   0.000000
    10  C    1.518809   2.527592   4.817084   4.204453   0.000000
    11  C    2.522406   1.539376   3.841541   2.952724   1.532604
    12  N    3.907696   1.364424   1.462828   1.469430   3.653485
    13  N    3.844172   2.439789   4.634919   3.829758   2.488541
    14  O    3.511188   1.227254   2.773567   3.655012   2.834173
    15  H    3.889986   6.271726   6.891671   6.406323   5.408723
    16  H    3.410051   5.988335   7.121190   5.812711   4.685332
    17  H    3.406377   5.153737   5.663073   6.042485   4.685388
    18  H    2.164682   4.451817   6.220667   4.708930   2.740673
    19  H    2.158149   3.226448   4.458528   4.975932   2.736895
    20  H    5.024013   3.131819   1.096381   2.735175   5.243063
    21  H    4.962386   2.471218   1.087816   3.402550   4.773998
    22  H    5.893179   3.166724   1.095568   2.788107   5.657142
    23  H    5.344247   3.347741   2.527830   1.090815   5.268026
    24  H    4.440671   2.777035   3.363699   1.093611   4.100684
    25  H    3.929789   3.020721   3.042074   1.097327   4.212911
    26  H    2.156320   3.465033   5.812355   4.913754   1.100932
    27  H    2.159161   2.664087   4.909190   4.819475   1.095157
    28  H    2.713818   2.215011   4.092599   2.509376   2.158277
    29  H    4.076933   3.361539   5.598866   4.519976   2.702690
    30  H    4.638792   2.683807   4.471013   3.574451   3.407280
    31  H    4.146076   2.606904   4.782142   4.493039   2.699654
                   11         12         13         14         15
    11  C    0.000000
    12  N    2.497220   0.000000
    13  N    1.520632   3.381457   0.000000
    14  O    2.361545   2.296961   2.933674   0.000000
    15  H    6.128229   6.399069   7.594746   6.653326   0.000000
    16  H    5.298848   6.177490   6.600689   6.679513   2.485915
    17  H    5.451814   5.475648   6.853897   5.112747   2.486226
    18  H    3.311604   4.960024   4.361519   5.202249   4.294670
    19  H    3.541567   4.035137   4.727436   2.911348   4.299711
    20  H    4.428176   2.107701   5.441745   3.521120   6.338601
    21  H    4.006910   2.088457   4.712511   2.293875   7.078770
    22  H    4.502797   2.108929   5.045377   3.528499   7.896012
    23  H    3.971658   2.083241   4.680732   4.364327   7.156499
    24  H    2.717227   2.137473   3.292618   3.974040   6.916061
    25  H    3.256161   2.146416   4.404964   4.140577   5.498173
    26  H    2.159937   4.555999   2.637042   3.804066   5.876404
    27  H    2.149693   3.962047   2.762893   2.464351   5.884278
    28  H    1.090071   2.643127   2.123329   3.279414   5.928940
    29  H    2.125319   4.278194   1.027369   3.860690   7.837887
    30  H    2.140950   3.276057   1.028265   3.296432   8.229773
    31  H    2.100102   3.737529   1.030689   2.639151   7.969886
                   16         17         18         19         20
    16  H    0.000000
    17  H    4.302157   0.000000
    18  H    2.468801   4.963306   0.000000
    19  H    4.965966   2.474566   4.309121   0.000000
    20  H    6.801652   5.218966   6.289007   4.511595   0.000000
    21  H    7.506467   5.500150   6.552622   4.082545   1.781446
    22  H    8.014635   6.744291   7.034842   5.525143   1.783813
    23  H    6.676867   6.785946   5.741004   5.852707   2.684930
    24  H    5.945368   6.708338   4.497514   5.454672   3.780737
    25  H    4.906892   5.441277   4.173579   4.778677   2.923945
    26  H    4.775204   5.456064   2.545190   3.667352   6.263748
    27  H    5.514960   4.722100   3.750091   2.433135   5.413602
    28  H    4.786955   5.680042   2.821914   4.152889   4.533041
    29  H    6.575669   7.319751   4.178763   5.267524   6.351009
    30  H    7.208380   7.521368   5.032941   5.461528   5.351581
    31  H    7.204976   6.936428   5.019206   4.616241   5.661099
                   21         22         23         24         25
    21  H    0.000000
    22  H    1.780501   0.000000
    23  H    3.578958   2.434304   0.000000
    24  H    4.176918   3.540648   1.753626   0.000000
    25  H    3.927258   3.539197   1.772264   1.780889   0.000000
    26  H    5.813357   6.587576   5.986853   4.600933   4.905802
    27  H    4.621592   5.761872   5.821203   4.813140   4.945169
    28  H    4.513400   4.684132   3.558414   2.080301   2.642087
    29  H    5.712345   6.014717   5.401486   3.834914   4.978716
    30  H    4.671036   4.663314   4.248938   2.918800   4.338797
    31  H    4.626933   5.206223   5.297719   4.112465   5.109955
                   26         27         28         29         30
    26  H    0.000000
    27  H    1.769784   0.000000
    28  H    2.534675   3.051464   0.000000
    29  H    2.412183   3.099195   2.450676   0.000000
    30  H    3.607473   3.704750   2.466184   1.663407   0.000000
    31  H    2.923261   2.545848   2.975359   1.663995   1.654750
                   31
    31  H    0.000000
 Stoichiometry    C11H17N2O(1+)
 Framework group  C1[X(C11H17N2O)]
 Deg. of freedom    87
 Full point group                 C1      NOp   1
 Largest Abelian subgroup         C1      NOp   1
 Largest concise Abelian subgroup C1      NOp   1
                         Standard orientation:                         
 ---------------------------------------------------------------------
 Center     Atomic      Atomic             Coordinates (Angstroms)
 Number     Number       Type             X           Y           Z
 ---------------------------------------------------------------------
      1          6           0        3.552775   -0.972898    0.158623
      2          6           0        3.247853    0.006705    1.105955
      3          6           0        2.779507   -1.085934   -0.998292
      4          6           0        2.172207    0.869459    0.894569
      5          6           0        1.702196   -0.223490   -1.209154
      6          6           0        1.392229    0.763242   -0.265287
      7          6           0       -1.626355   -0.041371   -0.410786
      8          6           0       -2.436744   -2.326518   -0.287900
      9          6           0       -1.814897   -1.176758    1.828429
     10          6           0        0.210951    1.692977   -0.481979
     11          6           0       -1.032872    1.205649    0.269213
     12          7           0       -1.982290   -1.101829    0.370489
     13          7           0       -2.113824    2.272288    0.190818
     14          8           0       -1.751541    0.001476   -1.630887
     15          1           0        4.393814   -1.641061    0.319354
     16          1           0        3.851903    0.105600    2.003184
     17          1           0        3.015603   -1.843140   -1.740020
     18          1           0        1.953634    1.639952    1.632620
     19          1           0        1.102217   -0.318228   -2.110259
     20          1           0       -1.750335   -3.151362   -0.063119
     21          1           0       -2.462283   -2.163004   -1.363053
     22          1           0       -3.440242   -2.593881    0.061070
     23          1           0       -2.502699   -1.933397    2.208303
     24          1           0       -2.074998   -0.236586    2.322808
     25          1           0       -0.796792   -1.460526    2.123495
     26          1           0        0.466572    2.706497   -0.136312
     27          1           0       -0.028668    1.761569   -1.548397
     28          1           0       -0.789777    1.056845    1.321361
     29          1           0       -1.790666    3.166989    0.578847
     30          1           0       -2.975584    2.004271    0.683632
     31          1           0       -2.367660    2.428062   -0.795905
 ---------------------------------------------------------------------
 Rotational constants (GHZ):      0.9787425      0.4633175      0.4073718
 Standard basis: 6-31G(d) (6D, 7F)
 There are   244 symmetry adapted basis functions of A   symmetry.
 Integral buffers will be    131072 words long.
 Raffenetti 2 integral format.
 Two-electron integral symmetry is turned on.
   244 basis functions,   460 primitive gaussians,   244 cartesian basis functions
    52 alpha electrons       52 beta electrons
       nuclear repulsion energy       915.7046442253 Hartrees.
 NAtoms=   31 NActive=   31 NUniq=   31 SFac= 1.00D+00 NAtFMM=   60 NAOKFM=F Big=F
 One-electron integrals computed using PRISM.
 NBasis=   244 RedAO= T  NBF=   244
 NBsUse=   244 1.00D-06 NBFU=   244
 Initial guess read from the read-write file.
 B after Tr=     0.000000    0.000000    0.000000
         Rot=    1.000000    0.000000    0.000000    0.000000 Ang=   0.00 deg.
 Initial guess orbital symmetries:
       Occupied  (A) (A) (A) (A) (A) (A) (A) (A) (A) (A) (A) (A)
                 (A) (A) (A) (A) (A) (A) (A) (A) (A) (A) (A) (A)
                 (A) (A) (A) (A) (A) (A) (A) (A) (A) (A) (A) (A)
                 (A) (A) (A) (A) (A) (A) (A) (A) (A) (A) (A) (A)
                 (A) (A) (A) (A)
       Virtual   (A) (A) (A) (A) (A) (A) (A) (A) (A) (A) (A) (A)
                 (A) (A) (A) (A) (A) (A) (A) (A) (A) (A) (A) (A)
                 (A) (A) (A) (A) (A) (A) (A) (A) (A) (A) (A) (A)
                 (A) (A) (A) (A) (A) (A) (A) (A) (A) (A) (A) (A)
                 (A) (A) (A) (A) (A) (A) (A) (A) (A) (A) (A) (A)
                 (A) (A) (A) (A) (A) (A) (A) (A) (A) (A) (A) (A)
                 (A) (A) (A) (A) (A) (A) (A) (A) (A) (A) (A) (A)
                 (A) (A) (A) (A) (A) (A) (A) (A) (A) (A) (A) (A)
                 (A) (A) (A) (A) (A) (A) (A) (A) (A) (A) (A) (A)
                 (A) (A) (A) (A) (A) (A) (A) (A) (A) (A) (A) (A)
                 (A) (A) (A) (A) (A) (A) (A) (A) (A) (A) (A) (A)
                 (A) (A) (A) (A) (A) (A) (A) (A) (A) (A) (A) (A)
                 (A) (A) (A) (A) (A) (A) (A) (A) (A) (A) (A) (A)
                 (A) (A) (A) (A) (A) (A) (A) (A) (A) (A) (A) (A)
                 (A) (A) (A) (A) (A) (A) (A) (A) (A) (A) (A) (A)
                 (A) (A) (A) (A) (A) (A) (A) (A) (A) (A) (A) (A)
 Harris functional with IExCor=  402 diagonalized for initial guess.
 ExpMin= 1.61D-01 ExpMax= 5.48D+03 ExpMxC= 8.25D+02 IAcc=3 IRadAn=         5 AccDes= 0.00D+00
 HarFok:  IExCor=  402 AccDes= 0.00D+00 IRadAn=         5 IDoV= 1
 ScaDFX=  1.000000  1.000000  1.000000  1.000000
 FoFCou: FMM=F IPFlag=           0 FMFlag=      100000 FMFlg1=           0
         NFxFlg=           0 DoJE=T BraDBF=F KetDBF=T FulRan=T
         Omega=  0.000000  0.000000  1.000000  0.000000  0.000000 ICntrl=     500 IOpCl=  0
         NMat0=    1 NMatS0=    1 NMatT0=    0 NMatD0=    1 NMtDS0=    0 NMtDT0=    0
         I1Cent=           4 NGrid=           0.
 Petite list used in FoFCou.
 Requested convergence on RMS density matrix=1.00D-08 within 128 cycles.
 Requested convergence on MAX density matrix=1.00D-06.
 Requested convergence on             energy=1.00D-06.
 No special actions if energy rises.
 Integral accuracy reduced to 1.0D-05 until final iterations.
 Initial convergence to 1.0D-05 achieved.  Increase integral accuracy.
 SCF Done:  E(RB3LYP) =  -613.907236818     A.U. after   14 cycles
             Convg  =    0.4990D-08             -V/T =  2.0098
 Calling FoFJK, ICntrl=      2127 FMM=F ISym2X=0 I1Cent= 0 IOpClX= 0 NMat=1 NMatS=1 NMatT=0.
 ***** Axes restored to original set *****
 -------------------------------------------------------------------
 Center     Atomic                   Forces (Hartrees/Bohr)
 Number     Number              X              Y              Z
 -------------------------------------------------------------------
      1        6          -0.000081584   -0.000357489   -0.000155446
      2        6          -0.000096996    0.000180589   -0.000127653
      3        6          -0.000116905    0.000422674    0.000328414
      4        6          -0.000064647    0.000378494    0.000558048
      5        6          -0.000387099   -0.000877988   -0.000098543
      6        6          -0.001300795    0.000848040   -0.000169361
      7        6          -0.011363317   -0.003153640    0.007993513
      8        6          -0.002591654   -0.003068275   -0.000458096
      9        6           0.000444745   -0.000219453    0.000152798
     10        6           0.006083236    0.000096415   -0.000548609
     11        6           0.000673475   -0.004188159    0.009206566
     12        7           0.008716386    0.003135113   -0.001710673
     13        7           0.000648970    0.004590884   -0.005401412
     14        8           0.000338062    0.002002034   -0.006237732
     15        1           0.000051397    0.000011630   -0.000109641
     16        1           0.000028187   -0.000002365   -0.000088572
     17        1           0.000150049   -0.000046165   -0.000073847
     18        1           0.000331775   -0.000166351   -0.000359357
     19        1           0.000200790    0.000267642   -0.000215694
     20        1           0.000157713    0.000673185   -0.000244103
     21        1           0.000496689   -0.000130955   -0.000239490
     22        1           0.000330056    0.000397216    0.000535912
     23        1          -0.000754270   -0.000184609   -0.000078491
     24        1          -0.000267492   -0.000347745   -0.000434513
     25        1           0.000346208   -0.001305925   -0.001207220
     26        1          -0.001141298    0.000212021    0.001096981
     27        1          -0.001074801    0.000166836    0.000260028
     28        1           0.000143328    0.003718324   -0.003206795
     29        1           0.000366361   -0.000256686   -0.000384779
     30        1           0.000442101   -0.000040454    0.000675720
     31        1          -0.000708670   -0.002754839    0.000742048
 -------------------------------------------------------------------
 Cartesian Forces:  Max     0.011363317 RMS     0.002519109

 GradGradGradGradGradGradGradGradGradGradGradGradGradGradGradGradGradGrad
 Berny optimization.
 Using GEDIIS/GDIIS optimizer.
 Internal  Forces:  Max     0.007831617 RMS     0.001384678
 Search for a local minimum.
 Step number   2 out of a maximum of  165
 All quantities printed in internal units (Hartrees-Bohrs-Radians)
 Mixed Optimization -- RFO/linear search
 Update second derivatives using D2CorX and points    1    2
 DE= -8.45D-03 DEPred=-8.11D-03 R= 1.04D+00
 SS=  1.41D+00  RLast= 4.17D-01 DXNew= 5.0454D-01 1.2501D+00
 Trust test= 1.04D+00 RLast= 4.17D-01 DXMaxT set to 5.05D-01
 ITU=  1  0
 Use linear search instead of GDIIS.
     Eigenvalues ---    0.00202   0.00290   0.00472   0.00578   0.00923
     Eigenvalues ---    0.00939   0.00954   0.01177   0.01472   0.01775
     Eigenvalues ---    0.02081   0.02109   0.02115   0.02140   0.02161
     Eigenvalues ---    0.02164   0.02169   0.02176   0.04183   0.04342
     Eigenvalues ---    0.04780   0.05334   0.05427   0.05502   0.05754
     Eigenvalues ---    0.07096   0.07545   0.07630   0.07677   0.09161
     Eigenvalues ---    0.12692   0.14855   0.15843   0.15997   0.15999
     Eigenvalues ---    0.16000   0.16000   0.16000   0.16000   0.16000
     Eigenvalues ---    0.16000   0.16000   0.16000   0.16000   0.16000
     Eigenvalues ---    0.16910   0.17696   0.21842   0.22000   0.22004
     Eigenvalues ---    0.23438   0.23718   0.24839   0.24902   0.24996
     Eigenvalues ---    0.25743   0.28539   0.29304   0.31026   0.32398
     Eigenvalues ---    0.33873   0.33922   0.34340   0.34358   0.34378
     Eigenvalues ---    0.34450   0.34546   0.34588   0.34639   0.34824
     Eigenvalues ---    0.34833   0.34959   0.34972   0.34991   0.37209
     Eigenvalues ---    0.37978   0.41906   0.41966   0.43845   0.44332
     Eigenvalues ---    0.44371   0.44870   0.45621   0.46160   0.46399
     Eigenvalues ---    0.46666   0.89113
 RFO step:  Lambda=-7.12181345D-03 EMin= 2.01563419D-03
 Quartic linear search produced a step of  0.28277.
 Iteration  1 RMS(Cart)=  0.17172978 RMS(Int)=  0.02778424
 Iteration  2 RMS(Cart)=  0.09216165 RMS(Int)=  0.00278210
 Iteration  3 RMS(Cart)=  0.00461299 RMS(Int)=  0.00038509
 Iteration  4 RMS(Cart)=  0.00000778 RMS(Int)=  0.00038507
 Iteration  5 RMS(Cart)=  0.00000001 RMS(Int)=  0.00038507
 Variable       Old X    -DE/DX   Delta X   Delta X   Delta X     New X
                                 (Linear)    (Quad)   (Total)
    R1        2.63888   0.00032   0.00161   0.00106   0.00267   2.64155
    R2        2.63830  -0.00019   0.00142  -0.00020   0.00122   2.63952
    R3        2.05244  -0.00010  -0.00132  -0.00056  -0.00188   2.05056
    R4        2.63618  -0.00017  -0.00018  -0.00043  -0.00060   2.63558
    R5        2.05249  -0.00007  -0.00140  -0.00050  -0.00190   2.05059
    R6        2.63810  -0.00014   0.00033  -0.00028   0.00005   2.63815
    R7        2.05213   0.00002  -0.00148  -0.00020  -0.00168   2.05044
    R8        2.64893  -0.00001   0.00007   0.00002   0.00009   2.64902
    R9        2.05811  -0.00012  -0.00038  -0.00045  -0.00083   2.05728
   R10        2.64602   0.00029  -0.00044   0.00066   0.00021   2.64624
   R11        2.05359   0.00003  -0.00180  -0.00024  -0.00204   2.05154
   R12        2.87013  -0.00082   0.00244  -0.00250  -0.00006   2.87008
   R13        2.90900   0.00486  -0.00559   0.01853   0.01294   2.92194
   R14        2.57839  -0.00783  -0.01635  -0.02218  -0.03853   2.53986
   R15        2.31917   0.00324  -0.00656   0.00286  -0.00370   2.31547
   R16        2.76435   0.00268   0.00316   0.00865   0.01181   2.77616
   R17        2.07186  -0.00059   0.00118  -0.00169  -0.00051   2.07135
   R18        2.05567   0.00043  -0.00257   0.00092  -0.00165   2.05403
   R19        2.07032  -0.00030   0.00086  -0.00082   0.00005   2.07037
   R20        2.77682  -0.00240   0.00608  -0.00607   0.00001   2.77683
   R21        2.06134   0.00074  -0.00171   0.00209   0.00038   2.06172
   R22        2.06663  -0.00033   0.00073  -0.00093  -0.00020   2.06642
   R23        2.07365  -0.00059   0.00202  -0.00153   0.00049   2.07413
   R24        2.89620   0.00183  -0.00180   0.00672   0.00492   2.90112
   R25        2.08046  -0.00064   0.00129  -0.00186  -0.00057   2.07989
   R26        2.06955  -0.00050  -0.00141  -0.00191  -0.00332   2.06622
   R27        2.87358   0.00438   0.01528   0.01763   0.03291   2.90649
   R28        2.05994  -0.00068  -0.00094  -0.00239  -0.00333   2.05660
   R29        1.94145   0.00003   0.00422   0.00090   0.00512   1.94657
   R30        1.94314  -0.00052   0.00429  -0.00047   0.00382   1.94696
   R31        1.94772   0.00062   0.00494   0.00255   0.00748   1.95520
    A1        2.09210   0.00010  -0.00044   0.00037  -0.00007   2.09203
    A2        2.09469  -0.00001  -0.00001   0.00003   0.00001   2.09470
    A3        2.09638  -0.00009   0.00044  -0.00042   0.00001   2.09639
    A4        2.09373   0.00001  -0.00056  -0.00003  -0.00059   2.09313
    A5        2.09768   0.00004   0.00105   0.00042   0.00145   2.09913
    A6        2.09173  -0.00005  -0.00050  -0.00042  -0.00094   2.09080
    A7        2.09736   0.00005   0.00042   0.00027   0.00068   2.09804
    A8        2.09675   0.00003   0.00076   0.00039   0.00114   2.09789
    A9        2.08907  -0.00008  -0.00118  -0.00068  -0.00186   2.08721
   A10        2.10315  -0.00024   0.00051  -0.00102  -0.00052   2.10263
   A11        2.08242   0.00044   0.00120   0.00288   0.00404   2.08645
   A12        2.09747  -0.00020  -0.00175  -0.00197  -0.00376   2.09371
   A13        2.09945  -0.00024  -0.00054  -0.00125  -0.00179   2.09765
   A14        2.09145   0.00049   0.00362   0.00365   0.00726   2.09872
   A15        2.09228  -0.00024  -0.00308  -0.00240  -0.00548   2.08680
   A16        2.08057   0.00032   0.00061   0.00168   0.00229   2.08287
   A17        2.09953   0.00005  -0.00023   0.00013  -0.00011   2.09942
   A18        2.10294  -0.00037  -0.00034  -0.00178  -0.00213   2.10081
   A19        2.06831   0.00381  -0.00093   0.01644   0.01349   2.08180
   A20        2.03779  -0.00381  -0.01792  -0.02047  -0.04032   1.99747
   A21        2.17705  -0.00002   0.01940   0.00308   0.02032   2.19737
   A22        1.92099  -0.00042   0.00723  -0.00239   0.00480   1.92579
   A23        1.90317  -0.00018  -0.01617  -0.00275  -0.01885   1.88432
   A24        1.92358  -0.00068   0.00737  -0.00392   0.00340   1.92698
   A25        1.90754   0.00042   0.00277   0.00414   0.00699   1.91453
   A26        1.90133   0.00024  -0.00301  -0.00091  -0.00407   1.89726
   A27        1.90710   0.00064   0.00186   0.00598   0.00790   1.91500
   A28        1.88501   0.00009  -0.00992  -0.00041  -0.01021   1.87480
   A29        1.95799   0.00008   0.00726   0.00208   0.00897   1.96697
   A30        1.96673  -0.00238   0.02084  -0.01415   0.00639   1.97313
   A31        1.86390   0.00023  -0.00718   0.00275  -0.00439   1.85951
   A32        1.88809   0.00084  -0.00749   0.00331  -0.00400   1.88409
   A33        1.89803   0.00130  -0.00468   0.00727   0.00193   1.89997
   A34        1.94619  -0.00220  -0.00408  -0.01493  -0.01914   1.92705
   A35        1.91576   0.00070   0.00919   0.00431   0.01326   1.92902
   A36        1.92564   0.00079   0.00379   0.00339   0.00648   1.93211
   A37        1.90421   0.00033  -0.00500  -0.00100  -0.00585   1.89836
   A38        1.89613   0.00002  -0.01252  -0.00547  -0.01809   1.87804
   A39        1.87432   0.00045   0.00948   0.01468   0.02375   1.89806
   A40        1.93260   0.00190  -0.00207   0.01117   0.00796   1.94056
   A41        1.84564  -0.00312  -0.01624  -0.03363  -0.04975   1.79589
   A42        1.98424   0.00154   0.00780   0.03234   0.04000   2.02424
   A43        1.90562  -0.00030   0.00315  -0.01367  -0.01096   1.89466
   A44        1.91294  -0.00061  -0.00046   0.00609   0.00507   1.91801
   A45        1.87973   0.00041   0.00782  -0.00594   0.00245   1.88218
   A46        2.06465  -0.00059  -0.00696  -0.00457  -0.01165   2.05299
   A47        2.18712   0.00151   0.00595   0.00713   0.01286   2.19998
   A48        2.02557  -0.00097   0.00033  -0.00489  -0.00472   2.02085
   A49        1.94743   0.00099  -0.00297   0.00882   0.00567   1.95310
   A50        1.96948   0.00007   0.00880   0.00231   0.01105   1.98054
   A51        1.90756  -0.00379  -0.00670  -0.02995  -0.03670   1.87086
   A52        1.88556   0.00001   0.00158   0.00544   0.00686   1.89241
   A53        1.88329   0.00138  -0.00083   0.00866   0.00765   1.89094
   A54        1.86692   0.00147   0.00008   0.00526   0.00542   1.87235
    D1        0.00005   0.00000  -0.00013   0.00015   0.00002   0.00007
    D2       -3.13110   0.00010   0.00303   0.00366   0.00671  -3.12439
    D3        3.13495  -0.00009  -0.00210  -0.00320  -0.00531   3.12964
    D4        0.00380   0.00001   0.00106   0.00030   0.00138   0.00517
    D5       -0.00125  -0.00001  -0.00029  -0.00059  -0.00088  -0.00214
    D6        3.13661  -0.00013  -0.00180  -0.00499  -0.00682   3.12979
    D7       -3.13614   0.00007   0.00168   0.00277   0.00445  -3.13169
    D8        0.00172  -0.00004   0.00017  -0.00164  -0.00148   0.00024
    D9       -0.00144   0.00003  -0.00002   0.00119   0.00118  -0.00027
   D10       -3.12452   0.00020   0.00513   0.00760   0.01277  -3.11176
[...]
 .11839264,-0.00000271,0.00029564,-0.00015832,0.00003981,-0.00019190,-0
 .00017367,0.00241683,0.02476176,-0.03417312,0.00026034,0.00039230,0.00
 043533,0.00257937,-0.00098927,-0.00294626,-0.00003510,0.00002039,-0.00
 003278,-0.00002595,-0.00001306,-0.00000490,0.00003262,-0.00002943,0.00
 001945,0.00000911,-0.00000954,-0.00002223,0.00011011,-0.00001121,-0.00
 007823,-0.00047859,-0.00101486,0.00012756,0.00031103,-0.00017119,0.000
 14526,-0.00024750,-0.00026192,-0.00007100,-0.00015485,-0.00536439,0.00
 546955,0.00180693,-0.00654119,0.00567814,0.01936500,-0.12714598,0.1426
 2651,0.00015033,0.00049518,0.00015093,0.00019612,-0.00033480,0.0004074
 2,-0.00004665,0.00007554,-0.00069243,0.00063514,0.00019245,-0.00150640
 ,0.00006765,0.00024881,0.00050135,0.00115019,-0.00138714,0.00066937,-0
 .00132912,0.00612261,0.00062876,0.00027760,-0.00021431,0.00036928,-0.0
 0003923,-0.00006582,-0.00035787,-0.19090535,-0.12620478,-0.00831854,-0
 .02820131,-0.01690046,-0.00452200,-0.00057872,-0.00083160,-0.00035405,
 0.00174871,-0.00037202,0.00207599,0.00027020,-0.00092877,-0.00122000,-
 0.00003495,0.00004301,0.00000412,-0.00004232,0.00001047,-0.00001541,-0
 .00004192,0.00002150,0.00001415,-0.00010910,0.00037261,0.00042724,0.00
 003437,-0.00007093,-0.00006282,-0.00014768,-0.00010175,-0.00007878,0.0
 0002968,0.00001388,-0.00001797,-0.00002683,0.00001129,0.00001287,-0.00
 000727,0.00003583,0.00007859,-0.00002160,0.00005610,-0.00001891,-0.000
 04039,0.00001551,0.00008046,0.21010316,0.00004949,0.00023107,0.0001137
 0,0.00047101,-0.00065984,0.00044545,0.00063139,-0.00073574,-0.00018477
 ,0.00074169,0.00058661,-0.00253541,-0.00089035,-0.00009722,0.00347499,
 -0.01198754,-0.01355727,0.00152386,0.00127528,-0.00395778,0.00056303,-
 0.00013280,0.00010263,-0.00020289,-0.00001973,0.00000731,0.00026420,-0
 .12797859,-0.15902150,-0.01304700,0.01800735,0.00902090,0.00398832,0.0
 0050716,0.00078912,-0.00014533,0.00163775,0.00154169,-0.00093562,0.000
 04517,0.00165309,0.00095235,-0.00016298,0.00008863,0.00007678,-0.00004
 364,0.00002030,0.00004232,0.00004048,-0.00016453,0.00024901,-0.0004063
 6,0.00070206,0.00035992,-0.00026263,0.00049967,0.00004586,0.00010926,0
 .00008730,0.00003298,-0.00002847,-0.00002899,0.00001918,0.00000948,0.0
 0000563,-0.00000722,-0.00002729,-0.00001110,-0.00007456,0.00006461,-0.
 00008762,0.00002332,0.00010620,0.00003300,-0.00008431,0.13550625,0.174
 15226,0.00026775,0.00014536,-0.00009086,0.00001631,0.00012161,0.000231
 24,-0.00068862,0.00105727,0.00009043,-0.00003723,0.00137592,0.00139221
 ,0.00054783,0.00016630,-0.00406164,0.02105685,0.02165331,-0.00067891,-
 0.00072343,0.00079870,-0.00033142,0.00006052,-0.00003492,0.00008657,-0
 .00002348,0.00003300,-0.00015545,-0.00827623,-0.01281107,-0.04994644,-
 0.00483971,-0.00249135,-0.00181308,-0.00025169,-0.00013288,-0.00003140
 ,-0.00128481,-0.00079865,0.00067957,-0.00020663,0.00014171,0.00029957,
 -0.00003807,-0.00005609,-0.00000144,-0.00003022,-0.00004267,0.00002500
 ,-0.00011029,0.00018167,-0.00028894,-0.00013963,-0.00080871,-0.0003260
 3,0.00029634,0.00006599,0.00009013,-0.00003720,-0.00003139,-0.00001488
 ,0.00002467,0.00000714,0.00000082,-0.00001186,-0.00000191,0.00000334,0
 .00001575,-0.00000574,0.00004605,-0.00002785,0.00005795,-0.00001437,-0
 .00003946,-0.00003304,0.00003360,0.01406375,0.00596064,0.05538491,-0.0
 0009509,-0.00025805,-0.00014994,0.00016041,0.00041663,-0.00029413,-0.0
 0005189,0.00002572,0.00013243,0.00058650,-0.00026794,-0.00014172,0.000
 21251,0.00044298,0.00005422,0.00034918,0.00042068,0.00075649,0.0007499
 4,0.00191587,0.00375420,-0.00013372,0.00009663,-0.00005307,0.00021341,
 0.00007966,0.00015489,-0.05868634,0.02537988,0.03475647,-0.01076649,0.
 02148609,0.02169728,0.00013832,-0.00035810,-0.00036190,0.00106079,-0.0
 0122875,0.00018247,0.00091962,-0.00109795,-0.00133187,0.00004001,0.000
 00494,-0.00002492,-0.00008221,0.00002267,-0.00001616,-0.00002580,0.000
 02825,-0.00002169,0.00007990,0.00022583,0.00021954,0.00012090,-0.00029
 986,0.00001534,-0.00000292,0.00002141,0.00001094,-0.00005828,-0.000026
 02,-0.00001465,0.00000511,-0.00002491,-0.00001957,0.00000879,-0.000023
 39,-0.00005562,-0.00000054,0.00004916,-0.00016994,-0.00005950,-0.00003
 986,-0.00006033,0.00620378,-0.01543750,-0.01934928,0.06297978,-0.00007
 855,0.00019279,0.00019396,0.00052772,0.00019209,0.00063663,-0.00021793
 ,0.00028724,-0.00024760,-0.00056840,-0.00185621,0.00203752,0.00026039,
 0.00067267,0.00166716,-0.00352827,0.01193429,0.01391609,-0.00120738,-0
 .00051111,-0.00158533,0.00001224,-0.00003946,-0.00000589,-0.00008391,-
 0.00006183,-0.00009039,0.02689776,-0.15551930,-0.12523372,0.00597010,-
 0.01206866,-0.01158497,0.00002537,0.00016467,0.00025366,-0.00053193,0.
 00094219,-0.00026242,-0.00061947,0.00049247,0.00136020,0.00006645,-0.0
 0002510,-0.00003496,0.00006482,-0.00014190,0.00017824,0.00003881,-0.00
 000959,-0.00003327,-0.00008401,0.00015845,0.00013753,0.00004741,-0.000
 25395,-0.00023359,-0.00000046,0.00000118,0.00000912,0.00001196,0.00001
 983,0.00000441,0.00000433,0.00000697,0.00000756,0.00001742,0.00001412,
 0.00001609,0.00005918,0.00000116,0.00007479,0.00003316,0.00002739,0.00
 002508,0.00466075,-0.01278017,-0.01520691,-0.03487339,0.16982106,0.000
 13821,0.00016488,0.00018927,-0.00097591,-0.00090393,-0.00055553,-0.000
 33227,0.00022504,-0.00033190,0.00177103,0.00406070,-0.00337098,-0.0012
 4746,-0.00237205,0.00173215,0.00349503,-0.01704370,-0.02358466,0.00016
 557,-0.00006465,0.00032102,-0.00004077,0.00008087,0.00003074,0.0000139
 1,-0.00006036,-0.00010386,0.03681781,-0.12433789,-0.19614069,-0.001793
 39,0.00565740,0.00519224,0.00000772,-0.00009191,-0.00001262,0.00023724
 ,-0.00023572,0.00102524,0.00002994,0.00016127,0.00023444,0.00011675,0.
 00005981,0.00004181,-0.00005483,0.00026121,-0.00035009,0.00002847,-0.0
 0000097,0.00002832,0.00027532,-0.00001998,0.00022780,0.00073570,0.0009
 5946,0.00052243,0.00000675,-0.00000412,-0.00001213,0.00001136,-0.00000
 740,0.00000668,-0.00002385,-0.00001184,-0.00000507,0.00001326,0.000004
 85,0.00002717,-0.00005384,0.00008431,-0.00004323,-0.00003932,-0.000020
 94,0.00000511,-0.00067246,0.00020146,-0.00008409,-0.03694744,0.1323464
 5,0.21439925,-0.00008646,-0.00026421,-0.00009304,0.00001590,-0.0000168
 8,-0.00036954,-0.00001970,-0.00009348,0.00034607,0.00031273,0.00031474
 ,0.00020350,0.00031764,0.00045120,-0.00028426,0.00071007,-0.00136970,0
 .00093673,0.01236544,-0.01269582,-0.01726937,-0.00049958,0.00036333,-0
 .00004873,-0.00068055,-0.00059411,0.00030719,-0.00631321,0.02004805,0.
 01871302,-0.06159446,0.03820262,0.04325026,-0.00042362,0.00083634,0.00
 045767,-0.00146765,0.00289313,0.00593719,-0.00534778,-0.00231623,-0.00
 400716,-0.00002024,-0.00003317,-0.00000744,-0.00000143,0.00002461,-0.0
 0001419,-0.00001161,0.00000313,-0.00000171,-0.00031639,-0.00022704,-0.
 00020379,-0.00007589,-0.00009597,-0.00002563,0.00010057,0.00006074,0.0
 0006696,0.00012257,0.00011882,-0.00000171,-0.00013123,-0.00008927,-0.0
 0006936,-0.00016285,-0.00008479,0.00014981,-0.00054605,-0.00128744,0.0
 0183096,0.00023769,0.00017480,0.00020348,0.00119649,-0.00093787,0.0003
 7029,-0.00426013,0.00247896,-0.00189064,0.06713592,0.00007065,0.000172
 59,0.00012816,-0.00008823,-0.00009318,0.00032335,0.00000847,0.00005327
 ,-0.00021796,-0.00025051,-0.00001938,0.00011459,-0.00015720,-0.0003709
 3,0.00015261,-0.00031538,0.00103705,-0.00097331,0.00999755,-0.00585057
 ,-0.01159804,-0.00033242,0.00007018,0.00021871,-0.00108250,-0.00061190
 ,-0.00074545,0.00400827,-0.01089173,-0.01076451,0.04075156,-0.18387356
 ,-0.14205874,-0.00091141,-0.00010252,0.00055209,-0.00443637,0.01155991
 ,0.02383784,-0.00385146,-0.00116545,-0.00263655,0.00001678,0.00001613,
 0.00000665,0.00000649,-0.00001406,0.00001444,-0.00000085,-0.00000378,0
 .00000678,0.00020056,0.00012759,0.00006402,0.00002283,0.00010653,0.000
 01727,0.00002419,-0.00001726,0.00003876,0.00015478,0.00014241,0.000006
 62,-0.00009030,-0.00005345,-0.00005223,0.00019209,0.00018724,0.0002121
 4,-0.00049400,-0.00009944,0.00178673,0.00034536,0.00025828,0.00024447,
 -0.00010392,0.00106086,0.00041603,0.00288435,-0.00031561,0.00115321,-0
 .04387212,0.19018541,-0.00002809,-0.00003350,0.00000763,0.00005824,-0.
 00003485,-0.00013666,-0.00002792,-0.00001385,0.00005059,0.00012798,0.0
 0009205,0.00023888,0.00005526,0.00006836,-0.00007651,0.00034369,-0.000
 20409,0.00103781,-0.00107221,-0.00380486,-0.00380533,-0.00003561,0.000
 02501,-0.00001322,0.00093384,0.00060993,-0.00080558,-0.00156677,0.0060
 1215,0.00813747,0.04238295,-0.12948063,-0.18411444,-0.00022940,-0.0001
 8782,-0.00035406,0.00575389,-0.01408449,-0.02532783,-0.00064165,-0.000
 68812,0.00120989,-0.00000839,-0.00001514,-0.00000664,-0.00002525,0.000
 01349,-0.00000917,0.00001036,-0.00000135,-0.00001014,-0.00021043,-0.00
 011777,-0.00005710,-0.00000816,-0.00006108,-0.00001516,0.00004143,-0.0
 0000322,0.00005086,0.00002410,0.00001044,-0.00004172,0.00001097,-0.000
 02698,-0.00001589,0.00019682,0.00017424,0.00004725,0.00210997,0.002075
 93,-0.00113899,-0.00008582,0.00001010,-0.00001289,0.00038632,-0.000363
 57,0.00019877,-0.00219158,0.00144805,0.00000912,-0.04801973,0.13698248
 ,0.20923929,-0.00000854,0.00000891,0.00001834,0.00000317,-0.00009688,0
 .00001912,0.00009571,-0.00000195,0.00005678,-0.00004803,0.00007072,-0.
 00010947,-0.00013983,0.00013206,-0.00007636,-0.00105440,0.00007319,0.0
 0049998,-0.00070815,-0.00024396,-0.00058037,0.00001906,-0.00019561,-0.
 00006481,-0.00003599,0.00007465,0.00012332,0.00263432,0.00259846,-0.00
 240540,0.00017095,-0.00290893,0.00375376,0.00049263,0.00034641,-0.0002
 7381,-0.39250828,-0.06213004,0.04797242,0.00047631,0.00047712,0.000303
 41,-0.00000665,0.00000143,-0.00000055,0.00001457,0.00000162,-0.0000063
 0,0.00002095,-0.00000632,-0.00000448,0.00003081,-0.00001046,-0.0000096
 3,-0.00000080,-0.00000989,-0.00000131,-0.00000243,0.00002062,-0.000015
 48,-0.00001956,-0.00002579,0.00002838,0.00005137,0.00003131,0.00003437
 ,-0.00000608,-0.00002225,-0.00003398,0.00003324,-0.00002537,0.00006498
 ,0.00005400,0.00003325,-0.00003360,-0.00009274,-0.00110066,-0.00053651
 ,0.00037229,0.00004057,0.00023486,-0.00011852,0.00013114,-0.00030114,0
 .41262662,0.00001845,0.00001696,-0.00004376,-0.00004386,-0.00001527,-0
 .00006722,-0.00001197,0.00003661,-0.00003571,0.00015314,0.00032393,-0.
 00010552,0.00001357,-0.00004501,-0.00024943,0.00049582,-0.00029180,0.0
 0006640,-0.00149190,-0.00242300,0.00137189,-0.00006038,0.00009440,0.00
 021582,-0.00004015,-0.00003349,-0.00021356,-0.00110113,0.00081073,0.00
 000321,-0.01381585,-0.00312794,-0.00106914,-0.00049494,-0.00054638,-0.
 00034866,-0.06879480,-0.07691442,0.01064286,-0.00112189,-0.00219479,0.
 00160756,-0.00000023,0.00000385,-0.00001362,-0.00000726,0.00002118,-0.
 00005134,-0.00000395,0.00003201,-0.00003118,-0.00001631,-0.00003337,0.
 00001816,-0.00002509,-0.00002789,0.00003200,-0.00006869,-0.00004462,0.
 00001765,0.00003161,0.00003479,0.00004083,-0.00005526,-0.00006925,0.00
 001554,0.00000065,-0.00000466,0.00006329,-0.00002144,0.00004330,-0.000
 01433,-0.00004699,-0.00001145,0.00004313,0.00067441,0.00044371,0.00071
 468,-0.00017761,-0.00105853,-0.00020863,0.00035439,0.00008890,-0.00011
 997,0.07015156,0.07313853,-0.00001105,-0.00002798,0.00004115,-0.000043
 98,-0.00006250,0.00000819,0.00001229,-0.00011036,0.00002562,0.00001703
 ,-0.00008535,0.00001480,-0.00002854,0.00009428,0.00045954,-0.00026295,
 -0.00063418,-0.00040231,-0.00015803,0.00015393,-0.00795105,0.00022500,
 -0.00020061,-0.00019528,-0.00008519,0.00009279,0.00015714,0.00222008,0
 .00027427,0.00265467,0.02804663,0.00581909,-0.00269148,0.00060799,0.00
 099019,0.00100792,0.05036971,0.00973002,-0.06283044,-0.00155083,-0.003
 58902,0.00247840,-0.00000536,-0.00001327,0.00001386,0.00000025,-0.0000
 0434,0.00003506,-0.00000355,-0.00004170,0.00004809,0.00000469,-0.00000
 796,-0.00008634,-0.00001056,-0.00000555,-0.00003423,0.00002434,0.00001
 341,0.00001685,0.00002824,0.00002035,0.00003200,0.00004875,0.00010418,
 0.00004021,0.00000105,0.00003230,0.00001313,0.00004263,-0.00000983,0.0
 0010349,0.00007606,0.00003263,0.00000206,-0.00209431,-0.00036031,-0.00
 078107,-0.00044040,-0.00004361,0.00003785,0.00085718,0.00087772,-0.001
 45894,-0.05201101,-0.01503067,0.06027616,0.00000066,0.00000175,0.00003
 962,-0.00005920,-0.00008542,0.00000326,-0.00001879,0.00004427,0.000041
 24,0.00001635,0.00002420,-0.00007307,0.00000379,0.00007830,-0.00003720
 ,0.00040796,-0.00017492,0.00039441,0.00121107,-0.00062547,0.00094449,0
 .00000977,0.00003387,0.00009818,0.00008079,-0.00001438,0.00002454,-0.0
 0062259,0.00043261,-0.00048377,0.00464360,-0.00660445,-0.00258305,-0.0
 0077711,-0.00021271,0.00003706,-0.16193078,0.15069338,-0.00841206,-0.0
 0237754,-0.00046749,-0.00000485,0.00000554,-0.00000655,0.00000340,0.00
 000201,0.00000662,0.00000446,0.00000023,-0.00000954,-0.00000321,0.0000
 0687,-0.00002081,-0.00002669,0.00001482,0.00000415,-0.00000767,-0.0000
 3011,0.00000463,-0.00000855,0.00004779,-0.00001992,-0.00000118,-0.0000
 7115,-0.00005631,0.00003418,-0.00005907,-0.00003716,0.00004936,0.00004
 853,-0.00004662,-0.00001497,-0.00000661,0.00001811,0.00000583,0.000209
 97,0.00008264,0.00016943,-0.00006333,-0.00018548,-0.00001960,0.0007474
 1,-0.00040881,0.00013636,-0.01491376,0.03494332,-0.00199173,0.16285209
 ,0.00000663,0.00000903,-0.00000110,-0.00004914,0.00004534,0.00003173,-
 0.00006385,-0.00002673,-0.00002029,0.00006201,-0.00002932,0.00004773,0
 .00002870,-0.00000111,0.00000940,0.00045493,0.00023402,-0.00028477,-0.
 00095438,-0.00137528,0.00139628,-0.00017913,-0.00010996,-0.00013929,0.
 00005074,0.00005509,0.00025228,-0.00118701,-0.00033141,0.00173304,0.00
 469895,-0.00826736,-0.00004543,0.00053023,0.00020078,-0.00041421,0.159
 06148,-0.31573442,0.01748452,-0.00144239,0.00065007,-0.00101055,0.0000
 1328,-0.00000185,-0.00000730,-0.00000941,-0.00000360,-0.00000788,0.000
 00004,0.00000365,0.00000373,0.00003010,0.00000001,0.00001684,0.0000315
 0,-0.00004076,-0.00001427,0.00004613,0.00004728,-0.00001075,-0.0000291
 8,-0.00003371,0.00001813,0.00004432,0.00002283,0.00003172,0.00003939,-
 0.00000443,-0.00007832,0.00001624,0.00001313,0.00007065,0.00004088,0.0
 0001935,-0.00005199,0.00011615,0.00024409,0.00001614,-0.00027704,0.000
 04777,-0.00012096,-0.00009964,0.00176339,-0.00084755,-0.00593454,0.011
 52668,-0.00130384,-0.16777840,0.32717105,-0.00001287,-0.00000154,-0.00
 004686,0.00012670,-0.00001944,-0.00009712,0.00014164,0.00000914,-0.000
 01980,0.00004288,0.00029143,0.00005981,-0.00006059,-0.00007552,-0.0002
 7738,-0.00155457,0.00055555,0.00034405,-0.00016782,0.00029098,-0.00120
 631,0.00010604,0.00002397,0.00001804,0.00003821,0.00001581,0.00009837,
 0.00283437,0.00288809,-0.00594465,-0.01790478,0.02418462,0.00162834,0.
 00020988,-0.00012758,0.00023726,-0.00946922,0.01915089,-0.05618234,-0.
 00254677,-0.00052249,0.00027306,-0.00002552,0.00000201,-0.00000064,0.0
 0000863,0.00001314,-0.00003263,0.00000563,0.00001738,-0.00002650,-0.00
 011726,-0.00004351,-0.00001581,-0.00005858,0.00002768,0.00002559,-0.00
 002743,-0.00001493,0.00000695,0.00003510,0.00002239,0.00000145,0.00000
 955,0.00001246,0.00002140,0.00003763,0.00001566,-0.00001621,-0.0001431
 9,0.00004505,-0.00009919,-0.00006036,-0.00006079,-0.00001365,0.0001827
 4,-0.00027089,0.00009161,0.00027990,-0.00010200,0.00037756,-0.00060656
 ,-0.00081807,0.00027625,0.00163523,-0.00563413,-0.00019434,0.00799848,
 -0.02057276,0.05528820,-0.00002682,-0.00003904,0.00008075,-0.00001041,
 -0.00000031,0.00004466,-0.00011670,-0.00010711,0.00005438,-0.00007990,
 -0.00015486,0.00014127,-0.00009006,0.00013308,0.00025750,0.00023987,0.
 00035292,-0.00019098,-0.00172881,0.00183759,0.02603603,-0.00076931,-0.
 00078077,-0.00025247,0.00127432,0.00040509,0.00173273,-0.00037527,-0.0
 0211256,0.00019938,0.00350448,0.00933393,-0.00479459,0.00389332,-0.000
 36215,-0.00778019,-0.08601094,-0.03659401,-0.04893103,-0.00396052,0.00
 667863,-0.01620516,0.00001295,-0.00001716,0.00000416,0.00001408,-0.000
 01853,0.00003285,0.00002696,-0.00005128,0.00004078,-0.00000244,-0.0000
 2820,-0.00005418,0.00015041,-0.00008169,-0.00008283,0.00012122,0.00016
 499,-0.00019548,-0.00040691,-0.00033814,-0.00005997,0.00024190,0.00007
 518,0.00007372,0.00000647,-0.00020359,-0.00071974,-0.00013200,-0.00023
 229,-0.00023245,-0.00000173,-0.00004231,-0.00042401,-0.00060822,0.0001
 3120,-0.00023730,0.00008500,0.00076180,-0.00000715,-0.00118507,-0.0024
 1958,0.00187997,-0.00743224,-0.01943720,-0.02388444,0.01062082,0.01273
 239,0.01906291,0.08274557,-0.00003719,-0.00007378,0.00007008,-0.000054
 12,-0.00004735,-0.00003116,-0.00016215,-0.00019172,0.00007356,-0.00001
 330,0.00000590,-0.00002121,-0.00004388,0.00027408,0.00047632,0.0004884
 3,-0.00071325,-0.00041194,-0.00199899,0.00511485,0.03121706,-0.0010794
 8,-0.00066921,-0.00029128,0.00114467,0.00120335,0.00183266,-0.00109527
 ,-0.00087617,0.00201865,0.00647335,0.01920248,-0.00173346,0.00402952,0
 .00040569,-0.01065456,-0.03371050,-0.14381732,-0.09481616,0.00940521,-
 0.00032442,-0.02032758,0.00001583,-0.00002144,-0.00000744,0.00000883,-
 0.00000663,0.00001094,0.00002306,-0.00005592,0.00005616,-0.00001776,-0
 .00004959,-0.00007548,0.00014971,-0.00017107,-0.00009303,0.00017594,0.
 00019780,-0.00016695,-0.00065417,-0.00050424,-0.00010479,0.00026744,0.
 00002232,-0.00011369,0.00004742,-0.00019824,-0.00072587,-0.00020165,-0
 .00027478,-0.00025500,0.00003237,-0.00013389,-0.00071528,-0.00115604,-
 0.00016819,-0.00045809,0.00088962,-0.00033492,0.00008413,-0.00224710,-
 0.00334695,0.00256659,-0.00148038,0.00022632,0.00329592,-0.00961340,-0
 .01609363,-0.01930260,0.03041398,0.14141992,0.00000893,0.00002730,0.00
 005780,-0.00004281,-0.00005719,0.00007015,-0.00000676,0.,-0.00001332,-
 0.00002687,-0.00017417,0.00005797,-0.00002290,0.00004577,0.00019065,0.
 00021832,0.00036897,-0.00007107,0.00636514,0.00442062,-0.00530211,-0.0
 0029155,0.00001359,0.00026334,0.00038258,-0.00012080,-0.00012871,-0.00
 004002,-0.00028371,0.00012198,-0.00348217,-0.01058429,-0.03736114,-0.0
 0037751,-0.00098477,-0.00219263,-0.05680664,-0.11256000,-0.17139696,-0
 .00460404,-0.00388920,-0.00755789,0.00000228,-0.00000876,0.00001018,-0
 .00000528,-0.00000768,0.00003133,-0.00000066,-0.00002792,0.00002319,0.
 00002669,-0.00000803,-0.00003444,0.00000534,0.00002565,-0.00002122,-0.
 00004083,-0.00002928,-0.00001723,0.00007924,0.00003797,0.00003248,-0.0
 0005205,-0.00006511,0.00004149,0.00000995,0.00004798,-0.00012845,0.000
 05137,0.00005690,-0.00000323,0.00004558,0.00001294,-0.00002663,-0.0001
 2139,-0.00012548,-0.00003378,-0.00036994,0.00035211,0.00018665,-0.0007
 1742,0.00271017,-0.00310353,0.00171926,0.00838386,0.00915929,0.0036832
 9,0.00381907,0.00542549,0.05441085,0.10860348,0.21172034\\0.00000060,0
 .00000363,0.00000118,0.00000043,-0.00000276,0.00000117,-0.00000005,0.0
 0000106,-0.00000421,-0.00000121,-0.00000165,-0.00000108,0.00000064,-0.
 00000617,0.00000310,0.00000353,0.00001007,-0.00000338,0.00000236,0.000
 00568,0.00001951,-0.00000223,0.00000059,0.00000016,-0.00000273,0.00001
 001,0.00000353,0.00001859,-0.00001638,0.00001017,-0.00002265,0.0000182
 9,-0.00003002,-0.00000204,-0.00001358,-0.00000677,0.00001927,0.0000205
 3,0.00004378,-0.00000091,-0.00000500,-0.00000865,-0.00000005,0.,0.,-0.
 00000058,0.00000118,-0.00000014,0.00000045,0.00000022,0.00000114,0.000
 00003,0.00000110,0.00000022,-0.00000091,0.00000097,-0.00000021,0.00000
 168,0.00000087,0.00000047,0.,0.00000027,-0.00000086,-0.00000016,-0.000
 00094,-0.00000062,0.00000006,-0.00000201,-0.00000054,0.00000120,-0.000
 00316,0.00000109,0.00000094,0.00000149,0.00000010,-0.00000425,0.000001
 98,-0.00000066,-0.00000296,0.00000044,0.00000092,0.00000374,-0.0000016
 9,0.00000291,-0.00000038,-0.00000103,-0.00000380,-0.00000196,-0.000002
 50,-0.00000090,-0.00001047,-0.00002150,-0.00002763\\\@


 YOU KNOW YOU'RE A TEACHER WHEN YOU SAY 2, WRITE 3, AND MEAN 4.
 -- RONALD ANSTROM, HIGH SCHOOL TEACHER, UNDERWOOD, N.D. 1974
 Job cpu time:  0 days  2 hours  9 minutes 52.1 seconds.
 File lengths (MBytes):  RWF=    235 Int=      0 D2E=      0 Chk=      6 Scr=      1
 Normal termination of Gaussian 09 at Sat Feb 17 22:29:58 2018.
