 Entering Gaussian System, Link 0=g09
 Initial command:
 /home/fb_chem/chemsoft/lx24-amd64/Gaussian_09_C.01_NBO_3.1_64_istanbul-64/g09/l1.exe /local/2400111.1.parallel/Gau-11971.inp -scrdir=/local/2400111.1.parallel/
 Entering Link 1 = /home/fb_chem/chemsoft/lx24-amd64/Gaussian_09_C.01_NBO_3.1_64_istanbul-64/g09/l1.exe PID=     11972.
  
 Copyright (c) 1988,1990,1992,1993,1995,1998,2003,2009,2011,
            Gaussian, Inc.  All Rights Reserved.
  
 This is part of the Gaussian(R) 09 program.  It is based on
 the Gaussian(R) 03 system (copyright 2003, Gaussian, Inc.),
 the Gaussian(R) 98 system (copyright 1998, Gaussian, Inc.),
 the Gaussian(R) 94 system (copyright 1995, Gaussian, Inc.),
 the Gaussian 92(TM) system (copyright 1992, Gaussian, Inc.),
 the Gaussian 90(TM) system (copyright 1990, Gaussian, Inc.),
 the Gaussian 88(TM) system (copyright 1988, Gaussian, Inc.),
 the Gaussian 86(TM) system (copyright 1986, Carnegie Mellon
 University), and the Gaussian 82(TM) system (copyright 1983,
 Carnegie Mellon University). Gaussian is a federally registered
 trademark of Gaussian, Inc.
  
 This software contains proprietary and confidential information,
 including trade secrets, belonging to Gaussian, Inc.
  
 This software is provided under written license and may be
 used, copied, transmitted, or stored only in accord with that
 written license.
  
 The following legend is applicable only to US Government
 contracts under FAR:
  
                    RESTRICTED RIGHTS LEGEND
  
 Use, reproduction and disclosure by the US Government is
 subject to restrictions as set forth in subparagraphs (a)
 and (c) of the Commercial Computer Software - Restricted
 Rights clause in FAR 52.227-19.
  
 Gaussian, Inc.
 340 Quinnipiac St., Bldg. 40, Wallingford CT 06492
  
  
 ---------------------------------------------------------------
 Warning -- This program may not be used in any manner that
 competes with the business of Gaussian, Inc. or will provide
 assistance to any competitor of Gaussian, Inc.  The licensee
 of this program is prohibited from giving any competitor of
 Gaussian, Inc. access to this program.  By using this program,
 the user acknowledges that Gaussian, Inc. is engaged in the
 business of creating and licensing software in the field of
 computational chemistry and represents and warrants to the
 licensee that it is not a competitor of Gaussian, Inc. and that
 it will not use this program in any manner prohibited above.
 ---------------------------------------------------------------
  

 Cite this work as:
 Gaussian 09, Revision C.01,
 M. J. Frisch, G. W. Trucks, H. B. Schlegel, G. E. Scuseria, 
 M. A. Robb, J. R. Cheeseman, G. Scalmani, V. Barone, B. Mennucci, 
 G. A. Petersson, H. Nakatsuji, M. Caricato, X. Li, H. P. Hratchian, 
 A. F. Izmaylov, J. Bloino, G. Zheng, J. L. Sonnenberg, M. Hada, 
 M. Ehara, K. Toyota, R. Fukuda, J. Hasegawa, M. Ishida, T. Nakajima, 
 Y. Honda, O. Kitao, H. Nakai, T. Vreven, J. A. Montgomery, Jr., 
 J. E. Peralta, F. Ogliaro, M. Bearpark, J. J. Heyd, E. Brothers, 
 K. N. Kudin, V. N. Staroverov, T. Keith, R. Kobayashi, J. Normand, 
 K. Raghavachari, A. Rendell, J. C. Burant, S. S. Iyengar, J. Tomasi, 
 M. Cossi, N. Rega, J. M. Millam, M. Klene, J. E. Knox, J. B. Cross, 
 V. Bakken, C. Adamo, J. Jaramillo, R. Gomperts, R. E. Stratmann, 
 O. Yazyev, A. J. Austin, R. Cammi, C. Pomelli, J. W. Ochterski, 
 R. L. Martin, K. Morokuma, V. G. Zakrzewski, G. A. Voth, 
 P. Salvador, J. J. Dannenberg, S. Dapprich, A. D. Daniels, 
 O. Farkas, J. B. Foresman, J. V. Ortiz, J. Cioslowski, 
 and D. J. Fox, Gaussian, Inc., Wallingford CT, 2010.
 
 ******************************************
 Gaussian 09:  AM64L-G09RevC.01 23-Sep-2011
                17-Feb-2018 
 ******************************************
 %nprocs=2
 Will use up to    2 processors via shared memory.
 %chk=frag57-conf0.chk
 ----------------------------------------------------------------------
 #HF/6-31G* Geom=AllCheck Guess=Read Pop=(MK,ReadRadii) Integral=(Grid=
 UltraFine) iop(6/33=2)
 ----------------------------------------------------------------------
 1/29=7,38=1/1;
 2/12=2,40=1/2;
 3/5=1,6=6,7=1,11=9,14=-4,16=1,25=1,30=1,75=-5,116=-2/1,2,3;
 4/5=1/1;
 5/5=2,38=6/2;
 6/7=2,8=2,9=2,10=2,15=8,20=101,28=1,33=2/1,2;
 99/5=1,9=1/99;
 Structure from the checkpoint file:  frag57-conf0.chk
 -----------------------------
 Optimization for frag57-conf0
 -----------------------------
 Charge =  0 Multiplicity = 1
 Redundant internal coordinates found in file.
 C,0,2.4602870259,-0.9167672464,-0.0129682844
 C,0,1.3412689655,-0.0962197316,0.1632953707
 C,0,2.9091243397,-1.737626387,1.0162911729
 C,0,1.112708587,-0.91722645,2.4255902455
 C,0,0.661927103,-0.0943704391,1.3843780779
 C,0,2.2292120669,-1.7344844766,2.2413512889
 C,0,-2.3415794418,-0.4161605419,2.8461044292
 C,0,-3.6050992528,-1.2565363055,2.7313336691
 C,0,-0.5644899204,0.7746870827,1.5958286638
 N,0,-1.8179954943,0.0236913775,1.6618676173
 O,0,-1.8422013555,-0.1470768173,3.9345425604
 O,0,2.708566697,-2.552612997,3.2271044404
 H,0,2.9881070486,-0.9144847624,-0.9630881539
 H,0,1.0022989931,0.5446205451,-0.6471946684
 H,0,3.7768260135,-2.3786430713,0.8967475332
 H,0,0.5819677458,-0.9108460631,3.3759191104
 H,0,-3.3970752135,-2.2631085866,3.1087723035
 H,0,-4.3744439416,-0.8199652084,3.3746619527
 H,0,-3.9946311377,-1.3336883425,1.7113921518
 H,0,-0.4906094663,1.3175968665,2.5414578492
 H,0,-0.6493019236,1.5089520639,0.787605972
 H,0,-2.1846056665,-0.3568907376,0.8007252926
 H,0,2.1553979835,-2.4453841118,4.0169033149
 Recover connectivity data from disk.
                          Input orientation:                          
 ---------------------------------------------------------------------
 Center     Atomic      Atomic             Coordinates (Angstroms)
 Number     Number       Type             X           Y           Z
 ---------------------------------------------------------------------
      1          6           0        2.460287   -0.916767   -0.012968
      2          6           0        1.341269   -0.096220    0.163295
      3          6           0        2.909124   -1.737626    1.016291
      4          6           0        1.112709   -0.917226    2.425590
      5          6           0        0.661927   -0.094370    1.384378
      6          6           0        2.229212   -1.734484    2.241351
      7          6           0       -2.341579   -0.416161    2.846104
      8          6           0       -3.605099   -1.256536    2.731334
      9          6           0       -0.564490    0.774687    1.595829
     10          7           0       -1.817995    0.023691    1.661868
     11          8           0       -1.842201   -0.147077    3.934543
     12          8           0        2.708567   -2.552613    3.227104
     13          1           0        2.988107   -0.914485   -0.963088
     14          1           0        1.002299    0.544621   -0.647195
     15          1           0        3.776826   -2.378643    0.896748
     16          1           0        0.581968   -0.910846    3.375919
     17          1           0       -3.397075   -2.263109    3.108772
     18          1           0       -4.374444   -0.819965    3.374662
     19          1           0       -3.994631   -1.333688    1.711392
     20          1           0       -0.490609    1.317597    2.541458
     21          1           0       -0.649302    1.508952    0.787606
     22          1           0       -2.184606   -0.356891    0.800725
     23          1           0        2.155398   -2.445384    4.016903
 ---------------------------------------------------------------------
                    Distance matrix (angstroms):
                    1          2          3          4          5
     1  C    0.000000
     2  C    1.398774   0.000000
     3  C    1.390913   2.424869   0.000000
     4  C    2.786133   2.417492   2.426168   0.000000
     5  C    2.421366   1.397337   2.808144   1.401577   0.000000
     6  C    2.409152   2.791177   1.401093   1.395863   2.425028
     7  C    5.610956   4.567625   5.715276   3.515680   3.355778
     8  C    6.665999   5.692777   6.753364   4.739865   4.623033
     9  C    3.820801   2.538217   4.325919   2.522711   1.517917
    10  N    4.689695   3.498721   5.085732   3.171376   2.498190
    11  O    5.889539   4.935522   5.798373   3.406106   3.574462
    12  O    3.638091   4.158160   2.364767   2.421503   3.691521
    13  H    1.086889   2.156472   2.145167   3.873018   3.405040
    14  H    2.159543   1.087415   3.407612   3.404584   2.156722
    15  H    2.167473   3.417506   1.085403   3.401561   3.893364
    16  H    3.874619   3.400163   3.415709   1.088509   2.153895
    17  H    6.772488   5.985244   6.665040   4.755658   4.914515
    18  H    7.628824   6.595912   7.710667   5.569474   5.463767
    19  H    6.694267   5.692079   6.950408   5.173822   4.829739
    20  H    4.497251   3.318179   4.818580   2.752906   2.158895
    21  H    4.024249   2.632245   4.822340   3.416726   2.155482
    22  H    4.748746   3.592500   5.281949   3.718393   2.917587
    23  H    4.320821   4.586030   3.173751   2.440234   3.832481
                    6          7          8          9         10
     6  C    0.000000
     7  C    4.795398   0.000000
     8  C    5.874326   1.521804   0.000000
     9  C    3.810172   2.477772   3.828909   0.000000
    10  N    4.450491   1.367489   2.444684   1.462748   0.000000
    11  O    4.686488   1.227388   2.405498   2.819890   2.279210
    12  O    1.367781   5.496687   6.464362   4.944177   5.438481
    13  H    3.393634   6.569919   7.565456   4.692793   5.556005
    14  H    3.878574   4.930290   5.990554   2.745708   3.682010
    15  H    2.148955   6.714627   7.688800   5.411029   6.136664
    16  H    2.163108   3.012067   4.250473   2.706309   3.093729
    17  H    5.717252   2.143428   1.094953   4.420491   3.133126
    18  H    6.762323   2.138918   1.093781   4.496989   3.190744
    19  H    6.259211   2.204996   1.094517   4.027961   2.565672
    20  H    4.099109   2.554372   4.045029   1.092897   2.051786
    21  H    4.573740   3.287442   4.490294   1.095245   2.082349
    22  H    4.843032   2.052250   2.560159   2.130125   1.010352
    23  H    1.914004   5.070634   6.020746   4.860890   5.237402
                   11         12         13         14         15
    11  O    0.000000
    12  O    5.195822   0.000000
    13  H    6.921530   4.507696   0.000000
    14  H    5.437090   5.245417   2.484393   0.000000
    15  H    6.766207   2.569437   2.494960   4.315927   0.000000
    16  H    2.602307   2.690719   4.961502   4.298896   4.302074
    17  H    2.752657   6.113647   7.692164   6.430017   7.508080
    18  H    2.679272   7.293345   8.545886   6.851773   8.660989
    19  H    3.314121   6.979686   7.489139   5.836119   7.883598
    20  H    2.431616   5.067876   5.418994   3.604688   5.880329
    21  H    3.750820   5.807129   4.708367   2.390894   5.892021
    22  H    3.159442   5.886565   5.493533   3.614631   6.295663
    23  H    4.611919   0.970194   5.276113   5.658938   3.516938
                   16         17         18         19         20
    16  H    0.000000
    17  H    4.211029   0.000000
    18  H    4.957245   1.763125   0.000000
    19  H    4.888221   1.781451   1.781751   0.000000
    20  H    2.610116   4.646594   4.510828   4.471744   0.000000
    21  H    3.751108   5.212150   5.098372   4.486113   1.771383
    22  H    3.820002   3.229680   3.411009   2.249364   2.950200
    23  H    2.289400   5.629199   6.759682   6.661389   4.830975
                   21         22         23
    21  H    0.000000
    22  H    2.416340   0.000000
    23  H    5.825073   5.791480   0.000000
 Stoichiometry    C9H11NO2
 Framework group  C1[X(C9H11NO2)]
 Deg. of freedom    63
 Full point group                 C1      NOp   1
 Largest Abelian subgroup         C1      NOp   1
 Largest concise Abelian subgroup C1      NOp   1
                         Standard orientation:                         
 ---------------------------------------------------------------------
 Center     Atomic      Atomic             Coordinates (Angstroms)
 Number     Number       Type             X           Y           Z
 ---------------------------------------------------------------------
      1          6           0       -2.704366    1.313167    0.456681
      2          6           0       -1.441201    1.747471    0.041516
      3          6           0       -3.027841   -0.039603    0.452527
      4          6           0       -0.811169   -0.545471   -0.394083
      5          6           0       -0.488482    0.818422   -0.384803
      6          6           0       -2.073330   -0.971123    0.023294
      7          6           0        2.667280   -0.248314    0.020767
      8          6           0        3.675588   -0.496227    1.133304
      9          6           0        0.894726    1.262395   -0.824909
     10          7           0        1.956287    0.915607    0.119791
     11          8           0        2.519803   -1.040758   -0.904849
     12          8           0       -2.436201   -2.289873    0.030193
     13          1           0       -3.444226    2.038234    0.785639
     14          1           0       -1.201266    2.808079    0.044913
     15          1           0       -4.003906   -0.393088    0.769458
     16          1           0       -0.066824   -1.265524   -0.729236
     17          1           0        3.380477   -1.394340    1.685776
     18          1           0        4.651290   -0.697457    0.681784
     19          1           0        3.772963    0.336782    1.836569
     20          1           0        1.167304    0.785557   -1.769764
     21          1           0        0.912088    2.347331   -0.973823
     22          1           0        2.013794    1.445123    0.978346
     23          1           0       -1.691741   -2.819203   -0.296710
 ---------------------------------------------------------------------
 Rotational constants (GHZ):      1.6423842      0.5390061      0.4483027
 Standard basis: 6-31G(d) (6D, 7F)
 There are   202 symmetry adapted basis functions of A   symmetry.
 Integral buffers will be    131072 words long.
 Raffenetti 1 integral format.
 Two-electron integral symmetry is turned on.
   202 basis functions,   380 primitive gaussians,   202 cartesian basis functions
    44 alpha electrons       44 beta electrons
       nuclear repulsion energy       667.1348428421 Hartrees.
 NAtoms=   23 NActive=   23 NUniq=   23 SFac= 1.00D+00 NAtFMM=   60 NAOKFM=F Big=F
 One-electron integrals computed using PRISM.
 NBasis=   202 RedAO= T  NBF=   202
 NBsUse=   202 1.00D-06 NBFU=   202
 Initial guess read from the checkpoint file:  frag57-conf0.chk
 B after Tr=     0.000000    0.000000    0.000000
         Rot=    1.000000    0.000000    0.000000    0.000000 Ang=   0.00 deg.
 Initial guess orbital symmetries:
       Occupied  (A) (A) (A) (A) (A) (A) (A) (A) (A) (A) (A) (A)
                 (A) (A) (A) (A) (A) (A) (A) (A) (A) (A) (A) (A)
                 (A) (A) (A) (A) (A) (A) (A) (A) (A) (A) (A) (A)
                 (A) (A) (A) (A) (A) (A) (A) (A)
       Virtual   (A) (A) (A) (A) (A) (A) (A) (A) (A) (A) (A) (A)
                 (A) (A) (A) (A) (A) (A) (A) (A) (A) (A) (A) (A)
                 (A) (A) (A) (A) (A) (A) (A) (A) (A) (A) (A) (A)
                 (A) (A) (A) (A) (A) (A) (A) (A) (A) (A) (A) (A)
                 (A) (A) (A) (A) (A) (A) (A) (A) (A) (A) (A) (A)
                 (A) (A) (A) (A) (A) (A) (A) (A) (A) (A) (A) (A)
                 (A) (A) (A) (A) (A) (A) (A) (A) (A) (A) (A) (A)
                 (A) (A) (A) (A) (A) (A) (A) (A) (A) (A) (A) (A)
                 (A) (A) (A) (A) (A) (A) (A) (A) (A) (A) (A) (A)
                 (A) (A) (A) (A) (A) (A) (A) (A) (A) (A) (A) (A)
                 (A) (A) (A) (A) (A) (A) (A) (A) (A) (A) (A) (A)
                 (A) (A) (A) (A) (A) (A) (A) (A) (A) (A) (A) (A)
                 (A) (A) (A) (A) (A) (A) (A) (A) (A) (A) (A) (A)
                 (A) (A)
 Requested convergence on RMS density matrix=1.00D-08 within 128 cycles.
 Requested convergence on MAX density matrix=1.00D-06.
 Requested convergence on             energy=1.00D-06.
 No special actions if energy rises.
 SCF Done:  E(RHF) =  -551.406569805     A.U. after   14 cycles
             Convg  =    0.4614D-08             -V/T =  2.0025

 **********************************************************************

            Population analysis using the SCF density.

 **********************************************************************

 Orbital symmetries:
 BldTbl:  Degeneracy threshold= 1.00D-02
       Occupied  (A) (A) (A) (A) (A) (A) (A) (A) (A) (A) (A) (A)
                 (A) (A) (A) (A) (A) (A) (A) (A) (A) (A) (A) (A)
                 (A) (A) (A) (A) (A) (A) (A) (A) (A) (A) (A) (A)
                 (A) (A) (A) (A) (A) (A) (A) (A)
       Virtual   (A) (A) (A) (A) (A) (A) (A) (A) (A) (A) (A) (A)
                 (A) (A) (A) (A) (A) (A) (A) (A) (A) (A) (A) (A)
                 (A) (A) (A) (A) (A) (A) (A) (A) (A) (A) (A) (A)
                 (A) (A) (A) (A) (A) (A) (A) (A) (A) (A) (A) (A)
                 (A) (A) (A) (A) (A) (A) (A) (A) (A) (A) (A) (A)
                 (A) (A) (A) (A) (A) (A) (A) (A) (A) (A) (A) (A)
                 (A) (A) (A) (A) (A) (A) (A) (A) (A) (A) (A) (A)
                 (A) (A) (A) (A) (A) (A) (A) (A) (A) (A) (A) (A)
                 (A) (A) (A) (A) (A) (A) (A) (A) (A) (A) (A) (A)
                 (A) (A) (A) (A) (A) (A) (A) (A) (A) (A) (A) (A)
                 (A) (A) (A) (A) (A) (A) (A) (A) (A) (A) (A) (A)
                 (A) (A) (A) (A) (A) (A) (A) (A) (A) (A) (A) (A)
                 (A) (A) (A) (A) (A) (A) (A) (A) (A) (A) (A) (A)
                 (A) (A)
 The electronic state is 1-A.
 Alpha  occ. eigenvalues --  -20.59147 -20.52495 -15.59450 -11.35888 -11.30172
 Alpha  occ. eigenvalues --  -11.27386 -11.24736 -11.24271 -11.24143 -11.22895
 Alpha  occ. eigenvalues --  -11.22783 -11.22721  -1.39679  -1.37617  -1.23218
 Alpha  occ. eigenvalues --   -1.14437  -1.04484  -1.00479  -1.00003  -0.92743
 Alpha  occ. eigenvalues --   -0.83775  -0.80801  -0.78531  -0.72282  -0.69767
 Alpha  occ. eigenvalues --   -0.67615  -0.65243  -0.64147  -0.62285  -0.59848
 Alpha  occ. eigenvalues --   -0.58667  -0.58194  -0.57982  -0.56894  -0.55900
 Alpha  occ. eigenvalues --   -0.53773  -0.51933  -0.50218  -0.49052  -0.47263
 Alpha  occ. eigenvalues --   -0.42237  -0.39239  -0.33201  -0.30920
 Alpha virt. eigenvalues --    0.13322   0.15924   0.19207   0.21366   0.22686
 Alpha virt. eigenvalues --    0.24659   0.26427   0.28443   0.30104   0.31133
 Alpha virt. eigenvalues --    0.32139   0.33249   0.33568   0.34635   0.36050
 Alpha virt. eigenvalues --    0.39409   0.42250   0.43578   0.45858   0.47524
 Alpha virt. eigenvalues --    0.48792   0.53017   0.53261   0.58584   0.61070
 Alpha virt. eigenvalues --    0.64272   0.71336   0.73140   0.73564   0.74413
 Alpha virt. eigenvalues --    0.75071   0.76516   0.77734   0.80089   0.81889
 Alpha virt. eigenvalues --    0.82109   0.83331   0.84261   0.85364   0.86688
 Alpha virt. eigenvalues --    0.88420   0.88522   0.90066   0.92466   0.95008
 Alpha virt. eigenvalues --    0.95923   0.98135   1.00517   1.00936   1.03084
 Alpha virt. eigenvalues --    1.06976   1.07244   1.09372   1.11121   1.11340
 Alpha virt. eigenvalues --    1.14229   1.14700   1.15961   1.17263   1.17786
 Alpha virt. eigenvalues --    1.18952   1.18966   1.19491   1.20623   1.21388
 Alpha virt. eigenvalues --    1.23631   1.24875   1.27274   1.30364   1.32956
 Alpha virt. eigenvalues --    1.37726   1.38549   1.40897   1.42488   1.46965
 Alpha virt. eigenvalues --    1.48591   1.50173   1.53064   1.55353   1.58544
 Alpha virt. eigenvalues --    1.61052   1.63436   1.64900   1.66872   1.71942
 Alpha virt. eigenvalues --    1.73364   1.75707   1.76545   1.77334   1.79688
 Alpha virt. eigenvalues --    1.82722   1.93277   1.99974   2.02661   2.03605
 Alpha virt. eigenvalues --    2.05197   2.08471   2.08858   2.11500   2.13074
 Alpha virt. eigenvalues --    2.14883   2.17534   2.19570   2.22369   2.23345
 Alpha virt. eigenvalues --    2.24762   2.27223   2.28222   2.29676   2.31695
 Alpha virt. eigenvalues --    2.36676   2.39321   2.42466   2.43191   2.46463
 Alpha virt. eigenvalues --    2.51148   2.53836   2.54003   2.56990   2.60621
 Alpha virt. eigenvalues --    2.62166   2.64866   2.66299   2.70516   2.72877
 Alpha virt. eigenvalues --    2.74218   2.76589   2.77671   2.83765   2.89958
 Alpha virt. eigenvalues --    2.91002   2.94761   2.98893   3.01724   3.03099
 Alpha virt. eigenvalues --    3.04570   3.12114   3.12780   3.19010   3.24257
 Alpha virt. eigenvalues --    3.25015   3.31901   3.36221   3.49274   3.50784
 Alpha virt. eigenvalues --    3.79648   4.35910   4.37840   4.47262   4.52311
 Alpha virt. eigenvalues --    4.56657   4.60076   4.63112   4.74742   4.81748
 Alpha virt. eigenvalues --    4.87563   4.92576   5.18655
          Condensed to atoms (all electrons):
              1          2          3          4          5          6
     1  C    4.875512   0.536166   0.552022  -0.032167  -0.041791  -0.038347
     2  C    0.536166   4.964467  -0.052541  -0.057410   0.575636  -0.029410
     3  C    0.552022  -0.052541   4.956889  -0.058779  -0.026745   0.567493
     4  C   -0.032167  -0.057410  -0.058779   5.141273   0.513555   0.539544
     5  C   -0.041791   0.575636  -0.026745   0.513555   4.862714  -0.033718
     6  C   -0.038347  -0.029410   0.567493   0.539544  -0.033718   4.402851
     7  C   -0.000002  -0.000071  -0.000001   0.002236  -0.002270   0.000087
     8  C    0.000000  -0.000007   0.000000   0.000005  -0.000422   0.000003
     9  C    0.002897  -0.034980   0.000284  -0.039880   0.326074   0.000561
    10  N   -0.000015  -0.001281   0.000002  -0.000238  -0.072025  -0.000009
    11  O    0.000000  -0.000034   0.000001  -0.002520  -0.003244   0.000158
    12  O    0.001784   0.000283  -0.046747  -0.052732   0.003683   0.258640
    13  H    0.380635  -0.029440  -0.028427   0.000223   0.002183   0.002068
    14  H   -0.028423   0.379892   0.002146   0.003039  -0.032771   0.000317
    15  H   -0.027937   0.002407   0.376779   0.003443  -0.000046  -0.029041
    16  H    0.000078   0.002392   0.002216   0.362673  -0.018471  -0.031133
    17  H    0.000000   0.000000   0.000000   0.000015   0.000046  -0.000001
    18  H    0.000000   0.000000   0.000000   0.000001  -0.000004   0.000000
    19  H    0.000000   0.000001   0.000000  -0.000006   0.000013   0.000000
    20  H   -0.000056   0.001518   0.000000  -0.002590  -0.040324  -0.000013
    21  H    0.000202  -0.001027  -0.000019   0.003185  -0.058307   0.000042
    22  H    0.000001   0.000798  -0.000006   0.000259   0.001461  -0.000006
    23  H   -0.000164   0.000006   0.004257   0.002094   0.000648  -0.032608
              7          8          9         10         11         12
     1  C   -0.000002   0.000000   0.002897  -0.000015   0.000000   0.001784
     2  C   -0.000071  -0.000007  -0.034980  -0.001281  -0.000034   0.000283
     3  C   -0.000001   0.000000   0.000284   0.000002   0.000001  -0.046747
     4  C    0.002236   0.000005  -0.039880  -0.000238  -0.002520  -0.052732
     5  C   -0.002270  -0.000422   0.326074  -0.072025  -0.003244   0.003683
     6  C    0.000087   0.000003   0.000561  -0.000009   0.000158   0.258640
     7  C    4.158944   0.360759  -0.025684   0.282655   0.566012   0.000000
     8  C    0.360759   5.243677   0.004499  -0.101675  -0.067516   0.000000
     9  C   -0.025684   0.004499   4.940707   0.189711   0.004001  -0.000044
    10  N    0.282655  -0.101675   0.189711   7.345983  -0.094857   0.000000
    11  O    0.566012  -0.067516   0.004001  -0.094857   8.210824   0.000000
    12  O    0.000000   0.000000  -0.000044   0.000000   0.000000   8.337624
    13  H    0.000000   0.000000  -0.000105   0.000002   0.000000  -0.000043
    14  H    0.000000   0.000000  -0.002749   0.000100   0.000000   0.000001
    15  H    0.000000   0.000000   0.000006   0.000000   0.000000  -0.000079
    16  H    0.000805   0.000174  -0.000651  -0.001955   0.010486  -0.002148
    17  H   -0.027601   0.379567  -0.000106   0.001170   0.000361   0.000000
    18  H   -0.027580   0.381078  -0.000115   0.001907   0.001016   0.000000
    19  H   -0.039064   0.374972   0.000033   0.005422   0.002484   0.000000
    20  H   -0.000821   0.000318   0.408243  -0.042207   0.006764   0.000000
    21  H    0.002506  -0.000034   0.416425  -0.041289   0.000365   0.000000
    22  H   -0.015807   0.000291  -0.021753   0.317408   0.002170   0.000000
    23  H    0.000000   0.000000  -0.000012   0.000001  -0.000011   0.264457
             13         14         15         16         17         18
     1  C    0.380635  -0.028423  -0.027937   0.000078   0.000000   0.000000
     2  C   -0.029440   0.379892   0.002407   0.002392   0.000000   0.000000
     3  C   -0.028427   0.002146   0.376779   0.002216   0.000000   0.000000
     4  C    0.000223   0.003039   0.003443   0.362673   0.000015   0.000001
     5  C    0.002183  -0.032771  -0.000046  -0.018471   0.000046  -0.000004
     6  C    0.002068   0.000317  -0.029041  -0.031133  -0.000001   0.000000
     7  C    0.000000   0.000000   0.000000   0.000805  -0.027601  -0.027580
     8  C    0.000000   0.000000   0.000000   0.000174   0.379567   0.381078
     9  C   -0.000105  -0.002749   0.000006  -0.000651  -0.000106  -0.000115
    10  N    0.000002   0.000100   0.000000  -0.001955   0.001170   0.001907
    11  O    0.000000   0.000000   0.000000   0.010486   0.000361   0.001016
    12  O   -0.000043   0.000001  -0.000079  -0.002148   0.000000   0.000000
    13  H    0.470877  -0.001307  -0.001774   0.000007   0.000000   0.000000
    14  H   -0.001307   0.484598  -0.000093  -0.000104   0.000000   0.000000
    15  H   -0.001774  -0.000093   0.458097  -0.000083   0.000000   0.000000
    16  H    0.000007  -0.000104  -0.000083   0.428428  -0.000014   0.000000
    17  H    0.000000   0.000000   0.000000  -0.000014   0.482967  -0.019625
    18  H    0.000000   0.000000   0.000000   0.000000  -0.019625   0.474254
    19  H    0.000000   0.000000   0.000000  -0.000008  -0.023040  -0.022674
    20  H    0.000002   0.000025   0.000000   0.000566  -0.000009   0.000006
    21  H   -0.000004   0.002671   0.000000  -0.000055  -0.000001   0.000006
    22  H    0.000000   0.000035   0.000000  -0.000043  -0.000088   0.000082
    23  H    0.000003   0.000000  -0.000159   0.003854   0.000000   0.000000
             19         20         21         22         23
     1  C    0.000000  -0.000056   0.000202   0.000001  -0.000164
     2  C    0.000001   0.001518  -0.001027   0.000798   0.000006
     3  C    0.000000   0.000000  -0.000019  -0.000006   0.004257
     4  C   -0.000006  -0.002590   0.003185   0.000259   0.002094
     5  C    0.000013  -0.040324  -0.058307   0.001461   0.000648
     6  C    0.000000  -0.000013   0.000042  -0.000006  -0.032608
     7  C   -0.039064  -0.000821   0.002506  -0.015807   0.000000
     8  C    0.374972   0.000318  -0.000034   0.000291   0.000000
     9  C    0.000033   0.408243   0.416425  -0.021753  -0.000012
    10  N    0.005422  -0.042207  -0.041289   0.317408   0.000001
    11  O    0.002484   0.006764   0.000365   0.002170  -0.000011
    12  O    0.000000   0.000000   0.000000   0.000000   0.264457
    13  H    0.000000   0.000002  -0.000004   0.000000   0.000003
    14  H    0.000000   0.000025   0.002671   0.000035   0.000000
    15  H    0.000000   0.000000   0.000000   0.000000  -0.000159
    16  H   -0.000008   0.000566  -0.000055  -0.000043   0.003854
    17  H   -0.023040  -0.000009  -0.000001  -0.000088   0.000000
    18  H   -0.022674   0.000006   0.000006   0.000082   0.000000
    19  H    0.531422  -0.000021  -0.000024   0.001143   0.000000
    20  H   -0.000021   0.451809  -0.020014   0.002957   0.000001
    21  H   -0.000024  -0.020014   0.508675  -0.001920   0.000000
    22  H    0.001143   0.002957  -0.001920   0.328519   0.000000
    23  H    0.000000   0.000001   0.000000   0.000000   0.297875
 Mulliken atomic charges:
              1
     1  C   -0.180395
     2  C   -0.257363
     3  C   -0.248824
     4  C   -0.325224
     5  C    0.044124
     6  C    0.422523
     7  C    0.764896
     8  C   -0.575687
     9  C   -0.167361
    10  N   -0.788812
    11  O   -0.636458
    12  O   -0.764681
    13  H    0.205099
    14  H    0.192623
    15  H    0.218482
    16  H    0.242987
    17  H    0.206358
    18  H    0.211647
    19  H    0.169347
    20  H    0.233846
    21  H    0.188617
    22  H    0.384498
    23  H    0.459757
 Sum of Mulliken atomic charges =   0.00000
 Mulliken charges with hydrogens summed into heavy atoms:
              1
     1  C    0.024705
     2  C   -0.064740
     3  C   -0.030343
     4  C   -0.082237
     5  C    0.044124
     6  C    0.422523
     7  C    0.764896
     8  C    0.011665
     9  C    0.255103
    10  N   -0.404314
    11  O   -0.636458
    12  O   -0.304924
 Sum of Mulliken charges with hydrogens summed into heavy atoms =   0.00000
 DipInt: DoE/N= T F RetVal/Mat= T F Init=T NMatP=  1 IDeriv=0 Min/MaxMlt=  0  4
 Entering OneElI...
 OneElI was handed    33447197 working-precision words.
 Multipole integrals L=0 to 4 MinM= 0 MaxM= 0.
 Requested accuracy = 0.1000D-12
 PrsmSu:  NPrtUS=   1 ThrOK=F IAlg=1 NPAlg=1 LenDen=           0.
 Prism:   IPart=     0 DynPar=F LinDyn=F Incr=          21.
 PRISM was handed    33252115 working-precision words and  2185 shell-pairs
 IPart=  0 NShTot=        2185 NBatch=          55 AvBLen=        39.7
 PrSmSu:  NxtVal=             22.
 Electronic moments (au):
        -88.00000000          0.53342003          0.99988972          0.90883596
      -1773.84489437       -550.75369934       -183.54436662          0.63254269
          5.15276443          0.20842108      -1396.52024322        164.19067705
        -42.81809247        963.17578704        938.75005921      -1124.90352118
       -438.62592882          1.95502275         61.64299810        124.71065222
     -60781.69458636      -8223.39472322      -1289.17773676       3203.51945059
      -3142.84877071      -1860.11358723         30.65196699       -540.64154038
        138.28564984      -9507.47412605      -4839.36729018       -898.64930136
       -168.39456158        452.28299073        515.09716826
 Electronic spatial extent (au):  <R**2>=           2508.1430
 DipInt: DoE/N= F T RetVal/Mat= T F Init=T NMatP=  1 IDeriv=0 Min/MaxMlt=  0  4
 Nuclear    moments (au):
         88.00000000          0.00000000          0.00000000          0.00000000
       1720.85273857        501.85864717        129.67138655          0.00000000
          0.00000000          0.00000000       1431.49739801       -178.77457769
         41.62981707       -959.62917545       -905.07125095       1168.71464398
        449.52563379         -3.74640500        -61.35399552       -139.91764413
      54870.06520122       6587.46728317        652.23618708      -3302.34439280
       3189.39391785       1883.71191569         27.19733713        556.03045978
       -132.20089305       8048.13795677       3663.12587334        487.17257503
        166.44773237       -406.88886076       -465.89891943
 Total      moments (au):
          0.00000000          0.53342003          0.99988972          0.90883596
        -52.99215580        -48.89505217        -53.87298007          0.63254269
          5.15276443          0.20842108         34.97715480        -14.58390064
         -1.18827540          3.54661159         33.67880826         43.81112279
         10.89970497         -1.79138224          0.28900259        -15.20699191
      -5911.62938514      -1635.92744006       -636.94154968        -98.82494221
         46.54514713         23.59832846         57.84930412         15.38891941
          6.08475679      -1459.33616928      -1176.24141684       -411.47672633
         -1.94682921         45.39412997         49.19824883
 Traceless Quadrup. (au):
         -1.07209312          3.02501051         -1.95291739          0.63254269
          5.15276443          0.20842108
 Charge=              0.0000 electrons
 Dipole moment (field-independent basis, Debye):
    X=              1.3558    Y=              2.5415    Z=              2.3100  Tot=              3.6924
 Quadrupole moment (field-independent basis, Debye-Ang):
   XX=            -71.2763   YY=            -65.7655   ZZ=            -72.4610
   XY=              0.8508   XZ=              6.9306   YZ=              0.2803
 Traceless Quadrupole moment (field-independent basis, Debye-Ang):
   XX=             -1.4420   YY=              4.0687   ZZ=             -2.6267
   XY=              0.8508   XZ=              6.9306   YZ=              0.2803
 Octapole moment (field-independent basis, Debye-Ang**2):
  XXX=             24.8954  YYY=            -10.3803  ZZZ=             -0.8458  XYY=              2.5243
  XXY=             23.9713  XXZ=             31.1831  XZZ=              7.7580  YZZ=             -1.2750
  YYZ=              0.2057  XYZ=            -10.8238
 Hexadecapole moment (field-independent basis, Debye-Ang**3):
 XXXX=          -2226.6030 YYYY=           -616.1687 ZZZZ=           -239.9027 XXXY=            -37.2222
 XXXZ=             17.5311 YYYX=              8.8883 YYYZ=             21.7888 ZZZX=              5.7962
 ZZZY=              2.2918 XXYY=           -549.6559 XXZZ=           -443.0289 YYZZ=           -154.9819
 XXYZ=             -0.7333 YYXZ=             17.0976 ZZXY=             18.5304
 N-N= 6.671348428421D+02 E-N=-2.624947912867D+03  KE= 5.500354332098D+02
 Entering OneElI...
 OneElI was handed    33364812 working-precision words.
 Calculate electrostatic properties
    NBasis =   202  MinDer = 0  MaxDer = 0
    NGrid  =    23  NMatD  =   1
 Requested accuracy = 0.1000D-12
 PrsmSu:  NPrtUS=   2 ThrOK=T IAlg=1 NPAlg=1 LenDen=           0.
 Prism:   IPart=     0 DynPar=F LinDyn=F Incr=         233.
 PRISM was handed    16559600 working-precision words and  2027 shell-pairs
 PRISM was handed    16559600 working-precision words and  2027 shell-pairs
 IPart=  1 NShTot=       23092 NBatch=        1004 AvBLen=        23.0
 IPart=  0 NShTot=       23529 NBatch=        1023 AvBLen=        23.0
 PrSmSu:  NxtVal=            467.
 --------------------------------------------------------
       Center         ----      EFG at Nuclei      ----
                      3XX-RR        3YY-RR        3ZZ-RR
 --------------------------------------------------------
     1   Atom        0.122262      0.183114     -0.305375
     2   Atom        0.111847      0.080050     -0.191897
     3   Atom        0.051024      0.144599     -0.195623
     4   Atom        0.049496      0.117506     -0.167002
     5   Atom        0.098192      0.203831     -0.302024
     6   Atom        0.310386     -0.109365     -0.201021
     7   Atom       -0.135415      0.008500      0.126915
     8   Atom       -0.002597      0.025413     -0.022816
     9   Atom       -0.102096      0.118403     -0.016307
    10   Atom        0.209570     -0.032964     -0.176605
    11   Atom        0.541586     -0.056624     -0.484961
    12   Atom        0.112097     -1.531904      1.419807
    13   Atom       -0.062682     -0.057254      0.119935
    14   Atom        0.120395     -0.286578      0.166183
    15   Atom       -0.222706      0.096640      0.126066
    16   Atom       -0.055190     -0.066279      0.121469
    17   Atom        0.113393     -0.146989      0.033596
    18   Atom       -0.208420      0.138939      0.069481
    19   Atom        0.143852     -0.112287     -0.031565
    20   Atom        0.111874      0.074050     -0.185924
    21   Atom        0.138994     -0.279977      0.140983
    22   Atom        0.195844      0.032352     -0.228196
    23   Atom       -0.171039     -0.000961      0.172000
 --------------------------------------------------------
                        XY            XZ            YZ
 --------------------------------------------------------
     1   Atom        0.047490     -0.173423      0.032290
     2   Atom       -0.002742     -0.122798      0.025090
     3   Atom        0.025343     -0.100187      0.025679
     4   Atom        0.022545     -0.090032      0.019191
     5   Atom       -0.019689     -0.153786      0.058313
     6   Atom       -0.104655     -0.223951      0.053907
     7   Atom       -0.232401      0.350834      0.245797
     8   Atom        0.003216     -0.053813      0.000115
     9   Atom        0.038235     -0.197205      0.119698
    10   Atom        0.571775     -0.486129     -0.379335
    11   Atom       -0.985581      0.597655     -0.673676
    12   Atom        0.401670      0.627912     -0.460751
    13   Atom        0.204473      0.099242     -0.092869
    14   Atom       -0.098558      0.009114     -0.003673
    15   Atom       -0.131033      0.128009      0.040386
    16   Atom        0.192080      0.098593     -0.091490
    17   Atom       -0.100045      0.055688      0.186013
    18   Atom        0.073505      0.160689     -0.031904
    19   Atom       -0.021052     -0.030290     -0.217249
    20   Atom        0.043052      0.083818     -0.158809
    21   Atom       -0.005521     -0.005635      0.058580
    22   Atom        0.016320     -0.053497     -0.267753
    23   Atom        0.263326      0.181619     -0.121829
 --------------------------------------------------------


 ---------------------------------------------------------------------------------
              Nuclear Quadrupole in Principal Axis System
 ---------------------------------------------------------------------------------

       Atom             a.u.   MegaHertz   Gauss  10(-4) cm-1        Axes

              Baa    -0.3707   -49.751   -17.752   -16.595  0.3378 -0.0836  0.9375
     1 C(13)  Bbb     0.1515    20.328     7.254     6.781 -0.6616  0.6874  0.2997
              Bcc     0.2193    29.423    10.499     9.814  0.6695  0.7215 -0.1769
 
              Baa    -0.2370   -31.798   -11.346   -10.607  0.3307 -0.0716  0.9410
     2 C(13)  Bbb     0.0801    10.748     3.835     3.585  0.1593  0.9871  0.0191
              Bcc     0.1569    21.050     7.511     7.022  0.9302 -0.1435 -0.3378
 
              Baa    -0.2340   -31.403   -11.205   -10.475  0.3372 -0.0862  0.9375
     3 C(13)  Bbb     0.0830    11.137     3.974     3.715  0.9091 -0.2289 -0.3480
              Bcc     0.1510    20.266     7.231     6.760  0.2446  0.9696  0.0011
 
              Baa    -0.2016   -27.056    -9.654    -9.025  0.3428 -0.0805  0.9360
     4 C(13)  Bbb     0.0770    10.335     3.688     3.447  0.8791 -0.3237 -0.3498
              Bcc     0.1246    16.721     5.967     5.578  0.3311  0.9427 -0.0402
 
              Baa    -0.3586   -48.115   -17.169   -16.050  0.3145 -0.0870  0.9453
     5 C(13)  Bbb     0.1322    17.738     6.329     5.917  0.8641  0.4386 -0.2471
              Bcc     0.2264    30.378    10.839    10.133 -0.3931  0.8945  0.2131
 
              Baa    -0.2864   -38.433   -13.714   -12.820  0.3367 -0.0865  0.9376
     6 C(13)  Bbb    -0.1340   -17.982    -6.416    -5.998  0.2322  0.9726  0.0063
              Bcc     0.4204    56.415    20.130    18.818  0.9125 -0.2156 -0.3476
 
              Baa    -0.5700   -76.484   -27.291   -25.512  0.6900  0.4997 -0.5236
     7 C(13)  Bbb     0.1795    24.087     8.595     8.035 -0.5703  0.8208  0.0318
              Bcc     0.3905    52.396    18.696    17.478  0.4457  0.2767  0.8514
 
              Baa    -0.0675    -9.059    -3.233    -3.022  0.6387 -0.0231  0.7691
     8 C(13)  Bbb     0.0251     3.371     1.203     1.124 -0.0935  0.9898  0.1073
              Bcc     0.0424     5.688     2.030     1.897  0.7637  0.1404 -0.6301
 
              Baa    -0.2888   -38.753   -13.828   -12.926  0.7263 -0.2557  0.6380
     9 C(13)  Bbb     0.0774    10.390     3.707     3.466  0.6086  0.6707 -0.4240
              Bcc     0.2114    28.363    10.121     9.461 -0.3195  0.6963  0.6428
 
              Baa    -0.5086   -19.615    -6.999    -6.543  0.6749 -0.2609  0.6902
    10 N(14)  Bbb    -0.4882   -18.828    -6.718    -6.280 -0.2614  0.7902  0.5543
              Bcc     0.9968    38.443    13.717    12.823  0.6900  0.5545 -0.4652
 
              Baa    -0.9938    71.912    25.660    23.987  0.1588  0.6809  0.7150
    11 O(17)  Bbb    -0.6465    46.784    16.694    15.605  0.6719  0.4561 -0.5836
              Bcc     1.6404  -118.696   -42.354   -39.593  0.7234 -0.5730  0.3851
 
              Baa    -1.7399   125.901    44.924    41.996 -0.2695  0.9438  0.1912
    12 O(17)  Bbb     0.0424    -3.065    -1.094    -1.022  0.8983  0.3179 -0.3032
              Bcc     1.6976  -122.836   -43.831   -40.974  0.3469 -0.0900  0.9336
 
              Baa    -0.3076  -164.140   -58.569   -54.751  0.6800 -0.6677 -0.3029
    13 H(1)   Bbb     0.1439    76.784    27.398    25.612  0.6518  0.7397 -0.1671
              Bcc     0.1637    87.356    31.171    29.139  0.3356 -0.0838  0.9383
 
              Baa    -0.3092  -164.972   -58.866   -55.029  0.2235  0.9747  0.0032
    14 H(1)   Bbb     0.1395    74.420    26.555    24.824  0.9163 -0.2090 -0.3415
              Bcc     0.1697    90.551    32.311    30.205  0.3322 -0.0793  0.9399
 
              Baa    -0.3108  -165.817   -59.168   -55.311  0.9012  0.3189 -0.2936
    15 H(1)   Bbb     0.1426    76.066    27.142    25.373 -0.2741  0.9439  0.1842
              Bcc     0.1682    89.751    32.025    29.938  0.3358 -0.0855  0.9380
 
              Baa    -0.2961  -157.992   -56.375   -52.700 -0.6669  0.6793  0.3063
    16 H(1)   Bbb     0.1302    69.449    24.781    23.166  0.6609  0.7291 -0.1780
              Bcc     0.1659    88.543    31.594    29.535  0.3442 -0.0837  0.9351
 
              Baa    -0.2955  -157.640   -56.250   -52.583  0.2694  0.8181 -0.5081
    17 H(1)   Bbb     0.1416    75.540    26.955    25.198  0.8002  0.1034  0.5908
              Bcc     0.1539    82.100    29.295    27.386 -0.5359  0.5657  0.6268
 
              Baa    -0.2966  -158.272   -56.476   -52.794  0.8947 -0.1809 -0.4084
    18 H(1)   Bbb     0.1428    76.165    27.177    25.406  0.3885 -0.1363  0.9113
              Bcc     0.1539    82.108    29.298    27.388  0.2205  0.9740  0.0517
 
              Baa    -0.2958  -157.809   -56.310   -52.639  0.0806  0.7653  0.6386
    19 H(1)   Bbb     0.1380    73.638    26.276    24.563  0.7449 -0.4720  0.4716
              Bcc     0.1578    84.171    30.034    28.076  0.6623  0.4376 -0.6081
 
              Baa    -0.2836  -151.311   -53.991   -50.472 -0.2317  0.4180  0.8784
    20 H(1)   Bbb     0.1337    71.361    25.463    23.803  0.9558 -0.0703  0.2855
              Bcc     0.1498    79.950    28.528    26.668  0.1811  0.9057 -0.3832
 
              Baa    -0.2880  -153.679   -54.836   -51.262  0.0110  0.9908 -0.1351
    21 H(1)   Bbb     0.1360    72.546    25.886    24.199  0.8992  0.0493  0.4347
              Bcc     0.1521    81.133    28.950    27.063 -0.4373  0.1263  0.8904
 
              Baa    -0.3980  -212.335   -75.766   -70.827  0.0620  0.5256  0.8485
    22 H(1)   Bbb     0.1568    83.686    29.861    27.915  0.7128 -0.6184  0.3310
              Bcc     0.2411   128.649    45.905    42.913  0.6986  0.5843 -0.4130
 
              Baa    -0.4407  -235.125   -83.899   -78.429  0.7641 -0.5507 -0.3360
    23 H(1)   Bbb     0.1897   101.212    36.115    33.761  0.5448  0.8298 -0.1209
              Bcc     0.2510   133.914    47.784    44.669  0.3454 -0.0907  0.9341
 

 ---------------------------------------------------------------------------------

 No NMR shielding tensors so no spin-rotation constants.
 Leave Link  601 at Sat Feb 17 21:07:56 2018, MaxMem=   33554432 cpu:       0.5
 Merz-Kollman atomic radii used.
 Read replacement radii for each type of atom:
 Atom Element Radius
    1     6    1.50
    2     6    1.50
    3     6    1.50
    4     6    1.50
    5     6    1.50
    6     6    1.50
    7     6    1.50
    8     6    1.50
    9     6    1.50
   10     7    1.50
   11     8    1.40
   12     8    1.40
   13     1    1.20
   14     1    1.20
   15     1    1.20
   16     1    1.20
   17     1    1.20
   18     1    1.20
   19     1    1.20
   20     1    1.20
   21     1    1.20
   22     1    1.20
   23     1    1.20
 Generate VDW surfaces: Layer= 4 Dens= 1 Start= 1.400 Inc= 0.200

 **********************************************************************

            Electrostatic Properties Using The SCF Density

 **********************************************************************

       Atomic Center    1 is at  -2.704366  1.313167  0.456681
       Atomic Center    2 is at  -1.441201  1.747471  0.041516
       Atomic Center    3 is at  -3.027841 -0.039603  0.452527
       Atomic Center    4 is at  -0.811169 -0.545471 -0.394083
       Atomic Center    5 is at  -0.488482  0.818422 -0.384803
       Atomic Center    6 is at  -2.073330 -0.971123  0.023294
       Atomic Center    7 is at   2.667280 -0.248314  0.020767
       Atomic Center    8 is at   3.675588 -0.496227  1.133304
       Atomic Center    9 is at   0.894726  1.262395 -0.824909
       Atomic Center   10 is at   1.956287  0.915607  0.119791
       Atomic Center   11 is at   2.519803 -1.040758 -0.904849
       Atomic Center   12 is at  -2.436201 -2.289873  0.030193
       Atomic Center   13 is at  -3.444226  2.038234  0.785639
       Atomic Center   14 is at  -1.201266  2.808079  0.044913
       Atomic Center   15 is at  -4.003906 -0.393088  0.769458
       Atomic Center   16 is at  -0.066824 -1.265524 -0.729236
       Atomic Center   17 is at   3.380477 -1.394340  1.685776
       Atomic Center   18 is at   4.651290 -0.697457  0.681784
       Atomic Center   19 is at   3.772963  0.336782  1.836569
       Atomic Center   20 is at   1.167304  0.785557 -1.769764
       Atomic Center   21 is at   0.912088  2.347331 -0.973823
       Atomic Center   22 is at   2.013794  1.445123  0.978346
       Atomic Center   23 is at  -1.691741 -2.819203 -0.296710
      ESP Fit Center   24 is at  -2.704366  1.313167  2.556681
      ESP Fit Center   25 is at  -1.654366  1.313167  2.275334
      ESP Fit Center   26 is at  -2.179366  2.222494  2.275334
      ESP Fit Center   27 is at  -3.754366  1.313167  2.275334
      ESP Fit Center   28 is at  -2.963188  3.113309 -0.593319
      ESP Fit Center   29 is at  -4.449352  1.825541 -0.593319
      ESP Fit Center   30 is at  -3.229366  2.222494 -1.361972
      ESP Fit Center   31 is at  -3.754366  1.313167 -1.361972
      ESP Fit Center   32 is at  -2.704366  1.313167 -1.643319
      ESP Fit Center   33 is at  -1.441201  1.747471  2.141516
      ESP Fit Center   34 is at  -0.391201  1.747471  1.860169
      ESP Fit Center   35 is at  -0.916201  2.656797  1.860169
      ESP Fit Center   36 is at  -0.916201  0.838144  1.860169
      ESP Fit Center   37 is at  -2.632166  3.121917 -1.008484
      ESP Fit Center   38 is at  -0.916201  2.656797 -1.777138
      ESP Fit Center   39 is at  -1.966201  2.656797 -1.777138
      ESP Fit Center   40 is at  -2.491201  1.747471 -1.777138
      ESP Fit Center   41 is at  -1.441201  1.747471 -2.058484
      ESP Fit Center   42 is at  -3.027841 -0.039603  2.552527
      ESP Fit Center   43 is at  -1.977841 -0.039603  2.271180
      ESP Fit Center   44 is at  -2.502841 -0.948929  2.271180
      ESP Fit Center   45 is at  -4.772826  0.472771 -0.597473
      ESP Fit Center   46 is at  -4.218806 -1.414049 -0.597473
      ESP Fit Center   47 is at  -4.077841 -0.039603 -1.366126
      ESP Fit Center   48 is at  -3.027841 -0.039603 -1.647473
      ESP Fit Center   49 is at  -0.811169 -0.545471  1.705917
      ESP Fit Center   50 is at   0.238831 -0.545471  1.424570
      ESP Fit Center   51 is at  -0.286169 -1.454798  1.424570
      ESP Fit Center   52 is at  -1.861169 -0.545471 -2.212736
      ESP Fit Center   53 is at  -1.336169 -1.454798 -2.212736
      ESP Fit Center   54 is at  -0.811169 -0.545471 -2.494083
      ESP Fit Center   55 is at  -0.488482  0.818422  1.715197
      ESP Fit Center   56 is at  -1.013482  1.727749 -2.203456
      ESP Fit Center   57 is at  -1.538482  0.818422 -2.203456
      ESP Fit Center   58 is at  -0.488482  0.818422 -2.484803
      ESP Fit Center   59 is at  -2.073330 -0.971123  2.123294
      ESP Fit Center   60 is at  -1.023330 -0.971123  1.841948
      ESP Fit Center   61 is at  -1.548330 -1.880450  1.841948
      ESP Fit Center   62 is at  -2.598330 -0.061796 -1.795359
      ESP Fit Center   63 is at  -3.123330 -0.971123 -1.795359
      ESP Fit Center   64 is at  -2.073330 -0.971123 -2.076706
      ESP Fit Center   65 is at   1.617280 -0.248314  1.839420
      ESP Fit Center   66 is at   0.922294 -0.760687  1.070767
      ESP Fit Center   67 is at   1.476315 -1.622760  1.070767
      ESP Fit Center   68 is at   4.485933 -0.248314 -1.029233
      ESP Fit Center   69 is at   4.197228  0.734925 -1.029233
      ESP Fit Center   70 is at   3.192280  0.661013 -1.797887
      ESP Fit Center   71 is at   4.725588 -0.496227  2.951957
      ESP Fit Center   72 is at   2.625588 -0.496227  2.951957
      ESP Fit Center   73 is at   5.494241 -0.496227  2.183304
      ESP Fit Center   74 is at   1.930603  0.016146  2.183304
      ESP Fit Center   75 is at   5.205537 -1.479466  2.183304
      ESP Fit Center   76 is at   4.431084  1.158078  0.083304
      ESP Fit Center   77 is at   2.424675  2.245633 -1.874909
      ESP Fit Center   78 is at   0.369726  2.171722 -2.643563
      ESP Fit Center   79 is at   1.431287  0.006280  1.938444
      ESP Fit Center   80 is at   0.765322 -0.458840  1.169791
      ESP Fit Center   81 is at   3.815745  1.891525  0.119791
      ESP Fit Center   82 is at   3.149223  2.643873  0.119791
      ESP Fit Center   83 is at   2.209414  3.000295  0.119791
      ESP Fit Center   84 is at   3.486235  1.898845 -0.930209
      ESP Fit Center   85 is at   2.711783  2.569912 -0.930209
      ESP Fit Center   86 is at   3.006287  0.915607 -1.698862
      ESP Fit Center   87 is at   1.995274 -2.655091  0.075151
      ESP Fit Center   88 is at   3.044331 -2.655091  0.075151
      ESP Fit Center   89 is at   1.539803 -2.738168 -0.904849
      ESP Fit Center   90 is at   2.519803 -3.000758 -0.904849
      ESP Fit Center   91 is at   3.499803 -2.738168 -0.904849
      ESP Fit Center   92 is at   4.217212 -2.020758 -0.904849
      ESP Fit Center   93 is at   4.217212 -1.040758 -1.884849
      ESP Fit Center   94 is at   3.893036 -0.043045 -1.884849
      ESP Fit Center   95 is at   3.044331  0.573575 -1.884849
      ESP Fit Center   96 is at   1.146569 -2.038470 -1.884849
      ESP Fit Center   97 is at   1.995274 -2.655091 -1.884849
      ESP Fit Center   98 is at   3.044331 -2.655091 -1.884849
      ESP Fit Center   99 is at   3.893036 -2.038470 -1.884849
      ESP Fit Center  100 is at   3.499803 -1.040758 -2.602259
      ESP Fit Center  101 is at   3.009803 -0.192053 -2.602259
      ESP Fit Center  102 is at   1.539803 -1.040758 -2.602259
      ESP Fit Center  103 is at   2.029803 -1.889463 -2.602259
      ESP Fit Center  104 is at   3.009803 -1.889463 -2.602259
      ESP Fit Center  105 is at   2.519803 -1.040758 -2.864849
      ESP Fit Center  106 is at  -2.436201 -2.289873  1.990193
      ESP Fit Center  107 is at  -1.456201 -2.289873  1.727603
      ESP Fit Center  108 is at  -3.416201 -2.289873  1.727603
      ESP Fit Center  109 is at  -2.926201 -3.138578  1.727603
      ESP Fit Center  110 is at  -1.946201 -3.138578  1.727603
      ESP Fit Center  111 is at  -0.738791 -2.289873  1.010193
      ESP Fit Center  112 is at  -4.133611 -2.289873  1.010193
      ESP Fit Center  113 is at  -3.809434 -3.287586  1.010193
      ESP Fit Center  114 is at  -2.960729 -3.904206  1.010193
      ESP Fit Center  115 is at  -1.911672 -3.904206  1.010193
      ESP Fit Center  116 is at  -4.396201 -2.289873  0.030193
      ESP Fit Center  117 is at  -4.133611 -3.269873  0.030193
      ESP Fit Center  118 is at  -3.416201 -3.987283  0.030193
      ESP Fit Center  119 is at  -4.133611 -2.289873 -0.949807
      ESP Fit Center  120 is at  -3.809434 -3.287586 -0.949807
      ESP Fit Center  121 is at  -2.960729 -3.904206 -0.949807
      ESP Fit Center  122 is at  -3.416201 -2.289873 -1.667217
      ESP Fit Center  123 is at  -2.926201 -3.138578 -1.667217
      ESP Fit Center  124 is at  -2.436201 -2.289873 -1.929807
      ESP Fit Center  125 is at  -3.444226  2.038234  2.465639
      ESP Fit Center  126 is at  -3.139079  2.977382  2.144787
      ESP Fit Center  127 is at  -4.243114  2.618659  2.144787
      ESP Fit Center  128 is at  -4.243114  1.457808  2.144787
      ESP Fit Center  129 is at  -3.166776  3.611735  1.304787
      ESP Fit Center  130 is at  -4.243114  3.421947  1.304787
      ESP Fit Center  131 is at  -4.945644  2.584705  1.304787
      ESP Fit Center  132 is at  -4.945644  1.491762  1.304787
      ESP Fit Center  133 is at  -3.166776  3.611735  0.266490
      ESP Fit Center  134 is at  -4.243114  3.421947  0.266490
      ESP Fit Center  135 is at  -4.945644  2.584705  0.266490
      ESP Fit Center  136 is at  -4.945644  1.491762  0.266490
      ESP Fit Center  137 is at  -4.243114  2.618659 -0.573510
      ESP Fit Center  138 is at  -0.213786  2.808079  1.404061
      ESP Fit Center  139 is at  -0.896118  3.747228  1.404061
      ESP Fit Center  140 is at  -2.000153  3.388505  1.404061
      ESP Fit Center  141 is at   0.396509  2.808079  0.564061
      ESP Fit Center  142 is at   0.022701  3.835109  0.564061
      ESP Fit Center  143 is at  -0.923815  4.381580  0.564061
      ESP Fit Center  144 is at  -2.000153  4.191793  0.564061
      ESP Fit Center  145 is at   0.022701  3.835109 -0.474236
      ESP Fit Center  146 is at  -0.923815  4.381580 -0.474236
      ESP Fit Center  147 is at  -2.000153  4.191793 -0.474236
      ESP Fit Center  148 is at  -2.702683  3.354550 -0.474236
      ESP Fit Center  149 is at  -0.896118  3.747228 -1.314236
      ESP Fit Center  150 is at  -2.000153  3.388505 -1.314236
      ESP Fit Center  151 is at  -4.003906 -0.393088  2.449458
      ESP Fit Center  152 is at  -4.802794  0.187338  2.128606
      ESP Fit Center  153 is at  -4.802794 -0.973513  2.128606
      ESP Fit Center  154 is at  -3.698758 -1.332236  2.128606
      ESP Fit Center  155 is at  -4.802794  0.990626  1.288606
      ESP Fit Center  156 is at  -5.505323  0.153384  1.288606
      ESP Fit Center  157 is at  -5.505323 -0.939559  1.288606
      ESP Fit Center  158 is at  -4.802794 -1.776801  1.288606
      ESP Fit Center  159 is at  -5.505323  0.153384  0.250309
      ESP Fit Center  160 is at  -5.505323 -0.939559  0.250309
      ESP Fit Center  161 is at  -4.802794 -1.776801  0.250309
      ESP Fit Center  162 is at  -4.802794 -0.973513 -0.589691
      ESP Fit Center  163 is at   0.920655 -1.265524  0.629913
      ESP Fit Center  164 is at   0.238323 -2.204673  0.629913
      ESP Fit Center  165 is at   0.210626 -2.839025 -0.210087
      ESP Fit Center  166 is at   1.157142 -2.292554 -0.210087
      ESP Fit Center  167 is at   0.210626 -2.839025 -1.248384
      ESP Fit Center  168 is at   0.920655 -1.265524 -2.088384
      ESP Fit Center  169 is at  -0.865712 -1.845950 -2.088384
      ESP Fit Center  170 is at   0.238323 -2.204673 -2.088384
      ESP Fit Center  171 is at  -0.066824 -1.265524 -2.409236
      ESP Fit Center  172 is at   3.380477 -1.394340  3.365776
      ESP Fit Center  173 is at   4.367956 -1.394340  3.044925
      ESP Fit Center  174 is at   2.581590 -0.813914  3.044925
      ESP Fit Center  175 is at   2.581590 -1.974765  3.044925
      ESP Fit Center  176 is at   3.685625 -2.333488  3.044925
      ESP Fit Center  177 is at   1.879060 -0.847868  2.204925
      ESP Fit Center  178 is at   1.879060 -1.940811  2.204925
      ESP Fit Center  179 is at   2.581590 -2.778053  2.204925
      ESP Fit Center  180 is at   3.657928 -2.967841  2.204925
      ESP Fit Center  181 is at   4.604444 -2.421370  2.204925
      ESP Fit Center  182 is at   1.879060 -1.940811  1.166628
      ESP Fit Center  183 is at   2.581590 -2.778053  1.166628
      ESP Fit Center  184 is at   3.657928 -2.967841  1.166628
      ESP Fit Center  185 is at   4.604444 -2.421370  1.166628
      ESP Fit Center  186 is at   5.638769 -0.697457  2.040933
      ESP Fit Center  187 is at   6.249065 -0.697457  1.200933
      ESP Fit Center  188 is at   5.875256  0.329573  1.200933
      ESP Fit Center  189 is at   4.928740 -2.270958  1.200933
      ESP Fit Center  190 is at   5.875256 -1.724487  1.200933
      ESP Fit Center  191 is at   6.249065 -0.697457  0.162636
      ESP Fit Center  192 is at   5.875256  0.329573  0.162636
      ESP Fit Center  193 is at   4.928740 -2.270958  0.162636
      ESP Fit Center  194 is at   5.875256 -1.724487  0.162636
      ESP Fit Center  195 is at   5.638769 -0.697457 -0.677364
      ESP Fit Center  196 is at   4.956437  0.241692 -0.677364
      ESP Fit Center  197 is at   4.956437 -1.636605 -0.677364
      ESP Fit Center  198 is at   4.651290 -0.697457 -0.998216
      ESP Fit Center  199 is at   3.772963  0.336782  3.516569
      ESP Fit Center  200 is at   4.760442  0.336782  3.195717
      ESP Fit Center  201 is at   4.078111  1.275931  3.195717
      ESP Fit Center  202 is at   2.974075  0.917208  3.195717
      ESP Fit Center  203 is at   2.974075 -0.243644  3.195717
      ESP Fit Center  204 is at   4.078111 -0.602366  3.195717
      ESP Fit Center  205 is at   5.370738  0.336782  2.355717
      ESP Fit Center  206 is at   4.996929  1.363812  2.355717
      ESP Fit Center  207 is at   4.050413  1.910283  2.355717
      ESP Fit Center  208 is at   2.974075  1.720496  2.355717
      ESP Fit Center  209 is at   4.996929  1.363812  1.317420
      ESP Fit Center  210 is at   4.050413  1.910283  1.317420
      ESP Fit Center  211 is at   2.765079  0.785557 -2.288913
      ESP Fit Center  212 is at   2.391271  1.812587 -2.288913
      ESP Fit Center  213 is at   0.368417 -0.598157 -2.288913
      ESP Fit Center  214 is at   2.154784  0.785557 -3.128913
      ESP Fit Center  215 is at   1.472452  1.724705 -3.128913
      ESP Fit Center  216 is at   0.368417  1.365982 -3.128913
      ESP Fit Center  217 is at   0.368417  0.205131 -3.128913
      ESP Fit Center  218 is at   1.472452 -0.153592 -3.128913
      ESP Fit Center  219 is at   1.167304  0.785557 -3.449764
      ESP Fit Center  220 is at   1.217236  3.286480  0.385326
      ESP Fit Center  221 is at   2.136054  3.374361 -0.454674
      ESP Fit Center  222 is at   1.189538  3.920832 -0.454674
      ESP Fit Center  223 is at   0.113200  3.731045 -0.454674
      ESP Fit Center  224 is at   2.136054  3.374361 -1.492971
      ESP Fit Center  225 is at   1.189538  3.920832 -1.492971
      ESP Fit Center  226 is at   0.113200  3.731045 -1.492971
      ESP Fit Center  227 is at   1.899567  2.347331 -2.332971
      ESP Fit Center  228 is at   1.217236  3.286480 -2.332971
      ESP Fit Center  229 is at   0.113200  2.927757 -2.332971
      ESP Fit Center  230 is at   0.912088  2.347331 -2.653823
      ESP Fit Center  231 is at   2.013794  1.445123  2.658346
      ESP Fit Center  232 is at   2.318942  2.384272  2.337495
      ESP Fit Center  233 is at   1.214907  2.025549  2.337495
      ESP Fit Center  234 is at   1.214907  0.864698  2.337495
      ESP Fit Center  235 is at   3.237761  2.472153  1.497495
      ESP Fit Center  236 is at   2.291245  3.018624  1.497495
      ESP Fit Center  237 is at   1.214907  2.828837  1.497495
      ESP Fit Center  238 is at   0.512377  1.991595  1.497495
      ESP Fit Center  239 is at   2.291245  3.018624  0.459197
      ESP Fit Center  240 is at  -0.704262 -2.819203  1.062439
      ESP Fit Center  241 is at  -1.386593 -3.758351  1.062439
      ESP Fit Center  242 is at  -0.093966 -2.819203  0.222439
      ESP Fit Center  243 is at  -1.414290 -4.392704  0.222439
      ESP Fit Center  244 is at  -0.467774 -3.846233  0.222439
      ESP Fit Center  245 is at  -2.490629 -4.202917 -0.815859
      ESP Fit Center  246 is at  -1.414290 -4.392704 -0.815859
      ESP Fit Center  247 is at  -0.467774 -3.846233 -0.815859
      ESP Fit Center  248 is at  -0.704262 -2.819203 -1.655859
      ESP Fit Center  249 is at  -2.490629 -3.399629 -1.655859
      ESP Fit Center  250 is at  -1.386593 -3.758351 -1.655859
      ESP Fit Center  251 is at  -1.691741 -2.819203 -1.976710
      ESP Fit Center  252 is at  -2.704366  1.313167  2.856681
      ESP Fit Center  253 is at  -1.663045  1.313167  2.619006
      ESP Fit Center  254 is at  -2.183706  2.214978  2.619006
      ESP Fit Center  255 is at  -3.745687  1.313167  2.619006
      ESP Fit Center  256 is at  -1.125842  0.298711  1.953057
      ESP Fit Center  257 is at  -5.044193  1.313167 -0.077369
      ESP Fit Center  258 is at  -3.933144  2.731253 -1.039694
      ESP Fit Center  259 is at  -4.504755  1.841809 -1.039694
      ESP Fit Center  260 is at  -3.225027  2.214978 -1.705644
      ESP Fit Center  261 is at  -3.745687  1.313167 -1.705644
      ESP Fit Center  262 is at  -0.399880  1.747471  2.203841
      ESP Fit Center  263 is at  -0.920541  2.649281  2.203841
      ESP Fit Center  264 is at  -0.920541  0.845660  2.203841
      ESP Fit Center  265 is at   0.137323  2.761927  1.537891
      ESP Fit Center  266 is at  -2.900059  3.576821 -0.492535
      ESP Fit Center  267 is at  -2.669979  3.165556 -1.454860
      ESP Fit Center  268 is at  -0.920541  2.649281 -2.120810
      ESP Fit Center  269 is at  -1.961862  2.649281 -2.120810
      ESP Fit Center  270 is at  -2.482522  1.747471 -2.120810
      ESP Fit Center  271 is at  -3.027841 -0.039603  2.852527
      ESP Fit Center  272 is at  -1.986520 -0.039603  2.614852
      ESP Fit Center  273 is at  -3.548502 -0.941413  2.614852
      ESP Fit Center  274 is at  -2.507181 -0.941413  2.614852
      ESP Fit Center  275 is at  -5.135953  0.975610 -0.081523
      ESP Fit Center  276 is at  -4.828230  0.489039 -1.043848
      ESP Fit Center  277 is at  -4.828230 -0.568244 -1.043848
      ESP Fit Center  278 is at  -4.256619 -1.457688 -1.043848
      ESP Fit Center  279 is at  -4.069162 -0.039603 -1.709798
      ESP Fit Center  280 is at   0.230152 -0.545471  1.768242
      ESP Fit Center  281 is at  -0.290508 -1.447282  1.768242
      ESP Fit Center  282 is at  -0.031686 -2.252301  1.102293
      ESP Fit Center  283 is at   0.767356 -1.559927  1.102293
      ESP Fit Center  284 is at  -1.852490 -0.545471 -2.556408
      ESP Fit Center  285 is at  -1.331829 -1.447282 -2.556408
      ESP Fit Center  286 is at  -0.811169 -0.545471 -2.794083
      ESP Fit Center  287 is at  -1.009143  1.720233 -2.547128
      ESP Fit Center  288 is at  -1.529803  0.818422 -2.547128
      ESP Fit Center  289 is at  -0.488482  0.818422 -2.784803
      ESP Fit Center  290 is at  -1.032009 -0.971123  2.185620
      ESP Fit Center  291 is at  -1.552670 -1.872933  2.185620
      ESP Fit Center  292 is at  -0.494806 -1.985579  1.519670
      ESP Fit Center  293 is at  -2.593991 -0.069313 -2.139031
      ESP Fit Center  294 is at  -3.114651 -0.971123 -2.139031
      ESP Fit Center  295 is at   0.866891 -0.776955  1.517142
      ESP Fit Center  296 is at   1.438502 -1.666399  1.517142
      ESP Fit Center  297 is at   4.543675 -0.248314 -1.475609
      ESP Fit Center  298 is at   4.245804  0.766142 -1.475609
      ESP Fit Center  299 is at   4.716909 -0.496227  3.295629
      ESP Fit Center  300 is at   2.634267 -0.496227  3.295629
      ESP Fit Center  301 is at   5.551984 -0.496227  2.629679
      ESP Fit Center  302 is at   1.875200  0.032414  2.629679
      ESP Fit Center  303 is at   5.254112 -1.510683  2.629679
      ESP Fit Center  304 is at   5.783699  0.518986  1.667354
      ESP Fit Center  305 is at   5.134446 -2.325578  1.667354
      ESP Fit Center  306 is at   5.134446  1.333123  0.599254
      ESP Fit Center  307 is at   4.196249  1.784935  0.599254
      ESP Fit Center  308 is at   4.196249 -2.777390  0.599254
      ESP Fit Center  309 is at   2.473251  2.276851 -2.321285
      ESP Fit Center  310 is at   0.374066  2.164206 -2.987235
      ESP Fit Center  311 is at   1.435626  0.013796  2.282116
      ESP Fit Center  312 is at   0.727509 -0.502479  1.616166
      ESP Fit Center  313 is at   4.064398  1.930820  0.653841
      ESP Fit Center  314 is at   3.415145  2.744957  0.653841
      ESP Fit Center  315 is at   4.064398  1.930820 -0.414259
      ESP Fit Center  316 is at   3.415145  2.744957 -0.414259
      ESP Fit Center  317 is at   3.534811  1.930063 -1.376585
      ESP Fit Center  318 is at   1.978620 -2.706346  0.491768
      ESP Fit Center  319 is at   1.745403 -3.082682 -0.406402
      ESP Fit Center  320 is at   2.783035 -3.208674 -0.406402
      ESP Fit Center  321 is at   3.760364 -2.838022 -0.406402
      ESP Fit Center  322 is at   4.703641 -1.040758 -1.403296
      ESP Fit Center  323 is at   1.745403 -3.082682 -1.403296
      ESP Fit Center  324 is at   2.783035 -3.208674 -1.403296
      ESP Fit Center  325 is at   3.760364 -2.838022 -1.403296
      ESP Fit Center  326 is at   4.453496 -2.055638 -1.403296
      ESP Fit Center  327 is at   4.271105 -1.040758 -2.301466
      ESP Fit Center  328 is at   3.936636 -0.011368 -2.301466
      ESP Fit Center  329 is at   3.060985  0.624830 -2.301466
      ESP Fit Center  330 is at   1.102969 -2.070148 -2.301466
      ESP Fit Center  331 is at   1.978620 -2.706346 -2.301466
      ESP Fit Center  332 is at   3.060985 -2.706346 -2.301466
      ESP Fit Center  333 is at   3.936636 -2.070148 -2.301466
      ESP Fit Center  334 is at   3.491702 -1.040758 -2.923019
      ESP Fit Center  335 is at   3.005752 -0.199068 -2.923019
      ESP Fit Center  336 is at   1.547903 -1.040758 -2.923019
      ESP Fit Center  337 is at   2.033853 -1.882448 -2.923019
      ESP Fit Center  338 is at   3.005752 -1.882448 -2.923019
      ESP Fit Center  339 is at   2.519803 -1.040758 -3.144849
      ESP Fit Center  340 is at  -2.436201 -2.289873  2.270193
      ESP Fit Center  341 is at  -1.464301 -2.289873  2.048363
      ESP Fit Center  342 is at  -3.408100 -2.289873  2.048363
      ESP Fit Center  343 is at  -2.922151 -3.131563  2.048363
      ESP Fit Center  344 is at  -1.950251 -3.131563  2.048363
      ESP Fit Center  345 is at  -4.187503 -2.289873  1.426810
      ESP Fit Center  346 is at  -3.853034 -3.319263  1.426810
      ESP Fit Center  347 is at  -2.977383 -3.955461  1.426810
      ESP Fit Center  348 is at  -1.895019 -3.955461  1.426810
      ESP Fit Center  349 is at  -4.556581 -2.812500  0.528640
      ESP Fit Center  350 is at  -4.070827 -3.738026  0.528640
      ESP Fit Center  351 is at  -3.210601 -4.331798  0.528640
      ESP Fit Center  352 is at  -4.556581 -1.767246 -0.468254
      ESP Fit Center  353 is at  -4.556581 -2.812500 -0.468254
      ESP Fit Center  354 is at  -4.070827 -3.738026 -0.468254
      ESP Fit Center  355 is at  -3.210601 -4.331798 -0.468254
      ESP Fit Center  356 is at  -4.187503 -2.289873 -1.366424
      ESP Fit Center  357 is at  -3.853034 -3.319263 -1.366424
      ESP Fit Center  358 is at  -2.977383 -3.955461 -1.366424
      ESP Fit Center  359 is at  -3.408100 -2.289873 -1.987977
      ESP Fit Center  360 is at  -2.922151 -3.131563 -1.987977
      ESP Fit Center  361 is at  -2.436201 -2.289873 -2.209807
      ESP Fit Center  362 is at  -3.444226  2.038234  2.705639
      ESP Fit Center  363 is at  -2.964226  2.869618  2.448408
      ESP Fit Center  364 is at  -3.924226  2.869618  2.448408
      ESP Fit Center  365 is at  -4.404226  2.038234  2.448408
      ESP Fit Center  366 is at  -2.930403  3.619621  1.745639
      ESP Fit Center  367 is at  -3.958050  3.619621  1.745639
      ESP Fit Center  368 is at  -4.789435  3.015584  1.745639
      ESP Fit Center  369 is at  -5.106995  2.038234  1.745639
      ESP Fit Center  370 is at  -3.444226  3.958234  0.785639
      ESP Fit Center  371 is at  -4.404226  3.701002  0.785639
      ESP Fit Center  372 is at  -5.106995  2.998234  0.785639
      ESP Fit Center  373 is at  -5.364226  2.038234  0.785639
      ESP Fit Center  374 is at  -2.930403  3.619621 -0.174361
      ESP Fit Center  375 is at  -3.958050  3.619621 -0.174361
      ESP Fit Center  376 is at  -4.789435  3.015584 -0.174361
      ESP Fit Center  377 is at  -5.106995  2.038234 -0.174361
      ESP Fit Center  378 is at  -0.721266  3.639464  1.707682
      ESP Fit Center  379 is at  -1.681266  3.639464  1.707682
      ESP Fit Center  380 is at   0.143943  3.785430  1.004913
      ESP Fit Center  381 is at  -0.687442  4.389466  1.004913
      ESP Fit Center  382 is at  -1.715089  4.389466  1.004913
      ESP Fit Center  383 is at  -2.546474  3.785430  1.004913
      ESP Fit Center  384 is at  -0.241266  4.470848  0.044913
      ESP Fit Center  385 is at  -1.201266  4.728079  0.044913
      ESP Fit Center  386 is at  -2.161266  4.470848  0.044913
      ESP Fit Center  387 is at  -2.864034  3.768079  0.044913
      ESP Fit Center  388 is at  -0.687442  4.389466 -0.915087
      ESP Fit Center  389 is at  -1.715089  4.389466 -0.915087
      ESP Fit Center  390 is at  -2.546474  3.785430 -0.915087
      ESP Fit Center  391 is at  -0.721266  3.639464 -1.617856
      ESP Fit Center  392 is at  -1.681266  3.639464 -1.617856
      ESP Fit Center  393 is at  -4.003906 -0.393088  2.689458
      ESP Fit Center  394 is at  -4.483906  0.438297  2.432227
      ESP Fit Center  395 is at  -4.963906 -0.393088  2.432227
      ESP Fit Center  396 is at  -4.483906 -1.224472  2.432227
      ESP Fit Center  397 is at  -5.349114  0.584263  1.729458
      ESP Fit Center  398 is at  -5.666675 -0.393088  1.729458
      ESP Fit Center  399 is at  -5.349114 -1.370439  1.729458
      ESP Fit Center  400 is at  -4.517730 -1.974475  1.729458
      ESP Fit Center  401 is at  -5.666675  0.566912  0.769458
      ESP Fit Center  402 is at  -5.923906 -0.393088  0.769458
      ESP Fit Center  403 is at  -5.666675 -1.353088  0.769458
      ESP Fit Center  404 is at  -4.963906 -2.055856  0.769458
      ESP Fit Center  405 is at  -5.349114  0.584263 -0.190542
      ESP Fit Center  406 is at  -5.666675 -0.393088 -0.190542
      ESP Fit Center  407 is at  -5.349114 -1.370439 -0.190542
      ESP Fit Center  408 is at   0.446999 -2.846911  0.230764
      ESP Fit Center  409 is at   0.893176 -2.928293 -0.729236
      ESP Fit Center  410 is at   0.446999 -2.846911 -1.689236
      ESP Fit Center  411 is at  -0.546824 -2.096908 -2.392004
      ESP Fit Center  412 is at   0.413176 -2.096908 -2.392004
      ESP Fit Center  413 is at  -0.066824 -1.265524 -2.649236
      ESP Fit Center  414 is at   3.380477 -1.394340  3.605776
      ESP Fit Center  415 is at   4.340477 -1.394340  3.348545
      ESP Fit Center  416 is at   2.420477 -1.394340  3.348545
      ESP Fit Center  417 is at   2.900477 -2.225724  3.348545
      ESP Fit Center  418 is at   3.860477 -2.225724  3.348545
      ESP Fit Center  419 is at   1.717708 -1.394340  2.645776
      ESP Fit Center  420 is at   2.035269 -2.371691  2.645776
      ESP Fit Center  421 is at   2.866653 -2.975727  2.645776
      ESP Fit Center  422 is at   3.894301 -2.975727  2.645776
      ESP Fit Center  423 is at   4.725685 -2.371691  2.645776
      ESP Fit Center  424 is at   1.717708 -2.354340  1.685776
      ESP Fit Center  425 is at   2.420477 -3.057108  1.685776
      ESP Fit Center  426 is at   3.380477 -3.314340  1.685776
      ESP Fit Center  427 is at   4.340477 -3.057108  1.685776
      ESP Fit Center  428 is at   2.866653 -2.975727  0.725776
      ESP Fit Center  429 is at   3.894301 -2.975727  0.725776
      ESP Fit Center  430 is at   6.314058 -0.697457  1.641784
      ESP Fit Center  431 is at   5.996498  0.279894  1.641784
      ESP Fit Center  432 is at   5.996498 -1.674808  1.641784
      ESP Fit Center  433 is at   6.571290 -0.697457  0.681784
      ESP Fit Center  434 is at   6.314058  0.262543  0.681784
      ESP Fit Center  435 is at   5.611290  0.965312  0.681784
      ESP Fit Center  436 is at   5.611290 -2.360225  0.681784
      ESP Fit Center  437 is at   6.314058 -1.657457  0.681784
      ESP Fit Center  438 is at   6.314058 -0.697457 -0.278216
      ESP Fit Center  439 is at   5.996498  0.279894 -0.278216
      ESP Fit Center  440 is at   5.165113  0.883930 -0.278216
      ESP Fit Center  441 is at   5.165113 -2.278844 -0.278216
      ESP Fit Center  442 is at   5.996498 -1.674808 -0.278216
      ESP Fit Center  443 is at   5.611290 -0.697457 -0.980985
      ESP Fit Center  444 is at   5.131290  0.133928 -0.980985
      ESP Fit Center  445 is at   5.131290 -1.528841 -0.980985
      ESP Fit Center  446 is at   3.772963  0.336782  3.756569
      ESP Fit Center  447 is at   4.732963  0.336782  3.499338
      ESP Fit Center  448 is at   4.252963  1.168167  3.499338
      ESP Fit Center  449 is at   3.292963  1.168167  3.499338
      ESP Fit Center  450 is at   2.812963  0.336782  3.499338
      ESP Fit Center  451 is at   4.252963 -0.494602  3.499338
      ESP Fit Center  452 is at   5.435731  0.336782  2.796569
      ESP Fit Center  453 is at   5.118171  1.314133  2.796569
      ESP Fit Center  454 is at   4.286786  1.918169  2.796569
      ESP Fit Center  455 is at   3.259139  1.918169  2.796569
      ESP Fit Center  456 is at   2.110194  0.336782  2.796569
      ESP Fit Center  457 is at   5.435731  1.296782  1.836569
      ESP Fit Center  458 is at   4.732963  1.999551  1.836569
      ESP Fit Center  459 is at   3.772963  2.256782  1.836569
      ESP Fit Center  460 is at   4.286786  1.918169  0.876569
      ESP Fit Center  461 is at   2.830073  0.785557 -2.729764
      ESP Fit Center  462 is at   2.512513  1.762908 -2.729764
      ESP Fit Center  463 is at  -0.177904 -0.191794 -2.729764
      ESP Fit Center  464 is at   0.653481 -0.795830 -2.729764
      ESP Fit Center  465 is at   2.127304  0.785557 -3.432533
      ESP Fit Center  466 is at   1.647304  1.616941 -3.432533
      ESP Fit Center  467 is at   0.687304  1.616941 -3.432533
      ESP Fit Center  468 is at   0.207304  0.785557 -3.432533
      ESP Fit Center  469 is at   0.687304 -0.045828 -3.432533
      ESP Fit Center  470 is at   1.647304 -0.045828 -3.432533
      ESP Fit Center  471 is at   1.167304  0.785557 -3.689764
      ESP Fit Center  472 is at   2.257296  3.324682 -0.013823
      ESP Fit Center  473 is at   1.425912  3.928718 -0.013823
      ESP Fit Center  474 is at   0.398264  3.928718 -0.013823
      ESP Fit Center  475 is at   2.574856  3.307331 -0.973823
      ESP Fit Center  476 is at   1.872088  4.010100 -0.973823
      ESP Fit Center  477 is at   0.912088  4.267331 -0.973823
      ESP Fit Center  478 is at  -0.047912  4.010100 -0.973823
      ESP Fit Center  479 is at   2.257296  3.324682 -1.933823
      ESP Fit Center  480 is at   1.425912  3.928718 -1.933823
      ESP Fit Center  481 is at   0.398264  3.928718 -1.933823
      ESP Fit Center  482 is at  -0.433121  3.324682 -1.933823
      ESP Fit Center  483 is at   1.392088  3.178715 -2.636592
      ESP Fit Center  484 is at   0.432088  3.178715 -2.636592
      ESP Fit Center  485 is at   2.013794  1.445123  2.898346
      ESP Fit Center  486 is at   2.493794  2.276508  2.641115
      ESP Fit Center  487 is at   1.533794  2.276508  2.641115
      ESP Fit Center  488 is at   1.053794  1.445123  2.641115
      ESP Fit Center  489 is at   1.533794  0.613739  2.641115
      ESP Fit Center  490 is at   3.359002  2.422474  1.938346
      ESP Fit Center  491 is at   2.527618  3.026510  1.938346
      ESP Fit Center  492 is at   1.499970  3.026510  1.938346
      ESP Fit Center  493 is at   0.668586  2.422474  1.938346
      ESP Fit Center  494 is at   0.351025  1.445123  1.938346
      ESP Fit Center  495 is at   3.676563  2.405123  0.978346
      ESP Fit Center  496 is at   2.973794  3.107892  0.978346
      ESP Fit Center  497 is at   2.013794  3.365123  0.978346
      ESP Fit Center  498 is at   1.053794  3.107892  0.978346
      ESP Fit Center  499 is at  -1.211741 -3.650587  1.366059
      ESP Fit Center  500 is at  -0.028972 -2.819203  0.663290
      ESP Fit Center  501 is at  -1.177917 -4.400590  0.663290
      ESP Fit Center  502 is at  -0.346533 -3.796554  0.663290
      ESP Fit Center  503 is at  -1.691741 -4.739203 -0.296710
      ESP Fit Center  504 is at  -0.731741 -4.481972 -0.296710
      ESP Fit Center  505 is at  -0.028972 -3.779203 -0.296710
      ESP Fit Center  506 is at  -2.205565 -4.400590 -1.256710
      ESP Fit Center  507 is at  -1.177917 -4.400590 -1.256710
      ESP Fit Center  508 is at  -0.346533 -3.796554 -1.256710
      ESP Fit Center  509 is at  -0.731741 -2.819203 -1.959479
      ESP Fit Center  510 is at  -2.171741 -3.650587 -1.959479
      ESP Fit Center  511 is at  -1.211741 -3.650587 -1.959479
      ESP Fit Center  512 is at  -1.691741 -2.819203 -2.216710
      ESP Fit Center  513 is at  -2.704366  1.313167  3.156681
      ESP Fit Center  514 is at  -1.671121  1.313167  2.951156
      ESP Fit Center  515 is at  -2.187744  2.207984  2.951156
      ESP Fit Center  516 is at  -3.220989  2.207984  2.951156
      ESP Fit Center  517 is at  -3.737612  1.313167  2.951156
      ESP Fit Center  518 is at  -1.911261  3.049826  2.365869
      ESP Fit Center  519 is at  -1.098255  0.280982  2.365869
      ESP Fit Center  520 is at  -3.259439  3.745100 -0.576564
      ESP Fit Center  521 is at  -5.198841  1.313167 -0.576564
      ESP Fit Center  522 is at  -3.954619  2.756036 -1.452507
      ESP Fit Center  523 is at  -4.536219  1.851048 -1.452507
      ESP Fit Center  524 is at  -3.220989  2.207984 -2.037794
      ESP Fit Center  525 is at  -3.737612  1.313167 -2.037794
      ESP Fit Center  526 is at  -0.407956  1.747471  2.535990
      ESP Fit Center  527 is at  -0.924578  2.642287  2.535990
      ESP Fit Center  528 is at  -0.924578  0.852654  2.535990
      ESP Fit Center  529 is at   0.164910  2.779656  1.950704
      ESP Fit Center  530 is at  -2.996481  3.697730 -0.991730
      ESP Fit Center  531 is at  -2.691454  3.190339 -1.867673
      ESP Fit Center  532 is at  -0.924578  2.642287 -2.452959
      ESP Fit Center  533 is at  -1.957824  2.642287 -2.452959
      ESP Fit Center  534 is at  -2.474446  1.747471 -2.452959
      ESP Fit Center  535 is at  -3.027841 -0.039603  3.152527
      ESP Fit Center  536 is at  -1.994596 -0.039603  2.947002
      ESP Fit Center  537 is at  -4.061087 -0.039603  2.947002
      ESP Fit Center  538 is at  -3.544464 -0.934419  2.947002
      ESP Fit Center  539 is at  -2.511219 -0.934419  2.947002
      ESP Fit Center  540 is at  -5.275285  1.042709 -0.580718
      ESP Fit Center  541 is at  -4.859694  0.498278 -1.456661
      ESP Fit Center  542 is at  -4.859694 -0.577483 -1.456661
      ESP Fit Center  543 is at  -4.061087 -0.039603 -2.041948
      ESP Fit Center  544 is at   0.222077 -0.545471  2.100392
      ESP Fit Center  545 is at  -0.294546 -1.440288  2.100392
      ESP Fit Center  546 is at  -0.018063 -2.282130  1.515105
      ESP Fit Center  547 is at   0.794943 -1.577656  1.515105
      ESP Fit Center  548 is at  -1.844414 -0.545471 -2.888558
      ESP Fit Center  549 is at  -1.327791 -1.440288 -2.888558
      ESP Fit Center  550 is at  -0.294546 -1.440288 -2.888558
      ESP Fit Center  551 is at  -0.811169 -0.545471 -3.094083
      ESP Fit Center  552 is at  -1.005105  1.713239 -2.879278
      ESP Fit Center  553 is at  -1.521727  0.818422 -2.879278
      ESP Fit Center  554 is at  -1.040085 -0.971123  2.517769
      ESP Fit Center  555 is at  -2.589953 -1.865940  2.517769
      ESP Fit Center  556 is at  -1.556707 -1.865940  2.517769
      ESP Fit Center  557 is at  -0.467219 -2.003308  1.932483
      ESP Fit Center  558 is at  -3.905183 -1.509004 -1.885894
      ESP Fit Center  559 is at  -2.589953 -0.076306 -2.471180
      ESP Fit Center  560 is at  -3.106575 -0.971123 -2.471180
      ESP Fit Center  561 is at  -2.589953 -1.865940 -2.471180
[...]
  368 Fit       0.011419
  369 Fit       0.009639
  370 Fit       0.012280
  371 Fit       0.011567
  372 Fit       0.010343
  373 Fit       0.008396
  374 Fit       0.009433
  375 Fit       0.007636
  376 Fit       0.006115
  377 Fit       0.002749
  378 Fit       0.011251
  379 Fit       0.008803
  380 Fit       0.020095
  381 Fit       0.016375
  382 Fit       0.013776
  383 Fit       0.013640
  384 Fit       0.019171
  385 Fit       0.015652
  386 Fit       0.012656
  387 Fit       0.011377
  388 Fit       0.015443
  389 Fit       0.010487
  390 Fit       0.004211
  391 Fit       0.010516
  392 Fit       0.002644
  393 Fit      -0.006189
  394 Fit       0.000865
  395 Fit       0.001605
  396 Fit      -0.004392
  397 Fit       0.006729
  398 Fit       0.004747
  399 Fit      -0.000150
  400 Fit      -0.011191
  401 Fit       0.005377
  402 Fit       0.003539
  403 Fit      -0.000904
  404 Fit      -0.012192
  405 Fit      -0.001636
  406 Fit      -0.001956
  407 Fit      -0.007455
  408 Fit       0.010338
  409 Fit      -0.006881
  410 Fit      -0.000681
  411 Fit       0.000465
  412 Fit      -0.011625
  413 Fit      -0.010904
  414 Fit       0.014522
  415 Fit       0.013672
  416 Fit       0.014392
  417 Fit       0.013854
  418 Fit       0.013386
  419 Fit       0.013039
  420 Fit       0.011917
  421 Fit       0.011633
  422 Fit       0.011092
  423 Fit       0.010856
  424 Fit       0.007433
  425 Fit       0.005910
  426 Fit       0.005487
  427 Fit       0.005745
  428 Fit      -0.009465
  429 Fit      -0.005739
  430 Fit       0.012264
  431 Fit       0.013402
  432 Fit       0.010151
  433 Fit       0.011554
  434 Fit       0.012279
  435 Fit       0.012763
  436 Fit       0.004351
  437 Fit       0.009049
  438 Fit       0.008387
  439 Fit       0.009584
  440 Fit       0.010241
  441 Fit      -0.006087
  442 Fit       0.003907
  443 Fit       0.000512
  444 Fit       0.002587
  445 Fit      -0.011328
  446 Fit       0.018792
  447 Fit       0.017075
  448 Fit       0.021277
  449 Fit       0.024853
  450 Fit       0.021047
  451 Fit       0.015473
  452 Fit       0.015281
  453 Fit       0.018713
  454 Fit       0.024383
  455 Fit       0.033406
  456 Fit       0.026417
  457 Fit       0.016007
  458 Fit       0.020809
  459 Fit       0.031141
  460 Fit       0.018894
  461 Fit      -0.012708
  462 Fit      -0.000294
  463 Fit      -0.008646
  464 Fit      -0.016193
  465 Fit      -0.005722
  466 Fit       0.001696
  467 Fit       0.002852
  468 Fit      -0.000865
  469 Fit      -0.006202
  470 Fit      -0.012657
  471 Fit      -0.001315
  472 Fit       0.020333
  473 Fit       0.022111
  474 Fit       0.023760
  475 Fit       0.010799
  476 Fit       0.016301
  477 Fit       0.018371
  478 Fit       0.019817
  479 Fit       0.009374
  480 Fit       0.013383
  481 Fit       0.013952
  482 Fit       0.009952
  483 Fit       0.008723
  484 Fit       0.008980
  485 Fit       0.034820
  486 Fit       0.038064
  487 Fit       0.033926
  488 Fit       0.025854
  489 Fit       0.025724
  490 Fit       0.035783
  491 Fit       0.035299
  492 Fit       0.034341
  493 Fit       0.026498
  494 Fit       0.011446
  495 Fit       0.023575
  496 Fit       0.026634
  497 Fit       0.031176
  498 Fit       0.032778
  499 Fit       0.002782
  500 Fit       0.016661
  501 Fit       0.014804
  502 Fit       0.019446
  503 Fit       0.016353
  504 Fit       0.023588
  505 Fit       0.023751
  506 Fit       0.011599
  507 Fit       0.022474
  508 Fit       0.024250
  509 Fit       0.018555
  510 Fit       0.008405
  511 Fit       0.019452
  512 Fit       0.009374
  513 Fit      -0.007397
  514 Fit      -0.010064
  515 Fit      -0.003600
  516 Fit       0.000277
  517 Fit      -0.002298
  518 Fit       0.001954
  519 Fit      -0.017080
  520 Fit       0.004829
  521 Fit      -0.003828
  522 Fit      -0.005819
  523 Fit      -0.009108
  524 Fit      -0.014026
  525 Fit      -0.017251
  526 Fit      -0.000893
  527 Fit       0.000829
  528 Fit      -0.012389
  529 Fit       0.014749
  530 Fit       0.001824
  531 Fit      -0.005884
  532 Fit      -0.001190
  533 Fit      -0.008702
  534 Fit      -0.016800
  535 Fit      -0.011357
  536 Fit      -0.015122
  537 Fit      -0.005107
  538 Fit      -0.010491
  539 Fit      -0.014641
  540 Fit      -0.004469
  541 Fit      -0.012879
  542 Fit      -0.014323
  543 Fit      -0.018446
  544 Fit      -0.005461
  545 Fit      -0.007791
  546 Fit       0.000478
  547 Fit       0.001059
  548 Fit      -0.016015
  549 Fit      -0.009454
  550 Fit      -0.009688
  551 Fit      -0.012112
  552 Fit      -0.006611
  553 Fit      -0.014757
  554 Fit      -0.012808
  555 Fit      -0.019016
  556 Fit      -0.013679
  557 Fit      -0.005464
  558 Fit      -0.020895
  559 Fit      -0.020539
  560 Fit      -0.017222
  561 Fit      -0.012058
  562 Fit       0.002986
  563 Fit      -0.000162
  564 Fit       0.003208
  565 Fit      -0.008819
  566 Fit       0.014723
  567 Fit       0.013527
  568 Fit       0.015209
  569 Fit       0.011977
  570 Fit       0.018716
  571 Fit       0.010508
  572 Fit       0.013112
  573 Fit       0.007837
  574 Fit       0.013023
  575 Fit       0.010208
  576 Fit      -0.014426
  577 Fit      -0.000471
  578 Fit       0.001588
  579 Fit       0.003457
  580 Fit       0.002934
  581 Fit       0.017174
  582 Fit       0.001474
  583 Fit       0.009913
  584 Fit       0.009827
  585 Fit       0.014817
  586 Fit       0.000980
  587 Fit       0.002995
  588 Fit      -0.003422
  589 Fit      -0.005300
  590 Fit      -0.011252
  591 Fit      -0.022010
  592 Fit      -0.026733
  593 Fit      -0.024356
  594 Fit      -0.017300
  595 Fit      -0.028582
  596 Fit      -0.033892
  597 Fit      -0.033404
  598 Fit      -0.027311
  599 Fit      -0.028892
  600 Fit      -0.022172
  601 Fit      -0.015927
  602 Fit      -0.026753
  603 Fit      -0.033954
  604 Fit      -0.036858
  605 Fit      -0.034805
  606 Fit      -0.032914
  607 Fit      -0.026255
  608 Fit      -0.027071
  609 Fit      -0.033549
  610 Fit      -0.036191
  611 Fit      -0.032159
  612 Fit      -0.019073
  613 Fit      -0.012179
  614 Fit      -0.020353
  615 Fit      -0.021448
  616 Fit      -0.014500
  617 Fit      -0.022404
  618 Fit      -0.022983
  619 Fit      -0.015063
  620 Fit      -0.003959
  621 Fit       0.002486
  622 Fit      -0.024570
  623 Fit      -0.021124
  624 Fit      -0.010359
  625 Fit      -0.021876
  626 Fit      -0.024386
  627 Fit      -0.018445
  628 Fit      -0.004714
  629 Fit      -0.021899
  630 Fit      -0.022817
  631 Fit      -0.016020
  632 Fit      -0.018215
  633 Fit      -0.009172
  634 Fit      -0.007980
  635 Fit       0.003907
  636 Fit       0.006825
  637 Fit       0.005209
  638 Fit       0.008961
  639 Fit       0.009784
  640 Fit       0.009519
  641 Fit       0.008349
  642 Fit       0.007017
  643 Fit       0.011004
  644 Fit       0.009705
  645 Fit       0.008699
  646 Fit       0.007213
  647 Fit       0.006023
  648 Fit       0.006506
  649 Fit       0.005205
  650 Fit       0.003012
  651 Fit       0.010694
  652 Fit       0.007958
  653 Fit       0.019985
  654 Fit       0.015235
  655 Fit       0.012578
  656 Fit       0.011543
  657 Fit       0.017760
  658 Fit       0.014180
  659 Fit       0.011557
  660 Fit       0.009981
  661 Fit       0.014383
  662 Fit       0.010058
  663 Fit       0.005584
  664 Fit       0.009238
  665 Fit       0.001964
  666 Fit       0.000269
  667 Fit       0.000316
  668 Fit      -0.005386
  669 Fit       0.006381
  670 Fit       0.004048
  671 Fit       0.001182
  672 Fit      -0.004955
  673 Fit      -0.016846
  674 Fit       0.005122
  675 Fit       0.002815
  676 Fit       0.000153
  677 Fit      -0.005818
  678 Fit      -0.002330
  679 Fit      -0.004779
  680 Fit      -0.013077
  681 Fit       0.003650
  682 Fit      -0.008748
  683 Fit      -0.001018
  684 Fit      -0.013135
  685 Fit      -0.011251
  686 Fit       0.012885
  687 Fit       0.012297
  688 Fit       0.012453
  689 Fit       0.011504
  690 Fit       0.011337
  691 Fit       0.009632
  692 Fit       0.009282
  693 Fit       0.009021
  694 Fit       0.008860
  695 Fit       0.009357
  696 Fit       0.006178
  697 Fit       0.004488
  698 Fit       0.003439
  699 Fit       0.003379
  700 Fit       0.004247
  701 Fit      -0.010991
  702 Fit       0.010590
  703 Fit       0.012056
  704 Fit       0.008799
  705 Fit       0.009329
  706 Fit       0.010374
  707 Fit       0.011349
  708 Fit       0.003460
  709 Fit       0.007154
  710 Fit       0.005962
  711 Fit       0.007395
  712 Fit       0.008057
  713 Fit      -0.005678
  714 Fit       0.002174
  715 Fit      -0.001951
  716 Fit      -0.000033
  717 Fit      -0.013903
  718 Fit       0.016672
  719 Fit       0.015108
  720 Fit       0.018731
  721 Fit       0.022077
  722 Fit       0.018756
  723 Fit       0.013638
  724 Fit       0.016154
  725 Fit       0.020461
  726 Fit       0.027502
  727 Fit       0.014118
  728 Fit       0.017613
  729 Fit       0.024960
  730 Fit       0.015453
  731 Fit      -0.013487
  732 Fit      -0.001814
  733 Fit      -0.022525
  734 Fit      -0.007093
  735 Fit       0.000392
  736 Fit       0.001379
  737 Fit      -0.002659
  738 Fit      -0.007756
  739 Fit      -0.013974
  740 Fit      -0.002989
  741 Fit       0.020103
  742 Fit       0.020679
  743 Fit       0.008836
  744 Fit       0.013803
  745 Fit       0.015720
  746 Fit       0.016920
  747 Fit       0.007244
  748 Fit       0.010849
  749 Fit       0.011868
  750 Fit       0.009859
  751 Fit       0.007005
  752 Fit       0.007028
  753 Fit       0.029153
  754 Fit       0.032145
  755 Fit       0.028069
  756 Fit       0.020527
  757 Fit       0.021105
  758 Fit       0.029821
  759 Fit       0.029421
  760 Fit       0.024982
  761 Fit       0.022299
  762 Fit       0.025890
  763 Fit       0.028358
  764 Fit       0.010682
  765 Fit       0.001971
  766 Fit       0.011507
  767 Fit       0.013770
  768 Fit       0.002903
  769 Fit       0.013354
  770 Fit       0.017446
  771 Fit       0.015675
  772 Fit       0.010626
  773 Fit       0.016854
  774 Fit       0.016065
  775 Fit       0.011263
  776 Fit       0.004534
  777 Fit       0.013263
  778 Fit       0.004738
  779 Fit      -0.005466
  780 Fit      -0.006841
  781 Fit      -0.002219
  782 Fit       0.000051
  783 Fit      -0.002171
  784 Fit       0.002113
  785 Fit      -0.012193
  786 Fit       0.000907
  787 Fit      -0.000938
  788 Fit      -0.003918
  789 Fit      -0.006248
  790 Fit      -0.009014
  791 Fit      -0.012149
  792 Fit      -0.014931
  793 Fit       0.001017
  794 Fit       0.001932
  795 Fit      -0.008523
  796 Fit       0.013670
  797 Fit       0.008400
  798 Fit       0.006004
  799 Fit       0.001528
  800 Fit       0.000268
  801 Fit      -0.005389
  802 Fit      -0.001377
  803 Fit      -0.007124
  804 Fit      -0.013599
  805 Fit      -0.008953
  806 Fit      -0.011428
  807 Fit      -0.004833
  808 Fit      -0.008984
  809 Fit      -0.011747
  810 Fit      -0.012527
  811 Fit      -0.015158
  812 Fit      -0.006622
  813 Fit      -0.008494
  814 Fit      -0.014530
  815 Fit      -0.012144
  816 Fit      -0.013637
  817 Fit      -0.016183
  818 Fit      -0.002768
  819 Fit      -0.006176
  820 Fit      -0.000853
  821 Fit       0.000854
  822 Fit       0.001076
  823 Fit      -0.013413
  824 Fit      -0.009114
  825 Fit      -0.009867
  826 Fit      -0.010647
  827 Fit      -0.005668
  828 Fit      -0.011960
  829 Fit      -0.010291
  830 Fit      -0.015387
  831 Fit      -0.011535
  832 Fit      -0.005206
  833 Fit      -0.017343
  834 Fit      -0.017392
  835 Fit      -0.015028
  836 Fit      -0.010790
  837 Fit       0.004251
  838 Fit       0.006152
  839 Fit      -0.001400
  840 Fit      -0.000959
  841 Fit      -0.010463
  842 Fit       0.013289
  843 Fit       0.012358
  844 Fit       0.013592
  845 Fit       0.011436
  846 Fit       0.011112
  847 Fit       0.015898
  848 Fit       0.009771
  849 Fit       0.010220
  850 Fit       0.012150
  851 Fit       0.007933
  852 Fit       0.007712
  853 Fit       0.008744
  854 Fit       0.010334
  855 Fit       0.012233
  856 Fit      -0.002739
  857 Fit       0.007297
  858 Fit      -0.000653
  859 Fit       0.000673
  860 Fit       0.001785
  861 Fit       0.001396
  862 Fit       0.003407
  863 Fit       0.014143
  864 Fit       0.017098
  865 Fit       0.021307
  866 Fit       0.006252
  867 Fit       0.006309
  868 Fit       0.009930
  869 Fit      -0.000127
  870 Fit       0.002211
  871 Fit      -0.003066
  872 Fit      -0.006140
  873 Fit      -0.014671
  874 Fit      -0.016397
  875 Fit      -0.017893
  876 Fit      -0.023699
  877 Fit      -0.024640
  878 Fit      -0.021467
  879 Fit      -0.017765
  880 Fit      -0.017823
  881 Fit      -0.025751
  882 Fit      -0.028856
  883 Fit      -0.028106
  884 Fit      -0.023951
  885 Fit      -0.024605
  886 Fit      -0.019966
  887 Fit      -0.015239
  888 Fit      -0.019732
  889 Fit      -0.024762
  890 Fit      -0.029029
  891 Fit      -0.030372
  892 Fit      -0.028607
  893 Fit      -0.026986
  894 Fit      -0.021659
  895 Fit      -0.022234
  896 Fit      -0.027432
  897 Fit      -0.029563
  898 Fit      -0.026092
  899 Fit      -0.015460
  900 Fit      -0.016493
  901 Fit      -0.016883
  902 Fit      -0.012113
  903 Fit      -0.018833
  904 Fit      -0.017105
  905 Fit      -0.011281
  906 Fit      -0.004676
  907 Fit      -0.001292
  908 Fit      -0.017327
  909 Fit      -0.019511
  910 Fit      -0.015717
  911 Fit      -0.007826
  912 Fit      -0.018477
  913 Fit      -0.019633
  914 Fit      -0.015710
  915 Fit      -0.007605
  916 Fit      -0.019518
  917 Fit      -0.017898
  918 Fit      -0.011054
  919 Fit      -0.018405
  920 Fit      -0.016286
  921 Fit      -0.009064
  922 Fit      -0.014559
  923 Fit      -0.007701
  924 Fit      -0.007679
  925 Fit       0.005129
  926 Fit       0.003643
  927 Fit       0.007004
  928 Fit       0.007857
  929 Fit       0.007569
  930 Fit       0.006528
  931 Fit       0.005127
  932 Fit       0.010015
  933 Fit       0.008871
  934 Fit       0.008066
  935 Fit       0.007042
  936 Fit       0.005936
  937 Fit       0.007677
  938 Fit       0.006491
  939 Fit       0.005153
  940 Fit       0.003504
  941 Fit       0.003763
  942 Fit       0.002532
  943 Fit       0.000345
  944 Fit       0.009338
  945 Fit       0.018005
  946 Fit       0.013262
  947 Fit       0.010785
  948 Fit       0.009915
  949 Fit       0.016734
  950 Fit       0.013306
  951 Fit       0.011140
  952 Fit       0.010126
  953 Fit       0.016539
  954 Fit       0.012606
  955 Fit       0.009897
  956 Fit       0.007578
  957 Fit       0.011733
  958 Fit       0.007657
  959 Fit       0.003366
  960 Fit      -0.001002
  961 Fit      -0.005625
  962 Fit       0.004364
  963 Fit       0.002504
  964 Fit      -0.000138
  965 Fit      -0.005185
  966 Fit      -0.013764
  967 Fit       0.003563
  968 Fit       0.001413
  969 Fit      -0.001914
  970 Fit      -0.008401
  971 Fit       0.000923
  972 Fit      -0.000869
  973 Fit      -0.004353
  974 Fit      -0.012113
  975 Fit      -0.004840
  976 Fit      -0.007048
  977 Fit      -0.014431
  978 Fit       0.003441
  979 Fit       0.005039
  980 Fit      -0.010991
  981 Fit      -0.013367
  982 Fit       0.011616
  983 Fit       0.011118
  984 Fit       0.010026
  985 Fit       0.010081
  986 Fit       0.008525
  987 Fit       0.008232
  988 Fit       0.008136
  989 Fit       0.008195
  990 Fit       0.008853
  991 Fit       0.005640
  992 Fit       0.005280
  993 Fit       0.004782
  994 Fit       0.004795
  995 Fit       0.005502
  996 Fit      -0.001863
  997 Fit      -0.002569
  998 Fit      -0.001660
  999 Fit       0.009748
 1000 Fit       0.008268
 1001 Fit       0.008552
 1002 Fit       0.009749
 1003 Fit       0.004603
 1004 Fit       0.006900
 1005 Fit       0.006604
 1006 Fit       0.007823
 1007 Fit       0.008755
 1008 Fit      -0.005076
 1009 Fit       0.000710
 1010 Fit       0.004400
 1011 Fit       0.002669
 1012 Fit       0.004334
 1013 Fit       0.004892
 1014 Fit      -0.009571
 1015 Fit      -0.001295
 1016 Fit      -0.005279
 1017 Fit       0.014970
 1018 Fit       0.013760
 1019 Fit       0.016520
 1020 Fit       0.018878
 1021 Fit       0.016465
 1022 Fit       0.012643
 1023 Fit       0.014728
 1024 Fit       0.018126
 1025 Fit       0.023030
 1026 Fit       0.027097
 1027 Fit       0.022933
 1028 Fit       0.013197
 1029 Fit       0.015936
 1030 Fit       0.020907
 1031 Fit       0.014223
 1032 Fit       0.019107
 1033 Fit      -0.011820
 1034 Fit      -0.002396
 1035 Fit      -0.018466
 1036 Fit      -0.007013
 1037 Fit      -0.000869
 1038 Fit      -0.000083
 1039 Fit      -0.003527
 1040 Fit      -0.007832
 1041 Fit      -0.012189
 1042 Fit      -0.003969
 1043 Fit       0.020875
 1044 Fit       0.014217
 1045 Fit       0.015510
 1046 Fit       0.016715
 1047 Fit       0.006189
 1048 Fit       0.010211
 1049 Fit       0.012034
 1050 Fit       0.012652
 1051 Fit       0.005522
 1052 Fit       0.008323
 1053 Fit       0.008988
 1054 Fit       0.006967
 1055 Fit       0.005296
 1056 Fit       0.005167
 1057 Fit       0.024831
 1058 Fit       0.027519
 1059 Fit       0.023815
 1060 Fit       0.018033
 1061 Fit       0.018850
 1062 Fit       0.026558
 1063 Fit       0.025396
 1064 Fit       0.021145
 1065 Fit       0.022557
 1066 Fit       0.023836
 1067 Fit       0.024700
 1068 Fit       0.006056
 1069 Fit       0.008308
 1070 Fit       0.001983
 1071 Fit       0.009297
 1072 Fit       0.011888
 1073 Fit       0.009843
 1074 Fit       0.005183
 1075 Fit       0.011341
 1076 Fit       0.012720
 1077 Fit       0.008668
 1078 Fit       0.007038
 1079 Fit       0.011425
 1080 Fit       0.009759
 1081 Fit       0.002029
 1082 Fit       0.008006
 1083 Fit       0.001530
 -----------------------------------------------------------------
 Leave Link  602 at Sat Feb 17 21:07:56 2018, MaxMem=   33554432 cpu:       0.4

 Test job not archived.
 1\1\GINC-NODE075\SP\RHF\6-31G(d)\C9H11N1O2\WULSDORT\17-Feb-2018\0\\#HF
 /6-31G* Geom=AllCheck Guess=Read Pop=(MK,ReadRadii) Integral=(Grid=Ult
 raFine) iop(6/33=2)\\Optimization for frag57-conf0\\0,1\C,0,2.46028702
 59,-0.9167672464,-0.0129682844\C,0,1.3412689655,-0.0962197316,0.163295
 3707\C,0,2.9091243397,-1.737626387,1.0162911729\C,0,1.112708587,-0.917
 22645,2.4255902455\C,0,0.661927103,-0.0943704391,1.3843780779\C,0,2.22
 92120669,-1.7344844766,2.2413512889\C,0,-2.3415794418,-0.4161605419,2.
 8461044292\C,0,-3.6050992528,-1.2565363055,2.7313336691\C,0,-0.5644899
 204,0.7746870827,1.5958286638\N,0,-1.8179954943,0.0236913775,1.6618676
 173\O,0,-1.8422013555,-0.1470768173,3.9345425604\O,0,2.708566697,-2.55
 2612997,3.2271044404\H,0,2.9881070486,-0.9144847624,-0.9630881539\H,0,
 1.0022989931,0.5446205451,-0.6471946684\H,0,3.7768260135,-2.3786430713
 ,0.8967475332\H,0,0.5819677458,-0.9108460631,3.3759191104\H,0,-3.39707
 52135,-2.2631085866,3.1087723035\H,0,-4.3744439416,-0.8199652084,3.374
 6619527\H,0,-3.9946311377,-1.3336883425,1.7113921518\H,0,-0.4906094663
 ,1.3175968665,2.5414578492\H,0,-0.6493019236,1.5089520639,0.787605972\
 H,0,-2.1846056665,-0.3568907376,0.8007252926\H,0,2.1553979835,-2.44538
 41118,4.0169033149\\Version=AM64L-G09RevC.01\State=1-A\HF=-551.4065698
 \RMSD=4.614e-09\Dipole=-0.8820008,-0.0647138,-1.1524694\Quadrupole=1.9
 566532,-1.9804951,0.0238419,2.8112789,2.8763332,-3.7415528\PG=C01 [X(C
 9H11N1O2)]\\@


 ASKING FOR EFFICIENCY AND ADAPTABILITY IN THE SAME PROGRAM IS LIKE
 ASKING FOR A BEAUTIFUL AND MODEST WIFE ...
 WE'LL PROBABLY HAVE TO SETTLE FOR ONE OR THE OTHER.

             -- THE PSYCHOLOGY OF COMPUTER PROGRAMMING
                GERALD M. WEINBERG
 Job cpu time:  0 days  0 hours  1 minutes 36.6 seconds.
 File lengths (MBytes):  RWF=     27 Int=      0 D2E=      0 Chk=      4 Scr=      1
 Normal termination of Gaussian 09 at Sat Feb 17 21:07:56 2018.
