 Entering Gaussian System, Link 0=g09
 Initial command:
 /home/fb_chem/chemsoft/lx24-amd64/Gaussian_09_C.01_NBO_3.1_64_istanbul-64/g09/l1.exe /local/2400004.1.parallel/Gau-31208.inp -scrdir=/local/2400004.1.parallel/
 Entering Link 1 = /home/fb_chem/chemsoft/lx24-amd64/Gaussian_09_C.01_NBO_3.1_64_istanbul-64/g09/l1.exe PID=     31209.
  
 Copyright (c) 1988,1990,1992,1993,1995,1998,2003,2009,2011,
            Gaussian, Inc.  All Rights Reserved.
  
 This is part of the Gaussian(R) 09 program.  It is based on
 the Gaussian(R) 03 system (copyright 2003, Gaussian, Inc.),
 the Gaussian(R) 98 system (copyright 1998, Gaussian, Inc.),
 the Gaussian(R) 94 system (copyright 1995, Gaussian, Inc.),
 the Gaussian 92(TM) system (copyright 1992, Gaussian, Inc.),
 the Gaussian 90(TM) system (copyright 1990, Gaussian, Inc.),
 the Gaussian 88(TM) system (copyright 1988, Gaussian, Inc.),
 the Gaussian 86(TM) system (copyright 1986, Carnegie Mellon
 University), and the Gaussian 82(TM) system (copyright 1983,
 Carnegie Mellon University). Gaussian is a federally registered
 trademark of Gaussian, Inc.
  
 This software contains proprietary and confidential information,
 including trade secrets, belonging to Gaussian, Inc.
  
 This software is provided under written license and may be
 used, copied, transmitted, or stored only in accord with that
 written license.
  
 The following legend is applicable only to US Government
 contracts under FAR:
  
                    RESTRICTED RIGHTS LEGEND
  
 Use, reproduction and disclosure by the US Government is
 subject to restrictions as set forth in subparagraphs (a)
 and (c) of the Commercial Computer Software - Restricted
 Rights clause in FAR 52.227-19.
  
 Gaussian, Inc.
 340 Quinnipiac St., Bldg. 40, Wallingford CT 06492
  
  
 ---------------------------------------------------------------
 Warning -- This program may not be used in any manner that
 competes with the business of Gaussian, Inc. or will provide
 assistance to any competitor of Gaussian, Inc.  The licensee
 of this program is prohibited from giving any competitor of
 Gaussian, Inc. access to this program.  By using this program,
 the user acknowledges that Gaussian, Inc. is engaged in the
 business of creating and licensing software in the field of
 computational chemistry and represents and warrants to the
 licensee that it is not a competitor of Gaussian, Inc. and that
 it will not use this program in any manner prohibited above.
 ---------------------------------------------------------------
  

 Cite this work as:
 Gaussian 09, Revision C.01,
 M. J. Frisch, G. W. Trucks, H. B. Schlegel, G. E. Scuseria, 
 M. A. Robb, J. R. Cheeseman, G. Scalmani, V. Barone, B. Mennucci, 
 G. A. Petersson, H. Nakatsuji, M. Caricato, X. Li, H. P. Hratchian, 
 A. F. Izmaylov, J. Bloino, G. Zheng, J. L. Sonnenberg, M. Hada, 
 M. Ehara, K. Toyota, R. Fukuda, J. Hasegawa, M. Ishida, T. Nakajima, 
 Y. Honda, O. Kitao, H. Nakai, T. Vreven, J. A. Montgomery, Jr., 
 J. E. Peralta, F. Ogliaro, M. Bearpark, J. J. Heyd, E. Brothers, 
 K. N. Kudin, V. N. Staroverov, T. Keith, R. Kobayashi, J. Normand, 
 K. Raghavachari, A. Rendell, J. C. Burant, S. S. Iyengar, J. Tomasi, 
 M. Cossi, N. Rega, J. M. Millam, M. Klene, J. E. Knox, J. B. Cross, 
 V. Bakken, C. Adamo, J. Jaramillo, R. Gomperts, R. E. Stratmann, 
 O. Yazyev, A. J. Austin, R. Cammi, C. Pomelli, J. W. Ochterski, 
 R. L. Martin, K. Morokuma, V. G. Zakrzewski, G. A. Voth, 
 P. Salvador, J. J. Dannenberg, S. Dapprich, A. D. Daniels, 
 O. Farkas, J. B. Foresman, J. V. Ortiz, J. Cioslowski, 
 and D. J. Fox, Gaussian, Inc., Wallingford CT, 2010.
 
 ******************************************
 Gaussian 09:  AM64L-G09RevC.01 23-Sep-2011
                17-Feb-2018 
 ******************************************
 %nprocs=2
 Will use up to    2 processors via shared memory.
 %chk=frag16-conf2.chk
 ----------------------------------------------------------------------
 #HF/6-31G* Geom=AllCheck Guess=Read Pop=(MK,ReadRadii) Integral=(Grid=
 UltraFine) iop(6/33=2)
 ----------------------------------------------------------------------
 1/29=7,38=1/1;
 2/12=2,40=1/2;
 3/5=1,6=6,7=1,11=9,14=-4,16=1,25=1,30=1,75=-5,116=-2/1,2,3;
 4/5=1/1;
 5/5=2,38=6/2;
 6/7=2,8=2,9=2,10=2,15=8,20=101,28=1,33=2/1,2;
 99/5=1,9=1/99;
 Structure from the checkpoint file:  frag16-conf2.chk
 -----------------------------
 Optimization for frag16-conf2
 -----------------------------
 Charge =  0 Multiplicity = 1
 Redundant internal coordinates found in file.
 C,0,5.4978625483,-2.7314862067,0.3403227747
 C,0,5.7212807028,-2.7349265109,-3.0468710053
 C,0,-0.6808500401,-2.7182394012,-0.7339167055
 C,0,0.5080485425,-2.0066059808,-0.0729704981
 C,0,-0.2757902353,-4.1060885423,-1.2510974556
 C,0,1.7232289958,-1.9269462642,-1.0117070354
 C,0,0.9334180796,-4.0215748768,-2.1945139153
 C,0,2.1388063323,-3.3135195729,-1.5437503765
 C,0,6.081530494,-3.6212696175,1.4263809616
 C,0,7.3627099154,-1.6607611312,-4.4807151626
 C,0,6.2429824318,-0.2919127504,-2.7480507862
 C,0,3.3154942297,-3.257329827,-2.5332504689
 C,0,4.6171958805,-2.6539669912,-1.9735882466
 N,0,5.0899756371,-3.3754999383,-0.7938391286
 N,0,6.3955804586,-1.5960203726,-3.3909055075
 O,0,5.3886554007,-1.5162324352,0.4926709611
 O,0,5.9637579979,-3.832051703,-3.5529524996
 H,0,-1.516079765,-2.802959842,-0.0267446956
 H,0,-1.0446000944,-2.1107606056,-1.576236071
 H,0,0.21879033,-0.9982887941,0.2497479695
 H,0,0.7939529586,-2.5530269117,0.8381376268
 H,0,-0.0237492,-4.7509733104,-0.3959929004
 H,0,-1.1200062569,-4.585200949,-1.7635882114
 H,0,1.4787600716,-1.2763735338,-1.8668116368
 H,0,2.5592260564,-1.453282953,-0.4830181219
 H,0,1.2272127948,-5.027039424,-2.5250333218
 H,0,0.6438030517,-3.4701593158,-3.1026833709
 H,0,2.4534264685,-3.9188422362,-0.6795391077
 H,0,7.1176340283,-3.3202068686,1.6117208315
 H,0,5.5237549157,-3.4550593627,2.3527374457
 H,0,6.0583488491,-4.6875236499,1.1817054891
 H,0,7.1111795318,-0.9245236987,-5.2547437085
 H,0,7.3392642599,-2.6634775536,-4.9047128097
 H,0,8.3744856346,-1.4447933459,-4.1136569442
 H,0,7.208776045,0.2225771221,-2.7839185375
 H,0,5.9644542342,-0.3909665957,-1.6978155849
 H,0,5.5068767846,0.3384440677,-3.2666075617
 H,0,3.5393998074,-4.2632091445,-2.9087799672
 H,0,3.024525033,-2.6631851977,-3.4121143244
 H,0,4.4356130651,-1.636378044,-1.6399409602
 H,0,5.3501787245,-4.3429395866,-0.9370882567
 Recover connectivity data from disk.
                          Input orientation:                          
 ---------------------------------------------------------------------
 Center     Atomic      Atomic             Coordinates (Angstroms)
 Number     Number       Type             X           Y           Z
 ---------------------------------------------------------------------
      1          6           0        5.497863   -2.731486    0.340323
      2          6           0        5.721281   -2.734927   -3.046871
      3          6           0       -0.680850   -2.718239   -0.733917
      4          6           0        0.508049   -2.006606   -0.072970
      5          6           0       -0.275790   -4.106089   -1.251097
      6          6           0        1.723229   -1.926946   -1.011707
      7          6           0        0.933418   -4.021575   -2.194514
      8          6           0        2.138806   -3.313520   -1.543750
      9          6           0        6.081530   -3.621270    1.426381
     10          6           0        7.362710   -1.660761   -4.480715
     11          6           0        6.242982   -0.291913   -2.748051
     12          6           0        3.315494   -3.257330   -2.533250
     13          6           0        4.617196   -2.653967   -1.973588
     14          7           0        5.089976   -3.375500   -0.793839
     15          7           0        6.395580   -1.596020   -3.390906
     16          8           0        5.388655   -1.516232    0.492671
     17          8           0        5.963758   -3.832052   -3.552952
     18          1           0       -1.516080   -2.802960   -0.026745
     19          1           0       -1.044600   -2.110761   -1.576236
     20          1           0        0.218790   -0.998289    0.249748
     21          1           0        0.793953   -2.553027    0.838138
     22          1           0       -0.023749   -4.750973   -0.395993
     23          1           0       -1.120006   -4.585201   -1.763588
     24          1           0        1.478760   -1.276374   -1.866812
     25          1           0        2.559226   -1.453283   -0.483018
     26          1           0        1.227213   -5.027039   -2.525033
     27          1           0        0.643803   -3.470159   -3.102683
     28          1           0        2.453426   -3.918842   -0.679539
     29          1           0        7.117634   -3.320207    1.611721
     30          1           0        5.523755   -3.455059    2.352737
     31          1           0        6.058349   -4.687524    1.181705
     32          1           0        7.111180   -0.924524   -5.254744
     33          1           0        7.339264   -2.663478   -4.904713
     34          1           0        8.374486   -1.444793   -4.113657
     35          1           0        7.208776    0.222577   -2.783919
     36          1           0        5.964454   -0.390967   -1.697816
     37          1           0        5.506877    0.338444   -3.266608
     38          1           0        3.539400   -4.263209   -2.908780
     39          1           0        3.024525   -2.663185   -3.412114
     40          1           0        4.435613   -1.636378   -1.639941
     41          1           0        5.350179   -4.342940   -0.937088
 ---------------------------------------------------------------------
                    Distance matrix (angstroms):
                    1          2          3          4          5
     1  C    0.000000
     2  C    3.394556   0.000000
     3  C    6.271416   6.807152   0.000000
     4  C    5.059101   6.045852   1.535172   0.000000
     5  C    6.144690   6.408568   1.535472   2.531840   0.000000
     6  C    4.089392   4.558414   2.546156   1.537607   2.966824
     7  C    5.378093   5.030468   2.537300   2.956685   1.536021
     8  C    3.895093   3.927883   2.993435   2.555501   2.558141
     9  C    1.520495   4.574425   7.156266   5.993237   6.915162
    10  C    5.278874   2.429821   8.936197   8.156850   8.646198
    11  C    4.005593   2.515906   7.608104   6.556348   7.699559
    12  C    3.646459   2.514860   4.415766   3.936882   3.906614
    13  C    2.477048   1.541912   5.441526   4.573458   5.154800
    14  N    1.366546   2.425909   5.808443   4.836071   5.434546
    15  N    4.002155   1.367533   7.641651   6.770547   7.442204
    16  O    1.229625   3.758219   6.307792   4.937686   6.467923
    17  O    4.072578   1.232314   7.303311   6.723637   6.656245
    18  H    7.023904   7.842524   1.097670   2.175641   2.176121
    19  H    6.845606   6.951942   1.100385   2.163648   2.162896
    20  H    5.557048   6.645375   2.176047   1.097507   3.486483
    21  H    4.733543   6.277335   2.161873   1.100198   2.814472
    22  H    5.925258   6.640555   2.162864   2.814019   1.100275
    23  H    7.187412   7.202329   2.176839   3.486818   1.097678
    24  H    4.810611   4.638847   2.833080   2.166422   3.385977
    25  H    3.308667   4.267850   3.487285   2.163709   3.957858
    26  H    5.631898   5.071759   3.489894   3.956365   2.174875
    27  H    5.996818   5.130737   2.816229   3.367429   2.162967
    28  H    3.423233   4.205329   3.356798   2.794471   2.794703
    29  H    2.141659   4.898452   8.165827   6.946247   7.967187
    30  H    2.138701   5.450998   6.969036   5.756682   6.859022
    31  H    2.201852   4.669808   7.277671   6.290260   6.810133
    32  H    6.096940   3.175544   9.185370   8.463038   8.984368
    33  H    5.559297   2.464661   9.039954   8.393016   8.568494
    34  H    5.456049   3.137192   9.749021   8.861355   9.492313
    35  H    4.627591   3.320936   8.665859   7.564274   8.780981
    36  H    3.138431   2.715370   7.106713   5.918004   7.276149
    37  H    4.736507   3.088666   7.351585   6.378625   7.566729
    38  H    4.091261   2.667456   4.992742   4.724740   4.162724
    39  H    4.494758   2.722323   4.572262   4.232450   4.200482
    40  H    2.499816   2.199819   5.307495   4.244788   5.333666
    41  H    2.061643   2.678545   6.249339   5.445308   5.639701
                    6          7          8          9         10
     6  C    0.000000
     7  C    2.531858   0.000000
     8  C    1.542193   1.542010   0.000000
     9  C    5.273499   6.306678   4.945853   0.000000
    10  C    6.626358   7.220523   6.216634   6.354431   0.000000
    11  C    5.110420   6.512162   5.236861   5.341963   2.475815
    12  C    2.572999   2.524500   1.538461   4.843768   4.766718
    13  C    3.135095   3.935655   2.600420   3.826191   3.848375
    14  N    3.671615   4.433540   3.045588   2.443964   4.658187
    15  N    5.253662   6.095071   4.947920   5.235123   1.458498
    16  O    3.983364   5.774673   4.235419   2.404802   5.352789
    17  O    5.298060   5.213981   4.351554   4.985184   2.744506
    18  H    3.497238   3.490600   3.990009   7.778489   9.998769
    19  H    2.830788   2.818871   3.403199   7.879028   8.906254
    20  H    2.171868   3.952894   3.501913   6.529641   8.593703
    21  H    2.162743   3.372397   2.839079   5.426385   8.499112
    22  H    3.377302   2.163994   2.839061   6.470836   8.988556
    23  H    3.964294   2.172538   3.505048   7.935187   9.375052
    24  H    1.101914   2.817963   2.165639   6.126104   6.449892
    25  H    1.096704   3.488351   2.182289   4.555502   6.252846
    26  H    3.485221   1.098416   2.174872   6.415159   7.266419
    27  H    2.814045   1.101230   2.165605   7.078428   7.093420
    28  H    2.147364   2.148518   1.101028   4.205542   6.606734
    29  H    6.158178   7.295469   5.894554   1.094760   6.319145
    30  H    5.300813   6.486110   5.163383   1.094018   7.300502
    31  H    5.587943   6.173108   4.967777   1.094213   6.551767
    32  H    6.930961   7.557875   6.648554   7.278052   1.097467
    33  H    6.872978   7.086923   6.226025   6.525489   1.088928
    34  H    7.354847   8.105085   6.998589   6.378614   1.097754
    35  H    6.152431   7.598707   6.304490   5.811408   2.539641
    36  H    4.562671   6.224094   4.816704   4.495461   3.363336
    37  H    4.953035   6.409031   5.258229   6.167147   2.985799
    38  H    3.515037   2.712877   2.174138   5.066373   4.884815
    39  H    2.827963   2.774978   2.167537   5.802951   4.578931
    40  H    2.799310   4.273416   2.845589   4.006391   4.079030
    41  H    4.358596   4.603495   3.426464   2.577144   4.878694
                   11         12         13         14         15
    11  C    0.000000
    12  C    4.172532   0.000000
    13  C    2.970231   1.540031   0.000000
    14  N    3.828430   2.487629   1.461485   0.000000
    15  N    1.461932   3.603117   2.508125   3.408211   0.000000
    16  O    3.568068   4.060248   2.823477   2.280613   4.012783
    17  O    3.641211   2.895410   2.386526   2.929956   2.283104
    18  H    8.597320   5.461971   6.436573   6.675043   8.681512
    19  H    7.601988   4.608787   5.701657   6.312268   7.675563
    20  H    6.765845   4.736868   5.199083   5.519842   7.194746
    21  H    6.904007   4.268544   4.746912   4.668578   7.083707
    22  H    8.042843   4.236672   5.331474   5.310404   7.754420
    23  H    8.579924   4.693537   6.057165   6.400599   8.250297
    24  H    4.944043   2.782431   3.429132   4.312595   5.157534
    25  H    4.477635   2.833722   2.810459   3.193152   4.815994
    26  H    6.901384   2.737309   4.174632   4.543738   6.263677
    27  H    6.448087   2.739979   4.210567   5.010806   6.056270
    28  H    5.638625   2.148722   2.820704   2.694379   5.318608
    29  H    5.379887   5.625034   4.421596   3.146613   5.340454
    30  H    6.044901   5.365481   4.492293   3.177332   6.099634
    31  H    5.899023   4.834212   4.020964   2.561626   5.529909
    32  H    2.727173   5.220703   4.469554   5.476515   2.106391
    33  H    3.387823   4.708208   4.000155   4.739785   2.078850
    34  H    2.781604   5.601461   4.489902   5.053397   2.112180
    35  H    1.094872   5.227832   3.955683   4.625569   2.082551
    36  H    1.091047   3.991363   2.648080   3.238723   2.122399
    37  H    1.099137   4.274291   3.379046   4.481269   2.132463
    38  H    4.806910   1.096790   2.150788   2.768626   3.937526
    39  H    4.052454   1.100033   2.146169   3.410109   3.536001
    40  H    2.510394   2.163366   1.086177   2.041721   2.628493
    41  H    4.526312   2.804679   2.112871   1.012011   3.828792
                   16         17         18         19         20
    16  O    0.000000
    17  O    4.696896   0.000000
    18  H    7.042786   8.333135   0.000000
    19  H    6.783850   7.482468   1.761351   0.000000
    20  H    5.201421   7.449523   2.518543   2.483539   0.000000
    21  H    4.722878   6.902497   2.479262   3.066770   1.759041
    22  H    6.367684   6.830890   2.481562   3.066893   3.815553
    23  H    7.541349   7.344983   2.519897   2.482668   4.325718
    24  H    4.572961   5.430448   3.832151   2.673571   2.478846
    25  H    2.993594   5.164676   4.317167   3.822952   2.494315
    26  H    6.224943   4.991941   4.325925   3.816547   4.994713
    27  H    6.265623   5.351227   3.817283   2.651172   4.186834
    28  H    3.970161   4.537231   4.174723   4.038492   3.792994
    29  H    2.737876   5.316697   8.803018   8.845784   7.405425
    30  H    2.690195   5.934046   7.459654   7.770924   6.212965
    31  H    3.313660   4.812252   7.898348   8.043496   6.969895
    32  H    6.029095   3.558987  10.261096   9.025260   8.820992
    33  H    5.852589   2.254959  10.110942   9.037336   8.946646
    34  H    5.489858   3.438750  10.787528   9.777586   9.260347
    35  H    4.131868   4.310626   9.637375   8.661477   7.717094
    36  H    2.529031   3.909297   8.035458   7.217986   6.097089
    37  H    4.193564   4.205207   8.347877   7.195680   6.489643
    38  H    4.747157   2.545264   5.999694   5.236579   5.626940
    39  H    4.706587   3.166256   5.665453   4.498155   4.904413
    40  H    2.338965   3.288742   6.275824   5.501076   4.664727
    41  H    3.167959   2.735001   7.095475   6.803259   6.239104
                   21         22         23         24         25
    21  H    0.000000
    22  H    2.650035   0.000000
    23  H    3.816012   1.760562   0.000000
    24  H    3.068478   4.061242   4.208632   0.000000
    25  H    2.463956   4.189761   4.998552   1.764536   0.000000
    26  H    4.197543   2.484740   2.506882   3.816284   4.326179
    27  H    4.048919   3.067945   2.479419   2.652777   3.820901
    28  H    2.631092   2.628543   3.793233   3.056506   2.475641
    29  H    6.416848   7.554956   8.991754   6.933566   5.352795
    30  H    5.047643   6.325323   7.896893   6.238049   4.564762
    31  H    5.691044   6.283715   7.759768   6.473178   5.047324
    32  H    8.926510   9.442266   9.661322   6.582251   6.615832
    33  H    8.708251   8.882576   9.225993   6.745251   6.623045
    34  H    9.122112   9.761260  10.272797   7.254496   6.855571
    35  H    7.872307   9.096583   9.670802   5.993415   5.451694
    36  H    6.151394   7.520836   8.233196   4.575364   3.768266
    37  H    6.886304   8.045522   8.391479   4.559911   4.432528
    38  H    4.949908   4.387259   4.808868   3.775331   3.839368
    39  H    4.801274   4.769468   4.856843   2.588551   3.203119
    40  H    4.499201   5.579787   6.290926   2.987315   2.211973
    41  H    5.207150   5.416491   6.527257   5.025544   4.042983
                   26         27         28         29         30
    26  H    0.000000
    27  H    1.760092   0.000000
    28  H    2.477408   3.057398   0.000000
    29  H    7.397505   8.009905   5.230972   0.000000
    30  H    6.687604   7.319547   4.340128   1.762879   0.000000
    31  H    6.098775   7.011082   4.129233   1.782289   1.782155
    32  H    7.674830   7.275891   7.182834   7.272391   8.172961
    33  H    6.971834   6.980490   6.580231   6.553192   7.522849
    34  H    8.151056   8.055286   7.278257   6.154413   7.347251
    35  H    7.962700   7.539017   6.647790   5.646350   6.538313
    36  H    6.679739   6.305903   5.080365   4.567637   5.098025
    37  H    6.903178   6.179144   5.843027   6.307008   6.779970
    38  H    2.465138   3.008489   2.503486   5.841912   5.681051
    39  H    3.099202   2.532744   3.061012   6.513381   6.332987
    40  H    4.751190   4.458721   3.171920   4.538923   4.520303
    41  H    4.470840   5.253715   2.938939   3.265931   3.411952
                   31         32         33         34         35
    31  H    0.000000
    32  H    7.529708   0.000000
    33  H    6.540795   1.788436   0.000000
    34  H    6.627266   1.780085   1.783997   0.000000
    35  H    6.415508   2.725865   3.583868   2.430475   0.000000
    36  H    5.173090   3.775103   4.163964   3.571427   1.761929
    37  H    6.734387   2.849835   3.879764   3.481466   1.772816
    38  H    4.822574   5.422912   4.580596   5.724793   5.796740
    39  H    5.865596   4.808219   4.565613   5.531611   5.121544
    40  H    4.461440   4.553262   4.488302   4.655179   3.529140
    41  H    2.260427   5.781768   4.745429   5.257021   5.263944
                   36         37         38         39         40
    36  H    0.000000
    37  H    1.789560   0.000000
    38  H    4.726689   5.017392   0.000000
    39  H    4.092063   3.897823   1.754571   0.000000
    40  H    1.972753   2.773729   3.051785   2.487187   0.000000
    41  H    4.071134   5.231306   2.678217   3.788930   2.942092
                   41
    41  H    0.000000
 Stoichiometry    C13H24N2O2
 Framework group  C1[X(C13H24N2O2)]
 Deg. of freedom   117
 Full point group                 C1      NOp   1
 Largest Abelian subgroup         C1      NOp   1
 Largest concise Abelian subgroup C1      NOp   1
                         Standard orientation:                         
 ---------------------------------------------------------------------
 Center     Atomic      Atomic             Coordinates (Angstroms)
 Number     Number       Type             X           Y           Z
 ---------------------------------------------------------------------
      1          6           0       -1.010526    2.298538   -0.184658
      2          6           0       -2.115869   -0.897719   -0.476494
      3          6           0        4.570496   -0.419450    0.707186
      4          6           0        3.495252    0.518816    1.273100
      5          6           0        4.284972   -0.764491   -0.761520
      6          6           0        2.080202   -0.055013    1.092577
      7          6           0        2.873533   -1.344595   -0.936685
      8          6           0        1.780552   -0.411518   -0.377619
      9          6           0       -1.127123    3.528911   -1.070373
     10          6           0       -4.235084   -1.861454    0.219331
     11          6           0       -2.947019   -0.541824    1.871337
     12          6           0        0.392639   -1.043949   -0.579087
     13          6           0       -0.798062   -0.169062   -0.144924
     14          7           0       -0.813204    1.116101   -0.840673
     15          7           0       -3.040204   -1.079075    0.514900
     16          8           0       -1.072892    2.378608    1.040771
     17          8           0       -2.293434   -1.285183   -1.632755
     18          1           0        5.564536    0.035438    0.806387
     19          1           0        4.590510   -1.346959    1.298940
     20          1           0        3.683925    0.719875    2.335408
     21          1           0        3.556942    1.489409    0.758729
     22          1           0        4.380749    0.145985   -1.371819
     23          1           0        5.032646   -1.473037   -1.140786
     24          1           0        1.976269   -0.963596    1.707303
     25          1           0        1.345530    0.667033    1.468965
     26          1           0        2.678010   -1.552005   -1.997472
     27          1           0        2.815294   -2.313525   -0.416598
     28          1           0        1.812599    0.523584   -0.957981
     29          1           0       -2.113103    3.980541   -0.920792
     30          1           0       -0.381280    4.262651   -0.750654
     31          1           0       -0.988705    3.319466   -2.135397
     32          1           0       -4.325457   -2.696581    0.925610
     33          1           0       -4.154517   -2.245332   -0.796499
     34          1           0       -5.135571   -1.239142    0.302482
     35          1           0       -3.960833   -0.328524    2.225494
     36          1           0       -2.388613    0.395179    1.895690
     37          1           0       -2.491901   -1.260197    2.567692
     38          1           0        0.251670   -1.313685   -1.632804
     39          1           0        0.336167   -1.986356   -0.014505
     40          1           0       -0.710318    0.071584    0.910619
     41          1           0       -0.933869    1.078473   -1.844759
 ---------------------------------------------------------------------
 Rotational constants (GHZ):      0.6316626      0.2590433      0.2239919
 Standard basis: 6-31G(d) (6D, 7F)
 There are   303 symmetry adapted basis functions of A   symmetry.
 Integral buffers will be    131072 words long.
 Raffenetti 1 integral format.
 Two-electron integral symmetry is turned on.
   303 basis functions,   572 primitive gaussians,   303 cartesian basis functions
    66 alpha electrons       66 beta electrons
       nuclear repulsion energy      1303.8549762267 Hartrees.
 NAtoms=   41 NActive=   41 NUniq=   41 SFac= 1.00D+00 NAtFMM=   60 NAOKFM=F Big=F
 One-electron integrals computed using PRISM.
 NBasis=   303 RedAO= T  NBF=   303
 NBsUse=   303 1.00D-06 NBFU=   303
 Initial guess read from the checkpoint file:  frag16-conf2.chk
 B after Tr=     0.000000    0.000000    0.000000
         Rot=    1.000000    0.000000    0.000000    0.000000 Ang=   0.00 deg.
 Initial guess orbital symmetries:
       Occupied  (A) (A) (A) (A) (A) (A) (A) (A) (A) (A) (A) (A)
                 (A) (A) (A) (A) (A) (A) (A) (A) (A) (A) (A) (A)
                 (A) (A) (A) (A) (A) (A) (A) (A) (A) (A) (A) (A)
                 (A) (A) (A) (A) (A) (A) (A) (A) (A) (A) (A) (A)
                 (A) (A) (A) (A) (A) (A) (A) (A) (A) (A) (A) (A)
                 (A) (A) (A) (A) (A) (A)
       Virtual   (A) (A) (A) (A) (A) (A) (A) (A) (A) (A) (A) (A)
                 (A) (A) (A) (A) (A) (A) (A) (A) (A) (A) (A) (A)
                 (A) (A) (A) (A) (A) (A) (A) (A) (A) (A) (A) (A)
                 (A) (A) (A) (A) (A) (A) (A) (A) (A) (A) (A) (A)
                 (A) (A) (A) (A) (A) (A) (A) (A) (A) (A) (A) (A)
                 (A) (A) (A) (A) (A) (A) (A) (A) (A) (A) (A) (A)
                 (A) (A) (A) (A) (A) (A) (A) (A) (A) (A) (A) (A)
                 (A) (A) (A) (A) (A) (A) (A) (A) (A) (A) (A) (A)
                 (A) (A) (A) (A) (A) (A) (A) (A) (A) (A) (A) (A)
                 (A) (A) (A) (A) (A) (A) (A) (A) (A) (A) (A) (A)
                 (A) (A) (A) (A) (A) (A) (A) (A) (A) (A) (A) (A)
                 (A) (A) (A) (A) (A) (A) (A) (A) (A) (A) (A) (A)
                 (A) (A) (A) (A) (A) (A) (A) (A) (A) (A) (A) (A)
                 (A) (A) (A) (A) (A) (A) (A) (A) (A) (A) (A) (A)
                 (A) (A) (A) (A) (A) (A) (A) (A) (A) (A) (A) (A)
                 (A) (A) (A) (A) (A) (A) (A) (A) (A) (A) (A) (A)
                 (A) (A) (A) (A) (A) (A) (A) (A) (A) (A) (A) (A)
                 (A) (A) (A) (A) (A) (A) (A) (A) (A) (A) (A) (A)
                 (A) (A) (A) (A) (A) (A) (A) (A) (A) (A) (A) (A)
                 (A) (A) (A) (A) (A) (A) (A) (A) (A)
 Requested convergence on RMS density matrix=1.00D-08 within 128 cycles.
 Requested convergence on MAX density matrix=1.00D-06.
 Requested convergence on             energy=1.00D-06.
 No special actions if energy rises.
 SCF Done:  E(RHF) =  -764.922569703     A.U. after   13 cycles
             Convg  =    0.8418D-08             -V/T =  2.0022

 **********************************************************************

            Population analysis using the SCF density.

 **********************************************************************

 Orbital symmetries:
 BldTbl:  Degeneracy threshold= 1.00D-02
       Occupied  (A) (A) (A) (A) (A) (A) (A) (A) (A) (A) (A) (A)
                 (A) (A) (A) (A) (A) (A) (A) (A) (A) (A) (A) (A)
                 (A) (A) (A) (A) (A) (A) (A) (A) (A) (A) (A) (A)
                 (A) (A) (A) (A) (A) (A) (A) (A) (A) (A) (A) (A)
                 (A) (A) (A) (A) (A) (A) (A) (A) (A) (A) (A) (A)
                 (A) (A) (A) (A) (A) (A)
       Virtual   (A) (A) (A) (A) (A) (A) (A) (A) (A) (A) (A) (A)
                 (A) (A) (A) (A) (A) (A) (A) (A) (A) (A) (A) (A)
                 (A) (A) (A) (A) (A) (A) (A) (A) (A) (A) (A) (A)
                 (A) (A) (A) (A) (A) (A) (A) (A) (A) (A) (A) (A)
                 (A) (A) (A) (A) (A) (A) (A) (A) (A) (A) (A) (A)
                 (A) (A) (A) (A) (A) (A) (A) (A) (A) (A) (A) (A)
                 (A) (A) (A) (A) (A) (A) (A) (A) (A) (A) (A) (A)
                 (A) (A) (A) (A) (A) (A) (A) (A) (A) (A) (A) (A)
                 (A) (A) (A) (A) (A) (A) (A) (A) (A) (A) (A) (A)
                 (A) (A) (A) (A) (A) (A) (A) (A) (A) (A) (A) (A)
                 (A) (A) (A) (A) (A) (A) (A) (A) (A) (A) (A) (A)
                 (A) (A) (A) (A) (A) (A) (A) (A) (A) (A) (A) (A)
                 (A) (A) (A) (A) (A) (A) (A) (A) (A) (A) (A) (A)
                 (A) (A) (A) (A) (A) (A) (A) (A) (A) (A) (A) (A)
                 (A) (A) (A) (A) (A) (A) (A) (A) (A) (A) (A) (A)
                 (A) (A) (A) (A) (A) (A) (A) (A) (A) (A) (A) (A)
                 (A) (A) (A) (A) (A) (A) (A) (A) (A) (A) (A) (A)
                 (A) (A) (A) (A) (A) (A) (A) (A) (A) (A) (A) (A)
                 (A) (A) (A) (A) (A) (A) (A) (A) (A) (A) (A) (A)
                 (A) (A) (A) (A) (A) (A) (A) (A) (A)
 The electronic state is 1-A.
 Alpha  occ. eigenvalues --  -20.52815 -20.52001 -15.59562 -15.59451 -11.36203
 Alpha  occ. eigenvalues --  -11.35004 -11.27774 -11.26357 -11.25486 -11.24301
 Alpha  occ. eigenvalues --  -11.22561 -11.22435 -11.21686 -11.21630 -11.21557
 Alpha  occ. eigenvalues --  -11.21502 -11.21405  -1.38058  -1.37102  -1.23995
 Alpha  occ. eigenvalues --   -1.23457  -1.11814  -1.05833  -1.01315  -0.99762
 Alpha  occ. eigenvalues --   -0.98092  -0.96580  -0.93423  -0.87123  -0.82821
 Alpha  occ. eigenvalues --   -0.79848  -0.79291  -0.75070  -0.74219  -0.70571
 Alpha  occ. eigenvalues --   -0.66728  -0.66102  -0.64904  -0.63844  -0.63465
 Alpha  occ. eigenvalues --   -0.61871  -0.60663  -0.60028  -0.59229  -0.57978
 Alpha  occ. eigenvalues --   -0.57513  -0.56521  -0.56146  -0.55767  -0.54802
 Alpha  occ. eigenvalues --   -0.53258  -0.52388  -0.52065  -0.51829  -0.51110
 Alpha  occ. eigenvalues --   -0.49733  -0.48303  -0.47741  -0.46821  -0.44707
 Alpha  occ. eigenvalues --   -0.42748  -0.42345  -0.42228  -0.41966  -0.38220
 Alpha  occ. eigenvalues --   -0.36752
 Alpha virt. eigenvalues --    0.17691   0.20140   0.21949   0.22940   0.23466
 Alpha virt. eigenvalues --    0.24805   0.26141   0.27006   0.27786   0.28920
 Alpha virt. eigenvalues --    0.29613   0.30428   0.30540   0.31391   0.31472
 Alpha virt. eigenvalues --    0.32013   0.32408   0.32794   0.32848   0.33016
 Alpha virt. eigenvalues --    0.33378   0.33665   0.34357   0.34743   0.35772
 Alpha virt. eigenvalues --    0.36607   0.37358   0.38229   0.39413   0.40778
 Alpha virt. eigenvalues --    0.41466   0.41956   0.43315   0.45084   0.45736
 Alpha virt. eigenvalues --    0.47105   0.47668   0.47967   0.50645   0.51492
 Alpha virt. eigenvalues --    0.55947   0.60157   0.64243   0.68464   0.70632
 Alpha virt. eigenvalues --    0.71640   0.73019   0.74024   0.74399   0.75041
 Alpha virt. eigenvalues --    0.75335   0.75943   0.76272   0.78007   0.78978
 Alpha virt. eigenvalues --    0.80654   0.81507   0.83943   0.85831   0.87420
 Alpha virt. eigenvalues --    0.88004   0.90082   0.91508   0.92086   0.92799
 Alpha virt. eigenvalues --    0.94283   0.94751   0.95653   0.96607   0.97660
 Alpha virt. eigenvalues --    0.97713   0.99417   1.00585   1.00884   1.02510
 Alpha virt. eigenvalues --    1.04111   1.05881   1.06852   1.07302   1.08891
 Alpha virt. eigenvalues --    1.09070   1.09748   1.11116   1.11393   1.12488
 Alpha virt. eigenvalues --    1.13372   1.13732   1.14306   1.15352   1.15786
 Alpha virt. eigenvalues --    1.16200   1.16622   1.17555   1.17924   1.18508
 Alpha virt. eigenvalues --    1.19461   1.20328   1.20483   1.20979   1.21568
 Alpha virt. eigenvalues --    1.22230   1.22759   1.23867   1.24151   1.24484
 Alpha virt. eigenvalues --    1.25353   1.25683   1.26952   1.28755   1.32103
 Alpha virt. eigenvalues --    1.33085   1.36291   1.37773   1.38914   1.41744
 Alpha virt. eigenvalues --    1.43251   1.43570   1.47167   1.48302   1.50376
 Alpha virt. eigenvalues --    1.52895   1.55292   1.56310   1.62113   1.62942
 Alpha virt. eigenvalues --    1.63356   1.65533   1.66304   1.68683   1.69395
 Alpha virt. eigenvalues --    1.72121   1.73999   1.78154   1.78817   1.82406
 Alpha virt. eigenvalues --    1.83843   1.84738   1.88350   1.92173   1.93486
 Alpha virt. eigenvalues --    1.98380   1.98899   2.01292   2.02179   2.04208
 Alpha virt. eigenvalues --    2.04498   2.08303   2.09899   2.11859   2.13978
 Alpha virt. eigenvalues --    2.14546   2.15494   2.18005   2.18401   2.20129
 Alpha virt. eigenvalues --    2.20947   2.22018   2.23574   2.23874   2.24659
 Alpha virt. eigenvalues --    2.26814   2.27379   2.28923   2.29421   2.30050
 Alpha virt. eigenvalues --    2.31990   2.32914   2.34827   2.35260   2.36184
 Alpha virt. eigenvalues --    2.38114   2.39119   2.41157   2.42102   2.43839
 Alpha virt. eigenvalues --    2.44609   2.49120   2.51542   2.53712   2.54217
 Alpha virt. eigenvalues --    2.54884   2.55136   2.57160   2.58387   2.61151
 Alpha virt. eigenvalues --    2.64083   2.65893   2.67312   2.68110   2.69845
 Alpha virt. eigenvalues --    2.71533   2.71854   2.74048   2.74749   2.75585
 Alpha virt. eigenvalues --    2.76312   2.77793   2.81895   2.85186   2.86204
 Alpha virt. eigenvalues --    2.90649   2.93465   2.95179   2.98216   2.98701
 Alpha virt. eigenvalues --    3.00370   3.04213   3.05795   3.06725   3.07763
 Alpha virt. eigenvalues --    3.09483   3.13147   3.18614   3.23094   3.27690
 Alpha virt. eigenvalues --    3.31134   3.36513   3.39567   3.51614   3.56227
 Alpha virt. eigenvalues --    4.40563   4.44790   4.48979   4.56430   4.60093
 Alpha virt. eigenvalues --    4.64910   4.68258   4.68390   4.70389   4.78191
 Alpha virt. eigenvalues --    4.82862   4.87154   4.92922   4.98587   5.00167
 Alpha virt. eigenvalues --    5.06358   5.16383
          Condensed to atoms (all electrons):
              1          2          3          4          5          6
     1  C    4.166295  -0.000059   0.000000  -0.000002   0.000000  -0.000186
     2  C   -0.000059   4.167478   0.000000   0.000001   0.000001  -0.000031
     3  C    0.000000   0.000000   5.106471   0.340111   0.340218  -0.055154
     4  C   -0.000002   0.000001   0.340111   5.090814  -0.057271   0.340321
     5  C    0.000000   0.000001   0.340218  -0.057271   5.095391  -0.003379
     6  C   -0.000186  -0.000031  -0.055154   0.340321  -0.003379   5.157731
     7  C   -0.000005  -0.000043  -0.055388  -0.004321   0.340965  -0.056403
     8  C    0.000122   0.003956  -0.004349  -0.047411  -0.049350   0.337272
     9  C    0.359315  -0.000198   0.000000   0.000000   0.000000  -0.000017
    10  C   -0.000014  -0.032474   0.000000   0.000000   0.000000   0.000000
    11  C   -0.000324  -0.024035   0.000000   0.000000   0.000000   0.000002
    12  C    0.001705  -0.052339  -0.000357   0.003771   0.004047  -0.055976
    13  C   -0.029877   0.365915   0.000007   0.000038  -0.000090  -0.001016
    14  N    0.282234  -0.060540   0.000001  -0.000051   0.000003   0.001669
    15  N    0.000713   0.309296   0.000000   0.000000   0.000000  -0.000003
    16  O    0.561831   0.000385   0.000000   0.000003   0.000000  -0.001271
    17  O    0.000130   0.556414   0.000000   0.000000   0.000000  -0.000005
    18  H    0.000000   0.000000   0.403005  -0.037467  -0.037679   0.004315
    19  H    0.000000   0.000000   0.394491  -0.043157  -0.043294  -0.002846
    20  H    0.000000   0.000000  -0.037398   0.403618   0.004382  -0.037933
    21  H    0.000010   0.000000  -0.044040   0.396427  -0.003018  -0.043680
    22  H    0.000000   0.000000  -0.043648  -0.002946   0.395878   0.000467
    23  H    0.000000   0.000000  -0.037069   0.004358   0.402770  -0.000385
    24  H    0.000002  -0.000061  -0.003033  -0.041040   0.000382   0.388877
    25  H    0.000847   0.000151   0.003882  -0.034586  -0.000290   0.398529
    26  H    0.000000  -0.000001   0.004184  -0.000336  -0.035616   0.004426
    27  H    0.000000  -0.000010  -0.003181   0.000417  -0.041614  -0.003242
    28  H    0.000119  -0.000144   0.000193  -0.002387  -0.002205  -0.045344
    29  H   -0.027515   0.000024   0.000000   0.000000   0.000000   0.000000
    30  H   -0.027790  -0.000002   0.000000   0.000000   0.000000   0.000000
    31  H   -0.039305  -0.000016   0.000000   0.000000   0.000000   0.000002
    32  H    0.000000   0.001413   0.000000   0.000000   0.000000   0.000000
    33  H    0.000000  -0.004329   0.000000   0.000000   0.000000   0.000000
    34  H   -0.000001   0.001097   0.000000   0.000000   0.000000   0.000000
    35  H   -0.000016   0.001175   0.000000   0.000000   0.000000   0.000000
    36  H   -0.000192  -0.000713   0.000000   0.000000   0.000000  -0.000019
    37  H    0.000027  -0.000147   0.000000   0.000000   0.000000   0.000003
    38  H   -0.000072  -0.004322   0.000001  -0.000074  -0.000015   0.003861
    39  H   -0.000025  -0.002153   0.000012  -0.000081  -0.000026  -0.003611
    40  H   -0.001122  -0.036357   0.000000  -0.000010  -0.000001   0.001068
    41  H   -0.013644  -0.000682   0.000000   0.000000   0.000000  -0.000014
              7          8          9         10         11         12
     1  C   -0.000005   0.000122   0.359315  -0.000014  -0.000324   0.001705
     2  C   -0.000043   0.003956  -0.000198  -0.032474  -0.024035  -0.052339
     3  C   -0.055388  -0.004349   0.000000   0.000000   0.000000  -0.000357
     4  C   -0.004321  -0.047411   0.000000   0.000000   0.000000   0.003771
     5  C    0.340965  -0.049350   0.000000   0.000000   0.000000   0.004047
     6  C   -0.056403   0.337272  -0.000017   0.000000   0.000002  -0.055976
     7  C    5.119072   0.356830   0.000000   0.000000   0.000000  -0.058237
     8  C    0.356830   5.101842  -0.000004   0.000002  -0.000003   0.350619
     9  C    0.000000  -0.000004   5.241874   0.000000  -0.000039  -0.000126
    10  C    0.000000   0.000002   0.000000   4.964373  -0.042925  -0.000118
    11  C    0.000000  -0.000003  -0.000039  -0.042925   5.004284   0.000367
    12  C   -0.058237   0.350619  -0.000126  -0.000118   0.000367   5.135428
    13  C    0.004015  -0.046728   0.004807   0.003805  -0.002688   0.348518
    14  N    0.000026  -0.006366  -0.099772  -0.000163   0.000795  -0.061334
    15  N    0.000000  -0.000069   0.000005   0.216750   0.203164   0.000255
    16  O    0.000000   0.000043  -0.067612   0.000000  -0.004873   0.000316
    17  O   -0.000002   0.000158  -0.000010  -0.007253   0.001673  -0.000745
    18  H    0.004402  -0.000265   0.000000   0.000000   0.000000   0.000009
    19  H   -0.003108   0.000241   0.000000   0.000000   0.000000  -0.000057
    20  H   -0.000351   0.004143   0.000000   0.000000   0.000000  -0.000076
    21  H    0.000422  -0.003593   0.000000   0.000000   0.000000  -0.000098
    22  H   -0.043726  -0.003521   0.000000   0.000000   0.000000  -0.000122
    23  H   -0.037921   0.004241   0.000000   0.000000   0.000000  -0.000087
    24  H   -0.003262  -0.046676   0.000000   0.000000  -0.000001  -0.002858
    25  H    0.003846  -0.034498   0.000050   0.000000  -0.000009  -0.003800
    26  H    0.400396  -0.039378   0.000000   0.000000   0.000000  -0.003237
    27  H    0.391498  -0.043623   0.000000   0.000000   0.000000  -0.004612
    28  H   -0.045874   0.402091   0.000048   0.000000   0.000000  -0.041974
    29  H    0.000000   0.000000   0.379811   0.000000   0.000001  -0.000001
    30  H    0.000000   0.000002   0.380970   0.000000   0.000000   0.000009
    31  H    0.000000  -0.000002   0.375966   0.000000   0.000001  -0.000016
    32  H    0.000000   0.000000   0.000000   0.398993  -0.001031   0.000017
    33  H    0.000000   0.000000   0.000000   0.395824   0.003044  -0.000014
    34  H    0.000000   0.000000   0.000000   0.399297  -0.002777  -0.000003
    35  H    0.000000   0.000000   0.000000  -0.004343   0.400943  -0.000015
    36  H    0.000000   0.000008   0.000118   0.002657   0.390455   0.000128
    37  H    0.000000  -0.000001   0.000000   0.000745   0.394559   0.000216
    38  H   -0.003735  -0.040755  -0.000002  -0.000002  -0.000021   0.399744
    39  H   -0.003633  -0.035480   0.000002  -0.000022  -0.000053   0.389072
    40  H   -0.000061  -0.004625   0.000343  -0.000126  -0.002921  -0.029524
    41  H   -0.000020  -0.000081  -0.000061   0.000000  -0.000023  -0.000587
             13         14         15         16         17         18
     1  C   -0.029877   0.282234   0.000713   0.561831   0.000130   0.000000
     2  C    0.365915  -0.060540   0.309296   0.000385   0.556414   0.000000
     3  C    0.000007   0.000001   0.000000   0.000000   0.000000   0.403005
     4  C    0.000038  -0.000051   0.000000   0.000003   0.000000  -0.037467
     5  C   -0.000090   0.000003   0.000000   0.000000   0.000000  -0.037679
     6  C   -0.001016   0.001669  -0.000003  -0.001271  -0.000005   0.004315
     7  C    0.004015   0.000026   0.000000   0.000000  -0.000002   0.004402
     8  C   -0.046728  -0.006366  -0.000069   0.000043   0.000158  -0.000265
     9  C    0.004807  -0.099772   0.000005  -0.067612  -0.000010   0.000000
    10  C    0.003805  -0.000163   0.216750   0.000000  -0.007253   0.000000
    11  C   -0.002688   0.000795   0.203164  -0.004873   0.001673   0.000000
    12  C    0.348518  -0.061334   0.000255   0.000316  -0.000745   0.000009
    13  C    5.126029   0.190695  -0.086425   0.000863  -0.085713   0.000000
    14  N    0.190695   7.359268   0.001740  -0.095125  -0.000436   0.000000
    15  N   -0.086425   0.001740   7.366833  -0.000032  -0.092232   0.000000
    16  O    0.000863  -0.095125  -0.000032   8.217718  -0.000002   0.000000
    17  O   -0.085713  -0.000436  -0.092232  -0.000002   8.259133   0.000000
    18  H    0.000000   0.000000   0.000000   0.000000   0.000000   0.543200
    19  H    0.000001   0.000000   0.000000   0.000000   0.000000  -0.028999
    20  H    0.000000   0.000000   0.000000   0.000000   0.000000  -0.002206
    21  H   -0.000004   0.000000   0.000000   0.000002   0.000000  -0.003144
    22  H    0.000003  -0.000003   0.000000   0.000000   0.000000  -0.003098
    23  H    0.000001   0.000000   0.000000   0.000000   0.000000  -0.002223
    24  H   -0.000379   0.000025   0.000000   0.000010   0.000000  -0.000091
    25  H   -0.001098  -0.000934  -0.000005   0.004493  -0.000002  -0.000078
    26  H   -0.000083   0.000019   0.000000   0.000000  -0.000004  -0.000085
    27  H   -0.000041  -0.000008   0.000000   0.000000   0.000000  -0.000086
    28  H   -0.006131   0.004618  -0.000003  -0.000059   0.000008  -0.000050
    29  H   -0.000120   0.001285   0.000000   0.000462   0.000000   0.000000
    30  H   -0.000110   0.001753   0.000000   0.000847   0.000000   0.000000
    31  H    0.000098   0.005584   0.000000   0.002474  -0.000003   0.000000
    32  H   -0.000055  -0.000002  -0.048957   0.000000   0.000490   0.000000
    33  H    0.000568  -0.000018  -0.031423   0.000000   0.011284   0.000000
    34  H   -0.000122   0.000019  -0.047149   0.000000   0.000361   0.000000
    35  H    0.000103   0.000018  -0.041152   0.000014  -0.000036   0.000000
    36  H   -0.004540  -0.000693  -0.033160   0.013424   0.000017   0.000000
    37  H   -0.000716  -0.000063  -0.050378   0.000044  -0.000009   0.000000
    38  H   -0.038989  -0.001604   0.000448  -0.000009   0.007803   0.000000
    39  H   -0.041684   0.003954   0.000365  -0.000001   0.000082   0.000000
    40  H    0.401089  -0.039277   0.003781   0.005018   0.002413   0.000000
    41  H   -0.024811   0.313000   0.000194   0.001928   0.006875   0.000000
             19         20         21         22         23         24
     1  C    0.000000   0.000000   0.000010   0.000000   0.000000   0.000002
     2  C    0.000000   0.000000   0.000000   0.000000   0.000000  -0.000061
     3  C    0.394491  -0.037398  -0.044040  -0.043648  -0.037069  -0.003033
     4  C   -0.043157   0.403618   0.396427  -0.002946   0.004358  -0.041040
     5  C   -0.043294   0.004382  -0.003018   0.395878   0.402770   0.000382
     6  C   -0.002846  -0.037933  -0.043680   0.000467  -0.000385   0.388877
     7  C   -0.003108  -0.000351   0.000422  -0.043726  -0.037921  -0.003262
     8  C    0.000241   0.004143  -0.003593  -0.003521   0.004241  -0.046676
     9  C    0.000000   0.000000   0.000000   0.000000   0.000000   0.000000
    10  C    0.000000   0.000000   0.000000   0.000000   0.000000   0.000000
    11  C    0.000000   0.000000   0.000000   0.000000   0.000000  -0.000001
    12  C   -0.000057  -0.000076  -0.000098  -0.000122  -0.000087  -0.002858
    13  C    0.000001   0.000000  -0.000004   0.000003   0.000001  -0.000379
    14  N    0.000000   0.000000   0.000000  -0.000003   0.000000   0.000025
    15  N    0.000000   0.000000   0.000000   0.000000   0.000000   0.000000
    16  O    0.000000   0.000000   0.000002   0.000000   0.000000   0.000010
    17  O    0.000000   0.000000   0.000000   0.000000   0.000000   0.000000
    18  H   -0.028999  -0.002206  -0.003144  -0.003098  -0.002223  -0.000091
    19  H    0.568287  -0.003085   0.004651   0.004653  -0.003092   0.002819
    20  H   -0.003085   0.540475  -0.028789  -0.000084  -0.000089  -0.003232
    21  H    0.004651  -0.028789   0.566471   0.002913  -0.000083   0.004612
    22  H    0.004653  -0.000084   0.002913   0.568211  -0.029120   0.000077
    23  H   -0.003092  -0.000089  -0.000083  -0.029120   0.543052  -0.000036
    24  H    0.002819  -0.003232   0.004612   0.000077  -0.000036   0.576701
    25  H   -0.000088  -0.002286  -0.003042  -0.000044   0.000011  -0.027465
    26  H   -0.000085   0.000011  -0.000042  -0.002965  -0.002494  -0.000096
    27  H    0.002899  -0.000041   0.000079   0.004607  -0.003111   0.003026
    28  H    0.000078  -0.000080   0.002833   0.002785  -0.000073   0.004871
    29  H    0.000000   0.000000   0.000000   0.000000   0.000000   0.000000
    30  H    0.000000   0.000000   0.000000   0.000000   0.000000   0.000000
    31  H    0.000000   0.000000   0.000000   0.000000   0.000000   0.000000
    32  H    0.000000   0.000000   0.000000   0.000000   0.000000   0.000000
    33  H    0.000000   0.000000   0.000000   0.000000   0.000000   0.000000
    34  H    0.000000   0.000000   0.000000   0.000000   0.000000   0.000000
    35  H    0.000000   0.000000   0.000000   0.000000   0.000000   0.000000
    36  H    0.000000   0.000000   0.000000   0.000000   0.000000  -0.000002
    37  H    0.000000   0.000000   0.000000   0.000000   0.000000   0.000005
    38  H    0.000001   0.000001   0.000002   0.000009  -0.000005  -0.000023
    39  H   -0.000006   0.000001   0.000001  -0.000002   0.000002   0.002967
    40  H    0.000000   0.000000   0.000008   0.000000   0.000000   0.000534
    41  H    0.000000   0.000000   0.000000   0.000000   0.000000   0.000001
             25         26         27         28         29         30
     1  C    0.000847   0.000000   0.000000   0.000119  -0.027515  -0.027790
     2  C    0.000151  -0.000001  -0.000010  -0.000144   0.000024  -0.000002
     3  C    0.003882   0.004184  -0.003181   0.000193   0.000000   0.000000
     4  C   -0.034586  -0.000336   0.000417  -0.002387   0.000000   0.000000
     5  C   -0.000290  -0.035616  -0.041614  -0.002205   0.000000   0.000000
     6  C    0.398529   0.004426  -0.003242  -0.045344   0.000000   0.000000
     7  C    0.003846   0.400396   0.391498  -0.045874   0.000000   0.000000
     8  C   -0.034498  -0.039378  -0.043623   0.402091   0.000000   0.000002
     9  C    0.000050   0.000000   0.000000   0.000048   0.379811   0.380970
    10  C    0.000000   0.000000   0.000000   0.000000   0.000000   0.000000
    11  C   -0.000009   0.000000   0.000000   0.000000   0.000001   0.000000
    12  C   -0.003800  -0.003237  -0.004612  -0.041974  -0.000001   0.000009
    13  C   -0.001098  -0.000083  -0.000041  -0.006131  -0.000120  -0.000110
    14  N   -0.000934   0.000019  -0.000008   0.004618   0.001285   0.001753
    15  N   -0.000005   0.000000   0.000000  -0.000003   0.000000   0.000000
    16  O    0.004493   0.000000   0.000000  -0.000059   0.000462   0.000847
    17  O   -0.000002  -0.000004   0.000000   0.000008   0.000000   0.000000
    18  H   -0.000078  -0.000085  -0.000086  -0.000050   0.000000   0.000000
    19  H   -0.000088  -0.000085   0.002899   0.000078   0.000000   0.000000
    20  H   -0.002286   0.000011  -0.000041  -0.000080   0.000000   0.000000
    21  H   -0.003042  -0.000042   0.000079   0.002833   0.000000   0.000000
    22  H   -0.000044  -0.002965   0.004607   0.002785   0.000000   0.000000
    23  H    0.000011  -0.002494  -0.003111  -0.000073   0.000000   0.000000
    24  H   -0.027465  -0.000096   0.003026   0.004871   0.000000   0.000000
    25  H    0.511426  -0.000085  -0.000087  -0.002793   0.000000  -0.000005
    26  H   -0.000085   0.543746  -0.029009  -0.002756   0.000000   0.000000
    27  H   -0.000087  -0.029009   0.569836   0.004742   0.000000   0.000000
    28  H   -0.002793  -0.002756   0.004742   0.564094   0.000000  -0.000006
    29  H    0.000000   0.000000   0.000000   0.000000   0.480293  -0.019641
    30  H   -0.000005   0.000000   0.000000  -0.000006  -0.019641   0.475325
    31  H   -0.000005   0.000000   0.000000   0.000013  -0.022587  -0.022441
    32  H    0.000000   0.000000   0.000000   0.000000   0.000000   0.000000
    33  H    0.000000   0.000000   0.000000   0.000000   0.000000   0.000000
    34  H    0.000000   0.000000   0.000000   0.000000   0.000000   0.000000
    35  H    0.000000   0.000000   0.000000   0.000000   0.000000   0.000000
    36  H    0.000061   0.000000   0.000000  -0.000001  -0.000007  -0.000001
    37  H    0.000002   0.000000   0.000000   0.000000   0.000000   0.000000
    38  H   -0.000140   0.002478   0.000241  -0.001381   0.000000   0.000000
    39  H    0.000165   0.000219   0.002393   0.004300   0.000000   0.000000
    40  H   -0.000852  -0.000004   0.000012   0.000451  -0.000009  -0.000002
    41  H   -0.000024  -0.000001   0.000000   0.000190  -0.000060   0.000070
             31         32         33         34         35         36
     1  C   -0.039305   0.000000   0.000000  -0.000001  -0.000016  -0.000192
     2  C   -0.000016   0.001413  -0.004329   0.001097   0.001175  -0.000713
     3  C    0.000000   0.000000   0.000000   0.000000   0.000000   0.000000
     4  C    0.000000   0.000000   0.000000   0.000000   0.000000   0.000000
     5  C    0.000000   0.000000   0.000000   0.000000   0.000000   0.000000
     6  C    0.000002   0.000000   0.000000   0.000000   0.000000  -0.000019
     7  C    0.000000   0.000000   0.000000   0.000000   0.000000   0.000000
     8  C   -0.000002   0.000000   0.000000   0.000000   0.000000   0.000008
     9  C    0.375966   0.000000   0.000000   0.000000   0.000000   0.000118
    10  C    0.000000   0.398993   0.395824   0.399297  -0.004343   0.002657
    11  C    0.000001  -0.001031   0.003044  -0.002777   0.400943   0.390455
    12  C   -0.000016   0.000017  -0.000014  -0.000003  -0.000015   0.000128
    13  C    0.000098  -0.000055   0.000568  -0.000122   0.000103  -0.004540
    14  N    0.005584  -0.000002  -0.000018   0.000019   0.000018  -0.000693
    15  N    0.000000  -0.048957  -0.031423  -0.047149  -0.041152  -0.033160
    16  O    0.002474   0.000000   0.000000   0.000000   0.000014   0.013424
    17  O   -0.000003   0.000490   0.011284   0.000361  -0.000036   0.000017
    18  H    0.000000   0.000000   0.000000   0.000000   0.000000   0.000000
    19  H    0.000000   0.000000   0.000000   0.000000   0.000000   0.000000
    20  H    0.000000   0.000000   0.000000   0.000000   0.000000   0.000000
    21  H    0.000000   0.000000   0.000000   0.000000   0.000000   0.000000
    22  H    0.000000   0.000000   0.000000   0.000000   0.000000   0.000000
    23  H    0.000000   0.000000   0.000000   0.000000   0.000000   0.000000
    24  H    0.000000   0.000000   0.000000   0.000000   0.000000  -0.000002
    25  H   -0.000005   0.000000   0.000000   0.000000   0.000000   0.000061
    26  H    0.000000   0.000000   0.000000   0.000000   0.000000   0.000000
    27  H    0.000000   0.000000   0.000000   0.000000   0.000000   0.000000
    28  H    0.000013   0.000000   0.000000   0.000000   0.000000  -0.000001
    29  H   -0.022587   0.000000   0.000000   0.000000   0.000000  -0.000007
    30  H   -0.022441   0.000000   0.000000   0.000000   0.000000  -0.000001
    31  H    0.524257   0.000000   0.000000   0.000000   0.000000  -0.000004
    32  H    0.000000   0.546185  -0.021771  -0.039984  -0.001921  -0.000035
    33  H    0.000000  -0.021771   0.434346  -0.022595   0.000134  -0.000083
    34  H    0.000000  -0.039984  -0.022595   0.543888   0.003168   0.000063
    35  H    0.000000  -0.001921   0.000134   0.003168   0.518837  -0.021283
    36  H   -0.000004  -0.000035  -0.000083   0.000063  -0.021283   0.446287
    37  H    0.000000   0.002297  -0.000097  -0.000432  -0.036330  -0.026675
    38  H    0.000001   0.000000  -0.000003   0.000000   0.000000  -0.000010
    39  H    0.000000  -0.000003  -0.000004   0.000001   0.000001   0.000013
    40  H   -0.000013  -0.000013  -0.000017   0.000002   0.000357  -0.003659
    41  H    0.001156   0.000000  -0.000003   0.000001   0.000003  -0.000037
             37         38         39         40         41
     1  C    0.000027  -0.000072  -0.000025  -0.001122  -0.013644
     2  C   -0.000147  -0.004322  -0.002153  -0.036357  -0.000682
     3  C    0.000000   0.000001   0.000012   0.000000   0.000000
     4  C    0.000000  -0.000074  -0.000081  -0.000010   0.000000
     5  C    0.000000  -0.000015  -0.000026  -0.000001   0.000000
     6  C    0.000003   0.003861  -0.003611   0.001068  -0.000014
     7  C    0.000000  -0.003735  -0.003633  -0.000061  -0.000020
     8  C   -0.000001  -0.040755  -0.035480  -0.004625  -0.000081
     9  C    0.000000  -0.000002   0.000002   0.000343  -0.000061
    10  C    0.000745  -0.000002  -0.000022  -0.000126   0.000000
    11  C    0.394559  -0.000021  -0.000053  -0.002921  -0.000023
    12  C    0.000216   0.399744   0.389072  -0.029524  -0.000587
    13  C   -0.000716  -0.038989  -0.041684   0.401089  -0.024811
    14  N   -0.000063  -0.001604   0.003954  -0.039277   0.313000
    15  N   -0.050378   0.000448   0.000365   0.003781   0.000194
    16  O    0.000044  -0.000009  -0.000001   0.005018   0.001928
    17  O   -0.000009   0.007803   0.000082   0.002413   0.006875
    18  H    0.000000   0.000000   0.000000   0.000000   0.000000
    19  H    0.000000   0.000001  -0.000006   0.000000   0.000000
    20  H    0.000000   0.000001   0.000001   0.000000   0.000000
    21  H    0.000000   0.000002   0.000001   0.000008   0.000000
    22  H    0.000000   0.000009  -0.000002   0.000000   0.000000
    23  H    0.000000  -0.000005   0.000002   0.000000   0.000000
    24  H    0.000005  -0.000023   0.002967   0.000534   0.000001
    25  H    0.000002  -0.000140   0.000165  -0.000852  -0.000024
    26  H    0.000000   0.002478   0.000219  -0.000004  -0.000001
    27  H    0.000000   0.000241   0.002393   0.000012   0.000000
    28  H    0.000000  -0.001381   0.004300   0.000451   0.000190
    29  H    0.000000   0.000000   0.000000  -0.000009  -0.000060
    30  H    0.000000   0.000000   0.000000  -0.000002   0.000070
    31  H    0.000000   0.000001   0.000000  -0.000013   0.001156
    32  H    0.002297   0.000000  -0.000003  -0.000013   0.000000
    33  H   -0.000097  -0.000003  -0.000004  -0.000017  -0.000003
    34  H   -0.000432   0.000000   0.000001   0.000002   0.000001
    35  H   -0.036330   0.000000   0.000001   0.000357   0.000003
    36  H   -0.026675  -0.000010   0.000013  -0.003659  -0.000037
    37  H    0.548622   0.000002  -0.000011  -0.000381  -0.000001
    38  H    0.000002   0.498162  -0.022894   0.003207   0.001995
    39  H   -0.000011  -0.022894   0.542383  -0.000455  -0.000027
    40  H   -0.000381   0.003207  -0.000455   0.449097   0.003126
    41  H   -0.000001   0.001995  -0.000027   0.003126   0.310212
 Mulliken atomic charges:
              1
     1  C    0.766801
     2  C    0.811350
     3  C   -0.308959
     4  C   -0.308739
     5  C   -0.310189
     6  C   -0.328027
     7  C   -0.305383
     8  C   -0.154792
     9  C   -0.575467
    10  C   -0.295006
    11  C   -0.317565
    12  C   -0.317910
    13  C   -0.075134
    14  N   -0.800316
    15  N   -0.672556
    16  O   -0.640889
    17  O   -0.660392
    18  H    0.160540
    19  H    0.149695
    20  H    0.163018
    21  H    0.151101
    22  H    0.149674
    23  H    0.161353
    24  H    0.143345
    25  H    0.188751
    26  H    0.160796
    27  H    0.148912
    28  H    0.159827
    29  H    0.208064
    30  H    0.211021
    31  H    0.174842
    32  H    0.164377
    33  H    0.235157
    34  H    0.165167
    35  H    0.180342
    36  H    0.237884
    37  H    0.168718
    38  H    0.196103
    39  H    0.164239
    40  H    0.248921
    41  H    0.401325
 Sum of Mulliken atomic charges =   0.00000
 Mulliken charges with hydrogens summed into heavy atoms:
              1
     1  C    0.766801
     2  C    0.811350
     3  C    0.001276
     4  C    0.005380
     5  C    0.000838
     6  C    0.004069
     7  C    0.004325
     8  C    0.005034
     9  C    0.018460
    10  C    0.269694
    11  C    0.269379
    12  C    0.042432
    13  C    0.173787
    14  N   -0.398991
    15  N   -0.672556
    16  O   -0.640889
    17  O   -0.660392
 Sum of Mulliken charges with hydrogens summed into heavy atoms =   0.00000
 DipInt: DoE/N= T F RetVal/Mat= T F Init=T NMatP=  1 IDeriv=0 Min/MaxMlt=  0  4
 Entering OneElI...
 OneElI was handed    33316966 working-precision words.
 Multipole integrals L=0 to 4 MinM= 0 MaxM= 0.
 Requested accuracy = 0.1000D-12
 PrsmSu:  NPrtUS=   1 ThrOK=F IAlg=1 NPAlg=1 LenDen=           0.
 Prism:   IPart=     0 DynPar=F LinDyn=F Incr=          55.
 PRISM was handed    32875234 working-precision words and  5573 shell-pairs
 IPart=  0 NShTot=        5573 NBatch=          77 AvBLen=        72.4
 PrSmSu:  NxtVal=             56.
 Electronic moments (au):
       -132.00000000         -0.07272464          0.13474684          0.02689764
      -3549.76342032      -1212.88516877       -614.97339957         -0.16541881
         -4.33036718        -10.34414736      -5375.51666190      -3180.07344935
       -274.11129254       2221.83462115       4439.62890967      -1547.22444980
        255.63419495         -2.78133423        807.12414053       -672.01516510
    -191733.59022363     -34125.03399344      -6916.84116051     -10413.53290355
       1722.60207875       5441.23036431       4276.28725205        543.51397998
        122.51209369     -21847.73734076     -16621.60414259      -5364.92522527
      -1090.80578230       -709.13109999       -305.77717916
 Electronic spatial extent (au):  <R**2>=           5377.6220
 DipInt: DoE/N= F T RetVal/Mat= T F Init=T NMatP=  1 IDeriv=0 Min/MaxMlt=  0  4
 Nuclear    moments (au):
        132.00000000          0.00000000          0.00000000          0.00000000
       3474.63388804       1134.34138952        533.72602988          0.00000000
          0.00000000          0.00000000       5285.11592965       3204.95315616
        275.89962590      -2237.67801684      -4444.09567767       1577.14242292
       -258.16559586         11.28162975       -832.63192920        701.23878736
     179247.94064750      30054.84298776       4808.41689488      10571.90690378
      -1892.06489971      -5425.73602683      -4446.05430979       -603.84180171
       -187.32183470      19071.34355503      14065.98167616       4242.68508034
       1007.92907567        750.95843511        280.87680585
 Total      moments (au):
          0.00000000         -0.07272464          0.13474684          0.02689764
        -75.12953228        -78.54377925        -81.24736969         -0.16541881
         -4.33036718        -10.34414736        -90.40073225         24.87970681
          1.78833336        -15.84339569         -4.46676800         29.91797312
         -2.53140091          8.50029552        -25.50778867         29.22362225
     -12485.64957613      -4070.19100568      -2108.42426563        158.37400023
       -169.46282096         15.49433748       -169.76705774        -60.32782173
        -64.80974101      -2776.39378573      -2555.62246643      -1122.24014493
        -82.87670663         41.82733513        -24.90037331
 Traceless Quadrup. (au):
          3.17736146         -0.23688551         -2.94047595         -0.16541881
         -4.33036718        -10.34414736
 Charge=              0.0000 electrons
 Dipole moment (field-independent basis, Debye):
    X=             -0.1848    Y=              0.3425    Z=              0.0684  Tot=              0.3952
 Quadrupole moment (field-independent basis, Debye-Ang):
   XX=           -101.0518   YY=           -105.6441   ZZ=           -109.2805
   XY=             -0.2225   XZ=             -5.8245   YZ=            -13.9132
 Traceless Quadrupole moment (field-independent basis, Debye-Ang):
   XX=              4.2737   YY=             -0.3186   ZZ=             -3.9550
   XY=             -0.2225   XZ=             -5.8245   YZ=            -13.9132
 Octapole moment (field-independent basis, Debye-Ang**2):
  XXX=            -64.3438  YYY=             17.7084  ZZZ=              1.2729  XYY=            -11.2767
  XXY=             -3.1793  XXZ=             21.2945  XZZ=             -1.8018  YZZ=              6.0502
  YYZ=            -18.1555  XYZ=             20.8002
 Hexadecapole moment (field-independent basis, Debye-Ang**3):
 XXXX=          -4702.6940 YYYY=          -1533.0290 ZZZZ=           -794.1336 XXXY=             59.6512
 XXXZ=            -63.8278 YYYX=              5.8359 YYYZ=            -63.9424 ZZZX=            -22.7223
 ZZZY=            -24.4105 XXYY=          -1045.7230 XXZZ=           -962.5699 YYZZ=           -422.6894
 XXYZ=            -31.2153 YYXZ=             15.7542 ZZXY=             -9.3787
 N-N= 1.303854976227D+03 E-N=-4.395225505905D+03  KE= 7.632280446442D+02
 Entering OneElI...
 OneElI was handed    33132020 working-precision words.
 Calculate electrostatic properties
    NBasis =   303  MinDer = 0  MaxDer = 0
    NGrid  =    41  NMatD  =   1
 Requested accuracy = 0.1000D-12
 PrsmSu:  NPrtUS=   2 ThrOK=T IAlg=1 NPAlg=1 LenDen=           0.
 Prism:   IPart=     0 DynPar=F LinDyn=F Incr=         512.
 PRISM was handed    16300880 working-precision words and  4963 shell-pairs
 PRISM was handed    16300880 working-precision words and  4963 shell-pairs
 IPart=  1 NShTot=      101352 NBatch=        2472 AvBLen=        41.0
 IPart=  0 NShTot=      102131 NBatch=        2491 AvBLen=        41.0
 PrSmSu:  NxtVal=           1025.
 --------------------------------------------------------
       Center         ----      EFG at Nuclei      ----
                      3XX-RR        3YY-RR        3ZZ-RR
 --------------------------------------------------------
     1   Atom       -0.567406      0.214839      0.352567
     2   Atom        0.120910     -0.345913      0.225003
     3   Atom        0.001407      0.003007     -0.004413
     4   Atom       -0.006291     -0.006016      0.012307
     5   Atom       -0.004844      0.006595     -0.001751
     6   Atom        0.005039      0.008643     -0.013682
     7   Atom        0.006523     -0.012971      0.006447
     8   Atom       -0.026850      0.012851      0.013999
     9   Atom        0.039750     -0.025303     -0.014447
    10   Atom       -0.168495     -0.008297      0.176792
    11   Atom        0.140890      0.103041     -0.243931
    12   Atom       -0.027989     -0.020345      0.048334
    13   Atom        0.064666     -0.181768      0.117102
    14   Atom        0.950819     -0.496760     -0.454059
    15   Atom       -0.159960      0.548924     -0.388964
    16   Atom       -0.595634      1.586453     -0.990818
    17   Atom        1.229154     -0.368310     -0.860844
    18   Atom       -0.212603      0.071201      0.141403
    19   Atom        0.145011     -0.162771      0.017760
    20   Atom        0.129735      0.134388     -0.264123
    21   Atom        0.139724     -0.190382      0.050658
    22   Atom        0.140325     -0.151277      0.010953
    23   Atom       -0.058066     -0.036116      0.094182
    24   Atom        0.138424     -0.148312      0.009888
    25   Atom       -0.053845     -0.039842      0.093687
    26   Atom        0.126849      0.133652     -0.260501
    27   Atom        0.137889     -0.186780      0.048890
    28   Atom        0.139792     -0.162440      0.022647
    29   Atom       -0.211822      0.070788      0.141034
    30   Atom       -0.057279     -0.054027      0.111306
    31   Atom        0.150306      0.120542     -0.270848
    32   Atom        0.136761     -0.103483     -0.033279
    33   Atom        0.137974      0.089285     -0.227259
    34   Atom       -0.150451      0.000775      0.149676
    35   Atom       -0.228617      0.137864      0.090753
    36   Atom        0.032462     -0.161517      0.129055
    37   Atom        0.075690     -0.041765     -0.033925
    38   Atom        0.135150      0.119574     -0.254724
    39   Atom        0.134083     -0.168512      0.034429
    40   Atom        0.140465      0.128518     -0.268984
    41   Atom        0.225583      0.155785     -0.381369
 --------------------------------------------------------
                        XY            XZ            YZ
 --------------------------------------------------------
     1   Atom       -0.082855     -0.019346     -0.088263
     2   Atom        0.336947      0.008875      0.215309
     3   Atom        0.006010     -0.005893      0.002523
     4   Atom       -0.003877     -0.000490     -0.004432
     5   Atom       -0.007714      0.003263      0.003489
     6   Atom       -0.016689     -0.000207      0.015708
     7   Atom       -0.000567      0.002534     -0.006569
     8   Atom       -0.012304     -0.004885     -0.004982
     9   Atom        0.006611     -0.000222      0.052012
    10   Atom       -0.178765     -0.078061     -0.008611
    11   Atom        0.034599     -0.008380     -0.145564
    12   Atom        0.044442      0.036497     -0.003515
    13   Atom       -0.045507     -0.021559      0.204835
    14   Atom        0.121295     -0.046959      0.010165
    15   Atom       -0.604281      0.222322     -0.376094
    16   Atom       -0.237325      0.053224     -0.188475
    17   Atom        0.666465     -0.516206     -0.266466
    18   Atom       -0.164746     -0.034181     -0.018675
    19   Atom        0.006964     -0.003026      0.193976
    20   Atom       -0.013112     -0.072524     -0.077353
    21   Atom       -0.020933      0.012069      0.178750
    22   Atom       -0.032090      0.018635      0.197418
    23   Atom        0.192118      0.100622     -0.099434
    24   Atom       -0.035438      0.019544      0.196165
    25   Atom        0.187627      0.095644     -0.099534
    26   Atom       -0.013150     -0.074428     -0.078756
    27   Atom       -0.019261      0.012020      0.179199
    28   Atom       -0.013430      0.005758      0.189610
    29   Atom        0.164968      0.055571     -0.018669
    30   Atom       -0.204091     -0.091020     -0.081618
    31   Atom        0.012922      0.055388     -0.084086
    32   Atom       -0.034313      0.016136      0.213705
    33   Atom        0.001842      0.018686     -0.152521
    34   Atom        0.196265      0.024978     -0.023997
    35   Atom        0.076506      0.126633     -0.036366
    36   Atom       -0.188350      0.001151     -0.013469
    37   Atom        0.120283     -0.112665      0.172385
    38   Atom       -0.007931     -0.046106     -0.099742
    39   Atom       -0.015277      0.014255      0.191855
    40   Atom       -0.010535     -0.029731     -0.079138
    41   Atom        0.006853     -0.069310     -0.013115
 --------------------------------------------------------


 ---------------------------------------------------------------------------------
              Nuclear Quadrupole in Principal Axis System
 ---------------------------------------------------------------------------------

       Atom             a.u.   MegaHertz   Gauss  10(-4) cm-1        Axes

              Baa    -0.5770   -77.423   -27.626   -25.826  0.9937  0.1074  0.0309
     1 C(13)  Bbb     0.1809    24.279     8.663     8.098 -0.1099  0.8889  0.4447
              Bcc     0.3960    53.144    18.963    17.727  0.0203 -0.4453  0.8951
 
              Baa    -0.5671   -76.102   -27.155   -25.385 -0.4253  0.8746 -0.2330
     2 C(13)  Bbb     0.1777    23.847     8.509     7.955 -0.6716 -0.1324  0.7290
              Bcc     0.3894    52.254    18.646    17.430  0.6067  0.4665  0.6437
 
              Baa    -0.0103    -1.389    -0.496    -0.463  0.5644 -0.3913  0.7268
     3 C(13)  Bbb     0.0017     0.227     0.081     0.076 -0.4144  0.6272  0.6595
              Bcc     0.0087     1.162     0.415     0.388  0.7139  0.6734 -0.1918
 
              Baa    -0.0106    -1.418    -0.506    -0.473  0.6730  0.7233  0.1545
     4 C(13)  Bbb    -0.0028    -0.370    -0.132    -0.124  0.7393 -0.6521 -0.1678
              Bcc     0.0133     1.789     0.638     0.597  0.0206 -0.2272  0.9736
 
              Baa    -0.0109    -1.469    -0.524    -0.490  0.7849  0.4333 -0.4430
     5 C(13)  Bbb     0.0002     0.031     0.011     0.010  0.4598  0.0721  0.8851
              Bcc     0.0107     1.438     0.513     0.480 -0.4154  0.8984  0.1427
 
              Baa    -0.0241    -3.240    -1.156    -1.081 -0.2985 -0.5317  0.7926
     6 C(13)  Bbb    -0.0032    -0.423    -0.151    -0.141  0.7619  0.3675  0.5334
              Bcc     0.0273     3.663     1.307     1.222 -0.5749  0.7631  0.2954
 
              Baa    -0.0150    -2.011    -0.718    -0.671 -0.0095  0.9557  0.2940
     7 C(13)  Bbb     0.0047     0.635     0.226     0.212  0.8216  0.1751 -0.5426
              Bcc     0.0103     1.376     0.491     0.459  0.5700 -0.2364  0.7869
 
              Baa    -0.0312    -4.183    -1.493    -1.395  0.9504  0.2808  0.1337
     8 C(13)  Bbb     0.0121     1.621     0.578     0.541 -0.2773  0.5701  0.7733
              Bcc     0.0191     2.562     0.914     0.855 -0.1409  0.7721 -0.6197
 
              Baa    -0.0724    -9.715    -3.467    -3.241 -0.0451  0.7434 -0.6674
     9 C(13)  Bbb     0.0305     4.094     1.461     1.366 -0.4094  0.5956  0.6911
              Bcc     0.0419     5.621     2.006     1.875  0.9112  0.3044  0.2774
 
              Baa    -0.2948   -39.560   -14.116   -13.196  0.8370  0.5267  0.1482
    10 C(13)  Bbb     0.0945    12.679     4.524     4.229 -0.4551  0.8205 -0.3458
              Bcc     0.2003    26.881     9.592     8.966 -0.3037  0.2220  0.9265
 
              Baa    -0.2969   -39.847   -14.219   -13.292 -0.0091  0.3427  0.9394
    11 C(13)  Bbb     0.1123    15.070     5.377     5.027  0.7773 -0.5885  0.2222
              Bcc     0.1846    24.778     8.841     8.265  0.6290  0.7323 -0.2610
 
              Baa    -0.0760   -10.193    -3.637    -3.400  0.7513 -0.6155 -0.2380
    12 C(13)  Bbb     0.0104     1.399     0.499     0.467  0.4976  0.7654 -0.4082
              Bcc     0.0655     8.794     3.138     2.933  0.4334  0.1882  0.8813
 
              Baa    -0.2886   -38.727   -13.819   -12.918  0.0876  0.8911 -0.4453
    13 C(13)  Bbb     0.0577     7.745     2.764     2.584  0.9679  0.0295  0.2496
              Bcc     0.2309    30.981    11.055    10.334 -0.2355  0.4528  0.8599
 
              Baa    -0.5104   -19.686    -7.025    -6.567 -0.0880  0.9649 -0.2473
    14 N(14)  Bbb    -0.4520   -17.432    -6.220    -5.815  0.0109  0.2492  0.9684
              Bcc     0.9624    37.118    13.245    12.381  0.9961  0.0826 -0.0324
 
              Baa    -0.5252   -20.256    -7.228    -6.757 -0.3888  0.1019  0.9157
    15 N(14)  Bbb    -0.5044   -19.452    -6.941    -6.489  0.7888  0.5503  0.2737
              Bcc     1.0296    39.708    14.169    13.245 -0.4760  0.8287 -0.2943
 
              Baa    -1.0078    72.926    26.022    24.325 -0.0916  0.0638  0.9938
    16 O(17)  Bbb    -0.6184    44.746    15.967    14.926  0.9900  0.1137  0.0839
              Bcc     1.6262  -117.672   -41.988   -39.251 -0.1077  0.9915 -0.0736
 
              Baa    -1.0087    72.987    26.044    24.346  0.1482  0.2445  0.9583
    17 O(17)  Bbb    -0.5967    43.178    15.407    14.403 -0.3805  0.9085 -0.1729
              Bcc     1.6054  -116.166   -41.451   -38.749  0.9128  0.3390 -0.2277
 
              Baa    -0.2916  -155.595   -55.520   -51.901  0.9051  0.4156  0.0894
    18 H(1)   Bbb     0.1429    76.265    27.213    25.439 -0.3092  0.4993  0.8094
              Bcc     0.1487    79.330    28.307    26.462 -0.2918  0.7603 -0.5804
 
              Baa    -0.2866  -152.909   -54.562   -51.005 -0.0174  0.8431 -0.5375
    19 H(1)   Bbb     0.1411    75.281    26.862    25.111 -0.2826  0.5115  0.8115
              Bcc     0.1455    77.628    27.700    25.894  0.9591  0.1660  0.2294
 
              Baa    -0.2915  -155.533   -55.498   -51.880  0.1723  0.1812  0.9682
    20 H(1)   Bbb     0.1426    76.082    27.148    25.378  0.9824 -0.1028 -0.1556
              Bcc     0.1489    79.451    28.350    26.502  0.0714  0.9781 -0.1957
 
              Baa    -0.2868  -153.030   -54.605   -51.045  0.0565  0.8814 -0.4689
    21 H(1)   Bbb     0.1409    75.203    26.834    25.085  0.9838 -0.1292 -0.1243
              Bcc     0.1459    77.827    27.770    25.960  0.1701  0.4543  0.8745
 
              Baa    -0.2868  -153.026   -54.603   -51.044  0.0864  0.8278 -0.5543
    22 H(1)   Bbb     0.1410    75.243    26.848    25.098  0.6846  0.3549  0.6367
              Bcc     0.1458    77.783    27.755    25.946  0.7238 -0.4345 -0.5361
 
              Baa    -0.2914  -155.477   -55.478   -51.862  0.6808 -0.6465 -0.3444
    23 H(1)   Bbb     0.1427    76.127    27.164    25.393  0.6809  0.3853  0.6228
              Bcc     0.1487    79.350    28.314    26.468 -0.2699 -0.6585  0.7025
 
              Baa    -0.2846  -151.831   -54.177   -50.645  0.0949  0.8256 -0.5563
    24 H(1)   Bbb     0.1387    73.989    26.401    24.680  0.7056  0.3384  0.6226
              Bcc     0.1459    77.842    27.776    25.965  0.7022 -0.4516 -0.5504
 
              Baa    -0.2849  -151.993   -54.235   -50.700  0.6737 -0.6549 -0.3424
    25 H(1)   Bbb     0.1372    73.208    26.122    24.420  0.7064  0.4345  0.5588
              Bcc     0.1477    78.785    28.113    26.280 -0.2172 -0.6183  0.7553
 
              Baa    -0.2894  -154.397   -55.093   -51.501  0.1786  0.1854  0.9663
    26 H(1)   Bbb     0.1404    74.920    26.733    24.991  0.9751 -0.1647 -0.1487
              Bcc     0.1490    79.477    28.359    26.511  0.1316  0.9687 -0.2103
 
              Baa    -0.2846  -151.865   -54.189   -50.657  0.0535  0.8788 -0.4741
    27 H(1)   Bbb     0.1388    74.056    26.425    24.702  0.9766 -0.1452 -0.1588
              Bcc     0.1458    77.809    27.764    25.954  0.2084  0.4545  0.8660
 
              Baa    -0.2814  -150.131   -53.571   -50.078  0.0343  0.8477 -0.5293
    28 H(1)   Bbb     0.1384    73.856    26.354    24.636  0.7669  0.3173  0.5579
              Bcc     0.1430    76.275    27.217    25.443  0.6409 -0.4251 -0.6392
 
              Baa    -0.2955  -157.673   -56.261   -52.594  0.9012 -0.4126 -0.1324
    29 H(1)   Bbb     0.1415    75.473    26.931    25.175  0.2406  0.7305 -0.6391
              Bcc     0.1541    82.200    29.331    27.419  0.3604  0.5441  0.7577
 
              Baa    -0.2963  -158.108   -56.417   -52.739  0.6828  0.6718  0.2870
    30 H(1)   Bbb     0.1423    75.901    27.083    25.318  0.3364 -0.6379  0.6928
              Bcc     0.1541    82.207    29.334    27.421 -0.6485  0.3765  0.6616
 
              Baa    -0.2954  -157.612   -56.240   -52.574 -0.1265  0.2003  0.9715
    31 H(1)   Bbb     0.1377    73.487    26.222    24.513 -0.0739  0.9748 -0.2106
              Bcc     0.1577    84.125    30.018    28.061  0.9892  0.0985  0.1085
 
              Baa    -0.2881  -153.719   -54.851   -51.275  0.0859  0.7607 -0.6434
    32 H(1)   Bbb     0.1333    71.147    25.387    23.732  0.8295  0.3032  0.4691
              Bcc     0.1548    82.571    29.463    27.543 -0.5519  0.5739  0.6049
 
              Baa    -0.2895  -154.489   -55.126   -51.532 -0.0421  0.3733  0.9267
    33 H(1)   Bbb     0.1368    72.964    26.036    24.338  0.9354  0.3407 -0.0947
              Bcc     0.1528    81.525    29.090    27.194 -0.3511  0.8629 -0.3635
 
              Baa    -0.2878  -153.575   -54.799   -51.227  0.8214 -0.5650 -0.0779
    34 H(1)   Bbb     0.1338    71.379    25.470    23.809  0.5610  0.7756  0.2894
              Bcc     0.1541    82.196    29.330    27.418 -0.1031 -0.2814  0.9540
 
              Baa    -0.2893  -154.379   -55.086   -51.495  0.9251 -0.1935 -0.3267
    35 H(1)   Bbb     0.1314    70.093    25.011    23.381  0.3765  0.3555  0.8555
              Bcc     0.1580    84.285    30.075    28.115  0.0494  0.9144 -0.4017
 
              Baa    -0.2767  -147.621   -52.675   -49.241  0.5200  0.8537  0.0269
    36 H(1)   Bbb     0.1263    67.392    24.047    22.480 -0.3166  0.1635  0.9344
              Bcc     0.1504    80.229    28.628    26.761  0.7933 -0.4944  0.3553
 
              Baa    -0.2855  -152.306   -54.346   -50.804 -0.4151  0.6530 -0.6335
    37 H(1)   Bbb     0.1340    71.488    25.509    23.846 -0.1678  0.6294  0.7588
              Bcc     0.1515    80.818    28.838    26.958  0.8942  0.4213 -0.1517
 
              Baa    -0.2848  -151.970   -54.227   -50.692  0.1104  0.2400  0.9645
    38 H(1)   Bbb     0.1384    73.831    26.345    24.627  0.8651 -0.5010  0.0256
              Bcc     0.1465    78.140    27.882    26.065  0.4893  0.8315 -0.2630
 
              Baa    -0.2851  -152.102   -54.274   -50.736  0.0487  0.8553 -0.5158
    39 H(1)   Bbb     0.1339    71.452    25.496    23.834  0.9645 -0.1744 -0.1981
              Bcc     0.1512    80.650    28.778    26.902  0.2594  0.4878  0.8335
 
              Baa    -0.2864  -152.830   -54.533   -50.978  0.0729  0.1886  0.9793
    40 H(1)   Bbb     0.1385    73.876    26.361    24.642  0.7396  0.6485 -0.1799
              Bcc     0.1480    78.954    28.173    26.336 -0.6691  0.7374 -0.0923
 
              Baa    -0.3895  -207.797   -74.147   -69.314  0.1117  0.0225  0.9935
    41 H(1)   Bbb     0.1552    82.800    29.545    27.619 -0.1071  0.9942 -0.0105
              Bcc     0.2343   124.997    44.602    41.695  0.9880  0.1052 -0.1135
 

 ---------------------------------------------------------------------------------

[...]
  856 Fit       0.001248
  857 Fit      -0.000094
  858 Fit      -0.000290
  859 Fit       0.000763
  860 Fit       0.001296
  861 Fit       0.001037
  862 Fit      -0.000285
  863 Fit       0.000042
  864 Fit      -0.001172
  865 Fit       0.001894
  866 Fit       0.000900
  867 Fit       0.003410
  868 Fit       0.002709
  869 Fit       0.001496
  870 Fit      -0.000414
  871 Fit       0.003246
  872 Fit       0.001973
  873 Fit       0.000583
  874 Fit      -0.001287
  875 Fit      -0.000252
  876 Fit       0.000190
  877 Fit      -0.000818
  878 Fit      -0.002657
  879 Fit      -0.002447
  880 Fit      -0.000405
  881 Fit       0.000282
  882 Fit      -0.000700
  883 Fit      -0.001124
  884 Fit      -0.002537
  885 Fit      -0.004800
  886 Fit      -0.007402
  887 Fit       0.000316
  888 Fit      -0.001016
  889 Fit      -0.003407
  890 Fit      -0.005207
  891 Fit      -0.009731
  892 Fit      -0.000411
  893 Fit      -0.000153
  894 Fit      -0.000291
  895 Fit      -0.001789
  896 Fit      -0.005769
  897 Fit       0.001620
  898 Fit       0.002456
  899 Fit       0.003029
  900 Fit       0.003113
  901 Fit       0.003961
  902 Fit       0.005007
  903 Fit       0.000304
  904 Fit       0.001934
  905 Fit       0.003473
  906 Fit       0.004756
  907 Fit      -0.001260
  908 Fit       0.001018
  909 Fit       0.003060
  910 Fit       0.004606
  911 Fit       0.005650
  912 Fit      -0.000208
  913 Fit       0.002345
  914 Fit       0.003734
  915 Fit       0.002717
  916 Fit       0.001169
  917 Fit       0.000768
  918 Fit       0.000267
  919 Fit       0.000529
  920 Fit      -0.000710
  921 Fit       0.001030
  922 Fit       0.001725
  923 Fit       0.001515
  924 Fit       0.000612
  925 Fit      -0.001226
  926 Fit       0.000121
  927 Fit       0.001538
  928 Fit       0.001693
  929 Fit      -0.000025
  930 Fit      -0.000259
  931 Fit       0.000675
  932 Fit      -0.000736
  933 Fit      -0.000316
  934 Fit       0.000019
  935 Fit       0.000525
  936 Fit       0.002959
  937 Fit       0.002051
  938 Fit       0.006661
  939 Fit       0.006137
  940 Fit       0.004851
  941 Fit       0.003570
  942 Fit       0.007148
  943 Fit       0.005099
  944 Fit      -0.006701
  945 Fit      -0.008704
  946 Fit      -0.015563
  947 Fit      -0.009060
  948 Fit      -0.023941
  949 Fit      -0.015094
  950 Fit       0.004531
  951 Fit       0.006009
  952 Fit      -0.003331
  953 Fit      -0.002154
  954 Fit      -0.001140
  955 Fit      -0.000332
  956 Fit       0.001071
  957 Fit       0.002291
  958 Fit       0.003356
  959 Fit       0.001072
  960 Fit      -0.000158
  961 Fit       0.000549
  962 Fit       0.001828
  963 Fit       0.005063
  964 Fit       0.003755
  965 Fit       0.004829
  966 Fit       0.003281
  967 Fit       0.002659
  968 Fit       0.000769
  969 Fit       0.000964
  970 Fit       0.000833
  971 Fit      -0.003724
  972 Fit      -0.002147
  973 Fit      -0.001405
  974 Fit       0.005819
  975 Fit       0.006829
  976 Fit       0.009792
  977 Fit       0.007002
  978 Fit       0.011757
  979 Fit       0.006574
  980 Fit      -0.007749
  981 Fit      -0.010770
  982 Fit       0.002522
  983 Fit       0.004003
  984 Fit       0.004128
  985 Fit       0.002622
  986 Fit       0.008033
  987 Fit       0.008935
  988 Fit       0.009093
  989 Fit       0.008631
  990 Fit       0.009317
  991 Fit       0.009985
  992 Fit       0.010474
  993 Fit       0.010636
  994 Fit       0.010301
  995 Fit       0.011637
  996 Fit      -0.013872
  997 Fit      -0.007208
  998 Fit      -0.012330
  999 Fit       0.001394
 1000 Fit       0.003620
 1001 Fit       0.003811
 1002 Fit       0.002164
 1003 Fit       0.008150
 1004 Fit       0.008666
 1005 Fit       0.008678
 1006 Fit       0.007850
 1007 Fit       0.006911
 1008 Fit       0.010799
 1009 Fit       0.010613
 1010 Fit       0.010276
 1011 Fit       0.009751
 1012 Fit       0.014584
 1013 Fit       0.012870
 1014 Fit       0.012199
 1015 Fit       0.011903
 1016 Fit       0.012354
 1017 Fit       0.013487
 1018 Fit       0.019511
 1019 Fit       0.016076
 1020 Fit       0.013930
 1021 Fit       0.013399
 1022 Fit       0.014302
 1023 Fit       0.018734
 1024 Fit       0.020514
 1025 Fit       0.015914
 1026 Fit       0.011434
 1027 Fit       0.010404
 1028 Fit       0.009908
 1029 Fit       0.010142
 1030 Fit       0.008781
 1031 Fit       0.008546
 1032 Fit       0.008133
 1033 Fit       0.007525
 1034 Fit       0.007591
 1035 Fit       0.006891
 1036 Fit       0.005952
 1037 Fit       0.004587
 1038 Fit       0.002958
 1039 Fit       0.001874
 1040 Fit      -0.003392
 1041 Fit      -0.010297
 1042 Fit      -0.002894
 1043 Fit      -0.000794
 1044 Fit      -0.001596
 1045 Fit      -0.005770
 1046 Fit      -0.015924
 1047 Fit      -0.022830
 1048 Fit      -0.010118
 1049 Fit      -0.011022
 1050 Fit      -0.027405
 1051 Fit       0.011260
 1052 Fit       0.009866
 1053 Fit       0.009304
 1054 Fit       0.008619
 1055 Fit       0.002748
 1056 Fit       0.005811
 1057 Fit       0.007098
 1058 Fit       0.007325
 1059 Fit       0.006990
 1060 Fit       0.000329
 1061 Fit       0.003166
 1062 Fit       0.004171
 1063 Fit       0.004177
 1064 Fit      -0.003909
 1065 Fit      -0.000953
 1066 Fit       0.008370
 1067 Fit       0.006703
 1068 Fit       0.009441
 1069 Fit       0.009870
 1070 Fit       0.001477
 1071 Fit       0.006692
 1072 Fit       0.009983
 1073 Fit       0.011274
 1074 Fit       0.011328
 1075 Fit       0.001860
 1076 Fit       0.007496
 1077 Fit       0.011068
 1078 Fit       0.012748
 1079 Fit       0.005909
 1080 Fit      -0.010322
 1081 Fit       0.007759
 1082 Fit       0.006907
 1083 Fit       0.004911
 1084 Fit       0.008986
 1085 Fit       0.009152
 1086 Fit       0.008882
 1087 Fit       0.006813
 1088 Fit       0.002637
 1089 Fit       0.010135
 1090 Fit       0.009751
 1091 Fit       0.009522
 1092 Fit       0.008991
 1093 Fit       0.008835
 1094 Fit       0.009310
 1095 Fit       0.010516
 1096 Fit      -0.014397
 1097 Fit      -0.005418
 1098 Fit       0.004842
 1099 Fit      -0.000156
 1100 Fit      -0.017360
 1101 Fit      -0.004427
 1102 Fit      -0.005138
 1103 Fit       0.009156
 1104 Fit       0.007575
 1105 Fit       0.006156
 1106 Fit       0.005519
 1107 Fit       0.005702
 1108 Fit      -0.000357
 1109 Fit       0.001471
 1110 Fit      -0.016067
 1111 Fit      -0.006574
 1112 Fit      -0.003012
 1113 Fit       0.007102
 1114 Fit       0.014083
 1115 Fit       0.019910
 1116 Fit       0.010603
 1117 Fit       0.018105
 1118 Fit       0.009142
 1119 Fit      -0.004529
 1120 Fit       0.007834
 1121 Fit       0.016177
 1122 Fit      -0.001418
 1123 Fit      -0.000674
 1124 Fit       0.003394
 1125 Fit      -0.004279
 1126 Fit       0.001506
 1127 Fit      -0.001120
 1128 Fit      -0.001452
 1129 Fit      -0.001599
 1130 Fit      -0.001017
 1131 Fit      -0.000498
 1132 Fit      -0.006496
 1133 Fit      -0.010984
 1134 Fit      -0.001589
 1135 Fit      -0.000321
 1136 Fit      -0.000690
 1137 Fit      -0.000597
 1138 Fit      -0.000278
 1139 Fit       0.000378
 1140 Fit      -0.002489
 1141 Fit      -0.006157
 1142 Fit      -0.003453
 1143 Fit       0.001005
 1144 Fit      -0.000642
 1145 Fit      -0.002928
 1146 Fit      -0.001724
 1147 Fit       0.004603
 1148 Fit      -0.010821
 1149 Fit      -0.000007
 1150 Fit       0.005140
 1151 Fit       0.009048
 1152 Fit       0.007905
 1153 Fit       0.007597
 1154 Fit       0.011062
 1155 Fit       0.010440
 1156 Fit       0.009309
 1157 Fit       0.008731
 1158 Fit       0.009250
 1159 Fit       0.009060
 1160 Fit       0.008364
 1161 Fit       0.012884
 1162 Fit       0.010776
 1163 Fit       0.010197
 1164 Fit       0.010297
 1165 Fit       0.010573
 1166 Fit       0.007854
 1167 Fit       0.006121
 1168 Fit       0.004199
 1169 Fit       0.003414
 1170 Fit       0.001836
 1171 Fit      -0.000859
 1172 Fit      -0.004504
 1173 Fit       0.001846
 1174 Fit       0.001628
 1175 Fit      -0.008036
 1176 Fit      -0.004017
 1177 Fit       0.005831
 1178 Fit       0.001854
 1179 Fit       0.004134
 1180 Fit       0.007119
 1181 Fit      -0.002725
 1182 Fit      -0.005514
 1183 Fit      -0.001685
 1184 Fit       0.008896
 1185 Fit       0.010231
 1186 Fit       0.000515
 1187 Fit      -0.000022
 1188 Fit       0.003595
 1189 Fit       0.004240
 1190 Fit       0.002510
 1191 Fit       0.001263
 1192 Fit      -0.001568
 1193 Fit      -0.024166
 1194 Fit      -0.024727
 1195 Fit      -0.027697
 1196 Fit      -0.026855
 1197 Fit      -0.021281
 1198 Fit      -0.018973
 1199 Fit      -0.025639
 1200 Fit      -0.027283
 1201 Fit      -0.027795
 1202 Fit      -0.026715
 1203 Fit      -0.023544
 1204 Fit      -0.020387
 1205 Fit      -0.021577
 1206 Fit      -0.022554
 1207 Fit      -0.023172
 1208 Fit      -0.022388
 1209 Fit      -0.020207
 1210 Fit      -0.016283
 1211 Fit      -0.010732
 1212 Fit      -0.008720
 1213 Fit      -0.019993
 1214 Fit      -0.018990
 1215 Fit      -0.008707
 1216 Fit      -0.016754
 1217 Fit      -0.019334
 1218 Fit      -0.025387
 1219 Fit      -0.025390
 1220 Fit      -0.015192
 1221 Fit      -0.022165
 1222 Fit      -0.025077
 1223 Fit      -0.026329
 1224 Fit      -0.027869
 1225 Fit      -0.028602
 1226 Fit      -0.026988
 1227 Fit      -0.021447
 1228 Fit      -0.016117
 1229 Fit      -0.021255
 1230 Fit      -0.026791
 1231 Fit      -0.028781
 1232 Fit      -0.027430
 1233 Fit      -0.025509
 1234 Fit      -0.001056
 1235 Fit      -0.000981
 1236 Fit      -0.000084
 1237 Fit       0.000231
 1238 Fit      -0.000578
 1239 Fit      -0.001227
 1240 Fit       0.000654
 1241 Fit       0.001079
 1242 Fit       0.000729
 1243 Fit      -0.000424
 1244 Fit      -0.000386
 1245 Fit       0.000813
 1246 Fit       0.001247
 1247 Fit       0.001095
 1248 Fit       0.000572
 1249 Fit      -0.000048
 1250 Fit       0.000279
 1251 Fit       0.000740
 1252 Fit       0.000907
 1253 Fit       0.000054
 1254 Fit      -0.000792
 1255 Fit       0.001409
 1256 Fit       0.000617
 1257 Fit       0.002852
 1258 Fit       0.002156
 1259 Fit       0.001151
 1260 Fit      -0.000254
 1261 Fit       0.003706
 1262 Fit       0.002576
 1263 Fit       0.001594
 1264 Fit       0.000438
 1265 Fit      -0.000955
 1266 Fit       0.001201
 1267 Fit       0.000229
 1268 Fit      -0.000714
 1269 Fit      -0.000195
 1270 Fit      -0.001139
 1271 Fit      -0.002680
 1272 Fit      -0.002388
 1273 Fit      -0.000578
 1274 Fit       0.000000
 1275 Fit      -0.000555
 1276 Fit      -0.000999
 1277 Fit      -0.002222
 1278 Fit      -0.004249
 1279 Fit      -0.006592
 1280 Fit      -0.006594
 1281 Fit       0.000265
 1282 Fit      -0.000063
 1283 Fit      -0.000563
 1284 Fit      -0.001363
 1285 Fit      -0.002468
 1286 Fit      -0.004085
 1287 Fit      -0.005935
 1288 Fit      -0.001294
 1289 Fit      -0.001750
 1290 Fit      -0.003468
 1291 Fit      -0.008212
 1292 Fit       0.000488
 1293 Fit       0.000758
 1294 Fit       0.001003
 1295 Fit       0.000874
 1296 Fit      -0.000082
 1297 Fit       0.002015
 1298 Fit       0.002761
 1299 Fit       0.003706
 1300 Fit       0.004790
 1301 Fit       0.001243
 1302 Fit       0.000376
 1303 Fit       0.001789
 1304 Fit       0.003158
 1305 Fit       0.004548
 1306 Fit      -0.000623
 1307 Fit       0.001041
 1308 Fit       0.002711
 1309 Fit       0.004184
 1310 Fit       0.005322
 1311 Fit       0.000171
 1312 Fit       0.002048
 1313 Fit       0.003304
 1314 Fit       0.001255
 1315 Fit       0.000124
 1316 Fit       0.000871
 1317 Fit       0.001025
 1318 Fit       0.000717
 1319 Fit       0.000482
 1320 Fit      -0.000485
 1321 Fit      -0.000361
 1322 Fit       0.000882
 1323 Fit       0.001376
 1324 Fit       0.001202
 1325 Fit       0.000345
 1326 Fit      -0.000818
 1327 Fit      -0.000107
 1328 Fit       0.000915
 1329 Fit       0.001059
 1330 Fit      -0.000105
 1331 Fit       0.000299
 1332 Fit      -0.000320
 1333 Fit       0.000352
 1334 Fit       0.002295
 1335 Fit       0.001544
 1336 Fit       0.005315
 1337 Fit       0.005085
 1338 Fit       0.003959
 1339 Fit       0.002872
 1340 Fit       0.007421
 1341 Fit       0.005300
 1342 Fit       0.004011
 1343 Fit      -0.013492
 1344 Fit      -0.008291
 1345 Fit      -0.020865
 1346 Fit      -0.013770
 1347 Fit      -0.005385
 1348 Fit      -0.003435
 1349 Fit       0.004439
 1350 Fit       0.005342
 1351 Fit      -0.003371
 1352 Fit      -0.001913
 1353 Fit      -0.000837
 1354 Fit      -0.000151
 1355 Fit       0.000908
 1356 Fit       0.002018
 1357 Fit       0.002675
 1358 Fit       0.000369
 1359 Fit      -0.000564
 1360 Fit       0.000247
 1361 Fit       0.001217
 1362 Fit       0.004924
 1363 Fit       0.003231
 1364 Fit       0.002614
 1365 Fit       0.001618
 1366 Fit       0.001477
 1367 Fit       0.001265
 1368 Fit      -0.001806
 1369 Fit      -0.000771
 1370 Fit      -0.000242
 1371 Fit       0.000024
 1372 Fit      -0.002707
 1373 Fit       0.005079
 1374 Fit       0.006701
 1375 Fit       0.006910
 1376 Fit       0.010723
 1377 Fit       0.006792
 1378 Fit       0.011594
 1379 Fit       0.006407
 1380 Fit      -0.011673
 1381 Fit      -0.000944
 1382 Fit       0.000280
 1383 Fit       0.000050
 1384 Fit      -0.002272
 1385 Fit       0.004821
 1386 Fit       0.005550
 1387 Fit       0.005873
 1388 Fit       0.005566
 1389 Fit       0.005038
 1390 Fit       0.007633
 1391 Fit       0.008059
 1392 Fit       0.008282
 1393 Fit       0.008029
 1394 Fit       0.007602
 1395 Fit       0.009276
 1396 Fit       0.009236
 1397 Fit       0.009018
 1398 Fit      -0.011038
 1399 Fit      -0.003483
 1400 Fit      -0.000450
 1401 Fit       0.000093
 1402 Fit      -0.001311
 1403 Fit       0.004452
 1404 Fit       0.005241
 1405 Fit       0.005515
 1406 Fit       0.005049
 1407 Fit       0.004171
 1408 Fit       0.008189
 1409 Fit       0.008173
 1410 Fit       0.008104
 1411 Fit       0.007690
 1412 Fit       0.007296
 1413 Fit       0.009667
 1414 Fit       0.009348
 1415 Fit       0.013251
 1416 Fit       0.011780
 1417 Fit       0.011123
 1418 Fit       0.010821
 1419 Fit       0.010848
 1420 Fit       0.010940
 1421 Fit       0.011445
 1422 Fit       0.016934
 1423 Fit       0.013945
 1424 Fit       0.012328
 1425 Fit       0.011852
 1426 Fit       0.012352
 1427 Fit       0.015108
 1428 Fit       0.016659
 1429 Fit       0.013576
 1430 Fit       0.009635
 1431 Fit       0.008921
 1432 Fit       0.009336
 1433 Fit       0.008166
 1434 Fit       0.007776
 1435 Fit       0.007472
 1436 Fit       0.007294
 1437 Fit       0.008187
 1438 Fit       0.006929
 1439 Fit       0.006370
 1440 Fit       0.005708
 1441 Fit       0.004869
 1442 Fit       0.004176
 1443 Fit       0.004617
 1444 Fit       0.003283
 1445 Fit       0.001543
 1446 Fit      -0.000484
 1447 Fit       0.000376
 1448 Fit      -0.002335
 1449 Fit      -0.007167
 1450 Fit      -0.016122
 1451 Fit      -0.004993
 1452 Fit      -0.003086
 1453 Fit      -0.003947
 1454 Fit      -0.008071
 1455 Fit      -0.018040
 1456 Fit      -0.011823
 1457 Fit      -0.012865
 1458 Fit       0.010925
 1459 Fit       0.009647
 1460 Fit       0.008712
 1461 Fit       0.008165
 1462 Fit       0.005777
 1463 Fit       0.006798
 1464 Fit       0.007057
 1465 Fit       0.006882
 1466 Fit       0.006710
 1467 Fit       0.002838
 1468 Fit       0.004368
 1469 Fit       0.005014
 1470 Fit       0.005062
 1471 Fit       0.004966
 1472 Fit      -0.001750
 1473 Fit       0.000973
 1474 Fit       0.002027
 1475 Fit       0.002202
 1476 Fit       0.005478
 1477 Fit       0.007822
 1478 Fit       0.008574
 1479 Fit       0.001108
 1480 Fit       0.005348
 1481 Fit       0.008114
 1482 Fit       0.009372
 1483 Fit       0.009712
 1484 Fit      -0.001022
 1485 Fit       0.004560
 1486 Fit       0.007970
 1487 Fit       0.009933
 1488 Fit       0.010655
 1489 Fit       0.004434
 1490 Fit       0.008488
 1491 Fit      -0.008274
 1492 Fit      -0.005115
 1493 Fit      -0.017583
 1494 Fit       0.006480
 1495 Fit       0.005633
 1496 Fit       0.003980
 1497 Fit       0.007679
 1498 Fit       0.007832
 1499 Fit       0.007376
 1500 Fit       0.005256
 1501 Fit       0.001590
 1502 Fit       0.008834
 1503 Fit       0.008448
 1504 Fit       0.008096
 1505 Fit       0.007372
 1506 Fit       0.006550
 1507 Fit       0.009005
 1508 Fit       0.008107
 1509 Fit       0.008266
 1510 Fit       0.008289
 1511 Fit       0.006689
 1512 Fit       0.008432
 1513 Fit      -0.015258
 1514 Fit      -0.007224
 1515 Fit      -0.013734
 1516 Fit      -0.005358
 1517 Fit       0.003453
 1518 Fit      -0.001567
 1519 Fit      -0.015404
 1520 Fit      -0.004844
 1521 Fit      -0.005316
 1522 Fit       0.008551
 1523 Fit       0.006704
 1524 Fit       0.005570
 1525 Fit       0.005449
 1526 Fit       0.001287
 1527 Fit       0.001991
 1528 Fit       0.002855
 1529 Fit      -0.008064
 1530 Fit      -0.003461
 1531 Fit      -0.000964
 1532 Fit       0.013148
 1533 Fit       0.008133
 1534 Fit       0.014523
 1535 Fit       0.006631
 1536 Fit      -0.003747
 1537 Fit       0.005444
 1538 Fit       0.012217
 -----------------------------------------------------------------
 Leave Link  602 at Sat Feb 17 20:59:30 2018, MaxMem=   33554432 cpu:       1.0

 Test job not archived.
 1\1\GINC-NODE025\SP\RHF\6-31G(d)\C13H24N2O2\WULSDORT\17-Feb-2018\0\\#H
 F/6-31G* Geom=AllCheck Guess=Read Pop=(MK,ReadRadii) Integral=(Grid=Ul
 traFine) iop(6/33=2)\\Optimization for frag16-conf2\\0,1\C,0,5.4978625
 483,-2.7314862067,0.3403227747\C,0,5.7212807028,-2.7349265109,-3.04687
 10053\C,0,-0.6808500401,-2.7182394012,-0.7339167055\C,0,0.5080485425,-
 2.0066059808,-0.0729704981\C,0,-0.2757902353,-4.1060885423,-1.25109745
 56\C,0,1.7232289958,-1.9269462642,-1.0117070354\C,0,0.9334180796,-4.02
 15748768,-2.1945139153\C,0,2.1388063323,-3.3135195729,-1.5437503765\C,
 0,6.081530494,-3.6212696175,1.4263809616\C,0,7.3627099154,-1.660761131
 2,-4.4807151626\C,0,6.2429824318,-0.2919127504,-2.7480507862\C,0,3.315
 4942297,-3.257329827,-2.5332504689\C,0,4.6171958805,-2.6539669912,-1.9
 735882466\N,0,5.0899756371,-3.3754999383,-0.7938391286\N,0,6.395580458
 6,-1.5960203726,-3.3909055075\O,0,5.3886554007,-1.5162324352,0.4926709
 611\O,0,5.9637579979,-3.832051703,-3.5529524996\H,0,-1.516079765,-2.80
 2959842,-0.0267446956\H,0,-1.0446000944,-2.1107606056,-1.576236071\H,0
 ,0.21879033,-0.9982887941,0.2497479695\H,0,0.7939529586,-2.5530269117,
 0.8381376268\H,0,-0.0237492,-4.7509733104,-0.3959929004\H,0,-1.1200062
 569,-4.585200949,-1.7635882114\H,0,1.4787600716,-1.2763735338,-1.86681
 16368\H,0,2.5592260564,-1.453282953,-0.4830181219\H,0,1.2272127948,-5.
 027039424,-2.5250333218\H,0,0.6438030517,-3.4701593158,-3.1026833709\H
 ,0,2.4534264685,-3.9188422362,-0.6795391077\H,0,7.1176340283,-3.320206
 8686,1.6117208315\H,0,5.5237549157,-3.4550593627,2.3527374457\H,0,6.05
 83488491,-4.6875236499,1.1817054891\H,0,7.1111795318,-0.9245236987,-5.
 2547437085\H,0,7.3392642599,-2.6634775536,-4.9047128097\H,0,8.37448563
 46,-1.4447933459,-4.1136569442\H,0,7.208776045,0.2225771221,-2.7839185
 375\H,0,5.9644542342,-0.3909665957,-1.6978155849\H,0,5.5068767846,0.33
 84440677,-3.2666075617\H,0,3.5393998074,-4.2632091445,-2.9087799672\H,
 0,3.024525033,-2.6631851977,-3.4121143244\H,0,4.4356130651,-1.63637804
 4,-1.6399409602\H,0,5.3501787245,-4.3429395866,-0.9370882567\\Version=
 AM64L-G09RevC.01\State=1-A\HF=-764.9225697\RMSD=8.418e-09\Dipole=0.101
 6137,0.0347732,0.1124035\Quadrupole=2.4607299,-0.7007711,-1.7599588,2.
 0762179,1.1336899,-11.1696956\PG=C01 [X(C13H24N2O2)]\\@


       THE DEATH-KNELL OF THE ATOM

 SO THE ATOMS IN TURN, WE NOW CLEARLY DISCERN,
 FLY TO BITS WITH THE UTMOST FACILITY;
 THEY WEND ON THEIR WAY, AND, IN SPLITTING, DISPLAY
 AN ABSOLUTE LACK OF STABILITY.

          SIR WM. RAMSAY, 1905
 Job cpu time:  0 days  0 hours  6 minutes 32.9 seconds.
 File lengths (MBytes):  RWF=     52 Int=      0 D2E=      0 Chk=      8 Scr=      1
 Normal termination of Gaussian 09 at Sat Feb 17 20:59:30 2018.
