 Entering Gaussian System, Link 0=g09
 Initial command:
 /home/fb_chem/chemsoft/lx24-amd64/Gaussian_09_C.01_NBO_3.1_64_istanbul-64/g09/l1.exe /local/2397378.1.parallel/Gau-15854.inp -scrdir=/local/2397378.1.parallel/
 Entering Link 1 = /home/fb_chem/chemsoft/lx24-amd64/Gaussian_09_C.01_NBO_3.1_64_istanbul-64/g09/l1.exe PID=     15855.
  
 Copyright (c) 1988,1990,1992,1993,1995,1998,2003,2009,2011,
            Gaussian, Inc.  All Rights Reserved.
  
 This is part of the Gaussian(R) 09 program.  It is based on
 the Gaussian(R) 03 system (copyright 2003, Gaussian, Inc.),
 the Gaussian(R) 98 system (copyright 1998, Gaussian, Inc.),
 the Gaussian(R) 94 system (copyright 1995, Gaussian, Inc.),
 the Gaussian 92(TM) system (copyright 1992, Gaussian, Inc.),
 the Gaussian 90(TM) system (copyright 1990, Gaussian, Inc.),
 the Gaussian 88(TM) system (copyright 1988, Gaussian, Inc.),
 the Gaussian 86(TM) system (copyright 1986, Carnegie Mellon
 University), and the Gaussian 82(TM) system (copyright 1983,
 Carnegie Mellon University). Gaussian is a federally registered
 trademark of Gaussian, Inc.
  
 This software contains proprietary and confidential information,
 including trade secrets, belonging to Gaussian, Inc.
  
 This software is provided under written license and may be
 used, copied, transmitted, or stored only in accord with that
 written license.
  
 The following legend is applicable only to US Government
 contracts under FAR:
  
                    RESTRICTED RIGHTS LEGEND
  
 Use, reproduction and disclosure by the US Government is
 subject to restrictions as set forth in subparagraphs (a)
 and (c) of the Commercial Computer Software - Restricted
 Rights clause in FAR 52.227-19.
  
 Gaussian, Inc.
 340 Quinnipiac St., Bldg. 40, Wallingford CT 06492
  
  
 ---------------------------------------------------------------
 Warning -- This program may not be used in any manner that
 competes with the business of Gaussian, Inc. or will provide
 assistance to any competitor of Gaussian, Inc.  The licensee
 of this program is prohibited from giving any competitor of
 Gaussian, Inc. access to this program.  By using this program,
 the user acknowledges that Gaussian, Inc. is engaged in the
 business of creating and licensing software in the field of
 computational chemistry and represents and warrants to the
 licensee that it is not a competitor of Gaussian, Inc. and that
 it will not use this program in any manner prohibited above.
 ---------------------------------------------------------------
  

 Cite this work as:
 Gaussian 09, Revision C.01,
 M. J. Frisch, G. W. Trucks, H. B. Schlegel, G. E. Scuseria, 
 M. A. Robb, J. R. Cheeseman, G. Scalmani, V. Barone, B. Mennucci, 
 G. A. Petersson, H. Nakatsuji, M. Caricato, X. Li, H. P. Hratchian, 
 A. F. Izmaylov, J. Bloino, G. Zheng, J. L. Sonnenberg, M. Hada, 
 M. Ehara, K. Toyota, R. Fukuda, J. Hasegawa, M. Ishida, T. Nakajima, 
 Y. Honda, O. Kitao, H. Nakai, T. Vreven, J. A. Montgomery, Jr., 
 J. E. Peralta, F. Ogliaro, M. Bearpark, J. J. Heyd, E. Brothers, 
 K. N. Kudin, V. N. Staroverov, T. Keith, R. Kobayashi, J. Normand, 
 K. Raghavachari, A. Rendell, J. C. Burant, S. S. Iyengar, J. Tomasi, 
 M. Cossi, N. Rega, J. M. Millam, M. Klene, J. E. Knox, J. B. Cross, 
 V. Bakken, C. Adamo, J. Jaramillo, R. Gomperts, R. E. Stratmann, 
 O. Yazyev, A. J. Austin, R. Cammi, C. Pomelli, J. W. Ochterski, 
 R. L. Martin, K. Morokuma, V. G. Zakrzewski, G. A. Voth, 
 P. Salvador, J. J. Dannenberg, S. Dapprich, A. D. Daniels, 
 O. Farkas, J. B. Foresman, J. V. Ortiz, J. Cioslowski, 
 and D. J. Fox, Gaussian, Inc., Wallingford CT, 2010.
 
 ******************************************
 Gaussian 09:  AM64L-G09RevC.01 23-Sep-2011
                16-Feb-2018 
 ******************************************
 %nprocs=4
 Will use up to    4 processors via shared memory.
 %chk=frag29-conf2.chk
 ---------------------------------------------------------
 #B3LYP/6-31G* Integral=(Grid=UltraFine) freq Opt pop=none
 ---------------------------------------------------------
 1/14=-1,18=20,19=15,26=3,38=1/1,3;
 2/9=110,12=2,17=6,18=5,40=1/2;
 3/5=1,6=6,7=1,11=2,16=1,25=1,30=1,71=1,74=-5,75=-5/1,2,3;
 4//1;
 5/5=2,38=5/2;
 7//1,2,3,16;
 1/14=-1,18=20,19=15/3(2);
 2/9=110/2;
 99//99;
 2/9=110/2;
 3/5=1,6=6,7=1,11=2,16=1,25=1,30=1,71=1,74=-5,75=-5/1,2,3;
 4/5=5,16=3/1;
 5/5=2,38=5/2;
 7//1,2,3,16;
 1/14=-1,18=20,19=15/3(-5);
 2/9=110/2;
 99/9=1/99;
 -----------------------------
 Optimization for frag29-conf2
 -----------------------------
 Charge =  0 Multiplicity = 1
 Symbolic Z-Matrix:
 C                    -2.95391  -2.06923   5.09123 
 C                    -0.61385  -2.08697   5.6722 
 C                    -2.58436  -1.66696   3.82328 
 C                    -1.94528  -2.27902   6.02007 
 C                    -0.32395  -1.68124   4.37554 
 C                     2.44811  -0.77881   1.9994 
 C                     2.35412  -0.36469   0.55657 
 C                     1.11959  -1.4649    3.96946 
 N                    -1.29912  -1.46856   3.44376 
 N                     1.24205  -1.03939   2.58821 
 O                     3.52264  -0.89802   2.58504 
 Cl                   -2.34615  -2.78165   7.61748 
 H                    -3.99931  -2.21281   5.34014 
 H                     0.18145  -2.24899   6.39289 
 H                    -3.33594  -1.4887    3.05736 
 H                     3.16704   0.32908   0.32526 
 H                     2.43915  -1.25155  -0.07687 
 H                     1.40346   0.13518   0.3505 
 H                     1.57457  -0.69426   4.60153 
 H                     1.68438  -2.39637   4.08686 
 H                     0.37563  -0.94402   2.06255 
 

 GradGradGradGradGradGradGradGradGradGradGradGradGradGradGradGradGradGrad
 Berny optimization.
 Initialization pass.
                           ----------------------------
                           !    Initial Parameters    !
                           ! (Angstroms and Degrees)  !
 --------------------------                            --------------------------
 ! Name  Definition              Value          Derivative Info.                !
 --------------------------------------------------------------------------------
 ! R1    R(1,3)                  1.3806         estimate D2E/DX2                !
 ! R2    R(1,4)                  1.3871         estimate D2E/DX2                !
 ! R3    R(1,13)                 1.0842         estimate D2E/DX2                !
 ! R4    R(2,4)                  1.3895         estimate D2E/DX2                !
 ! R5    R(2,5)                  1.3892         estimate D2E/DX2                !
 ! R6    R(2,14)                 1.0854         estimate D2E/DX2                !
 ! R7    R(3,9)                  1.3547         estimate D2E/DX2                !
 ! R8    R(3,15)                 1.0878         estimate D2E/DX2                !
 ! R9    R(4,12)                 1.7219         estimate D2E/DX2                !
 ! R10   R(5,8)                  1.5151         estimate D2E/DX2                !
 ! R11   R(5,9)                  1.3654         estimate D2E/DX2                !
 ! R12   R(6,7)                  1.504          estimate D2E/DX2                !
 ! R13   R(6,10)                 1.3672         estimate D2E/DX2                !
 ! R14   R(6,11)                 1.2296         estimate D2E/DX2                !
 ! R15   R(7,16)                 1.0935         estimate D2E/DX2                !
 ! R16   R(7,17)                 1.0932         estimate D2E/DX2                !
 ! R17   R(7,18)                 1.0937         estimate D2E/DX2                !
 ! R18   R(8,10)                 1.4505         estimate D2E/DX2                !
 ! R19   R(8,19)                 1.0956         estimate D2E/DX2                !
 ! R20   R(8,20)                 1.0956         estimate D2E/DX2                !
 ! R21   R(10,21)                1.0179         estimate D2E/DX2                !
 ! A1    A(3,1,4)              117.6722         estimate D2E/DX2                !
 ! A2    A(3,1,13)             120.4995         estimate D2E/DX2                !
 ! A3    A(4,1,13)             121.8283         estimate D2E/DX2                !
 ! A4    A(4,2,5)              118.2947         estimate D2E/DX2                !
 ! A5    A(4,2,14)             121.0136         estimate D2E/DX2                !
 ! A6    A(5,2,14)             120.6917         estimate D2E/DX2                !
 ! A7    A(1,3,9)              123.635          estimate D2E/DX2                !
 ! A8    A(1,3,15)             120.628          estimate D2E/DX2                !
 ! A9    A(9,3,15)             115.737          estimate D2E/DX2                !
 ! A10   A(1,4,2)              120.5454         estimate D2E/DX2                !
 ! A11   A(1,4,12)             119.7397         estimate D2E/DX2                !
 ! A12   A(2,4,12)             119.715          estimate D2E/DX2                !
 ! A13   A(2,5,8)              119.3857         estimate D2E/DX2                !
 ! A14   A(2,5,9)              122.2346         estimate D2E/DX2                !
 ! A15   A(8,5,9)              118.3797         estimate D2E/DX2                !
 ! A16   A(7,6,10)             114.2366         estimate D2E/DX2                !
 ! A17   A(7,6,11)             122.5633         estimate D2E/DX2                !
 ! A18   A(10,6,11)            123.1833         estimate D2E/DX2                !
 ! A19   A(6,7,16)             109.3392         estimate D2E/DX2                !
 ! A20   A(6,7,17)             109.1261         estimate D2E/DX2                !
 ! A21   A(6,7,18)             111.157          estimate D2E/DX2                !
 ! A22   A(16,7,17)            109.5316         estimate D2E/DX2                !
 ! A23   A(16,7,18)            108.444          estimate D2E/DX2                !
 ! A24   A(17,7,18)            109.2228         estimate D2E/DX2                !
 ! A25   A(5,8,10)             112.1825         estimate D2E/DX2                !
 ! A26   A(5,8,19)             109.9661         estimate D2E/DX2                !
 ! A27   A(5,8,20)             109.9397         estimate D2E/DX2                !
 ! A28   A(10,8,19)            107.937          estimate D2E/DX2                !
 ! A29   A(10,8,20)            107.9342         estimate D2E/DX2                !
 ! A30   A(19,8,20)            108.7896         estimate D2E/DX2                !
 ! A31   A(3,9,5)              117.6181         estimate D2E/DX2                !
 ! A32   A(6,10,8)             122.7182         estimate D2E/DX2                !
 ! A33   A(6,10,21)            120.7043         estimate D2E/DX2                !
 ! A34   A(8,10,21)            116.577          estimate D2E/DX2                !
 ! D1    D(4,1,3,9)             -0.0017         estimate D2E/DX2                !
 ! D2    D(4,1,3,15)           179.9968         estimate D2E/DX2                !
 ! D3    D(13,1,3,9)          -179.9991         estimate D2E/DX2                !
 ! D4    D(13,1,3,15)           -0.0006         estimate D2E/DX2                !
 ! D5    D(3,1,4,2)              0.0025         estimate D2E/DX2                !
 ! D6    D(3,1,4,12)          -179.9957         estimate D2E/DX2                !
 ! D7    D(13,1,4,2)           179.9999         estimate D2E/DX2                !
 ! D8    D(13,1,4,12)            0.0017         estimate D2E/DX2                !
 ! D9    D(5,2,4,1)              0.0056         estimate D2E/DX2                !
 ! D10   D(5,2,4,12)          -179.9962         estimate D2E/DX2                !
 ! D11   D(14,2,4,1)          -179.9947         estimate D2E/DX2                !
 ! D12   D(14,2,4,12)            0.0035         estimate D2E/DX2                !
 ! D13   D(4,2,5,8)           -179.9789         estimate D2E/DX2                !
 ! D14   D(4,2,5,9)             -0.0154         estimate D2E/DX2                !
 ! D15   D(14,2,5,8)             0.0214         estimate D2E/DX2                !
 ! D16   D(14,2,5,9)           179.9849         estimate D2E/DX2                !
 ! D17   D(1,3,9,5)             -0.0075         estimate D2E/DX2                !
 ! D18   D(15,3,9,5)           179.994          estimate D2E/DX2                !
 ! D19   D(2,5,8,10)          -179.7711         estimate D2E/DX2                !
 ! D20   D(2,5,8,19)           -59.6396         estimate D2E/DX2                !
 ! D21   D(2,5,8,20)            60.1189         estimate D2E/DX2                !
 ! D22   D(9,5,8,10)             0.2639         estimate D2E/DX2                !
 ! D23   D(9,5,8,19)           120.3955         estimate D2E/DX2                !
 ! D24   D(9,5,8,20)          -119.8461         estimate D2E/DX2                !
 ! D25   D(2,5,9,3)              0.0162         estimate D2E/DX2                !
 ! D26   D(8,5,9,3)            179.9801         estimate D2E/DX2                !
 ! D27   D(10,6,7,16)          148.2837         estimate D2E/DX2                !
 ! D28   D(10,6,7,17)          -91.9323         estimate D2E/DX2                !
 ! D29   D(10,6,7,18)           28.5903         estimate D2E/DX2                !
 ! D30   D(11,6,7,16)          -33.1676         estimate D2E/DX2                !
 ! D31   D(11,6,7,17)           86.6165         estimate D2E/DX2                !
 ! D32   D(11,6,7,18)         -152.8609         estimate D2E/DX2                !
 ! D33   D(7,6,10,8)           179.396          estimate D2E/DX2                !
 ! D34   D(7,6,10,21)           -0.3607         estimate D2E/DX2                !
 ! D35   D(11,6,10,8)            0.8574         estimate D2E/DX2                !
 ! D36   D(11,6,10,21)        -178.8993         estimate D2E/DX2                !
 ! D37   D(5,8,10,6)           179.7906         estimate D2E/DX2                !
 ! D38   D(5,8,10,21)           -0.4434         estimate D2E/DX2                !
 ! D39   D(19,8,10,6)           58.4863         estimate D2E/DX2                !
 ! D40   D(19,8,10,21)        -121.7476         estimate D2E/DX2                !
 ! D41   D(20,8,10,6)          -58.94           estimate D2E/DX2                !
 ! D42   D(20,8,10,21)         120.8261         estimate D2E/DX2                !
 --------------------------------------------------------------------------------
 Trust Radius=3.00D-01 FncErr=1.00D-07 GrdErr=1.00D-06
 Number of steps in this run=    107 maximum allowed number of steps=    126.
 GradGradGradGradGradGradGradGradGradGradGradGradGradGradGradGradGradGrad

                          Input orientation:                          
 ---------------------------------------------------------------------
 Center     Atomic      Atomic             Coordinates (Angstroms)
 Number     Number       Type             X           Y           Z
 ---------------------------------------------------------------------
      1          6           0       -2.953908   -2.069235    5.091230
      2          6           0       -0.613853   -2.086971    5.672204
      3          6           0       -2.584364   -1.666955    3.823281
      4          6           0       -1.945276   -2.279024    6.020071
      5          6           0       -0.323951   -1.681241    4.375539
      6          6           0        2.448107   -0.778807    1.999401
      7          6           0        2.354116   -0.364694    0.556565
      8          6           0        1.119591   -1.464901    3.969455
      9          7           0       -1.299121   -1.468558    3.443761
     10          7           0        1.242048   -1.039395    2.588212
     11          8           0        3.522639   -0.898022    2.585036
     12         17           0       -2.346149   -2.781654    7.617477
     13          1           0       -3.999306   -2.212812    5.340138
     14          1           0        0.181446   -2.248992    6.392891
     15          1           0       -3.335943   -1.488700    3.057360
     16          1           0        3.167044    0.329083    0.325261
     17          1           0        2.439153   -1.251546   -0.076873
     18          1           0        1.403461    0.135178    0.350496
     19          1           0        1.574574   -0.694262    4.601534
     20          1           0        1.684381   -2.396370    4.086862
     21          1           0        0.375629   -0.944017    2.062549
 ---------------------------------------------------------------------
                    Distance matrix (angstroms):
                    1          2          3          4          5
     1  C    0.000000
     2  C    2.411162   0.000000
     3  C    1.380611   2.734565   0.000000
     4  C    1.387118   1.389454   2.368322   0.000000
     5  C    2.753077   1.389245   2.326942   2.385482   0.000000
     6  C    6.356601   4.957456   5.425966   6.141518   3.760947
     7  C    7.186360   6.159938   6.062664   7.211056   4.846638
     8  C    4.268137   2.508217   3.712340   3.776404   1.515097
     9  N    2.411076   2.412050   1.354712   2.777003   1.365431
    10  N    4.993167   3.748705   4.069478   4.844932   2.461474
    11  O    7.042613   5.296675   6.278534   6.603387   4.314578
    12  Cl   2.694223   2.695834   3.961720   1.721930   3.976224
    13  H    1.084171   3.404027   2.144966   2.164656   3.836830
    14  H    3.399570   1.085422   3.819865   2.159361   2.155801
    15  H    2.149325   3.821663   1.087787   3.366931   3.293443
    16  H    8.119880   6.980136   7.021325   8.085103   5.712547
    17  H    7.514188   6.562825   6.373342   7.579687   5.257695
    18  H    6.805929   6.109671   5.586651   7.013309   4.741762
    19  H    4.757889   2.806276   4.341494   4.112549   2.151650
    20  H    4.757047   2.809078   4.338629   4.114058   2.151311
    21  H    4.639487   3.913441   3.519143   4.778161   2.526426
                    6          7          8          9         10
     6  C    0.000000
     7  C    1.504028   0.000000
     8  C    2.473215   3.792404   0.000000
     9  N    4.074758   4.785453   2.475184   0.000000
    10  N    1.367181   2.412365   1.450477   2.715453   0.000000
    11  O    1.229552   2.400953   2.830655   4.930749   2.284971
    12  Cl   7.652389   8.819902   5.201274   4.498933   6.419044
    13  H    7.401759   8.164808   5.351752   3.382479   6.035048
    14  H    5.157708   6.506441   2.714398   3.390947   4.130809
    15  H    5.922707   6.316180   4.547995   2.073247   4.623848
    16  H    2.132378   1.093471   4.548692   5.736130   3.270977
    17  H    2.129431   1.093152   4.261401   5.139713   2.929292
    18  H    2.155352   1.093655   3.967078   4.409559   2.532400
    19  H    2.746143   4.132562   1.095636   3.193446   2.069579
    20  H    2.749051   4.127863   1.095631   3.189938   2.069540
    21  H    2.080012   2.553041   2.112129   2.233310   1.017890
                   11         12         13         14         15
    11  O    0.000000
    12  Cl   7.957147   0.000000
    13  H    8.117815   2.871024   0.000000
    14  H    5.242943   2.858684   4.311413   0.000000
    15  H    6.900154   4.842116   2.485049   4.906713   0.000000
    16  H    2.595923   9.656521   9.108612   7.237154   7.284060
    17  H    2.895632   9.189307   8.468873   6.924593   6.575058
    18  H    3.248320   8.681964   7.720071   6.609700   5.694387
    19  H    2.811181   5.368909   5.824060   2.750809   5.208529
    20  H    2.807084   5.372044   5.823118   2.756502   5.204555
    21  H    3.190420   6.453077   5.611817   4.526867   3.880991
                   16         17         18         19         20
    16  H    0.000000
    17  H    1.786036   0.000000
    18  H    1.774390   1.782780   0.000000
    19  H    4.676506   4.790152   4.334579   0.000000
    20  H    4.876067   4.383719   4.521956   1.781606   0.000000
    21  H    3.525756   2.988283   2.269852   2.818916   2.814250
                   21
    21  H    0.000000
 Stoichiometry    C8H9ClN2O
 Framework group  C1[X(C8H9ClN2O)]
 Deg. of freedom    57
 Full point group                 C1      NOp   1
 Largest Abelian subgroup         C1      NOp   1
 Largest concise Abelian subgroup C1      NOp   1
                         Standard orientation:                         
 ---------------------------------------------------------------------
 Center     Atomic      Atomic             Coordinates (Angstroms)
 Number     Number       Type             X           Y           Z
 ---------------------------------------------------------------------
      1          6           0        2.538011    1.339165    0.000877
      2          6           0        1.342723   -0.754872   -0.000230
      3          6           0        1.314903    1.979551    0.001554
      4          6           0        2.538903   -0.047953    0.000002
      5          6           0        0.153447   -0.036802    0.000315
      6          6           0       -3.596252   -0.327298   -0.009127
      7          6           0       -4.625708    0.769160    0.000887
      8          6           0       -1.165340   -0.782671    0.000563
      9          7           0        0.126959    1.328371    0.001375
     10          7           0       -2.303224    0.116818   -0.004232
     11          8           0       -3.898537   -1.519022    0.005539
     12         17           0        4.034584   -0.901170   -0.000756
     13          1           0        3.458790    1.911522    0.001075
     14          1           0        1.334551   -1.840263   -0.000827
     15          1           0        1.258112    3.065854    0.002303
     16          1           0       -5.513170    0.437632   -0.545171
     17          1           0       -4.896758    0.996534    1.035206
     18          1           0       -4.242736    1.674560   -0.478346
     19          1           0       -1.235036   -1.419693   -0.888124
     20          1           0       -1.237681   -1.413458    0.893469
     21          1           0       -2.095978    1.113378   -0.000081
 ---------------------------------------------------------------------
 Rotational constants (GHZ):      2.4031026      0.3139107      0.2786262
 Standard basis: 6-31G(d) (6D, 7F)
 There are   202 symmetry adapted basis functions of A   symmetry.
 Integral buffers will be    131072 words long.
 Raffenetti 2 integral format.
 Two-electron integral symmetry is turned on.
   202 basis functions,   396 primitive gaussians,   202 cartesian basis functions
    48 alpha electrons       48 beta electrons
       nuclear repulsion energy       722.9849105557 Hartrees.
 NAtoms=   21 NActive=   21 NUniq=   21 SFac= 1.00D+00 NAtFMM=   60 NAOKFM=F Big=F
 One-electron integrals computed using PRISM.
 NBasis=   202 RedAO= T  NBF=   202
 NBsUse=   202 1.00D-06 NBFU=   202
 Harris functional with IExCor=  402 diagonalized for initial guess.
 ExpMin= 1.43D-01 ExpMax= 2.52D+04 ExpMxC= 3.78D+03 IAcc=3 IRadAn=         5 AccDes= 0.00D+00
 HarFok:  IExCor=  402 AccDes= 0.00D+00 IRadAn=         5 IDoV= 1
 ScaDFX=  1.000000  1.000000  1.000000  1.000000
 FoFCou: FMM=F IPFlag=           0 FMFlag=      100000 FMFlg1=           0
         NFxFlg=           0 DoJE=T BraDBF=F KetDBF=T FulRan=T
         Omega=  0.000000  0.000000  1.000000  0.000000  0.000000 ICntrl=     500 IOpCl=  0
         NMat0=    1 NMatS0=    1 NMatT0=    0 NMatD0=    1 NMtDS0=    0 NMtDT0=    0
         I1Cent=           4 NGrid=           0.
 Petite list used in FoFCou.
 Initial guess orbital symmetries:
       Occupied  (A) (A) (A) (A) (A) (A) (A) (A) (A) (A) (A) (A)
                 (A) (A) (A) (A) (A) (A) (A) (A) (A) (A) (A) (A)
                 (A) (A) (A) (A) (A) (A) (A) (A) (A) (A) (A) (A)
                 (A) (A) (A) (A) (A) (A) (A) (A) (A) (A) (A) (A)
       Virtual   (A) (A) (A) (A) (A) (A) (A) (A) (A) (A) (A) (A)
                 (A) (A) (A) (A) (A) (A) (A) (A) (A) (A) (A) (A)
                 (A) (A) (A) (A) (A) (A) (A) (A) (A) (A) (A) (A)
                 (A) (A) (A) (A) (A) (A) (A) (A) (A) (A) (A) (A)
                 (A) (A) (A) (A) (A) (A) (A) (A) (A) (A) (A) (A)
                 (A) (A) (A) (A) (A) (A) (A) (A) (A) (A) (A) (A)
                 (A) (A) (A) (A) (A) (A) (A) (A) (A) (A) (A) (A)
                 (A) (A) (A) (A) (A) (A) (A) (A) (A) (A) (A) (A)
                 (A) (A) (A) (A) (A) (A) (A) (A) (A) (A) (A) (A)
                 (A) (A) (A) (A) (A) (A) (A) (A) (A) (A) (A) (A)
                 (A) (A) (A) (A) (A) (A) (A) (A) (A) (A) (A) (A)
                 (A) (A) (A) (A) (A) (A) (A) (A) (A) (A) (A) (A)
                 (A) (A) (A) (A) (A) (A) (A) (A) (A) (A)
 The electronic state of the initial guess is 1-A.
 Requested convergence on RMS density matrix=1.00D-08 within 128 cycles.
 Requested convergence on MAX density matrix=1.00D-06.
 Requested convergence on             energy=1.00D-06.
 No special actions if energy rises.
 Integral accuracy reduced to 1.0D-05 until final iterations.
 Initial convergence to 1.0D-05 achieved.  Increase integral accuracy.
 SCF Done:  E(RB3LYP) =  -955.209670848     A.U. after   15 cycles
             Convg  =    0.3486D-08             -V/T =  2.0064
 Calling FoFJK, ICntrl=      2127 FMM=F ISym2X=0 I1Cent= 0 IOpClX= 0 NMat=1 NMatS=1 NMatT=0.
 ***** Axes restored to original set *****
 -------------------------------------------------------------------
 Center     Atomic                   Forces (Hartrees/Bohr)
 Number     Number              X              Y              Z
 -------------------------------------------------------------------
      1        6          -0.008347642   -0.000848695    0.000998556
      2        6           0.000076741   -0.001263337    0.004323692
      3        6           0.019379170    0.004656250   -0.011341632
      4        6           0.005123362    0.001293087   -0.003232246
      5        6          -0.015697906    0.005023263   -0.020389066
      6        6           0.002856375   -0.003225695    0.010680415
      7        6          -0.001964926    0.006102254   -0.004595445
      8        6           0.001303697    0.002825145   -0.012048695
      9        7           0.005053121   -0.004017553    0.014660576
     10        7          -0.006240933    0.001655514   -0.004482212
     11        8          -0.005594142   -0.000381609    0.001523427
     12       17          -0.003152027   -0.004115093    0.013108863
     13        1           0.000336307   -0.000431434    0.001534757
     14        1          -0.000592150   -0.000176033    0.000481965
     15        1           0.000188788   -0.000009515    0.000063168
     16        1           0.000636107   -0.002749560   -0.000424236
     17        1           0.000800254    0.000179177   -0.003054731
     18        1          -0.001125193   -0.000736062   -0.003354062
     19        1           0.002061581   -0.002946643    0.004957686
     20        1           0.001886909   -0.000203713    0.006157672
     21        1           0.003012508   -0.000629749    0.004431548
 -------------------------------------------------------------------
 Cartesian Forces:  Max     0.020389066 RMS     0.006154778

 GradGradGradGradGradGradGradGradGradGradGradGradGradGradGradGradGradGrad
 Berny optimization.
 Internal  Forces:  Max     0.021688441 RMS     0.004350742
 Search for a local minimum.
 Step number   1 out of a maximum of  107
 All quantities printed in internal units (Hartrees-Bohrs-Radians)
 Mixed Optimization -- RFO/linear search
 Second derivative matrix not updated -- first step.
 ITU=  0
     Eigenvalues ---    0.00566   0.00713   0.01024   0.01284   0.01468
     Eigenvalues ---    0.01486   0.02126   0.02202   0.02230   0.02243
     Eigenvalues ---    0.02245   0.02297   0.02308   0.02329   0.05144
     Eigenvalues ---    0.06580   0.07329   0.07524   0.09935   0.13231
     Eigenvalues ---    0.16000   0.16000   0.16000   0.16000   0.16000
     Eigenvalues ---    0.16000   0.16000   0.22000   0.22056   0.22314
     Eigenvalues ---    0.23500   0.24550   0.24992   0.25000   0.25000
     Eigenvalues ---    0.25000   0.30844   0.31958   0.33375   0.34169
     Eigenvalues ---    0.34170   0.34394   0.34415   0.34451   0.35070
     Eigenvalues ---    0.35347   0.35495   0.38182   0.43694   0.44676
     Eigenvalues ---    0.45007   0.47574   0.48475   0.50884   0.51522
     Eigenvalues ---    0.53020   0.91273
 RFO step:  Lambda=-5.65562525D-03 EMin= 5.66245922D-03
 Linear search not attempted -- first point.
 Iteration  1 RMS(Cart)=  0.04359873 RMS(Int)=  0.00049992
 Iteration  2 RMS(Cart)=  0.00076497 RMS(Int)=  0.00014004
 Iteration  3 RMS(Cart)=  0.00000049 RMS(Int)=  0.00014004
 Variable       Old X    -DE/DX   Delta X   Delta X   Delta X     New X
                                 (Linear)    (Quad)   (Total)
    R1        2.60898   0.01047   0.00000   0.02151   0.02149   2.63047
    R2        2.62127   0.00562   0.00000   0.01378   0.01380   2.63508
    R3        2.04879   0.00009   0.00000   0.00024   0.00024   2.04902
    R4        2.62569   0.00090   0.00000   0.00358   0.00362   2.62931
    R5        2.62529   0.00883   0.00000   0.01785   0.01786   2.64315
    R6        2.05115  -0.00009   0.00000  -0.00024  -0.00024   2.05091
    R7        2.56004  -0.01362   0.00000  -0.02640  -0.02644   2.53359
    R8        2.05562  -0.00018   0.00000  -0.00050  -0.00050   2.05512
    R9        3.25398   0.01410   0.00000   0.04153   0.04153   3.29551
   R10        2.86312  -0.00222   0.00000  -0.00706  -0.00706   2.85606
   R11        2.58029  -0.02169   0.00000  -0.04334  -0.04337   2.53692
   R12        2.84220   0.01184   0.00000   0.03640   0.03640   2.87860
   R13        2.58360  -0.00436   0.00000  -0.00838  -0.00838   2.57522
   R14        2.32352  -0.00413   0.00000  -0.00449  -0.00449   2.31902
   R15        2.06636  -0.00118   0.00000  -0.00338  -0.00338   2.06298
   R16        2.06576   0.00169   0.00000   0.00482   0.00482   2.07058
   R17        2.06671   0.00127   0.00000   0.00364   0.00364   2.07035
   R18        2.74100  -0.00127   0.00000  -0.00328  -0.00328   2.73773
   R19        2.07045   0.00164   0.00000   0.00473   0.00473   2.07518
   R20        2.07044   0.00181   0.00000   0.00520   0.00520   2.07564
   R21        1.92353  -0.00491   0.00000  -0.01086  -0.01086   1.91268
    A1        2.05377  -0.00212   0.00000  -0.00324  -0.00322   2.05055
    A2        2.10311   0.00273   0.00000   0.01168   0.01167   2.11479
    A3        2.12630  -0.00061   0.00000  -0.00844  -0.00845   2.11785
    A4        2.06463  -0.00046   0.00000   0.00099   0.00105   2.06569
    A5        2.11209  -0.00057   0.00000  -0.00531  -0.00535   2.10674
    A6        2.10647   0.00103   0.00000   0.00432   0.00429   2.11076
    A7        2.15784   0.00306   0.00000   0.01143   0.01137   2.16921
    A8        2.10536  -0.00144   0.00000  -0.00514  -0.00511   2.10024
    A9        2.01999  -0.00163   0.00000  -0.00629  -0.00626   2.01373
   A10        2.10391  -0.00680   0.00000  -0.01893  -0.01885   2.08506
   A11        2.08985   0.00362   0.00000   0.01032   0.01028   2.10013
   A12        2.08942   0.00318   0.00000   0.00861   0.00857   2.09799
   A13        2.08367   0.00228   0.00000   0.01121   0.01121   2.09488
   A14        2.13340   0.00491   0.00000   0.01462   0.01461   2.14801
   A15        2.06612  -0.00719   0.00000  -0.02583  -0.02582   2.04029
   A16        1.99380   0.00523   0.00000   0.02043   0.02042   2.01423
   A17        2.13913   0.00211   0.00000   0.00821   0.00821   2.14734
   A18        2.14995  -0.00734   0.00000  -0.02874  -0.02874   2.12121
   A19        1.90833  -0.00123   0.00000  -0.00828  -0.00837   1.89996
   A20        1.90461   0.00233   0.00000   0.00990   0.00976   1.91437
   A21        1.94006   0.00432   0.00000   0.03119   0.03101   1.97107
   A22        1.91169  -0.00258   0.00000  -0.02602  -0.02604   1.88564
   A23        1.89270   0.00008   0.00000   0.00869   0.00856   1.90126
   A24        1.90630  -0.00303   0.00000  -0.01638  -0.01660   1.88970
   A25        1.95795  -0.00875   0.00000  -0.03189  -0.03158   1.92638
   A26        1.91927   0.00097   0.00000  -0.00451  -0.00426   1.91501
   A27        1.91881   0.00080   0.00000  -0.00471  -0.00444   1.91437
   A28        1.88386   0.00555   0.00000   0.03971   0.03950   1.92335
   A29        1.88381   0.00593   0.00000   0.04358   0.04338   1.92719
   A30        1.89874  -0.00432   0.00000  -0.04159  -0.04241   1.85633
   A31        2.05282   0.00141   0.00000  -0.00487  -0.00497   2.04785
   A32        2.14184  -0.00492   0.00000  -0.02180  -0.02181   2.12003
   A33        2.10669   0.00456   0.00000   0.02358   0.02357   2.13025
   A34        2.03465   0.00036   0.00000  -0.00181  -0.00182   2.03284
    D1       -0.00003   0.00000   0.00000  -0.00006  -0.00006  -0.00009
    D2        3.14154   0.00000   0.00000  -0.00001  -0.00001   3.14153
    D3       -3.14158   0.00000   0.00000  -0.00011  -0.00011   3.14150
    D4       -0.00001   0.00000   0.00000  -0.00005  -0.00005  -0.00006
    D5        0.00004   0.00000   0.00000   0.00002   0.00002   0.00006
    D6       -3.14152   0.00000   0.00000  -0.00006  -0.00006  -3.14158
    D7        3.14159   0.00000   0.00000   0.00006   0.00006  -3.14153
    D8        0.00003   0.00000   0.00000  -0.00002  -0.00002   0.00001
    D9        0.00010   0.00000   0.00000  -0.00010  -0.00010   0.00000
   D10       -3.14153   0.00000   0.00000  -0.00002  -0.00002  -3.14155
   D11       -3.14150   0.00000   0.00000  -0.00009  -0.00009  -3.14159
   D12        0.00006   0.00000   0.00000  -0.00001  -0.00001   0.00005
   D13       -3.14123   0.00000   0.00000   0.00009   0.00009  -3.14113
   D14       -0.00027   0.00001   0.00000   0.00023   0.00023  -0.00004
   D15        0.00037   0.00000   0.00000   0.00009   0.00008   0.00046
   D16        3.14133   0.00000   0.00000   0.00022   0.00022   3.14155
   D17       -0.00013   0.00001   0.00000   0.00019   0.00019   0.00006
   D18        3.14149   0.00000   0.00000   0.00013   0.00013  -3.14156
   D19       -3.13760   0.00013   0.00000   0.00245   0.00244  -3.13516
   D20       -1.04091   0.00206   0.00000   0.02861   0.02858  -1.01232
   D21        1.04927  -0.00216   0.00000  -0.02849  -0.02845   1.02082
   D22        0.00461   0.00013   0.00000   0.00230   0.00230   0.00690
   D23        2.10130   0.00206   0.00000   0.02847   0.02844   2.12974
   D24       -2.09171  -0.00217   0.00000  -0.02863  -0.02860  -2.12031
   D25        0.00028  -0.00001   0.00000  -0.00027  -0.00027   0.00001
   D26        3.14124   0.00000   0.00000  -0.00013  -0.00013   3.14112
   D27        2.58804   0.00151   0.00000   0.01671   0.01677   2.60481
   D28       -1.60452  -0.00097   0.00000  -0.01398  -0.01404  -1.61856
   D29        0.49900  -0.00049   0.00000  -0.00821  -0.00816   0.49084
   D30       -0.57888   0.00137   0.00000   0.01197   0.01200  -0.56689
   D31        1.51174  -0.00111   0.00000  -0.01872  -0.01882   1.49293
   D32       -2.66793  -0.00063   0.00000  -0.01295  -0.01293  -2.68086
   D33        3.13105  -0.00065   0.00000  -0.02727  -0.02728   3.10377
   D34       -0.00630  -0.00048   0.00000  -0.01912  -0.01906  -0.02536
   D35        0.01496  -0.00066   0.00000  -0.02311  -0.02317  -0.00821
   D36       -3.12238  -0.00049   0.00000  -0.01496  -0.01496  -3.13734
   D37        3.13794   0.00007   0.00000   0.00346   0.00344   3.14138
   D38       -0.00774  -0.00009   0.00000  -0.00430  -0.00427  -0.01201
   D39        1.02078   0.00060   0.00000   0.00232   0.00272   1.02349
   D40       -2.12490   0.00045   0.00000  -0.00544  -0.00500  -2.12990
   D41       -1.02870  -0.00042   0.00000   0.00696   0.00651  -1.02218
   D42        2.10881  -0.00058   0.00000  -0.00081  -0.00120   2.10761
         Item               Value     Threshold  Converged?
 Maximum Force            0.021688     0.000450     NO 
 RMS     Force            0.004351     0.000300     NO 
 Maximum Displacement     0.157262     0.001800     NO 
 RMS     Displacement     0.043356     0.001200     NO 
 Predicted change in Energy=-2.901273D-03
 GradGradGradGradGradGradGradGradGradGradGradGradGradGradGradGradGradGrad

                          Input orientation:                          
 ---------------------------------------------------------------------
 Center     Atomic      Atomic             Coordinates (Angstroms)
 Number     Number       Type             X           Y           Z
 ---------------------------------------------------------------------
      1          6           0       -2.935255   -2.060333    5.066670
      2          6           0       -0.611185   -2.098704    5.688177
      3          6           0       -2.521616   -1.647582    3.803278
      4          6           0       -1.947885   -2.288535    6.024499
      5          6           0       -0.305960   -1.681830    4.388407
      6          6           0        2.403260   -0.766515    2.002929
      7          6           0        2.324378   -0.367674    0.534900
      8          6           0        1.133498   -1.464596    3.982224
      9          7           0       -1.241729   -1.456986    3.452438
     10          7           0        1.207996   -1.029065    2.602506
     11          8           0        3.464137   -0.879983    2.609248
     12         17           0       -2.383111   -2.807635    7.631461
     13          1           0       -3.986005   -2.198715    5.295744
     14          1           0        0.173661   -2.270414    6.417830
     15          1           0       -3.252723   -1.456423    3.021198
     16          1           0        3.148765    0.311360    0.308912
     17          1           0        2.434707   -1.256964   -0.095618
     18          1           0        1.379214    0.122027    0.275749
     19          1           0        1.595785   -0.717586    4.641146
     20          1           0        1.701665   -2.394183    4.121859
     21          1           0        0.328721   -0.941557    2.108891
 ---------------------------------------------------------------------
                    Distance matrix (angstroms):
                    1          2          3          4          5
     1  C    0.000000
     2  C    2.406043   0.000000
     3  C    1.391984   2.721415   0.000000
     4  C    1.394423   1.391371   2.381977   0.000000
     5  C    2.741623   1.398695   2.291872   2.395998   0.000000
     6  C    6.289692   4.943953   5.317137   6.117356   3.724001
     7  C    7.146032   6.178209   5.983654   7.216484   4.847185
     8  C    4.252727   2.521169   3.664064   3.787438   1.511362
     9  N    2.416155   2.409962   1.340718   2.793856   1.342481
    10  N    4.929721   3.738303   3.966663   4.822435   2.430557
    11  O    6.955888   5.251033   6.151760   6.552705   4.245233
    12  Cl   2.727907   2.723721   4.002486   1.743907   4.012404
    13  H    1.084296   3.399031   2.162322   2.166353   3.825331
    14  H    3.396340   1.085293   3.806352   2.157775   2.166800
    15  H    2.156258   3.808284   1.087525   3.378585   3.256299
    16  H    8.079387   6.991576   6.942713   8.087226   5.705279
    17  H    7.492070   6.590772   6.318157   7.597834   5.272405
    18  H    6.806634   6.179621   5.549005   7.066012   4.796631
    19  H    4.744930   2.806150   4.303476   4.115719   2.147156
    20  H    4.743960   2.808903   4.300582   4.117088   2.146871
    21  H    4.544629   3.877332   3.390256   4.725386   2.479318
                    6          7          8          9         10
     6  C    0.000000
     7  C    1.523287   0.000000
     8  C    2.453003   3.808605   0.000000
     9  N    3.982935   4.734527   2.433606   0.000000
    10  N    1.362748   2.441054   1.448743   2.628051   0.000000
    11  O    1.227175   2.421658   2.767438   4.815504   2.261072
    12  Cl   7.665239   8.858614   5.242826   4.537757   6.430377
    13  H    7.329156   8.114140   5.336064   3.388065   5.966511
    14  H    5.169544   6.546363   2.739126   3.385047   4.143367
    15  H    5.788177   6.202508   4.490276   2.056713   4.500661
    16  H    2.141795   1.091683   4.550663   5.682010   3.289969
    17  H    2.155325   1.095702   4.285446   5.113208   2.972648
    18  H    2.195753   1.095583   4.039271   4.410667   2.601563
    19  H    2.759457   4.185038   1.098140   3.164052   2.098441
    20  H    2.762500   4.166627   1.098382   3.160701   2.101354
    21  H    2.084606   2.605655   2.104901   2.130047   1.012145
                   11         12         13         14         15
    11  O    0.000000
    12  Cl   7.945362   0.000000
    13  H    8.028756   2.897521   0.000000
    14  H    5.221670   2.880727   4.308948   0.000000
    15  H    6.754125   4.882267   2.502450   4.892832   0.000000
    16  H    2.609655   9.692755   9.059465   7.268816   7.173605
    17  H    2.918585   9.237083   8.436778   6.968818   6.488543
    18  H    3.285749   8.766100   7.705307   6.700918   5.611046
    19  H    2.765091   5.398323   5.811937   2.755053   5.165089
    20  H    2.772563   5.401263   5.810835   2.760724   5.161087
    21  H    3.175686   6.429234   5.509386   4.511857   3.731506
                   16         17         18         19         20
    16  H    0.000000
    17  H    1.770075   0.000000
    18  H    1.779960   1.775837   0.000000
    19  H    4.715796   4.840626   4.450680   0.000000
    20  H    4.894142   4.429191   4.607369   1.758365   0.000000
    21  H    3.572447   3.065048   2.365409   2.840410   2.836747
                   21
    21  H    0.000000
 Stoichiometry    C8H9ClN2O
 Framework group  C1[X(C8H9ClN2O)]
 Deg. of freedom    57
 Full point group                 C1      NOp   1
 Largest Abelian subgroup         C1      NOp   1
 Largest concise Abelian subgroup C1      NOp   1
                         Standard orientation:                         
 ---------------------------------------------------------------------
 Center     Atomic      Atomic             Coordinates (Angstroms)
 Number     Number       Type             X           Y           Z
 ---------------------------------------------------------------------
      1          6           0        2.487672    1.360687   -0.003875
      2          6           0        1.352538   -0.760743    0.002846
      3          6           0        1.230319    1.957906   -0.007446
      4          6           0        2.538294   -0.032806    0.001425
      5          6           0        0.142444   -0.059311   -0.001138
      6          6           0       -3.572090   -0.324365   -0.013981
      7          6           0       -4.633644    0.767483    0.023105
      8          6           0       -1.168107   -0.812083    0.000840
      9          7           0        0.072822    1.281354   -0.006219
     10          7           0       -2.281876    0.114303   -0.012736
     11          8           0       -3.843111   -1.521236   -0.012244
     12         17           0        4.074513   -0.858167    0.006171
     13          1           0        3.392640    1.957957   -0.005172
     14          1           0        1.368420   -1.845912    0.006949
     15          1           0        1.136901    3.041404   -0.011565
     16          1           0       -5.520431    0.415659   -0.507557
     17          1           0       -4.917990    0.970688    1.061574
     18          1           0       -4.296780    1.706022   -0.430733
     19          1           0       -1.215848   -1.475282   -0.873116
     20          1           0       -1.220490   -1.461413    0.885188
     21          1           0       -2.049434    1.099394   -0.010500
 ---------------------------------------------------------------------
 Rotational constants (GHZ):      2.4455615      0.3146601      0.2797638
 Standard basis: 6-31G(d) (6D, 7F)
 There are   202 symmetry adapted basis functions of A   symmetry.
 Integral buffers will be    131072 words long.
 Raffenetti 2 integral format.
 Two-electron integral symmetry is turned on.
   202 basis functions,   396 primitive gaussians,   202 cartesian basis functions
    48 alpha electrons       48 beta electrons
       nuclear repulsion energy       723.6712369390 Hartrees.
 NAtoms=   21 NActive=   21 NUniq=   21 SFac= 1.00D+00 NAtFMM=   60 NAOKFM=F Big=F
 One-electron integrals computed using PRISM.
 NBasis=   202 RedAO= T  NBF=   202
 NBsUse=   202 1.00D-06 NBFU=   202
 Initial guess read from the read-write file.
 B after Tr=     0.000000    0.000000    0.000000
         Rot=    1.000000    0.000000    0.000000    0.000000 Ang=   0.00 deg.
 Initial guess orbital symmetries:
       Occupied  (A) (A) (A) (A) (A) (A) (A) (A) (A) (A) (A) (A)
                 (A) (A) (A) (A) (A) (A) (A) (A) (A) (A) (A) (A)
                 (A) (A) (A) (A) (A) (A) (A) (A) (A) (A) (A) (A)
                 (A) (A) (A) (A) (A) (A) (A) (A) (A) (A) (A) (A)
       Virtual   (A) (A) (A) (A) (A) (A) (A) (A) (A) (A) (A) (A)
                 (A) (A) (A) (A) (A) (A) (A) (A) (A) (A) (A) (A)
                 (A) (A) (A) (A) (A) (A) (A) (A) (A) (A) (A) (A)
                 (A) (A) (A) (A) (A) (A) (A) (A) (A) (A) (A) (A)
                 (A) (A) (A) (A) (A) (A) (A) (A) (A) (A) (A) (A)
                 (A) (A) (A) (A) (A) (A) (A) (A) (A) (A) (A) (A)
                 (A) (A) (A) (A) (A) (A) (A) (A) (A) (A) (A) (A)
                 (A) (A) (A) (A) (A) (A) (A) (A) (A) (A) (A) (A)
                 (A) (A) (A) (A) (A) (A) (A) (A) (A) (A) (A) (A)
                 (A) (A) (A) (A) (A) (A) (A) (A) (A) (A) (A) (A)
                 (A) (A) (A) (A) (A) (A) (A) (A) (A) (A) (A) (A)
                 (A) (A) (A) (A) (A) (A) (A) (A) (A) (A) (A) (A)
                 (A) (A) (A) (A) (A) (A) (A) (A) (A) (A)
 Harris functional with IExCor=  402 diagonalized for initial guess.
 ExpMin= 1.43D-01 ExpMax= 2.52D+04 ExpMxC= 3.78D+03 IAcc=3 IRadAn=         5 AccDes= 0.00D+00
 HarFok:  IExCor=  402 AccDes= 0.00D+00 IRadAn=         5 IDoV= 1
 ScaDFX=  1.000000  1.000000  1.000000  1.000000
 FoFCou: FMM=F IPFlag=           0 FMFlag=      100000 FMFlg1=           0
         NFxFlg=           0 DoJE=T BraDBF=F KetDBF=T FulRan=T
         Omega=  0.000000  0.000000  1.000000  0.000000  0.000000 ICntrl=     500 IOpCl=  0
         NMat0=    1 NMatS0=    1 NMatT0=    0 NMatD0=    1 NMtDS0=    0 NMtDT0=    0
         I1Cent=           4 NGrid=           0.
 Petite list used in FoFCou.
 Requested convergence on RMS density matrix=1.00D-08 within 128 cycles.
 Requested convergence on MAX density matrix=1.00D-06.
 Requested convergence on             energy=1.00D-06.
 No special actions if energy rises.
 Integral accuracy reduced to 1.0D-05 until final iterations.
 Initial convergence to 1.0D-05 achieved.  Increase integral accuracy.
 SCF Done:  E(RB3LYP) =  -955.212289210     A.U. after   12 cycles
             Convg  =    0.6463D-08             -V/T =  2.0064
 Calling FoFJK, ICntrl=      2127 FMM=F ISym2X=0 I1Cent= 0 IOpClX= 0 NMat=1 NMatS=1 NMatT=0.
 ***** Axes restored to original set *****
 -------------------------------------------------------------------
 Center     Atomic                   Forces (Hartrees/Bohr)
 Number     Number              X              Y              Z
 -------------------------------------------------------------------
      1        6          -0.002085769   -0.000024299   -0.000371494
      2        6          -0.001275951   -0.000859515    0.002516580
      3        6           0.000602613    0.000704461   -0.002162281
      4        6           0.002855292    0.001435216   -0.004110375
      5        6          -0.001732149    0.001061364   -0.003796156
      6        6           0.000202751   -0.001723202    0.003212965
      7        6          -0.000515941    0.001307375    0.000555123
      8        6           0.000537735    0.001579559   -0.004633862
      9        7          -0.002140821   -0.002232883    0.006754395
     10        7           0.001676280    0.000518450   -0.000763838
     11        8           0.001100938    0.000745453   -0.001672184
     12       17          -0.000583369   -0.000590695    0.001814095
     13        1           0.000177432    0.000039913   -0.000089299
     14        1           0.000200211    0.000114085   -0.000304523
     15        1          -0.001392299   -0.000295610    0.000675319
     16        1           0.000667938   -0.000296565    0.000198813
     17        1           0.000266820   -0.000327768   -0.000038334
     18        1          -0.000197242   -0.000715423    0.000258321
     19        1           0.001218263   -0.000301899    0.000276974
     20        1           0.001210852    0.000230178    0.000272264
     21        1          -0.000793586   -0.000368193    0.001407496
 -------------------------------------------------------------------
 Cartesian Forces:  Max     0.006754395 RMS     0.001698141

 GradGradGradGradGradGradGradGradGradGradGradGradGradGradGradGradGradGrad
 Berny optimization.
 Using GEDIIS/GDIIS optimizer.
 Internal  Forces:  Max     0.005576948 RMS     0.001392309
 Search for a local minimum.
 Step number   2 out of a maximum of  107
 All quantities printed in internal units (Hartrees-Bohrs-Radians)
 Mixed Optimization -- RFO/linear search
 Update second derivatives using D2CorX and points    1    2
 DE= -2.62D-03 DEPred=-2.90D-03 R= 9.02D-01
 SS=  1.41D+00  RLast= 1.62D-01 DXNew= 5.0454D-01 4.8587D-01
 Trust test= 9.02D-01 RLast= 1.62D-01 DXMaxT set to 4.86D-01
 ITU=  1  0
 Use linear search instead of GDIIS.
     Eigenvalues ---    0.00566   0.00712   0.01024   0.01270   0.01480
     Eigenvalues ---    0.01495   0.02125   0.02202   0.02230   0.02243
     Eigenvalues ---    0.02245   0.02298   0.02308   0.02329   0.05220
     Eigenvalues ---    0.06212   0.07048   0.07486   0.09834   0.13118
     Eigenvalues ---    0.15484   0.16000   0.16000   0.16000   0.16000
     Eigenvalues ---    0.16000   0.16193   0.21499   0.22305   0.22557
     Eigenvalues ---    0.23512   0.24604   0.24906   0.24993   0.25000
     Eigenvalues ---    0.28124   0.29981   0.32549   0.34147   0.34169
     Eigenvalues ---    0.34314   0.34404   0.34442   0.34973   0.35275
     Eigenvalues ---    0.35350   0.35515   0.38260   0.43631   0.44701
     Eigenvalues ---    0.45456   0.47188   0.49120   0.50776   0.51562
     Eigenvalues ---    0.53265   0.91268
 RFO step:  Lambda=-6.77530438D-04 EMin= 5.66240567D-03
 Quartic linear search produced a step of -0.07428.
 Iteration  1 RMS(Cart)=  0.03337236 RMS(Int)=  0.00019820
 Iteration  2 RMS(Cart)=  0.00037954 RMS(Int)=  0.00002293
 Iteration  3 RMS(Cart)=  0.00000003 RMS(Int)=  0.00002293
 Variable       Old X    -DE/DX   Delta X   Delta X   Delta X     New X
                                 (Linear)    (Quad)   (Total)
    R1        2.63047  -0.00132  -0.00160   0.00171   0.00012   2.63058
    R2        2.63508   0.00064  -0.00103   0.00397   0.00293   2.63801
    R3        2.04902  -0.00020  -0.00002  -0.00046  -0.00048   2.04854
    R4        2.62931  -0.00081  -0.00027  -0.00085  -0.00113   2.62818
    R5        2.64315   0.00097  -0.00133   0.00533   0.00400   2.64715
    R6        2.05091  -0.00008   0.00002  -0.00025  -0.00023   2.05067
    R7        2.53359  -0.00004   0.00196  -0.00523  -0.00326   2.53033
    R8        2.05512   0.00040   0.00004   0.00095   0.00099   2.05611
    R9        3.29551   0.00199  -0.00308   0.01360   0.01052   3.30603
   R10        2.85606   0.00546   0.00052   0.01495   0.01548   2.87154
   R11        2.53692  -0.00089   0.00322  -0.01005  -0.00683   2.53010
   R12        2.87860  -0.00096  -0.00270   0.00433   0.00163   2.88022
   R13        2.57522   0.00004   0.00062  -0.00156  -0.00094   2.57428
   R14        2.31902   0.00006   0.00033  -0.00081  -0.00048   2.31854
   R15        2.06298   0.00028   0.00025   0.00009   0.00034   2.06332
   R16        2.07058   0.00031  -0.00036   0.00178   0.00142   2.07200
   R17        2.07035  -0.00021  -0.00027   0.00015  -0.00012   2.07023
   R18        2.73773  -0.00314   0.00024  -0.00823  -0.00799   2.72974
   R19        2.07518   0.00047  -0.00035   0.00220   0.00185   2.07703
   R20        2.07564   0.00047  -0.00039   0.00227   0.00189   2.07753
   R21        1.91268  -0.00003   0.00081  -0.00217  -0.00136   1.91131
    A1        2.05055  -0.00129   0.00024  -0.00559  -0.00536   2.04519
    A2        2.11479   0.00059  -0.00087   0.00448   0.00361   2.11840
    A3        2.11785   0.00070   0.00063   0.00112   0.00175   2.11960
    A4        2.06569  -0.00007  -0.00008   0.00014   0.00004   2.06573
    A5        2.10674   0.00042   0.00040   0.00119   0.00159   2.10833
    A6        2.11076  -0.00035  -0.00032  -0.00133  -0.00164   2.10912
    A7        2.16921  -0.00146  -0.00084  -0.00367  -0.00450   2.16472
    A8        2.10024  -0.00083   0.00038  -0.00707  -0.00669   2.09355
    A9        2.01373   0.00230   0.00047   0.01073   0.01119   2.02492
   A10        2.08506   0.00207   0.00140   0.00432   0.00570   2.09077
   A11        2.10013  -0.00118  -0.00076  -0.00253  -0.00328   2.09684
   A12        2.09799  -0.00089  -0.00064  -0.00179  -0.00242   2.09558
   A13        2.09488  -0.00233  -0.00083  -0.00643  -0.00726   2.08762
   A14        2.14801  -0.00325  -0.00109  -0.00907  -0.01015   2.13786
   A15        2.04029   0.00558   0.00192   0.01550   0.01741   2.05771
   A16        2.01423  -0.00117  -0.00152  -0.00022  -0.00176   2.01247
   A17        2.14734  -0.00188  -0.00061  -0.00523  -0.00587   2.14147
   A18        2.12121   0.00306   0.00213   0.00578   0.00789   2.12911
   A19        1.89996  -0.00040   0.00062  -0.00340  -0.00278   1.89718
   A20        1.91437  -0.00029  -0.00072  -0.00111  -0.00183   1.91254
   A21        1.97107  -0.00027  -0.00230   0.00537   0.00308   1.97415
   A22        1.88564   0.00001   0.00193  -0.00693  -0.00500   1.88064
   A23        1.90126   0.00083  -0.00064   0.00898   0.00834   1.90960
   A24        1.88970   0.00015   0.00123  -0.00338  -0.00213   1.88757
   A25        1.92638   0.00466   0.00235   0.01701   0.01925   1.94563
   A26        1.91501  -0.00084   0.00032  -0.00027  -0.00004   1.91497
   A27        1.91437  -0.00078   0.00033  -0.00039  -0.00014   1.91423
   A28        1.92335  -0.00143  -0.00293   0.00254  -0.00046   1.92289
   A29        1.92719  -0.00161  -0.00322   0.00148  -0.00180   1.92540
   A30        1.85633  -0.00023   0.00315  -0.02178  -0.01860   1.83773
   A31        2.04785   0.00401   0.00037   0.01387   0.01426   2.06212
   A32        2.12003  -0.00142   0.00162  -0.01021  -0.00859   2.11144
   A33        2.13025   0.00229  -0.00175   0.01670   0.01495   2.14520
   A34        2.03284  -0.00087   0.00013  -0.00650  -0.00637   2.02647
    D1       -0.00009   0.00000   0.00000   0.00001   0.00002  -0.00008
    D2        3.14153   0.00000   0.00000  -0.00003  -0.00003   3.14150
    D3        3.14150   0.00000   0.00001  -0.00001   0.00000   3.14150
    D4       -0.00006   0.00000   0.00000  -0.00004  -0.00004  -0.00010
    D5        0.00006   0.00000   0.00000   0.00007   0.00007   0.00013
    D6       -3.14158   0.00000   0.00000  -0.00004  -0.00003   3.14158
    D7       -3.14153   0.00000   0.00000   0.00009   0.00009  -3.14145
    D8        0.00001   0.00000   0.00000  -0.00002  -0.00002  -0.00001
    D9        0.00000   0.00000   0.00001   0.00000   0.00000   0.00000
   D10       -3.14155   0.00000   0.00000   0.00011   0.00011  -3.14144
   D11       -3.14159   0.00000   0.00001  -0.00013  -0.00012   3.14147
   D12        0.00005   0.00000   0.00000  -0.00002  -0.00002   0.00003
   D13       -3.14113   0.00001  -0.00001   0.00039   0.00037  -3.14076
   D14       -0.00004   0.00000  -0.00002  -0.00016  -0.00018  -0.00021
   D15        0.00046   0.00001  -0.00001   0.00051   0.00050   0.00096
   D16        3.14155   0.00000  -0.00002  -0.00004  -0.00005   3.14150
   D17        0.00006   0.00000  -0.00001  -0.00017  -0.00018  -0.00012
   D18       -3.14156   0.00000  -0.00001  -0.00013  -0.00014   3.14148
   D19       -3.13516  -0.00006  -0.00018   0.00097   0.00078  -3.13437
   D20       -1.01232   0.00064  -0.00212   0.01501   0.01290  -0.99942
   D21        1.02082  -0.00057   0.00211  -0.01172  -0.00963   1.01119
   D22        0.00690  -0.00005  -0.00017   0.00149   0.00132   0.00822
   D23        2.12974   0.00065  -0.00211   0.01553   0.01344   2.14317
   D24       -2.12031  -0.00056   0.00212  -0.01120  -0.00909  -2.12940
   D25        0.00001   0.00001   0.00002   0.00024   0.00026   0.00027
   D26        3.14112   0.00000   0.00001  -0.00030  -0.00029   3.14083
   D27        2.60481   0.00012  -0.00125  -0.01097  -0.01220   2.59260
   D28       -1.61856  -0.00028   0.00104  -0.02198  -0.02091  -1.63947
   D29        0.49084  -0.00047   0.00061  -0.02349  -0.02286   0.46797
   D30       -0.56689   0.00035  -0.00089   0.00154   0.00062  -0.56627
   D31        1.49293  -0.00005   0.00140  -0.00947  -0.00808   1.48484
   D32       -2.68086  -0.00024   0.00096  -0.01097  -0.01004  -2.69090
   D33        3.10377  -0.00002   0.00203  -0.00305  -0.00100   3.10278
   D34       -0.02536  -0.00001   0.00142  -0.00116   0.00029  -0.02506
   D35       -0.00821  -0.00016   0.00172  -0.01515  -0.01346  -0.02167
   D36       -3.13734  -0.00014   0.00111  -0.01326  -0.01217   3.13367
   D37        3.14138   0.00001  -0.00026   0.00154   0.00129  -3.14051
   D38       -0.01201   0.00002   0.00032  -0.00009   0.00023  -0.01178
   D39        1.02349  -0.00107  -0.00020  -0.01097  -0.01121   1.01229
   D40       -2.12990  -0.00106   0.00037  -0.01260  -0.01227  -2.14216
   D41       -1.02218   0.00106  -0.00048   0.01332   0.01286  -1.00932
   D42        2.10761   0.00107   0.00009   0.01168   0.01181   2.11942
         Item               Value     Threshold  Converged?
 Maximum Force            0.005577     0.000450     NO 
 RMS     Force            0.001392     0.000300     NO 
 Maximum Displacement     0.121863     0.001800     NO 
 RMS     Displacement     0.033249     0.001200     NO 
 Predicted change in Energy=-3.571520D-04
 GradGradGradGradGradGradGradGradGradGradGradGradGradGradGradGradGradGrad

                          Input orientation:                          
 ---------------------------------------------------------------------
 Center     Atomic      Atomic             Coordinates (Angstroms)
 Number     Number       Type             X           Y           Z
 ---------------------------------------------------------------------
      1          6           0       -2.953777   -2.067586    5.093738
      2          6           0       -0.614891   -2.097039    5.677699
      3          6           0       -2.560015   -1.653357    3.824424
      4          6           0       -1.945456   -2.291077    6.032934
      5          6           0       -0.329141   -1.678331    4.371826
      6          6           0        2.414342   -0.767801    2.002915
      7          6           0        2.363756   -0.365016    0.533822
      8          6           0        1.114883   -1.458636    3.952816
      9          7           0       -1.285838   -1.460449    3.460876
     10          7           0        1.206263   -1.021227    2.579151
     11          8           0        3.466561   -0.876657    2.624462
     12         17           0       -2.353194   -2.813402    7.652064
     13          1           0       -3.999360   -2.210378    5.341754
     14          1           0        0.181937   -2.265824    6.394756
     15          1           0       -3.308759   -1.466176    3.057487
     16          1           0        3.191119    0.317473    0.329263
     17          1           0        2.499194   -1.252660   -0.095432
     18          1           0        1.419275    0.112739    0.251222
     19          1           0        1.585817   -0.720892    4.617659
     20          1           0        1.687370   -2.386056    4.096996
     21          1           0        0.330232   -0.929542    2.082018
 ---------------------------------------------------------------------
                    Distance matrix (angstroms):
                    1          2          3          4          5
     1  C    0.000000
     2  C    2.410864   0.000000
     3  C    1.392045   2.723048   0.000000
     4  C    1.395976   1.390772   2.379472   0.000000
     5  C    2.749797   1.400811   2.297187   2.397334   0.000000
     6  C    6.329243   4.944407   5.370878   6.129377   3.737313
     7  C    7.208865   6.191261   6.060644   7.247017   4.868960
     8  C    4.269252   2.524856   3.682292   3.792826   1.519553
     9  N    2.411819   2.402024   1.338995   2.782179   1.338869
    10  N    4.972318   3.751662   4.016858   4.845046   2.450089
    11  O    6.981144   5.241168   6.193770   6.550435   4.254800
    12  Cl   2.731662   2.726352   4.004911   1.749473   4.018101
    13  H    1.084042   3.402989   2.164319   2.168585   3.833319
    14  H    3.400683   1.085170   3.807890   2.158090   2.167624
    15  H    2.152678   3.810568   1.088047   3.375254   3.263529
    16  H    8.133171   6.994380   7.012551   8.106837   5.719946
    17  H    7.571425   6.613588   6.412599   7.641341   5.304439
    18  H    6.879488   6.202225   5.632195   7.108301   4.821231
    19  H    4.759006   2.803672   4.322804   4.115625   2.155038
    20  H    4.757642   2.807590   4.318729   4.117560   2.154698
    21  H    4.598947   3.896823   3.451582   4.758390   2.497735
                    6          7          8          9         10
     6  C    0.000000
     7  C    1.524149   0.000000
     8  C    2.442941   3.800685   0.000000
     9  N    4.036923   4.804910   2.450606   0.000000
    10  N    1.362251   2.440036   1.444517   2.679725   0.000000
    11  O    1.226921   2.418415   2.762900   4.860628   2.265370
    12  Cl   7.669861   8.883332   5.248561   4.531643   6.451052
    13  H    7.373225   8.186014   5.352546   3.385749   6.012035
    14  H    5.149367   6.536357   2.735875   3.377964   4.142114
    15  H    5.861206   6.305464   4.513345   2.062757   4.562041
    16  H    2.140634   1.091863   4.538221   5.745533   3.285387
    17  H    2.155307   1.096456   4.283346   5.197785   2.979702
    18  H    2.198622   1.095517   4.032824   4.482682   2.598174
    19  H    2.743272   4.172477   1.099119   3.183000   2.095179
    20  H    2.744524   4.151904   1.099380   3.178264   2.097158
    21  H    2.091872   2.617407   2.096545   2.189702   1.011424
                   11         12         13         14         15
    11  O    0.000000
    12  Cl   7.930783   0.000000
    13  H    8.056207   2.900178   0.000000
    14  H    5.189765   2.882283   4.312207   0.000000
    15  H    6.814691   4.882444   2.499729   4.895075   0.000000
    16  H    2.601875   9.703876   9.122395   7.246986   7.271384
    17  H    2.911185   9.273904   8.527099   6.965538   6.612020
    18  H    3.286724   8.807173   7.789223   6.703102   5.720350
    19  H    2.744867   5.394629   5.825554   2.741490   5.190998
    20  H    2.759015   5.398824   5.824018   2.749634   5.185370
    21  H    3.183332   6.463368   5.568823   4.517450   3.805493
                   16         17         18         19         20
    16  H    0.000000
    17  H    1.767609   0.000000
    18  H    1.785340   1.775024   0.000000
    19  H    4.695268   4.830141   4.448421   0.000000
    20  H    4.875052   4.418155   4.594108   1.747619   0.000000
    21  H    3.579367   3.090322   2.371535   2.837164   2.832558
                   21
    21  H    0.000000
 Stoichiometry    C8H9ClN2O
 Framework group  C1[X(C8H9ClN2O)]
 Deg. of freedom    57
 Full point group                 C1      NOp   1
 Largest Abelian subgroup         C1      NOp   1
 Largest concise Abelian subgroup C1      NOp   1
                         Standard orientation:                         
 ---------------------------------------------------------------------
 Center     Atomic      Atomic             Coordinates (Angstroms)
 Number     Number       Type             X           Y           Z
 ---------------------------------------------------------------------
      1          6           0        2.517707    1.357899   -0.005278
      2          6           0        1.344714   -0.748346    0.003866
      3          6           0        1.269245    1.973624   -0.009277
      4          6           0        2.540320   -0.037877    0.001532
      5          6           0        0.143006   -0.028520   -0.000764
      6          6           0       -3.582029   -0.331038   -0.011039
      7          6           0       -4.664663    0.741166    0.025154
      8          6           0       -1.179990   -0.775990    0.002735
      9          7           0        0.106368    1.309833   -0.007069
     10          7           0       -2.301651    0.134105   -0.012620
     11          8           0       -3.837635   -1.531011   -0.019209
     12         17           0        4.067293   -0.891681    0.006888
     13          1           0        3.433275    1.938310   -0.007377
     14          1           0        1.343230   -1.833503    0.009028
     15          1           0        1.199049    3.059392   -0.014533
     16          1           0       -5.539586    0.373587   -0.514810
     17          1           0       -4.965389    0.924803    1.063449
     18          1           0       -4.341670    1.693232   -0.410052
     19          1           0       -1.227198   -1.450424   -0.863851
     20          1           0       -1.232426   -1.431626    0.883660
     21          1           0       -2.075067    1.119821   -0.012700
 ---------------------------------------------------------------------
 Rotational constants (GHZ):      2.4151110      0.3131627      0.2781738
 Standard basis: 6-31G(d) (6D, 7F)
 There are   202 symmetry adapted basis functions of A   symmetry.
 Integral buffers will be    131072 words long.
 Raffenetti 2 integral format.
 Two-electron integral symmetry is turned on.
   202 basis functions,   396 primitive gaussians,   202 cartesian basis functions
    48 alpha electrons       48 beta electrons
       nuclear repulsion energy       722.3576197912 Hartrees.
 NAtoms=   21 NActive=   21 NUniq=   21 SFac= 1.00D+00 NAtFMM=   60 NAOKFM=F Big=F
 One-electron integrals computed using PRISM.
 NBasis=   202 RedAO= T  NBF=   202
 NBsUse=   202 1.00D-06 NBFU=   202
 Initial guess read from the read-write file.
 B after Tr=     0.000000    0.000000    0.000000
         Rot=    1.000000    0.000000    0.000000    0.000000 Ang=   0.00 deg.
 Initial guess orbital symmetries:
       Occupied  (A) (A) (A) (A) (A) (A) (A) (A) (A) (A) (A) (A)
                 (A) (A) (A) (A) (A) (A) (A) (A) (A) (A) (A) (A)
                 (A) (A) (A) (A) (A) (A) (A) (A) (A) (A) (A) (A)
                 (A) (A) (A) (A) (A) (A) (A) (A) (A) (A) (A) (A)
       Virtual   (A) (A) (A) (A) (A) (A) (A) (A) (A) (A) (A) (A)
                 (A) (A) (A) (A) (A) (A) (A) (A) (A) (A) (A) (A)
                 (A) (A) (A) (A) (A) (A) (A) (A) (A) (A) (A) (A)
                 (A) (A) (A) (A) (A) (A) (A) (A) (A) (A) (A) (A)
                 (A) (A) (A) (A) (A) (A) (A) (A) (A) (A) (A) (A)
                 (A) (A) (A) (A) (A) (A) (A) (A) (A) (A) (A) (A)
                 (A) (A) (A) (A) (A) (A) (A) (A) (A) (A) (A) (A)
                 (A) (A) (A) (A) (A) (A) (A) (A) (A) (A) (A) (A)
                 (A) (A) (A) (A) (A) (A) (A) (A) (A) (A) (A) (A)
                 (A) (A) (A) (A) (A) (A) (A) (A) (A) (A) (A) (A)
                 (A) (A) (A) (A) (A) (A) (A) (A) (A) (A) (A) (A)
                 (A) (A) (A) (A) (A) (A) (A) (A) (A) (A) (A) (A)
                 (A) (A) (A) (A) (A) (A) (A) (A) (A) (A)
 Harris functional with IExCor=  402 diagonalized for initial guess.
 ExpMin= 1.43D-01 ExpMax= 2.52D+04 ExpMxC= 3.78D+03 IAcc=3 IRadAn=         5 AccDes= 0.00D+00
 HarFok:  IExCor=  402 AccDes= 0.00D+00 IRadAn=         5 IDoV= 1
 ScaDFX=  1.000000  1.000000  1.000000  1.000000
 FoFCou: FMM=F IPFlag=           0 FMFlag=      100000 FMFlg1=           0
         NFxFlg=           0 DoJE=T BraDBF=F KetDBF=T FulRan=T
         Omega=  0.000000  0.000000  1.000000  0.000000  0.000000 ICntrl=     500 IOpCl=  0
         NMat0=    1 NMatS0=    1 NMatT0=    0 NMatD0=    1 NMtDS0=    0 NMtDT0=    0
         I1Cent=           4 NGrid=           0.
 Petite list used in FoFCou.
 Requested convergence on RMS density matrix=1.00D-08 within 128 cycles.
 Requested convergence on MAX density matrix=1.00D-06.
 Requested convergence on             energy=1.00D-06.
 No special actions if energy rises.
 Integral accuracy reduced to 1.0D-05 until final iterations.
 Initial convergence to 1.0D-05 achieved.  Increase integral accuracy.
 SCF Done:  E(RB3LYP) =  -955.212561514     A.U. after   11 cycles
             Convg  =    0.5858D-08             -V/T =  2.0064
 Calling FoFJK, ICntrl=      2127 FMM=F ISym2X=0 I1Cent= 0 IOpClX= 0 NMat=1 NMatS=1 NMatT=0.
 ***** Axes restored to original set *****
 -------------------------------------------------------------------
 Center     Atomic                   Forces (Hartrees/Bohr)
 Number     Number              X              Y              Z
 -------------------------------------------------------------------
      1        6           0.000096925   -0.000110834    0.000362048
      2        6          -0.000429434   -0.000561835    0.001776984
      3        6          -0.000646265   -0.000076447    0.000135059
      4        6           0.001272211    0.000753880   -0.002190749
      5        6           0.000538300    0.000316552   -0.001050774
      6        6          -0.000073237    0.001462851   -0.000742110
      7        6          -0.000018568   -0.000302085    0.000290750
      8        6          -0.000620918   -0.000130542    0.000838949
      9        7           0.001359905    0.000186618   -0.000291771
     10        7          -0.000492091   -0.000718559    0.001267177
     11        8          -0.000230257   -0.000616202   -0.000463790
     12       17          -0.000045525   -0.000001442   -0.000010602
     13        1           0.000110637    0.000016850   -0.000033020
     14        1           0.000007956    0.000009385   -0.000001887
     15        1          -0.000159536   -0.000038414    0.000100203
     16        1           0.000059522    0.000173983    0.000136972
     17        1           0.000099992   -0.000123013    0.000211427
     18        1           0.000108445   -0.000271840    0.000367681
     19        1          -0.000152477    0.000264828    0.000035076
     20        1          -0.000115817   -0.000258251   -0.000169598
     21        1          -0.000669767    0.000024519   -0.000568024
 -------------------------------------------------------------------
 Cartesian Forces:  Max     0.002190749 RMS     0.000605058

 GradGradGradGradGradGradGradGradGradGradGradGradGradGradGradGradGradGrad
 Berny optimization.
 Using GEDIIS/GDIIS optimizer.
 Internal  Forces:  Max     0.002501813 RMS     0.000543260
 Search for a local minimum.
 Step number   3 out of a maximum of  107
 All quantities printed in internal units (Hartrees-Bohrs-Radians)
 Mixed Optimization -- En-DIIS/RFO-DIIS
 Update second derivatives using D2CorX and points    1    2    3
 DE= -2.72D-04 DEPred=-3.57D-04 R= 7.62D-01
 SS=  1.41D+00  RLast= 7.39D-02 DXNew= 8.1712D-01 2.2161D-01
 Trust test= 7.62D-01 RLast= 7.39D-02 DXMaxT set to 4.86D-01
 ITU=  1  1  0
 Use linear search instead of GDIIS.
     Eigenvalues ---    0.00566   0.00696   0.01024   0.01303   0.01471
     Eigenvalues ---    0.01502   0.02141   0.02202   0.02230   0.02243
     Eigenvalues ---    0.02245   0.02298   0.02308   0.02329   0.05049
     Eigenvalues ---    0.06490   0.06998   0.07491   0.10016   0.13246
     Eigenvalues ---    0.14890   0.16000   0.16000   0.16000   0.16000
     Eigenvalues ---    0.16015   0.16211   0.20765   0.22370   0.22770
     Eigenvalues ---    0.23412   0.24657   0.24957   0.25000   0.25179
     Eigenvalues ---    0.28481   0.31710   0.32600   0.34135   0.34170
     Eigenvalues ---    0.34403   0.34436   0.34452   0.35066   0.35347
     Eigenvalues ---    0.35495   0.37589   0.39765   0.43901   0.44810
     Eigenvalues ---    0.45707   0.47381   0.48997   0.51006   0.51569
     Eigenvalues ---    0.53275   0.91265
 RFO step:  Lambda=-7.56311438D-05 EMin= 5.66216552D-03
 Quartic linear search produced a step of -0.18298.
 Iteration  1 RMS(Cart)=  0.01158702 RMS(Int)=  0.00003700
 Iteration  2 RMS(Cart)=  0.00006729 RMS(Int)=  0.00001219
 Iteration  3 RMS(Cart)=  0.00000000 RMS(Int)=  0.00001219
 Variable       Old X    -DE/DX   Delta X   Delta X   Delta X     New X
                                 (Linear)    (Quad)   (Total)
    R1        2.63058  -0.00048  -0.00002  -0.00092  -0.00094   2.62964
    R2        2.63801  -0.00041  -0.00054   0.00002  -0.00051   2.63750
    R3        2.04854  -0.00012   0.00009  -0.00041  -0.00032   2.04822
    R4        2.62818  -0.00150   0.00021  -0.00295  -0.00274   2.62543
    R5        2.64715   0.00013  -0.00073   0.00127   0.00054   2.64769
    R6        2.05067   0.00000   0.00004  -0.00006  -0.00002   2.05066
    R7        2.53033   0.00040   0.00060  -0.00013   0.00047   2.53080
    R8        2.05611   0.00003  -0.00018   0.00037   0.00019   2.05630
    R9        3.30603   0.00000  -0.00192   0.00279   0.00086   3.30689
   R10        2.87154  -0.00240  -0.00283  -0.00164  -0.00447   2.86707
   R11        2.53010  -0.00032   0.00125  -0.00213  -0.00088   2.52921
   R12        2.88022  -0.00112  -0.00030  -0.00261  -0.00291   2.87731
   R13        2.57428   0.00010   0.00017  -0.00006   0.00011   2.57439
   R14        2.31854  -0.00038   0.00009  -0.00044  -0.00035   2.31819
   R15        2.06332   0.00013  -0.00006   0.00043   0.00036   2.06369
   R16        2.07200  -0.00001  -0.00026   0.00036   0.00010   2.07210
   R17        2.07023  -0.00031   0.00002  -0.00078  -0.00076   2.06947
   R18        2.72974  -0.00066   0.00146  -0.00374  -0.00227   2.72747
   R19        2.07703   0.00013  -0.00034   0.00082   0.00049   2.07752
   R20        2.07753   0.00014  -0.00035   0.00084   0.00049   2.07802
   R21        1.91131   0.00086   0.00025   0.00123   0.00148   1.91279
    A1        2.04519   0.00001   0.00098  -0.00155  -0.00057   2.04462
    A2        2.11840  -0.00001  -0.00066   0.00093   0.00027   2.11867
    A3        2.11960   0.00000  -0.00032   0.00062   0.00030   2.11989
    A4        2.06573  -0.00110  -0.00001  -0.00403  -0.00403   2.06170
    A5        2.10833   0.00056  -0.00029   0.00257   0.00228   2.11061
    A6        2.10912   0.00054   0.00030   0.00145   0.00175   2.11088
    A7        2.16472  -0.00050   0.00082  -0.00305  -0.00223   2.16249
    A8        2.09355   0.00006   0.00122  -0.00207  -0.00084   2.09270
    A9        2.02492   0.00045  -0.00205   0.00512   0.00307   2.02800
   A10        2.09077   0.00107  -0.00104   0.00512   0.00409   2.09485
   A11        2.09684  -0.00061   0.00060  -0.00294  -0.00234   2.09450
   A12        2.09558  -0.00046   0.00044  -0.00218  -0.00174   2.09383
   A13        2.08762   0.00057   0.00133  -0.00051   0.00082   2.08844
   A14        2.13786   0.00080   0.00186  -0.00031   0.00154   2.13940
   A15        2.05771  -0.00137  -0.00319   0.00082  -0.00236   2.05534
   A16        2.01247   0.00005   0.00032  -0.00065  -0.00039   2.01208
   A17        2.14147  -0.00014   0.00107  -0.00236  -0.00134   2.14013
   A18        2.12911   0.00009  -0.00144   0.00271   0.00121   2.13031
   A19        1.89718  -0.00005   0.00051  -0.00082  -0.00031   1.89687
   A20        1.91254  -0.00026   0.00034  -0.00188  -0.00154   1.91100
   A21        1.97415  -0.00042  -0.00056  -0.00163  -0.00219   1.97196
   A22        1.88064   0.00021   0.00092   0.00019   0.00111   1.88175
   A23        1.90960   0.00024  -0.00153   0.00351   0.00198   1.91159
   A24        1.88757   0.00030   0.00039   0.00071   0.00110   1.88866
   A25        1.94563  -0.00250  -0.00352  -0.00457  -0.00808   1.93754
   A26        1.91497   0.00066   0.00001   0.00169   0.00171   1.91668
   A27        1.91423   0.00068   0.00003   0.00156   0.00159   1.91582
   A28        1.92289   0.00072   0.00008   0.00167   0.00176   1.92466
   A29        1.92540   0.00068   0.00033   0.00077   0.00110   1.92650
   A30        1.83773  -0.00007   0.00340  -0.00085   0.00256   1.84029
   A31        2.06212  -0.00027  -0.00261   0.00382   0.00120   2.06332
   A32        2.11144   0.00040   0.00157  -0.00089   0.00068   2.11212
   A33        2.14520  -0.00034  -0.00273   0.00278   0.00004   2.14524
   A34        2.02647  -0.00006   0.00117  -0.00188  -0.00072   2.02575
    D1       -0.00008   0.00001   0.00000   0.00019   0.00019   0.00011
    D2        3.14150   0.00000   0.00000   0.00014   0.00014  -3.14154
    D3        3.14150   0.00000   0.00000   0.00006   0.00006   3.14157
    D4       -0.00010   0.00000   0.00001   0.00001   0.00002  -0.00008
    D5        0.00013   0.00000  -0.00001  -0.00006  -0.00008   0.00006
    D6        3.14158   0.00000   0.00001  -0.00012  -0.00011   3.14147
    D7       -3.14145   0.00000  -0.00002   0.00007   0.00005  -3.14140
    D8       -0.00001   0.00000   0.00000   0.00001   0.00002   0.00001
    D9        0.00000   0.00000   0.00000  -0.00017  -0.00017  -0.00017
   D10       -3.14144   0.00000  -0.00002  -0.00012  -0.00013  -3.14157
   D11        3.14147   0.00000   0.00002  -0.00019  -0.00017   3.14130
   D12        0.00003   0.00000   0.00000  -0.00014  -0.00014  -0.00011
   D13       -3.14076   0.00000  -0.00007  -0.00005  -0.00012  -3.14088
   D14       -0.00021   0.00001   0.00003   0.00030   0.00034   0.00012
   D15        0.00096   0.00000  -0.00009  -0.00003  -0.00012   0.00084
   D16        3.14150   0.00001   0.00001   0.00033   0.00034  -3.14134
   D17       -0.00012   0.00000   0.00003  -0.00007  -0.00004  -0.00016
   D18        3.14148   0.00000   0.00003  -0.00002   0.00001   3.14149
   D19       -3.13437  -0.00001  -0.00014  -0.00006  -0.00021  -3.13458
   D20       -0.99942  -0.00032  -0.00236   0.00015  -0.00222  -1.00164
   D21        1.01119   0.00035   0.00176   0.00097   0.00273   1.01392
   D22        0.00822  -0.00002  -0.00024  -0.00040  -0.00064   0.00758
   D23        2.14317  -0.00033  -0.00246  -0.00019  -0.00266   2.14052
   D24       -2.12940   0.00034   0.00166   0.00063   0.00229  -2.12711
   D25        0.00027   0.00000  -0.00005  -0.00019  -0.00023   0.00004
   D26        3.14083   0.00000   0.00005   0.00016   0.00022   3.14105
   D27        2.59260   0.00004   0.00223  -0.00277  -0.00054   2.59206
   D28       -1.63947   0.00012   0.00383  -0.00407  -0.00026  -1.63973
   D29        0.46797   0.00004   0.00418  -0.00558  -0.00140   0.46657
   D30       -0.56627  -0.00031  -0.00011  -0.02166  -0.02176  -0.58803
   D31        1.48484  -0.00022   0.00148  -0.02296  -0.02148   1.46337
   D32       -2.69090  -0.00030   0.00184  -0.02447  -0.02262  -2.71352
   D33        3.10278  -0.00006   0.00018  -0.00674  -0.00657   3.09621
   D34       -0.02506  -0.00008  -0.00005  -0.00738  -0.00745  -0.03252
   D35       -0.02167   0.00028   0.00246   0.01207   0.01455  -0.00712
   D36        3.13367   0.00026   0.00223   0.01142   0.01366  -3.13585
   D37       -3.14051   0.00000  -0.00024   0.00017  -0.00006  -3.14058
   D38       -0.01178   0.00002  -0.00004   0.00081   0.00077  -0.01101
   D39        1.01229   0.00036   0.00205  -0.00003   0.00203   1.01431
   D40       -2.14216   0.00037   0.00224   0.00061   0.00286  -2.13931
   D41       -1.00932  -0.00038  -0.00235  -0.00043  -0.00279  -1.01211
   D42        2.11942  -0.00036  -0.00216   0.00021  -0.00195   2.11746
         Item               Value     Threshold  Converged?
 Maximum Force            0.002502     0.000450     NO 
 RMS     Force            0.000543     0.000300     NO 
 Maximum Displacement     0.035597     0.001800     NO 
 RMS     Displacement     0.011626     0.001200     NO 
 Predicted change in Energy=-5.190820D-05
 GradGradGradGradGradGradGradGradGradGradGradGradGradGradGradGradGradGrad

                          Input orientation:                          
[...]
 ,0.00056530,0.00054178,0.00002031,-0.00305956,-0.00378992,0.00595086,-
 0.03519965,-0.06644944,0.04684987,-0.01078686,0.00738616,0.01062485,-0
 .00221994,-0.07709124,0.04861654,-0.00012243,0.00144441,0.00196375,0.0
 1725593,0.11700947,0.00079165,-0.00022448,0.00070377,0.00226997,0.0002
 8271,0.00052945,-0.00058223,0.00047845,-0.00112713,-0.00174383,-0.0000
 3562,0.00042038,0.00984596,0.00463557,-0.01534410,0.08033335,0.0464751
 5,-0.18589306,0.03281856,0.01173996,-0.02130290,-0.00008850,0.04895658
 ,-0.21793359,-0.00109801,0.00175419,-0.00369726,0.05333628,-0.17671124
 ,0.62805143,-0.00061766,-0.00016314,0.00043242,-0.00116555,-0.00019903
 ,0.00046864,0.00137368,-0.00019271,0.00081656,0.00055161,0.00037249,-0
 .00111730,0.00198721,0.00041471,-0.00114803,-0.52162248,0.05957629,-0.
 25146275,-0.00605704,0.00596585,-0.02200232,0.00167851,0.00441914,-0.0
 1299315,-0.00336680,-0.00045680,0.00105040,-0.10549728,-0.00076848,-0.
 01569034,0.63181753,-0.00008035,0.00005182,0.00001019,0.00001947,0.000
 04691,0.00008708,0.00000544,-0.00016804,0.00003609,0.00007117,0.000029
 43,-0.00010056,0.00008267,0.00082829,-0.00059845,0.05725549,-0.0918370
 3,0.04511459,0.01233361,0.01268578,0.01131983,-0.00011055,-0.00515373,
 -0.00153935,-0.00067748,-0.00018680,-0.00007865,-0.00383466,0.02270969
 ,-0.00366953,-0.06498252,0.05040810,0.00016081,-0.00000227,0.00008770,
 -0.00023177,0.00005659,-0.00014064,0.00019869,0.00000380,-0.00015358,-
 0.00015085,-0.00005861,0.00015896,-0.00008949,-0.00052780,0.00238570,-
 0.24414402,0.04546270,-0.25892376,-0.04222308,0.01042612,-0.02335707,0
 .00139867,-0.00092943,-0.00258117,0.00168906,-0.00005995,0.00022443,-0
 .00587635,-0.00323737,0.03101658,0.29052284,-0.05502873,0.25172887,0.0
 0839002,0.00466246,-0.01443922,-0.00508329,-0.01119398,0.03436970,-0.0
 0343743,-0.00015966,-0.00066418,-0.04820776,-0.00908664,0.02607513,-0.
 00519575,0.00094438,-0.00448034,0.00074920,0.00007198,-0.00010928,-0.0
 0008643,-0.00001985,0.00004640,0.00066633,-0.00028166,0.00102246,0.002
 81563,-0.00030748,0.00167552,-0.00099941,-0.00014415,0.00033500,-0.000
 33416,-0.00002029,0.00001662,0.04782193,-0.00323086,0.00072625,0.01346
 605,-0.00354594,0.00133704,0.01171149,0.00216090,0.00558458,0.00053954
 ,-0.00904420,-0.03789296,0.03759240,-0.00120765,0.00629476,-0.00032212
 ,0.00065957,0.00000875,-0.00019418,-0.00004488,0.00001054,0.00004468,0
 .00038217,-0.00035666,0.00020352,-0.00041668,-0.00268662,0.00030032,-0
 .00070891,-0.00018987,0.00022690,-0.00034331,-0.00000310,-0.00000734,0
 .01504936,0.03219189,0.01072610,0.01448296,-0.03971648,0.00998066,0.01
 072531,-0.02775543,-0.00806319,0.00024067,0.00386131,0.02594461,0.0375
 8747,-0.14223266,0.00237675,-0.00004543,0.00668764,-0.00199777,-0.0002
 8102,0.00052421,0.00012794,0.00004889,-0.00010973,-0.00109295,0.000117
 87,-0.00082242,0.00202536,0.00031399,-0.00331486,0.00214353,0.00030682
 ,-0.00077365,0.00105162,0.00003800,0.00003601,-0.04340563,-0.06147011,
 0.20269796,-0.33068690,-0.03198215,0.06362426,-0.00067214,0.00091277,-
 0.00375888,-0.00302566,0.00013808,-0.00083449,-0.01704456,-0.00328806,
 0.00810225,0.00072741,0.00017570,-0.00042594,0.00015748,0.00003290,-0.
 00008210,-0.00000896,-0.00000371,0.00001078,0.00005419,0.00001189,0.00
 011018,0.00139408,-0.00065605,0.00119240,-0.00015930,-0.00003201,0.000
 10617,-0.00009553,-0.00000600,0.00000437,0.00126958,0.00003833,0.00036
 538,0.34816413,-0.03283326,-0.03899474,0.01460990,0.00065810,0.0051595
 4,0.00249045,-0.00926324,-0.00028620,-0.00019164,0.00626357,0.00217356
 ,-0.00155220,0.00045171,-0.00043979,0.00048216,0.00006258,0.00002296,-
 0.00005409,-0.00000033,-0.00000291,0.00000288,-0.00000586,-0.00100373,
 -0.00030639,-0.00088691,0.00705570,0.00410133,-0.00008789,-0.00019305,
 -0.00003781,-0.00005160,0.00000484,0.00000374,0.00026864,-0.00213408,-
 0.00117560,0.03476016,0.03095266,0.06633563,0.01471952,-0.07147526,-0.
 00294851,0.00252297,-0.00251050,0.02914434,0.00102051,0.00053302,-0.02
 235147,-0.00278366,0.00742880,-0.00130724,0.00044697,-0.00190085,-0.00
 017907,-0.00005900,0.00016389,0.00000025,0.00000242,-0.00000976,0.0001
 6624,-0.00030352,-0.00010892,0.00192892,0.00413030,-0.00454492,0.00028
 623,-0.00002988,-0.00006730,0.00014991,0.00001011,-0.00000214,-0.00036
 880,-0.00120520,0.00128159,-0.06908009,-0.01716257,0.06998878,-0.00403
 807,-0.00147897,0.00334577,-0.21263198,0.03571891,-0.13677335,-0.00048
 656,-0.00029266,0.00090945,-0.01821437,0.00600159,-0.02176993,0.009693
 21,-0.00105417,0.00451192,-0.00007308,-0.00003741,0.00009320,0.0000105
 0,0.00000437,-0.00001503,0.00010147,-0.00012295,0.00058973,0.00122106,
 -0.00112578,0.00276663,0.00002833,0.00014038,-0.00040406,0.00002689,0.
 00002424,-0.00006271,0.00132169,0.00031850,-0.00047868,-0.00065741,0.0
 0031066,-0.00114718,0.22310093,-0.00116591,0.00595270,0.00190950,0.036
 74354,-0.04596114,0.04014983,-0.00065273,-0.00035560,0.00007885,-0.003
 55858,0.00293512,-0.00266474,0.00782958,-0.00026810,0.00426592,-0.0000
 6161,0.00009511,0.00004486,0.00001542,0.00002170,-0.00000190,0.0002708
 5,-0.00128253,-0.00048376,-0.00069104,0.00630444,0.00407956,-0.0000646
 5,-0.00022251,-0.00025748,0.00001559,-0.00006197,-0.00005311,0.0000384
 8,-0.00243969,-0.00127916,-0.00019464,0.00056555,-0.00005562,-0.038561
 49,0.03677261,0.00234754,0.00187006,0.00094051,-0.14003963,0.04002211,
 -0.18047308,0.00205471,0.00012532,-0.00043889,0.00870961,-0.00143331,0
 .00793377,-0.02380946,0.00311768,-0.01225586,0.00017510,0.00004787,-0.
 00001821,-0.00005085,-0.00000361,0.00002473,-0.00066073,-0.00053390,0.
 00017217,0.00137952,0.00402406,-0.00503893,0.00024380,-0.00023229,0.00
 047134,-0.00003665,-0.00005156,0.00008064,0.00041391,-0.00124354,0.001
 17521,0.00046421,0.00000959,0.00058550,0.14855843,-0.04509427,0.187077
 86,0.00970960,-0.00217818,0.00738998,-0.00017100,-0.00003213,0.0001659
 2,-0.17538063,0.03601807,-0.13215736,0.00008782,-0.00087204,0.00179384
 ,-0.00359546,-0.00100967,0.00154519,0.00034534,0.00009617,-0.00026656,
 -0.00006784,-0.00001136,0.00002581,-0.00003685,0.00032893,-0.00113766,
 -0.03305077,0.00461764,-0.01853517,-0.00022940,-0.00009088,0.00025410,
 -0.00019938,-0.00004008,0.00010451,0.00023470,-0.00018620,0.00066766,0
 .00047919,0.00029166,-0.00043576,0.00008021,0.00013919,-0.00023671,0.2
 0213309,0.00662407,0.00430769,0.00709373,-0.00026047,-0.00062805,-0.00
 015485,0.03653233,-0.05393849,0.04580082,-0.00111881,0.00668780,0.0032
 1132,-0.00157103,0.00865413,0.00218795,-0.00003517,0.00007455,0.000044
 36,-0.00000478,0.00000353,-0.00000124,-0.00007696,0.00062093,0.0000442
 2,-0.00336743,-0.00182546,-0.00580917,0.00005398,0.00002725,-0.0000133
 5,0.00002654,-0.00003884,-0.00000480,0.00019960,-0.00046039,0.00041121
 ,0.00005453,-0.00298071,-0.00118743,0.00008962,-0.00137457,-0.00046063
 ,-0.03707378,0.04106627,-0.02067933,0.00595935,-0.01540227,0.00089884,
 -0.00012423,-0.00015438,-0.13378573,0.04573344,-0.20411859,0.00257916,
 0.00324357,-0.00227044,0.00333020,0.00225769,0.00263562,0.00014670,0.0
 0006182,-0.00008493,0.00000600,-0.00000204,0.00001075,0.00015982,0.000
 09721,0.00034825,0.00691891,-0.00477858,0.01261871,-0.00020699,-0.0000
 3273,0.00009682,-0.00010510,-0.00001350,-0.00001355,-0.00056264,0.0003
 6175,-0.00156509,0.00032022,-0.00115703,0.00037514,-0.00007926,-0.0004
 5409,-0.00008503,0.14084790,-0.05113775,0.20773469,-0.00000965,-0.0000
 0610,0.00001031,-0.00003473,-0.00001013,0.00001610,0.00003019,-0.00000
 367,0.00000381,0.00000811,0.00000308,-0.00001914,0.00003726,-0.0000259
 9,0.00001467,-0.00189551,0.00056316,0.00176556,-0.10248641,-0.10940541
 ,0.00625325,0.00001505,0.00045782,0.00015971,-0.00003918,0.00004276,0.
 00004526,0.00038177,-0.00007521,0.00106179,0.00006289,0.00014885,-0.00
 106561,-0.00000782,-0.00000525,0.00002231,-0.00000224,-0.00000345,0.00
 000230,0.00000051,-0.00000029,-0.00000137,-0.00000093,-0.00000175,-0.0
 0000533,0.10683930,-0.00002112,-0.00000159,0.00000313,-0.00008542,-0.0
 0001575,0.00003046,0.00002921,-0.00000480,0.00001714,0.00004009,0.0000
 1093,-0.00004069,0.00012794,0.00000592,0.00005266,-0.00494667,-0.00757
 800,-0.00044454,-0.10885254,-0.26220462,0.01816273,-0.00020052,0.00014
 844,-0.00007167,-0.00005788,0.00000731,0.00001203,0.00094633,-0.000202
 04,0.00112411,0.00095861,0.00209532,0.00013035,-0.00001607,-0.00001216
 ,0.00004058,-0.00000287,-0.00000165,0.00000224,0.00000297,0.00000216,-
 0.00000655,-0.00000747,-0.00000086,-0.00000308,0.11993936,0.28192788,0
 .00004354,-0.00000136,0.00001711,0.00021191,0.00006095,-0.00004502,-0.
 00001310,0.00001871,-0.00004761,-0.00007172,0.00000267,0.00002713,-0.0
 0029978,-0.00003490,-0.00030619,0.01703801,0.03304742,-0.00218120,0.00
 624780,0.01951240,-0.04665415,0.00094753,-0.00120621,-0.00067741,0.000
 09980,-0.00003696,0.00003827,-0.00088060,0.00000062,-0.00436187,-0.000
 40080,-0.00421292,0.00111770,0.00002884,0.00001207,-0.00005608,0.00000
 446,0.00000113,-0.00000280,-0.00000507,-0.00000558,0.00001410,0.000020
 29,-0.00000046,0.00000152,-0.00907255,-0.01964848,0.05126971,-0.000010
 29,-0.00000198,0.00001255,-0.00003601,-0.00000443,0.00001903,0.0000321
 4,0.00000308,0.00000576,0.00000914,0.00000985,-0.00002014,0.00003712,0
 .00001794,0.00002438,-0.00174169,-0.00174996,0.00086660,-0.12064454,0.
 09316987,0.07673284,0.00005965,-0.00043530,-0.00013808,-0.00003674,-0.
 00006422,0.00001405,0.00045073,-0.00047968,0.00091118,0.00012065,0.000
 42423,-0.00095509,-0.00000822,-0.00000956,0.00002310,-0.00000255,0.000
 00135,0.00000395,0.00000057,0.00000109,-0.00000105,-0.00000120,0.00000
 455,-0.00000355,0.00860691,-0.01016211,-0.00958513,0.12669422,-0.00000
 861,0.00000461,-0.00001055,-0.00005528,0.00001354,0.00001368,-0.000013
 98,-0.00000297,0.00001493,0.00000856,-0.00000013,0.00001916,0.00007387
 ,-0.00008117,0.00010138,-0.00682823,0.00887405,0.00854698,0.09268645,-
 0.15918927,-0.09890854,-0.00031279,-0.00078850,0.00002032,-0.00001258,
 -0.00000005,-0.00003377,-0.00018258,-0.00110173,0.00126401,-0.00050931
 ,-0.00014968,-0.00110358,-0.00000374,-0.00000285,-0.00000099,-0.000000
 36,-0.00000037,-0.00000027,0.00000055,0.00000050,-0.00000315,-0.000005
 50,-0.00000179,0.00000039,0.01648687,-0.01891752,-0.01684662,-0.101007
 41,0.17194358,0.00004761,-0.00000331,0.00001148,0.00022285,-0.00000112
 ,-0.00007278,-0.00002660,0.00001114,-0.00005086,-0.00008041,-0.0000284
 9,0.00003771,-0.00032487,0.00016213,-0.00021477,0.01919172,-0.02344987
 ,-0.01879681,0.07652291,-0.10027090,-0.13150587,0.00078369,0.00123361,
 0.00020904,0.00011209,0.00002096,0.00004225,-0.00134878,0.00220255,-0.
 00352377,-0.00122404,0.00325712,0.00330577,0.00003207,0.00002782,-0.00
 006504,0.00000527,0.00000095,-0.00000379,-0.00000588,-0.00000436,0.000
 01576,0.00002086,-0.00000014,0.00000281,-0.00201575,0.00177382,0.00166
 876,-0.08581713,0.10604976,0.14140096,0.00003211,-0.00000662,0.0000245
 5,0.00007891,0.00001252,-0.00003012,0.00000554,0.00001585,-0.00005118,
 -0.00004448,-0.00000266,0.00000236,-0.00018869,0.00000546,-0.00004600,
 -0.00194302,-0.00076781,0.00270888,-0.28190598,0.01749731,-0.08836907,
 0.00051439,0.00012511,-0.00031327,0.00010012,-0.00000824,0.00005481,0.
 00052574,-0.00021990,0.00084588,0.00260404,0.00018732,-0.00061072,0.00
 001208,0.00000459,-0.00001276,0.00000189,0.00000085,-0.00000287,-0.000
 00471,-0.00000343,0.00001020,0.00001793,0.00000040,0.00000033,-0.01197
 427,0.00221597,-0.00419421,-0.01395113,-0.00032269,-0.00599721,0.30519
 203,-0.00000124,0.00000836,-0.00001117,0.00000269,0.00000383,-0.000004
 03,-0.00002900,0.00000433,0.00000924,0.00000409,-0.00000066,0.00001139
 ,0.00002896,0.00005114,-0.00001888,0.01080593,-0.00328190,-0.00054048,
 0.01637041,-0.05091371,0.00728584,0.00001607,-0.00008183,-0.00017920,-
 0.00000543,-0.00009818,-0.00005237,-0.00068403,-0.00029738,-0.00039649
 ,0.00024798,0.00154801,0.00384422,0.00000221,0.00000119,-0.00001089,0.
 00000060,0.00000337,-0.00000092,0.00000163,0.00000177,-0.00000382,-0.0
 0000255,0.00000403,0.00000382,-0.02754452,0.00482830,-0.01129478,0.019
 59730,-0.00085996,0.00942900,-0.01853335,0.04838178,0.00000796,-0.0000
 1206,0.00004444,0.00000259,-0.00000253,0.00001101,0.00009255,0.0000152
 9,-0.00002880,-0.00001978,0.00001071,-0.00003379,-0.00012543,-0.000021
 41,0.00009675,-0.03400538,-0.00217478,-0.00184143,-0.08480318,0.007445
 72,-0.08494314,0.00003839,-0.00016466,0.00038692,0.00004602,-0.0000532
 7,0.00006102,0.00229585,-0.00032582,0.00098438,-0.00081021,0.00383451,
 -0.00953929,-0.00000510,-0.00001066,0.00003096,-0.00000206,-0.00000086
 ,0.00000563,-0.00000590,-0.00000457,0.00001420,0.00001015,0.00000425,-
 0.00000688,0.00317659,-0.00113508,0.00027792,0.01787054,0.00065739,0.0
 0793785,0.09535386,-0.00887644,0.08805499,-0.00012623,-0.00012685,-0.0
 0016791,0.00048809,0.00124439,-0.00039748,-0.00101606,0.00168507,0.000
 57853,-0.00016935,0.00102410,-0.00003995,-0.01643736,-0.02097342,-0.01
 731567,0.00264328,-0.00001357,0.00186600,-0.00022442,-0.00048800,-0.00
 036518,-0.09567552,-0.07823423,-0.06520388,-0.00226073,-0.00188170,0.0
 0099455,0.00182344,0.00346804,0.00044433,-0.00057312,0.00018272,-0.001
 61781,0.00000073,-0.00015227,0.00008045,0.00002398,-0.00021441,-0.0000
 1913,0.00018095,-0.00056469,0.00031499,-0.00023686,0.00013924,0.000078
 99,-0.00003055,-0.00007056,0.00014143,0.00003940,0.00002934,-0.0000126
 5,0.00001302,0.00003792,-0.00009116,0.10413236,-0.00001644,-0.00003374
 ,-0.00005604,-0.00060169,0.00096939,-0.00006189,0.00000476,-0.00019659
 ,0.00010996,0.00001896,0.00007160,0.00010864,0.00022580,-0.00008655,0.
 00001473,-0.00067732,0.00107636,0.00019678,0.00011352,-0.00073733,-0.0
 0018452,-0.07766045,-0.16922525,-0.10088658,0.00045713,-0.00048711,0.0
 0020005,0.00758940,0.01408824,0.00860423,-0.00002440,-0.00056346,0.000
 82598,-0.00001214,-0.00001245,0.00005859,0.00001763,-0.00001554,0.0000
 1529,-0.00009386,-0.00035344,0.00031554,0.00000234,0.00002903,0.000021
 77,-0.00007656,-0.00004603,0.00012674,0.00004339,0.00003909,-0.0000798
 5,0.00002876,0.00002491,0.00000100,0.08315533,0.17835865,0.00071474,-0
 .00022567,0.00093432,0.00189454,0.00041143,-0.00092263,0.00091574,-0.0
 0047362,-0.00082157,-0.00174347,0.00016069,0.00042039,0.00232164,0.006
 51290,0.00789211,-0.00946894,-0.00087601,0.00009900,0.00019533,0.00116
 093,0.00015292,-0.06202508,-0.09748285,-0.12817369,0.00022143,0.000583
 58,0.00012956,-0.01142057,-0.01173233,-0.03550022,0.00352097,-0.000268
 69,0.00288783,0.00003841,0.00009836,-0.00011694,-0.00002577,-0.0000493
 7,0.00000799,-0.00004642,-0.00036300,-0.00021034,0.00007715,-0.0000840
 0,-0.00004346,0.00019818,0.00007910,-0.00028418,-0.00002013,-0.0000924
 8,0.00009733,0.00005406,-0.00010991,0.00014945,0.07187090,0.10590127,0
 .15446194,-0.00012663,0.00018807,-0.00005145,0.00056491,-0.00080752,-0
 .00108545,-0.00085513,-0.00175417,-0.00049920,-0.00012725,-0.00084563,
 -0.00061301,-0.01820223,0.02557307,-0.00252736,0.00239794,-0.00091525,
 0.00156184,-0.00025849,0.00061565,-0.00001304,-0.11061533,0.11114591,-
 0.01128100,-0.00232033,0.00081541,0.00185743,0.00245657,-0.00348250,-0
 .00213938,-0.00049581,0.00070641,-0.00131488,-0.00000925,0.00007624,0.
 00015473,0.00000827,0.00018903,0.00010909,0.00013587,0.00031224,0.0006
 1739,-0.00022174,-0.00017645,-0.00001976,0.00004355,-0.00001168,-0.000
 03031,-0.00003305,-0.00002672,0.00015970,0.00001643,0.00002065,-0.0000
 9001,0.00790940,-0.01253440,0.00059141,0.12022240,-0.00040357,0.000135
 15,-0.00050520,-0.00060883,0.00041469,0.00097315,-0.00054895,-0.000737
 47,0.00001768,0.00095354,0.00032278,-0.00020609,-0.00320516,0.00730839
 ,-0.00184538,0.00609762,0.00082946,0.00030197,-0.00022896,0.00004245,0
 .00008266,0.10879350,-0.23342121,0.01842027,-0.00066389,0.00010539,-0.
 00011078,0.00037793,-0.00380561,0.01353112,-0.00202967,0.00072861,-0.0
 0240040,-0.00001554,0.00003186,0.00005228,0.00000349,-0.00001007,-0.00
 002968,0.00014729,-0.00029913,-0.00035174,-0.00005987,-0.00004003,-0.0
 0001059,-0.00001865,-0.00002557,-0.00000675,-0.00005150,-0.00003417,0.
 00006409,-0.00005107,0.00001194,-0.00010278,0.01218034,-0.02261442,-0.
 00044882,-0.11953984,0.25311253,0.00059874,-0.00027201,0.00076485,0.00
 187598,0.00071046,-0.00045188,0.00069110,0.00066212,-0.00044408,-0.001
 43014,-0.00036164,0.00013414,0.00189538,-0.00737883,0.00222004,-0.0073
 8678,0.00049069,0.00059078,0.00021036,-0.00124138,-0.00060224,-0.00878
 191,0.01528230,-0.04891221,-0.00008019,-0.00060414,-0.00039713,-0.0156
 6332,0.03285399,-0.01821998,0.00293457,-0.00089276,0.00153137,0.000041
 92,0.00000671,-0.00015261,-0.00003330,0.00002902,0.00001804,0.00000277
 ,0.00028800,-0.00022060,0.00004935,0.00009799,0.00001030,-0.00004481,0
 .00000471,0.00015866,0.00020434,0.00011838,-0.00029700,0.00002191,0.00
 001846,0.00015647,0.00900955,-0.01686498,0.00285724,0.01443561,-0.0271
 7377,0.06349926,0.00040747,0.00033464,-0.00107008,-0.00116935,0.000187
 49,-0.00077254,-0.00271416,0.00029129,-0.00123558,0.00044793,-0.000269
 20,0.00091258,0.00133687,-0.00021575,0.00059666,-0.01845512,0.00448084
 ,-0.01534955,0.00031880,0.00026493,-0.00039530,0.00926690,0.00111421,-
 0.00156960,-0.00024403,-0.00081358,0.00300528,-0.34550572,0.03636991,-
 0.16160786,-0.00019821,-0.00168968,0.00424679,0.00008763,0.00020604,-0
 .00063922,0.00007505,0.00008863,-0.00028674,0.00020399,0.00015308,-0.0
 0045295,0.00010416,-0.00003823,0.00016061,0.00045575,0.00017443,-0.000
 23034,0.00041489,0.00000413,-0.00024545,0.00089804,-0.00033634,0.00106
 370,-0.00050444,0.00004025,0.00213587,-0.00049010,-0.00112822,0.001448
 86,0.35526365,0.00016466,0.00049846,-0.00017372,-0.00012145,0.00014964
 ,0.00008785,-0.00066575,-0.00019868,-0.00056172,0.00016962,-0.00002981
 ,0.00019528,0.00072933,0.00163961,0.00126499,-0.00387345,-0.00714465,-
 0.00817441,-0.00017741,-0.00294299,-0.00084202,0.00851936,-0.00581089,
 0.00248366,0.00092383,-0.00324322,-0.00058508,0.03562529,-0.01108915,0
 .04227299,-0.00227622,0.00702587,0.00265991,0.00002408,0.00000398,-0.0
 0016141,0.00001977,0.00012462,-0.00005258,0.00000658,-0.00003299,-0.00
 011384,0.00007568,-0.00018602,-0.00002722,-0.00046489,-0.00001570,0.00
 051231,0.00069350,0.00025477,-0.00039490,-0.00017839,0.00066064,0.0009
 1603,-0.00042678,-0.00028536,-0.00270148,0.00045147,-0.00205559,0.0042
 2666,-0.03921885,0.02267746,-0.00053061,-0.00015125,0.00085084,0.00020
 229,0.00012706,-0.00019712,0.00181438,-0.00043821,0.00128435,-0.000482
 39,0.00013881,-0.00047977,-0.00242080,0.00113499,-0.00192276,0.0107414
 5,-0.00704308,0.01413451,0.00106964,-0.00078099,-0.00057925,-0.0252215
 8,0.00152187,-0.01355872,-0.00252470,-0.00080561,-0.00122375,-0.158585
 31,0.04230944,-0.15452935,0.00604278,0.00274718,0.00014964,-0.00006078
 ,-0.00013847,0.00038610,-0.00006731,-0.00004359,0.00023787,0.00001554,
 -0.00009489,0.00023516,-0.00020347,-0.00004202,-0.00009000,-0.00050528
 ,-0.00008297,0.00002563,-0.00014801,0.00019358,-0.00019904,0.00055056,
 0.00089739,-0.00181869,-0.00014889,0.00163330,-0.00401705,0.00017764,-
 0.00025126,-0.00224342,0.17028485,-0.04083129,0.16355481\\0.00000267,0
 .00000704,-0.00000939,0.00000199,-0.00000186,-0.00001805,0.00000575,-0
 .00001110,-0.00000514,-0.00000924,-0.00001260,0.00003911,-0.00000675,0
 .00002412,0.00000621,-0.00000850,0.00001190,0.00001048,0.00000512,-0.0
 0000196,-0.00000668,0.00000249,-0.00000599,-0.00000221,-0.00000189,-0.
 00000448,0.00000427,0.00000158,-0.00001399,-0.00000820,0.00000412,-0.0
 0000209,0.00000075,0.00000555,0.00000595,-0.00001831,-0.00000112,0.000
 00047,0.00000038,0.00000171,-0.00000168,0.00000105,-0.00000148,0.00000
 283,0.00000200,-0.00000036,0.00000227,0.00000060,-0.00000296,-0.000000
 50,-0.00000010,-0.00000145,-0.00000197,0.00000063,0.00000097,-0.000000
 77,-0.00000353,0.00000146,-0.00000070,0.00000163,0.00000033,0.00000513
 ,0.00000451\\\@


 LIFE CAN ONLY BE UNDERSTOOD BACKWARD, BUT MUST
 BE LIVED FORWARD. -- KIRKEGAARD
 Job cpu time:  0 days  1 hours  0 minutes 53.5 seconds.
 File lengths (MBytes):  RWF=    119 Int=      0 D2E=      0 Chk=      4 Scr=      1
 Normal termination of Gaussian 09 at Fri Feb 16 20:29:40 2018.
