 Entering Gaussian System, Link 0=g09
 Initial command:
 /home/fb_chem/chemsoft/lx24-amd64/Gaussian_09_C.01_NBO_3.1_64_istanbul-64/g09/l1.exe /local/2400060.1.parallel_long/Gau-11667.inp -scrdir=/local/2400060.1.parallel_long/
 Entering Link 1 = /home/fb_chem/chemsoft/lx24-amd64/Gaussian_09_C.01_NBO_3.1_64_istanbul-64/g09/l1.exe PID=     11668.
  
 Copyright (c) 1988,1990,1992,1993,1995,1998,2003,2009,2011,
            Gaussian, Inc.  All Rights Reserved.
  
 This is part of the Gaussian(R) 09 program.  It is based on
 the Gaussian(R) 03 system (copyright 2003, Gaussian, Inc.),
 the Gaussian(R) 98 system (copyright 1998, Gaussian, Inc.),
 the Gaussian(R) 94 system (copyright 1995, Gaussian, Inc.),
 the Gaussian 92(TM) system (copyright 1992, Gaussian, Inc.),
 the Gaussian 90(TM) system (copyright 1990, Gaussian, Inc.),
 the Gaussian 88(TM) system (copyright 1988, Gaussian, Inc.),
 the Gaussian 86(TM) system (copyright 1986, Carnegie Mellon
 University), and the Gaussian 82(TM) system (copyright 1983,
 Carnegie Mellon University). Gaussian is a federally registered
 trademark of Gaussian, Inc.
  
 This software contains proprietary and confidential information,
 including trade secrets, belonging to Gaussian, Inc.
  
 This software is provided under written license and may be
 used, copied, transmitted, or stored only in accord with that
 written license.
  
 The following legend is applicable only to US Government
 contracts under FAR:
  
                    RESTRICTED RIGHTS LEGEND
  
 Use, reproduction and disclosure by the US Government is
 subject to restrictions as set forth in subparagraphs (a)
 and (c) of the Commercial Computer Software - Restricted
 Rights clause in FAR 52.227-19.
  
 Gaussian, Inc.
 340 Quinnipiac St., Bldg. 40, Wallingford CT 06492
  
  
 ---------------------------------------------------------------
 Warning -- This program may not be used in any manner that
 competes with the business of Gaussian, Inc. or will provide
 assistance to any competitor of Gaussian, Inc.  The licensee
 of this program is prohibited from giving any competitor of
 Gaussian, Inc. access to this program.  By using this program,
 the user acknowledges that Gaussian, Inc. is engaged in the
 business of creating and licensing software in the field of
 computational chemistry and represents and warrants to the
 licensee that it is not a competitor of Gaussian, Inc. and that
 it will not use this program in any manner prohibited above.
 ---------------------------------------------------------------
  

 Cite this work as:
 Gaussian 09, Revision C.01,
 M. J. Frisch, G. W. Trucks, H. B. Schlegel, G. E. Scuseria, 
 M. A. Robb, J. R. Cheeseman, G. Scalmani, V. Barone, B. Mennucci, 
 G. A. Petersson, H. Nakatsuji, M. Caricato, X. Li, H. P. Hratchian, 
 A. F. Izmaylov, J. Bloino, G. Zheng, J. L. Sonnenberg, M. Hada, 
 M. Ehara, K. Toyota, R. Fukuda, J. Hasegawa, M. Ishida, T. Nakajima, 
 Y. Honda, O. Kitao, H. Nakai, T. Vreven, J. A. Montgomery, Jr., 
 J. E. Peralta, F. Ogliaro, M. Bearpark, J. J. Heyd, E. Brothers, 
 K. N. Kudin, V. N. Staroverov, T. Keith, R. Kobayashi, J. Normand, 
 K. Raghavachari, A. Rendell, J. C. Burant, S. S. Iyengar, J. Tomasi, 
 M. Cossi, N. Rega, J. M. Millam, M. Klene, J. E. Knox, J. B. Cross, 
 V. Bakken, C. Adamo, J. Jaramillo, R. Gomperts, R. E. Stratmann, 
 O. Yazyev, A. J. Austin, R. Cammi, C. Pomelli, J. W. Ochterski, 
 R. L. Martin, K. Morokuma, V. G. Zakrzewski, G. A. Voth, 
 P. Salvador, J. J. Dannenberg, S. Dapprich, A. D. Daniels, 
 O. Farkas, J. B. Foresman, J. V. Ortiz, J. Cioslowski, 
 and D. J. Fox, Gaussian, Inc., Wallingford CT, 2010.
 
 ******************************************
 Gaussian 09:  AM64L-G09RevC.01 23-Sep-2011
                17-Feb-2018 
 ******************************************
 %nprocs=2
 Will use up to    2 processors via shared memory.
 %chk=frag35-conf1.chk
 ----------------------------------------------------------------------
 #HF/6-31G* Geom=AllCheck Guess=Read Pop=(MK,ReadRadii) Integral=(Grid=
 UltraFine) iop(6/33=2)
 ----------------------------------------------------------------------
 1/29=7,38=1/1;
 2/12=2,40=1/2;
 3/5=1,6=6,7=1,11=9,14=-4,16=1,25=1,30=1,75=-5,116=-2/1,2,3;
 4/5=1/1;
 5/5=2,38=6/2;
 6/7=2,8=2,9=2,10=2,15=8,20=101,28=1,33=2/1,2;
 99/5=1,9=1/99;
 Structure from the checkpoint file:  frag35-conf1.chk
 -----------------------------
 Optimization for frag35-conf1
 -----------------------------
 Charge =  0 Multiplicity = 1
 Redundant internal coordinates found in file.
 C,0,-0.4849402937,3.1772606702,-0.3672746066
 C,0,-2.1885315674,5.5942669191,-1.4022981278
 C,0,-0.0355853684,1.038897264,-1.5246174489
 C,0,-2.0949693791,6.1279775677,-3.7596735196
 C,0,-0.0151826481,6.3009166103,-2.4063272153
 C,0,-1.0839363682,7.900132162,2.6527935635
 C,0,-1.5222155483,3.9802356819,0.4152495589
 C,0,-1.5356694844,5.460358196,-0.0065302754
 N,0,-0.8972325371,1.9520282721,-0.793475897
 N,0,-2.3631783779,6.2046467973,0.9642121906
 N,0,-1.4264491429,5.9090447254,-2.4800894552
 O,0,0.6490943847,3.6118231204,-0.5627751196
 O,0,-3.4045609071,5.382238462,-1.4624602507
 O,0,-3.3524488783,8.4962971459,1.4009066873
 O,0,-1.185016134,8.3454698065,0.0528901193
 S,0,-2.0561372373,7.8681372209,1.1366347263
 H,0,-0.4165036402,0.8603018562,-2.536997057
 H,0,0.0502151632,0.0785390228,-1.0036621345
 H,0,0.9495595881,1.5021535449,-1.5899849957
 H,0,-2.0655669413,7.1911594638,-4.0311176619
 H,0,-3.1321739065,5.8093749212,-3.669571047
 H,0,-1.5949482462,5.5516102608,-4.5465169835
 H,0,0.5495709863,5.6072980755,-1.781367106
 H,0,0.0922425366,7.3240781516,-2.0289076694
 H,0,0.3994316142,6.2500789748,-3.4164525232
 H,0,-0.8240968316,8.9438592078,2.8436609424
 H,0,-1.6900731854,7.4968366728,3.4647389516
 H,0,-0.1785348192,7.3072091817,2.5084702097
 H,0,-1.2521967285,3.9312335052,1.4764864233
 H,0,-2.5316596725,3.5688497042,0.3071953156
 H,0,-0.5195117949,5.8466969657,0.0338610705
 H,0,-1.8571942041,1.6848172373,-0.6298823976
 H,0,-3.351075691,6.1077597437,0.71216249
 Recover connectivity data from disk.
                          Input orientation:                          
 ---------------------------------------------------------------------
 Center     Atomic      Atomic             Coordinates (Angstroms)
 Number     Number       Type             X           Y           Z
 ---------------------------------------------------------------------
      1          6           0       -0.484940    3.177261   -0.367275
      2          6           0       -2.188532    5.594267   -1.402298
      3          6           0       -0.035585    1.038897   -1.524617
      4          6           0       -2.094969    6.127978   -3.759674
      5          6           0       -0.015183    6.300917   -2.406327
      6          6           0       -1.083936    7.900132    2.652794
      7          6           0       -1.522216    3.980236    0.415250
      8          6           0       -1.535669    5.460358   -0.006530
      9          7           0       -0.897233    1.952028   -0.793476
     10          7           0       -2.363178    6.204647    0.964212
     11          7           0       -1.426449    5.909045   -2.480089
     12          8           0        0.649094    3.611823   -0.562775
     13          8           0       -3.404561    5.382238   -1.462460
     14          8           0       -3.352449    8.496297    1.400907
     15          8           0       -1.185016    8.345470    0.052890
     16         16           0       -2.056137    7.868137    1.136635
     17          1           0       -0.416504    0.860302   -2.536997
     18          1           0        0.050215    0.078539   -1.003662
     19          1           0        0.949560    1.502154   -1.589985
     20          1           0       -2.065567    7.191159   -4.031118
     21          1           0       -3.132174    5.809375   -3.669571
     22          1           0       -1.594948    5.551610   -4.546517
     23          1           0        0.549571    5.607298   -1.781367
     24          1           0        0.092243    7.324078   -2.028908
     25          1           0        0.399432    6.250079   -3.416453
     26          1           0       -0.824097    8.943859    2.843661
     27          1           0       -1.690073    7.496837    3.464739
     28          1           0       -0.178535    7.307209    2.508470
     29          1           0       -1.252197    3.931234    1.476486
     30          1           0       -2.531660    3.568850    0.307195
     31          1           0       -0.519512    5.846697    0.033861
     32          1           0       -1.857194    1.684817   -0.629882
     33          1           0       -3.351076    6.107760    0.712162
 ---------------------------------------------------------------------
                    Distance matrix (angstroms):
                    1          2          3          4          5
     1  C    0.000000
     2  C    3.132956   0.000000
     3  C    2.472642   5.039993   0.000000
     4  C    4.775698   2.418847   5.927502   0.000000
     5  C    3.759739   2.496172   5.335417   2.487361   0.000000
     6  C    5.637830   4.793841   8.101009   6.729224   5.412433
     7  C    1.527433   2.520427   3.824216   4.729781   3.951962
     8  C    2.539036   1.546715   4.909599   3.852871   2.962675
     9  N    1.361186   3.912035   1.452863   5.260366   4.721454
    10  N    3.803380   2.450191   6.188451   4.732115   4.108879
    11  N    3.579535   1.357015   5.154199   1.460201   1.466519
    12  O    1.230081   3.561882   2.830879   4.907248   3.327337
    13  O    3.819102   1.235841   5.497133   2.747425   3.636308
    14  O    6.296127   4.199338   8.670242   5.815650   5.518340
    15  O    5.232306   3.270127   7.562785   4.503435   3.405357
    16  S    5.170563   3.410893   7.602855   5.196489   4.378842
    17  H    3.175008   5.180545   1.096315   5.662207   5.456961
    18  H    3.208342   5.966083   1.095922   6.985207   6.378850
    19  H    2.521665   5.160255   1.090592   5.947685   4.962385
    20  H    5.659815   3.078291   6.946488   1.097680   2.763431
    21  H    4.984078   2.465210   6.078416   1.088770   3.398975
    22  H    4.933125   3.200043   5.650493   1.096058   2.763608
    23  H    2.995823   2.764248   4.612875   3.343411   1.091159
    24  H    4.504471   2.930327   6.306675   3.034815   1.095831
    25  H    4.418349   3.344318   5.560998   2.520862   1.093089
    26  H    6.608993   5.577600   9.065982   7.290290   5.933116
    27  H    5.898763   5.249408   8.326823   7.364092   6.221326
    28  H    5.041852   4.718937   7.455063   6.659800   5.019417
    29  H    2.134622   3.453955   4.341932   5.740498   4.714005
    30  H    2.190277   2.672531   3.998323   4.824858   4.600006
    31  H    2.699629   2.216281   5.077202   4.117292   2.532821
    32  H    2.044366   3.998776   2.129794   5.440019   5.277986
    33  H    4.238837   2.467008   6.456704   4.644947   4.570609
                    6          7          8          9         10
     6  C    0.000000
     7  C    4.534786   0.000000
     8  C    3.637109   1.539104   0.000000
     9  N    6.876887   2.442385   3.651748   0.000000
    10  N    2.713381   2.440611   1.476847   4.829413   0.000000
    11  N    5.516179   3.480296   2.516296   4.333903   3.581628
    12  O    5.633194   2.409740   2.915422   2.280191   4.257724
    13  O    5.353541   3.005766   2.370356   4.301230   2.765786
    14  O    2.658718   4.971527   3.807688   7.326040   2.533973
    15  O    2.639705   4.393208   2.906950   6.455637   2.608006
    16  S    1.801371   3.990144   2.715716   6.329987   1.700354
    17  H    8.771465   4.435352   5.368083   2.112542   6.679074
    18  H    8.708231   4.439492   5.698533   2.109928   6.872132
    19  H    7.941688   4.033798   4.934681   2.060936   6.293775
    20  H    6.792710   5.511392   4.412909   6.268638   5.100500
    21  H    6.966982   4.756414   4.011048   5.305281   4.713761
    22  H    7.589912   5.205155   4.541291   5.246820   5.602211
    23  H    5.252353   3.429979   2.742237   4.053414   4.047115
    24  H    4.861436   4.445409   3.195866   5.600381   4.030011
    25  H    6.462105   4.850449   3.999481   5.199479   5.179218
    26  H    1.092389   5.569750   4.556831   7.881612   3.661200
    27  H    1.090552   4.657687   4.027505   7.036042   2.894039
    28  H    1.091851   4.154011   3.402631   6.332246   2.893621
    29  H    4.142966   1.096146   2.148934   3.032488   2.581688
    30  H    5.133979   1.095396   2.160607   2.548910   2.721669
    31  H    3.375497   2.152800   1.087872   3.999450   2.095898
    32  H    7.071353   2.544299   3.840137   1.009797   4.819338
    33  H    3.481173   2.821213   2.057024   5.055531   1.024137
                   11         12         13         14         15
    11  N    0.000000
    12  O    3.641593   0.000000
    13  O    2.286049   4.513970   0.000000
    14  O    5.046333   6.612600   4.230715   0.000000
    15  O    3.522846   5.113748   4.000426   2.556885   0.000000
    16  S    4.161159   5.321887   3.840994   1.464530   1.470102
    17  H    5.149081   3.550200   5.525489   9.079388   7.957755
    18  H    6.193155   3.610697   6.346275   9.392482   8.425215
    19  H    5.085115   2.365617   5.833497   8.739036   7.354348
    20  H    2.111392   5.675424   3.415128   5.732917   4.334388
    21  H    2.081898   5.364644   2.264504   5.742632   4.907129
    22  H    2.103871   4.966760   3.579775   6.865263   5.397059
    23  H    2.117527   2.340255   3.973350   5.805079   3.724363
    24  H    2.124220   4.029946   4.039708   5.000362   2.647360
    25  H    2.080125   3.894381   4.363667   6.506078   4.351721
    26  H    6.157536   6.496515   6.155211   2.945236   2.876931
    27  H    6.158861   6.065138   5.629235   2.832281   3.551897
    28  H    5.328966   4.875797   5.466356   3.565720   2.849713
    29  H    4.426804   2.806335   3.921160   5.025592   4.638601
    30  H    3.803546   3.297862   2.679928   5.113672   4.969328
    31  H    2.673270   2.591578   3.283018   4.112752   2.585947
    32  H    4.631728   3.162173   4.093709   7.263343   6.729212
    33  H    3.732847   4.884314   2.293082   2.485856   3.183363
                   16         17         18         19         20
    16  S    0.000000
    17  H    8.080453   0.000000
    18  H    8.348379   1.783282   0.000000
    19  H    7.549465   1.781834   1.783052   0.000000
    20  H    5.211914   6.710556   8.014449   6.885848   0.000000
    21  H    5.338162   5.757683   7.076521   6.287876   1.782609
    22  H    6.154446   5.237869   6.724053   5.622606   1.781920
    23  H    4.518390   4.902882   5.605476   4.129023   3.795911
    24  H    3.864220   6.503644   7.317837   5.901055   2.946634
    25  H    5.420197   5.521675   6.635617   5.116778   2.709181
    26  H    2.364115   9.719131   9.703619   8.842062   7.202485
    27  H    2.385778   9.038053   8.833253   8.273701   7.511478
    28  H    2.392063   8.189993   8.039967   7.195040   6.807391
    29  H    4.032497   5.122212   4.763472   4.489032   6.451542
    30  H    4.404312   4.460891   4.535052   4.470952   5.670920
    31  H    2.768311   5.611066   5.888352   4.865193   4.552133
    32  H    6.433786   2.528340   2.521518   2.972041   6.475463
    33  H    2.226201   6.834074   7.131924   6.708722   5.032394
                   21         22         23         24         25
    21  H    0.000000
    22  H    1.788446   0.000000
    23  H    4.142631   3.499731   0.000000
    24  H    3.922112   3.510927   1.793811   0.000000
    25  H    3.567986   2.396342   1.763296   1.781325   0.000000
    26  H    7.587780   8.168004   5.866045   5.215869   6.924052
    27  H    7.471650   8.244585   6.008993   5.778118   7.298714
    28  H    7.009685   7.406835   4.671460   4.545482   6.046179
    29  H    5.791687   6.246573   4.082789   5.060306   5.660899
    30  H    4.603829   5.326095   4.243978   5.142371   5.444799
    31  H    4.532417   4.714181   2.120213   2.609964   3.593305
    32  H    5.279892   5.510071   4.743869   6.128527   5.805079
    33  H    4.397333   5.571983   4.656522   4.566107   5.579608
                   26         27         28         29         30
    26  H    0.000000
    27  H    1.797089   0.000000
    28  H    1.791013   1.798654   0.000000
    29  H    5.213334   4.105899   3.689844   0.000000
    30  H    6.183863   5.109543   4.935397   1.770759   0.000000
    31  H    4.192870   3.982976   2.893623   2.507388   3.051563
    32  H    8.113352   7.111499   6.654205   3.138343   2.209660
    33  H    4.355728   3.502162   3.838022   3.118774   2.698426
                   31         32         33
    31  H    0.000000
    32  H    4.421673   0.000000
    33  H    2.923354   4.857488   0.000000
 Stoichiometry    C8H17N3O4S
 Framework group  C1[X(C8H17N3O4S)]
 Deg. of freedom    93
 Full point group                 C1      NOp   1
 Largest Abelian subgroup         C1      NOp   1
 Largest concise Abelian subgroup C1      NOp   1
                         Standard orientation:                         
 ---------------------------------------------------------------------
 Center     Atomic      Atomic             Coordinates (Angstroms)
 Number     Number       Type             X           Y           Z
 ---------------------------------------------------------------------
      1          6           0        2.352613   -1.171400    0.155409
      2          6           0        0.261953    1.022397   -0.639459
      3          6           0        4.816266   -1.042898   -0.011508
      4          6           0        0.829905    3.338304   -0.233472
      5          6           0        0.635379    1.792411    1.705430
      6          6           0       -3.185915   -1.947883    0.867377
      7          6           0        1.056156   -1.369601   -0.627514
      8          6           0       -0.050574   -0.411720   -0.151642
      9          7           0        3.491279   -1.185104   -0.590299
     10          7           0       -1.322727   -0.842059   -0.766062
     11          7           0        0.644734    1.973000    0.250103
     12          8           0        2.350133   -1.040236    1.378475
     13          8           0        0.159630    1.223738   -1.854487
     14          8           0       -3.750004   -0.159157   -1.017045
     15          8           0       -2.487681    0.589172    1.076805
     16         16           0       -2.760018   -0.409369    0.032799
     17          1           0        5.305778   -0.127275   -0.363531
     18          1           0        5.448513   -1.901992   -0.263034
     19          1           0        4.695147   -0.989872    1.071039
     20          1           0        0.031490    3.990553    0.143366
     21          1           0        0.801681    3.328977   -1.321836
     22          1           0        1.793932    3.729787    0.111109
     23          1           0        1.114755    0.852750    1.984473
     24          1           0       -0.385426    1.829146    2.102233
     25          1           0        1.217173    2.605528    2.147244
     26          1           0       -4.105796   -1.763655    1.427012
     27          1           0       -3.338418   -2.722511    0.115047
     28          1           0       -2.377961   -2.218842    1.549968
     29          1           0        0.714687   -2.396772   -0.454732
     30          1           0        1.200129   -1.241475   -1.705822
     31          1           0       -0.142210   -0.489812    0.929547
     32          1           0        3.406919   -1.255328   -1.594113
     33          1           0       -1.384435   -0.465962   -1.716641
 ---------------------------------------------------------------------
 Rotational constants (GHZ):      0.6998455      0.2961153      0.2539159
 Standard basis: 6-31G(d) (6D, 7F)
 There are   278 symmetry adapted basis functions of A   symmetry.
 Integral buffers will be    131072 words long.
 Raffenetti 1 integral format.
 Two-electron integral symmetry is turned on.
   278 basis functions,   540 primitive gaussians,   278 cartesian basis functions
    67 alpha electrons       67 beta electrons
       nuclear repulsion energy      1392.8637303103 Hartrees.
 NAtoms=   33 NActive=   33 NUniq=   33 SFac= 1.00D+00 NAtFMM=   60 NAOKFM=F Big=F
 One-electron integrals computed using PRISM.
 NBasis=   278 RedAO= T  NBF=   278
 NBsUse=   278 1.00D-06 NBFU=   278
 Initial guess read from the checkpoint file:  frag35-conf1.chk
 B after Tr=     0.000000    0.000000    0.000000
         Rot=    1.000000    0.000000    0.000000    0.000000 Ang=   0.00 deg.
 Initial guess orbital symmetries:
       Occupied  (A) (A) (A) (A) (A) (A) (A) (A) (A) (A) (A) (A)
                 (A) (A) (A) (A) (A) (A) (A) (A) (A) (A) (A) (A)
                 (A) (A) (A) (A) (A) (A) (A) (A) (A) (A) (A) (A)
                 (A) (A) (A) (A) (A) (A) (A) (A) (A) (A) (A) (A)
                 (A) (A) (A) (A) (A) (A) (A) (A) (A) (A) (A) (A)
                 (A) (A) (A) (A) (A) (A) (A)
       Virtual   (A) (A) (A) (A) (A) (A) (A) (A) (A) (A) (A) (A)
                 (A) (A) (A) (A) (A) (A) (A) (A) (A) (A) (A) (A)
                 (A) (A) (A) (A) (A) (A) (A) (A) (A) (A) (A) (A)
                 (A) (A) (A) (A) (A) (A) (A) (A) (A) (A) (A) (A)
                 (A) (A) (A) (A) (A) (A) (A) (A) (A) (A) (A) (A)
                 (A) (A) (A) (A) (A) (A) (A) (A) (A) (A) (A) (A)
                 (A) (A) (A) (A) (A) (A) (A) (A) (A) (A) (A) (A)
                 (A) (A) (A) (A) (A) (A) (A) (A) (A) (A) (A) (A)
                 (A) (A) (A) (A) (A) (A) (A) (A) (A) (A) (A) (A)
                 (A) (A) (A) (A) (A) (A) (A) (A) (A) (A) (A) (A)
                 (A) (A) (A) (A) (A) (A) (A) (A) (A) (A) (A) (A)
                 (A) (A) (A) (A) (A) (A) (A) (A) (A) (A) (A) (A)
                 (A) (A) (A) (A) (A) (A) (A) (A) (A) (A) (A) (A)
                 (A) (A) (A) (A) (A) (A) (A) (A) (A) (A) (A) (A)
                 (A) (A) (A) (A) (A) (A) (A) (A) (A) (A) (A) (A)
                 (A) (A) (A) (A) (A) (A) (A) (A) (A) (A) (A) (A)
                 (A) (A) (A) (A) (A) (A) (A) (A) (A) (A) (A) (A)
                 (A) (A) (A) (A) (A) (A) (A)
 Requested convergence on RMS density matrix=1.00D-08 within 128 cycles.
 Requested convergence on MAX density matrix=1.00D-06.
 Requested convergence on             energy=1.00D-06.
 No special actions if energy rises.
 SCF Done:  E(RHF) =  -1173.09412219     A.U. after   13 cycles
             Convg  =    0.8349D-08             -V/T =  2.0023

 **********************************************************************

            Population analysis using the SCF density.

 **********************************************************************

 Orbital symmetries:
 BldTbl:  Degeneracy threshold= 1.00D-02
       Occupied  (A) (A) (A) (A) (A) (A) (A) (A) (A) (A) (A) (A)
                 (A) (A) (A) (A) (A) (A) (A) (A) (A) (A) (A) (A)
                 (A) (A) (A) (A) (A) (A) (A) (A) (A) (A) (A) (A)
                 (A) (A) (A) (A) (A) (A) (A) (A) (A) (A) (A) (A)
                 (A) (A) (A) (A) (A) (A) (A) (A) (A) (A) (A) (A)
                 (A) (A) (A) (A) (A) (A) (A)
       Virtual   (A) (A) (A) (A) (A) (A) (A) (A) (A) (A) (A) (A)
                 (A) (A) (A) (A) (A) (A) (A) (A) (A) (A) (A) (A)
                 (A) (A) (A) (A) (A) (A) (A) (A) (A) (A) (A) (A)
                 (A) (A) (A) (A) (A) (A) (A) (A) (A) (A) (A) (A)
                 (A) (A) (A) (A) (A) (A) (A) (A) (A) (A) (A) (A)
                 (A) (A) (A) (A) (A) (A) (A) (A) (A) (A) (A) (A)
                 (A) (A) (A) (A) (A) (A) (A) (A) (A) (A) (A) (A)
                 (A) (A) (A) (A) (A) (A) (A) (A) (A) (A) (A) (A)
                 (A) (A) (A) (A) (A) (A) (A) (A) (A) (A) (A) (A)
                 (A) (A) (A) (A) (A) (A) (A) (A) (A) (A) (A) (A)
                 (A) (A) (A) (A) (A) (A) (A) (A) (A) (A) (A) (A)
                 (A) (A) (A) (A) (A) (A) (A) (A) (A) (A) (A) (A)
                 (A) (A) (A) (A) (A) (A) (A) (A) (A) (A) (A) (A)
                 (A) (A) (A) (A) (A) (A) (A) (A) (A) (A) (A) (A)
                 (A) (A) (A) (A) (A) (A) (A) (A) (A) (A) (A) (A)
                 (A) (A) (A) (A) (A) (A) (A) (A) (A) (A) (A) (A)
                 (A) (A) (A) (A) (A) (A) (A) (A) (A) (A) (A) (A)
                 (A) (A) (A) (A) (A) (A) (A)
 The electronic state is 1-A.
 Alpha  occ. eigenvalues --  -92.21313 -20.56177 -20.55884 -20.53873 -20.52883
 Alpha  occ. eigenvalues --  -15.61138 -15.60692 -15.59850 -11.37081 -11.35896
 Alpha  occ. eigenvalues --  -11.30292 -11.28024 -11.27136 -11.26270 -11.25513
 Alpha  occ. eigenvalues --  -11.25460  -9.18471  -6.87048  -6.87042  -6.86941
 Alpha  occ. eigenvalues --   -1.45512  -1.39002  -1.38149  -1.33758  -1.24374
 Alpha  occ. eigenvalues --   -1.24147  -1.23897  -1.07421  -1.03482  -0.98176
 Alpha  occ. eigenvalues --   -0.96341  -0.94296  -0.89017  -0.83282  -0.79993
 Alpha  occ. eigenvalues --   -0.75599  -0.73469  -0.70858  -0.68735  -0.67323
 Alpha  occ. eigenvalues --   -0.67188  -0.65893  -0.65428  -0.64603  -0.63478
 Alpha  occ. eigenvalues --   -0.61792  -0.60910  -0.60251  -0.59827  -0.57890
 Alpha  occ. eigenvalues --   -0.57595  -0.56074  -0.55679  -0.55551  -0.54543
 Alpha  occ. eigenvalues --   -0.52912  -0.52378  -0.51445  -0.50445  -0.49119
 Alpha  occ. eigenvalues --   -0.46901  -0.45952  -0.45152  -0.42940  -0.41441
 Alpha  occ. eigenvalues --   -0.40098  -0.37032
 Alpha virt. eigenvalues --    0.16671   0.18134   0.20778   0.21349   0.23632
 Alpha virt. eigenvalues --    0.24326   0.25709   0.25887   0.26782   0.27423
 Alpha virt. eigenvalues --    0.27949   0.28208   0.29235   0.30112   0.30588
 Alpha virt. eigenvalues --    0.30875   0.31269   0.31817   0.32120   0.32339
 Alpha virt. eigenvalues --    0.34101   0.34834   0.35259   0.36560   0.37709
 Alpha virt. eigenvalues --    0.39250   0.40478   0.43315   0.45000   0.47479
 Alpha virt. eigenvalues --    0.49613   0.51570   0.55348   0.56179   0.58960
 Alpha virt. eigenvalues --    0.61126   0.63575   0.67412   0.68399   0.71348
 Alpha virt. eigenvalues --    0.72549   0.73554   0.73797   0.74320   0.75467
 Alpha virt. eigenvalues --    0.75952   0.76120   0.79237   0.79926   0.80437
 Alpha virt. eigenvalues --    0.83538   0.86463   0.89175   0.90273   0.91445
 Alpha virt. eigenvalues --    0.92964   0.93274   0.95176   0.95622   0.96895
 Alpha virt. eigenvalues --    0.97096   0.99325   1.01227   1.01324   1.03062
 Alpha virt. eigenvalues --    1.04468   1.05470   1.06454   1.07104   1.07788
 Alpha virt. eigenvalues --    1.09718   1.11515   1.11554   1.11865   1.12854
 Alpha virt. eigenvalues --    1.13493   1.14048   1.14856   1.15475   1.16619
 Alpha virt. eigenvalues --    1.17399   1.17472   1.19156   1.19306   1.20276
 Alpha virt. eigenvalues --    1.20809   1.21855   1.22338   1.25235   1.25645
 Alpha virt. eigenvalues --    1.27216   1.27668   1.28364   1.30627   1.31350
 Alpha virt. eigenvalues --    1.34369   1.35673   1.38045   1.38781   1.40651
 Alpha virt. eigenvalues --    1.44192   1.45264   1.48150   1.48621   1.49295
 Alpha virt. eigenvalues --    1.51664   1.53732   1.55727   1.56695   1.58244
 Alpha virt. eigenvalues --    1.60892   1.62758   1.64151   1.65721   1.69883
 Alpha virt. eigenvalues --    1.71667   1.72622   1.74086   1.77103   1.79661
 Alpha virt. eigenvalues --    1.82308   1.83519   1.84653   1.90196   1.91936
 Alpha virt. eigenvalues --    1.95454   1.99371   2.01555   2.03611   2.04171
 Alpha virt. eigenvalues --    2.08145   2.09458   2.10688   2.11326   2.11547
 Alpha virt. eigenvalues --    2.12454   2.13619   2.15238   2.16052   2.17551
 Alpha virt. eigenvalues --    2.19942   2.23228   2.23803   2.24980   2.25952
 Alpha virt. eigenvalues --    2.27955   2.29863   2.31063   2.31941   2.34942
 Alpha virt. eigenvalues --    2.37235   2.37685   2.39284   2.40456   2.40999
 Alpha virt. eigenvalues --    2.41905   2.44637   2.45413   2.46501   2.50987
 Alpha virt. eigenvalues --    2.52490   2.53437   2.55842   2.56419   2.58421
 Alpha virt. eigenvalues --    2.59489   2.59774   2.62804   2.63417   2.63886
 Alpha virt. eigenvalues --    2.68272   2.69229   2.70144   2.71039   2.73356
 Alpha virt. eigenvalues --    2.73938   2.80055   2.85328   2.86403   2.92106
 Alpha virt. eigenvalues --    2.94440   2.97467   3.00178   3.02577   3.06855
 Alpha virt. eigenvalues --    3.10394   3.11908   3.17768   3.19829   3.25230
 Alpha virt. eigenvalues --    3.30747   3.35842   3.40041   3.50238   3.55313
 Alpha virt. eigenvalues --    4.20229   4.30697   4.36216   4.38271   4.40411
 Alpha virt. eigenvalues --    4.42987   4.53893   4.62839   4.64294   4.66278
 Alpha virt. eigenvalues --    4.68060   4.73023   4.82719   4.87397   4.98928
 Alpha virt. eigenvalues --    5.12338
          Condensed to atoms (all electrons):
              1          2          3          4          5          6
     1  C    4.170299  -0.002380  -0.026716  -0.000033  -0.001097  -0.000002
     2  C   -0.002380   4.206191  -0.000023  -0.034378  -0.028569  -0.000017
     3  C   -0.026716  -0.000023   4.954817   0.000000  -0.000004   0.000000
     4  C   -0.000033  -0.034378   0.000000   4.967904  -0.039984   0.000000
     5  C   -0.001097  -0.028569  -0.000004  -0.039984   5.034018  -0.000006
     6  C   -0.000002  -0.000017   0.000000   0.000000  -0.000006   5.490354
     7  C    0.332060  -0.058087   0.004056  -0.000165   0.000690  -0.000300
     8  C   -0.032144   0.357550  -0.000067   0.003446  -0.001349  -0.000267
     9  N    0.294887   0.000863   0.186975   0.000005  -0.000036   0.000000
    10  N    0.002624  -0.057543   0.000001  -0.000130  -0.000073  -0.063102
    11  N    0.003319   0.308951   0.000007   0.216276   0.196307   0.000003
    12  O    0.559484  -0.000110  -0.004078   0.000000  -0.006921   0.000001
    13  O   -0.000292   0.540487   0.000000  -0.007008   0.001534  -0.000003
    14  O    0.000000  -0.000190   0.000000   0.000000   0.000000  -0.058326
    15  O    0.000001   0.001506   0.000000  -0.000039  -0.001962  -0.059465
    16  S    0.000011  -0.002536   0.000000  -0.000022   0.000069   0.307956
    17  H    0.000420  -0.000005   0.400415   0.000000  -0.000001   0.000000
    18  H    0.001276   0.000001   0.400415   0.000000   0.000000   0.000000
    19  H   -0.001591   0.000000   0.397015   0.000000   0.000006   0.000000
    20  H    0.000002  -0.000575   0.000000   0.400737   0.000126   0.000000
    21  H   -0.000002  -0.004140   0.000000   0.395849   0.002974   0.000000
    22  H   -0.000015   0.002652   0.000000   0.397903  -0.003810   0.000000
    23  H   -0.001735  -0.002327   0.000009   0.002591   0.393303   0.000001
    24  H    0.000103  -0.001453   0.000000   0.001314   0.394075   0.000010
    25  H   -0.000049   0.002439   0.000000  -0.005289   0.397318   0.000000
    26  H    0.000000   0.000004   0.000000   0.000000   0.000000   0.369057
    27  H    0.000000   0.000000   0.000000   0.000000   0.000000   0.357554
    28  H   -0.000002   0.000008   0.000000   0.000000  -0.000001   0.354941
    29  H   -0.025332   0.004169  -0.000104   0.000002  -0.000006   0.000034
    30  H   -0.035778  -0.002752   0.000043   0.000000  -0.000016   0.000006
    31  H   -0.000900  -0.026223  -0.000002  -0.000091  -0.002653   0.000196
    32  H   -0.019600   0.000007  -0.021194   0.000000   0.000004   0.000000
    33  H    0.000008  -0.002023   0.000000  -0.000002  -0.000035   0.001536
              7          8          9         10         11         12
     1  C    0.332060  -0.032144   0.294887   0.002624   0.003319   0.559484
     2  C   -0.058087   0.357550   0.000863  -0.057543   0.308951  -0.000110
     3  C    0.004056  -0.000067   0.186975   0.000001   0.000007  -0.004078
     4  C   -0.000165   0.003446   0.000005  -0.000130   0.216276   0.000000
     5  C    0.000690  -0.001349  -0.000036  -0.000073   0.196307  -0.006921
     6  C   -0.000300  -0.000267   0.000000  -0.063102   0.000003   0.000001
     7  C    5.346873   0.310047  -0.097514  -0.065450  -0.000040  -0.078336
     8  C    0.310047   5.104690   0.000663   0.221509  -0.085411   0.001429
     9  N   -0.097514   0.000663   7.293369  -0.000046  -0.000191  -0.089827
    10  N   -0.065450   0.221509  -0.000046   7.512245   0.002701   0.000060
    11  N   -0.000040  -0.085411  -0.000191   0.002701   7.347650  -0.000163
    12  O   -0.078336   0.001429  -0.089827   0.000060  -0.000163   8.229047
    13  O   -0.001274  -0.081779  -0.000051  -0.012172  -0.089929   0.000004
    14  O   -0.000048   0.001368   0.000000  -0.051199   0.000002   0.000000
    15  O    0.000166   0.004293   0.000000  -0.052982  -0.000350   0.000000
    16  S    0.000774  -0.011689  -0.000002   0.183632   0.000297  -0.000038
    17  H   -0.000093   0.000013  -0.044075   0.000000   0.000002   0.000323
    18  H   -0.000096  -0.000003  -0.044332   0.000000   0.000000   0.000269
    19  H    0.000583  -0.000007  -0.035148   0.000000  -0.000003   0.010149
    20  H   -0.000005  -0.000117   0.000000   0.000011  -0.048170   0.000000
    21  H   -0.000012   0.000530   0.000000  -0.000011  -0.031513   0.000000
    22  H    0.000017  -0.000049   0.000001   0.000000  -0.045609   0.000001
    23  H    0.000053  -0.002703   0.000037   0.000094  -0.036098   0.012848
    24  H   -0.000141  -0.000887  -0.000001   0.000168  -0.045997   0.000082
    25  H    0.000019   0.000027   0.000001  -0.000006  -0.037655   0.000053
    26  H    0.000001  -0.000050   0.000000   0.002311   0.000000   0.000000
    27  H   -0.000005   0.000107   0.000000   0.001317   0.000000   0.000000
    28  H    0.000093   0.000124   0.000000  -0.000181   0.000000  -0.000001
    29  H    0.384608  -0.034874  -0.000585   0.000321  -0.000105   0.000558
    30  H    0.379315  -0.036110   0.004536  -0.001007   0.000379   0.002146
    31  H   -0.038905   0.394963   0.000425  -0.032845   0.003080   0.006740
    32  H    0.001412   0.000009   0.323153  -0.000007  -0.000008   0.002114
    33  H   -0.001524  -0.031304  -0.000001   0.299867   0.000730  -0.000003
             13         14         15         16         17         18
     1  C   -0.000292   0.000000   0.000001   0.000011   0.000420   0.001276
     2  C    0.540487  -0.000190   0.001506  -0.002536  -0.000005   0.000001
     3  C    0.000000   0.000000   0.000000   0.000000   0.400415   0.400415
     4  C   -0.007008   0.000000  -0.000039  -0.000022   0.000000   0.000000
     5  C    0.001534   0.000000  -0.001962   0.000069  -0.000001   0.000000
     6  C   -0.000003  -0.058326  -0.059465   0.307956   0.000000   0.000000
     7  C   -0.001274  -0.000048   0.000166   0.000774  -0.000093  -0.000096
     8  C   -0.081779   0.001368   0.004293  -0.011689   0.000013  -0.000003
     9  N   -0.000051   0.000000   0.000000  -0.000002  -0.044075  -0.044332
    10  N   -0.012172  -0.051199  -0.052982   0.183632   0.000000   0.000000
    11  N   -0.089929   0.000002  -0.000350   0.000297   0.000002   0.000000
    12  O    0.000004   0.000000   0.000000  -0.000038   0.000323   0.000269
    13  O    8.279862  -0.000026  -0.000121   0.001149   0.000000   0.000000
    14  O   -0.000026   8.321192  -0.036263   0.497781   0.000000   0.000000
    15  O   -0.000121  -0.036263   8.388358   0.454255   0.000000   0.000000
    16  S    0.001149   0.497781   0.454255  13.017687   0.000000   0.000000
    17  H    0.000000   0.000000   0.000000   0.000000   0.527563  -0.036649
    18  H    0.000000   0.000000   0.000000   0.000000  -0.036649   0.528575
    19  H    0.000000   0.000000   0.000000   0.000000  -0.022906  -0.022497
    20  H    0.000576   0.000000   0.000020   0.000018   0.000000   0.000000
    21  H    0.010107   0.000000   0.000000  -0.000004   0.000000   0.000000
    22  H    0.000353   0.000000   0.000000   0.000000   0.000000   0.000000
    23  H    0.000007   0.000000  -0.000072  -0.000068   0.000003   0.000000
    24  H    0.000031   0.000002   0.003466   0.000256   0.000000   0.000000
    25  H   -0.000043   0.000000   0.000047   0.000004   0.000000   0.000000
    26  H    0.000000   0.000147   0.000658  -0.020406   0.000000   0.000000
    27  H    0.000000   0.000676   0.001635  -0.013793   0.000000   0.000000
    28  H    0.000000   0.001462   0.000257  -0.009762   0.000000   0.000000
    29  H   -0.000047  -0.000001   0.000008  -0.000283  -0.000004   0.000017
    30  H    0.007750   0.000000  -0.000002  -0.000222  -0.000010  -0.000007
    31  H    0.002354   0.000013   0.001669  -0.000175   0.000000   0.000000
    32  H   -0.000010   0.000000   0.000000   0.000000  -0.000874  -0.001181
    33  H    0.019859   0.002976   0.000069  -0.008271   0.000000   0.000000
             19         20         21         22         23         24
     1  C   -0.001591   0.000002  -0.000002  -0.000015  -0.001735   0.000103
     2  C    0.000000  -0.000575  -0.004140   0.002652  -0.002327  -0.001453
     3  C    0.397015   0.000000   0.000000   0.000000   0.000009   0.000000
     4  C    0.000000   0.400737   0.395849   0.397903   0.002591   0.001314
     5  C    0.000006   0.000126   0.002974  -0.003810   0.393303   0.394075
     6  C    0.000000   0.000000   0.000000   0.000000   0.000001   0.000010
     7  C    0.000583  -0.000005  -0.000012   0.000017   0.000053  -0.000141
     8  C   -0.000007  -0.000117   0.000530  -0.000049  -0.002703  -0.000887
     9  N   -0.035148   0.000000   0.000000   0.000001   0.000037  -0.000001
    10  N    0.000000   0.000011  -0.000011   0.000000   0.000094   0.000168
    11  N   -0.000003  -0.048170  -0.031513  -0.045609  -0.036098  -0.045997
    12  O    0.010149   0.000000   0.000000   0.000001   0.012848   0.000082
    13  O    0.000000   0.000576   0.010107   0.000353   0.000007   0.000031
    14  O    0.000000   0.000000   0.000000   0.000000   0.000000   0.000002
    15  O    0.000000   0.000020   0.000000   0.000000  -0.000072   0.003466
    16  S    0.000000   0.000018  -0.000004   0.000000  -0.000068   0.000256
    17  H   -0.022906   0.000000   0.000000   0.000000   0.000003   0.000000
    18  H   -0.022497   0.000000   0.000000   0.000000   0.000000   0.000000
    19  H    0.440561   0.000000   0.000000   0.000000   0.000004   0.000000
    20  H    0.000000   0.530795  -0.022665  -0.038042  -0.000096   0.001744
    21  H    0.000000  -0.022665   0.437943  -0.021976  -0.000081  -0.000129
    22  H    0.000000  -0.038042  -0.021976   0.539944   0.000136  -0.000268
    23  H    0.000004  -0.000096  -0.000081   0.000136   0.450172  -0.025838
    24  H    0.000000   0.001744  -0.000129  -0.000268  -0.025838   0.491577
    25  H    0.000000  -0.001384   0.000220   0.001990  -0.022293  -0.029229
    26  H    0.000000   0.000000   0.000000   0.000000   0.000000   0.000000
    27  H    0.000000   0.000000   0.000000   0.000000   0.000000   0.000000
    28  H    0.000000   0.000000   0.000000   0.000000  -0.000001   0.000000
    29  H   -0.000007   0.000000   0.000000   0.000000   0.000021   0.000001
    30  H   -0.000020   0.000000  -0.000002   0.000000  -0.000018  -0.000003
    31  H   -0.000004  -0.000004  -0.000012  -0.000004  -0.002210  -0.000577
    32  H    0.002483   0.000000   0.000000   0.000000  -0.000007   0.000000
    33  H    0.000000   0.000002  -0.000009   0.000000  -0.000010   0.000006
             25         26         27         28         29         30
     1  C   -0.000049   0.000000   0.000000  -0.000002  -0.025332  -0.035778
     2  C    0.002439   0.000004   0.000000   0.000008   0.004169  -0.002752
     3  C    0.000000   0.000000   0.000000   0.000000  -0.000104   0.000043
     4  C   -0.005289   0.000000   0.000000   0.000000   0.000002   0.000000
     5  C    0.397318   0.000000   0.000000  -0.000001  -0.000006  -0.000016
     6  C    0.000000   0.369057   0.357554   0.354941   0.000034   0.000006
     7  C    0.000019   0.000001  -0.000005   0.000093   0.384608   0.379315
     8  C    0.000027  -0.000050   0.000107   0.000124  -0.034874  -0.036110
     9  N    0.000001   0.000000   0.000000   0.000000  -0.000585   0.004536
    10  N   -0.000006   0.002311   0.001317  -0.000181   0.000321  -0.001007
    11  N   -0.037655   0.000000   0.000000   0.000000  -0.000105   0.000379
    12  O    0.000053   0.000000   0.000000  -0.000001   0.000558   0.002146
    13  O   -0.000043   0.000000   0.000000   0.000000  -0.000047   0.007750
    14  O    0.000000   0.000147   0.000676   0.001462  -0.000001   0.000000
    15  O    0.000047   0.000658   0.001635   0.000257   0.000008  -0.000002
    16  S    0.000004  -0.020406  -0.013793  -0.009762  -0.000283  -0.000222
    17  H    0.000000   0.000000   0.000000   0.000000  -0.000004  -0.000010
    18  H    0.000000   0.000000   0.000000   0.000000   0.000017  -0.000007
    19  H    0.000000   0.000000   0.000000   0.000000  -0.000007  -0.000020
    20  H   -0.001384   0.000000   0.000000   0.000000   0.000000   0.000000
    21  H    0.000220   0.000000   0.000000   0.000000   0.000000  -0.000002
    22  H    0.001990   0.000000   0.000000   0.000000   0.000000   0.000000
    23  H   -0.022293   0.000000   0.000000  -0.000001   0.000021  -0.000018
    24  H   -0.029229   0.000000   0.000000   0.000000   0.000001  -0.000003
    25  H    0.516022   0.000000   0.000000   0.000000   0.000000   0.000002
    26  H    0.000000   0.446651  -0.015477  -0.016912   0.000001   0.000000
    27  H    0.000000  -0.015477   0.455776  -0.018918   0.000012   0.000000
    28  H    0.000000  -0.016912  -0.018918   0.468085   0.000054  -0.000001
    29  H    0.000000   0.000001   0.000012   0.000054   0.465021  -0.018003
    30  H    0.000002   0.000000   0.000000  -0.000001  -0.018003   0.484180
    31  H    0.000287  -0.000001  -0.000015   0.000164  -0.001164   0.003410
    32  H    0.000000   0.000000   0.000000   0.000000   0.000022   0.001904
    33  H    0.000001  -0.000020  -0.000053  -0.000039  -0.000110   0.001511
             31         32         33
     1  C   -0.000900  -0.019600   0.000008
     2  C   -0.026223   0.000007  -0.002023
     3  C   -0.000002  -0.021194   0.000000
     4  C   -0.000091   0.000000  -0.000002
     5  C   -0.002653   0.000004  -0.000035
     6  C    0.000196   0.000000   0.001536
     7  C   -0.038905   0.001412  -0.001524
     8  C    0.394963   0.000009  -0.031304
     9  N    0.000425   0.323153  -0.000001
    10  N   -0.032845  -0.000007   0.299867
    11  N    0.003080  -0.000008   0.000730
    12  O    0.006740   0.002114  -0.000003
    13  O    0.002354  -0.000010   0.019859
    14  O    0.000013   0.000000   0.002976
    15  O    0.001669   0.000000   0.000069
    16  S   -0.000175   0.000000  -0.008271
    17  H    0.000000  -0.000874   0.000000
    18  H    0.000000  -0.001181   0.000000
    19  H   -0.000004   0.002483   0.000000
    20  H   -0.000004   0.000000   0.000002
    21  H   -0.000012   0.000000  -0.000009
    22  H   -0.000004   0.000000   0.000000
    23  H   -0.002210  -0.000007  -0.000010
    24  H   -0.000577   0.000000   0.000006
    25  H    0.000287   0.000000   0.000001
    26  H   -0.000001   0.000000  -0.000020
    27  H   -0.000015   0.000000  -0.000053
    28  H    0.000164   0.000000  -0.000039
    29  H   -0.001164   0.000022  -0.000110
    30  H    0.003410   0.001904   0.001511
    31  H    0.436422  -0.000009   0.002912
    32  H   -0.000009   0.317954   0.000000
    33  H    0.002912   0.000000   0.279279
 Mulliken atomic charges:
              1
     1  C    0.783173
     2  C    0.798505
     3  C   -0.291562
     4  C   -0.298885
     5  C   -0.333905
     6  C   -0.700159
     7  C   -0.418771
     8  C   -0.081958
     9  N   -0.793104
    10  N   -0.890107
    11  N   -0.658462
    12  O   -0.645831
    13  O   -0.671318
    14  O   -0.679565
    15  O   -0.705152
    16  S    1.603380
    17  H    0.175875
    18  H    0.174213
    19  H    0.231380
    20  H    0.177027
    21  H    0.232930
    22  H    0.166776
    23  H    0.234280
    24  H    0.211688
    25  H    0.177519
    26  H    0.234037
    27  H    0.231184
    28  H    0.220631
    29  H    0.225773
    30  H    0.208769
    31  H    0.253158
    32  H    0.393829
    33  H    0.434651
 Sum of Mulliken atomic charges =   0.00000
 Mulliken charges with hydrogens summed into heavy atoms:
              1
     1  C    0.783173
     2  C    0.798505
     3  C    0.289906
     4  C    0.277848
     5  C    0.289582
     6  C   -0.014307
     7  C    0.015772
     8  C    0.171201
     9  N   -0.399275
    10  N   -0.455456
    11  N   -0.658462
    12  O   -0.645831
    13  O   -0.671318
    14  O   -0.679565
    15  O   -0.705152
    16  S    1.603380
 Sum of Mulliken charges with hydrogens summed into heavy atoms =   0.00000
 DipInt: DoE/N= T F RetVal/Mat= T F Init=T NMatP=  1 IDeriv=0 Min/MaxMlt=  0  4
 Entering OneElI...
 OneElI was handed    33354029 working-precision words.
 Multipole integrals L=0 to 4 MinM= 0 MaxM= 0.
 Requested accuracy = 0.1000D-12
 PrsmSu:  NPrtUS=   1 ThrOK=F IAlg=1 NPAlg=1 LenDen=           0.
 Prism:   IPart=     0 DynPar=F LinDyn=F Incr=          42.
 PRISM was handed    32998526 working-precision words and  4210 shell-pairs
 IPart=  0 NShTot=        4210 NBatch=          79 AvBLen=        53.3
 PrSmSu:  NxtVal=             43.
 Electronic moments (au):
       -134.00000000          1.73105181         -1.21138275          0.23975419
      -2973.34857072      -1111.12136855       -527.26251024          7.04479906
        -10.41211631          4.28705202      -2668.31438689      -2315.04373718
       -111.91306945       -955.93049509       4236.86527097       -128.60076815
          3.41999144       -343.39642087       -223.86016983       -235.23722799
    -148847.14131163     -27341.63728123      -5531.31401723      11772.73851625
        330.71895322      -5728.68825833        467.05130379       -544.94964507
        -95.12285001     -16229.25322247      -8185.42921989      -4150.33138697
        992.93714429       1219.05524722       -330.08821433
 Electronic spatial extent (au):  <R**2>=           4611.7324
 DipInt: DoE/N= F T RetVal/Mat= T F Init=T NMatP=  1 IDeriv=0 Min/MaxMlt=  0  4
 Nuclear    moments (au):
        134.00000000          0.00000000          0.00000000          0.00000000
       2897.89089066       1041.71424188        445.23024738          0.00000000
          0.00000000          0.00000000       2805.38389522       2335.47080181
        112.75551688        946.74415075      -4298.42043727        136.03529427
         -0.37621558        332.00080852        230.31386890        269.55582000
     139265.58294431      23725.26459474       3790.37621932     -11702.94214176
       -842.08355562       5838.33810832       -473.56243321        490.82046441
        179.60251048      14063.76304528       6178.62950935       3215.63595753
      -1009.60158767      -1261.73819870        357.74531664
 Total      moments (au):
          0.00000000          1.73105181         -1.21138275          0.23975419
        -75.45768005        -69.40712667        -82.03226286          7.04479906
        -10.41211631          4.28705202        137.06950833         20.42706463
          0.84244743         -9.18634434        -61.55516630          7.43452612
          3.04377586        -11.39561235          6.45369907         34.31859202
      -9581.55836731      -3616.37268649      -1740.93779792         69.79637449
       -511.36460241        109.64984999         -6.51112942        -54.12918066
         84.47966047      -2165.49017718      -2006.79971055       -934.69542945
        -16.66444338        -42.68295148         27.65710230
 Traceless Quadrup. (au):
          0.17467648          6.22522985         -6.39990633          7.04479906
        -10.41211631          4.28705202
 Charge=              0.0000 electrons
 Dipole moment (field-independent basis, Debye):
    X=              4.3999    Y=             -3.0790    Z=              0.6094  Tot=              5.4047
 Quadrupole moment (field-independent basis, Debye-Ang):
   XX=           -101.4932   YY=            -93.3550   ZZ=           -110.3362
   XY=              9.4755   XZ=            -14.0047   YZ=              5.7662
 Traceless Quadrupole moment (field-independent basis, Debye-Ang):
   XX=              0.2349   YY=              8.3731   ZZ=             -8.6081
   XY=              9.4755   XZ=            -14.0047   YZ=              5.7662
 Octapole moment (field-independent basis, Debye-Ang**2):
  XXX=             97.5608  YYY=             14.5392  ZZZ=              0.5996  XYY=             -6.5385
  XXY=            -43.8126  XXZ=              5.2916  XZZ=              2.1664  YZZ=             -8.1110
  YYZ=              4.5935  XYZ=             24.4267
 Hexadecapole moment (field-independent basis, Debye-Ang**3):
 XXXX=          -3608.8741 YYYY=          -1362.0993 ZZZZ=           -655.7206 XXXY=             26.2887
 XXXZ=           -192.6044 YYYX=             41.2994 YYYZ=             -2.4524 ZZZX=            -20.3876
 ZZZY=             31.8191 XXYY=           -815.6274 XXZZ=           -755.8570 YYZZ=           -352.0511
 XXYZ=             -6.2766 YYXZ=            -16.0764 ZZXY=             10.4170
 N-N= 1.392863730310D+03 E-N=-5.549542118268D+03  KE= 1.170353008466D+03
 Entering OneElI...
 OneElI was handed    33198358 working-precision words.
 Calculate electrostatic properties
    NBasis =   278  MinDer = 0  MaxDer = 0
    NGrid  =    33  NMatD  =   1
 Requested accuracy = 0.1000D-12
 PrsmSu:  NPrtUS=   2 ThrOK=T IAlg=1 NPAlg=1 LenDen=           0.
 Prism:   IPart=     0 DynPar=F LinDyn=F Incr=         512.
 PRISM was handed    16384391 working-precision words and  3728 shell-pairs
 PRISM was handed    16384391 working-precision words and  3728 shell-pairs
 IPart=  1 NShTot=       61083 NBatch=        1851 AvBLen=        33.0
 IPart=  0 NShTot=       61941 NBatch=        1877 AvBLen=        33.0
 PrSmSu:  NxtVal=           1025.
 --------------------------------------------------------
       Center         ----      EFG at Nuclei      ----
                      3XX-RR        3YY-RR        3ZZ-RR
 --------------------------------------------------------
     1   Atom        0.233457     -0.553401      0.319945
     2   Atom       -0.502920      0.214788      0.288132
     3   Atom       -0.233523      0.112088      0.121435
     4   Atom        0.097373     -0.258259      0.160886
     5   Atom        0.165282      0.166811     -0.332093
     6   Atom        0.092007     -0.142119      0.050112
     7   Atom       -0.037336      0.009954      0.027382
     8   Atom       -0.192901      0.036458      0.156443
     9   Atom       -0.492052      0.959891     -0.467839
    10   Atom       -0.715810      1.109003     -0.393193
    11   Atom        0.898259     -0.428500     -0.469758
    12   Atom        1.600142     -0.597117     -1.003025
    13   Atom       -0.386693      1.379653     -0.992960
    14   Atom       -0.314509      0.784303     -0.469794
    15   Atom        0.644101     -0.205224     -0.438877
    16   Atom       -0.324845      0.130558      0.194287
    17   Atom        0.052045     -0.154323      0.102278
    18   Atom       -0.005881     -0.119957      0.125838
    19   Atom        0.132988      0.151774     -0.284762
    20   Atom       -0.080185     -0.016102      0.096287
    21   Atom        0.153456      0.136224     -0.289680
    22   Atom       -0.188608      0.082907      0.105701
    23   Atom        0.072570     -0.170915      0.098345
    24   Atom       -0.223411      0.148799      0.074612
    25   Atom        0.032892     -0.094352      0.061461
    26   Atom       -0.162070      0.125841      0.036229
    27   Atom        0.147632     -0.080051     -0.067581
    28   Atom       -0.098049      0.117433     -0.019384
    29   Atom        0.098918     -0.236916      0.137997
    30   Atom        0.122190      0.148440     -0.270630
    31   Atom        0.135974      0.143461     -0.279435
    32   Atom        0.152490      0.237330     -0.389821
    33   Atom        0.138472      0.139655     -0.278127
 --------------------------------------------------------
                        XY            XZ            YZ
 --------------------------------------------------------
     1   Atom        0.058237      0.079788      0.098686
     2   Atom        0.186626      0.071759     -0.088879
     3   Atom       -0.037705     -0.177849     -0.014209
     4   Atom       -0.056071      0.021625      0.135144
     5   Atom       -0.028123     -0.016996      0.022746
     6   Atom       -0.074727      0.038292      0.150925
     7   Atom        0.039848     -0.030703     -0.035990
     8   Atom       -0.091379     -0.134107     -0.040059
     9   Atom       -0.089040      0.012390     -0.113084
    10   Atom        0.065261      0.154966     -0.062441
    11   Atom       -0.311432     -0.109136     -0.001279
    12   Atom        0.162311      0.035964     -0.044731
    13   Atom        0.509484      0.008288      0.283614
    14   Atom        0.284660     -1.195699      0.231129
    15   Atom       -0.251654     -0.344344     -1.199365
    16   Atom        0.219956      0.401983     -0.099302
    17   Atom       -0.162922      0.054988      0.121369
    18   Atom        0.195612      0.051096     -0.084586
    19   Atom       -0.000290      0.032287     -0.022176
    20   Atom        0.184288      0.113671     -0.082618
    21   Atom       -0.001333     -0.006535      0.011152
    22   Atom       -0.138117     -0.124910     -0.041279
    23   Atom        0.156472     -0.050477      0.091068
    24   Atom        0.016586      0.144354     -0.004239
    25   Atom       -0.180785     -0.094175     -0.126574
    26   Atom        0.063346      0.194296     -0.031621
    27   Atom       -0.047195     -0.040484     -0.213337
    28   Atom        0.074064     -0.205701      0.074778
    29   Atom       -0.123958      0.020910      0.065913
    30   Atom       -0.004105      0.060685      0.045983
    31   Atom       -0.014437      0.035499      0.028765
    32   Atom       -0.008440     -0.046713     -0.044579
    33   Atom        0.020753     -0.031882      0.178837
 --------------------------------------------------------


 ---------------------------------------------------------------------------------
              Nuclear Quadrupole in Principal Axis System
 ---------------------------------------------------------------------------------

       Atom             a.u.   MegaHertz   Gauss  10(-4) cm-1        Axes

              Baa    -0.5674   -76.146   -27.171   -25.400 -0.0617  0.9926 -0.1048
     1 C(13)  Bbb     0.1859    24.952     8.904     8.323  0.8594 -0.0006 -0.5113
              Bcc     0.3815    51.193    18.267    17.076  0.5076  0.1217  0.8530
 
              Baa    -0.5584   -74.926   -26.736   -24.993  0.9636 -0.2449 -0.1074
     2 C(13)  Bbb     0.2078    27.884     9.950     9.301  0.2590  0.7544  0.6032
              Bcc     0.3506    47.043    16.786    15.692 -0.0667 -0.6091  0.7903
 
              Baa    -0.3111   -41.751   -14.898   -13.927  0.9196  0.0947  0.3812
     3 C(13)  Bbb     0.1159    15.552     5.549     5.188 -0.0811  0.9954 -0.0516
              Bcc     0.1952    26.198     9.348     8.739 -0.3843  0.0165  0.9230
 
              Baa    -0.3069   -41.187   -14.697   -13.739  0.1466  0.9485 -0.2808
     4 C(13)  Bbb     0.1060    14.224     5.075     4.745  0.9879 -0.1549 -0.0077
              Bcc     0.2009    26.963     9.621     8.994  0.0508  0.2763  0.9597
 
              Baa    -0.3336   -44.769   -15.975   -14.933  0.0316 -0.0436  0.9985
     5 C(13)  Bbb     0.1379    18.510     6.605     6.174  0.7193  0.6947  0.0076
              Bcc     0.1957    26.259     9.370     8.759 -0.6940  0.7180  0.0533
 
              Baa    -0.2458   -32.983   -11.769   -11.002  0.2411  0.8515 -0.4655
     6 C(13)  Bbb     0.1126    15.110     5.392     5.040  0.9643 -0.1559  0.2142
              Bcc     0.1332    17.873     6.378     5.962 -0.1098  0.5006  0.8587
 
              Baa    -0.0612    -8.216    -2.932    -2.741  0.8920 -0.4318  0.1337
     7 C(13)  Bbb    -0.0156    -2.094    -0.747    -0.698  0.2160  0.6671  0.7129
              Bcc     0.0768    10.310     3.679     3.439 -0.3970 -0.6070  0.6884
 
              Baa    -0.2706   -36.317   -12.959   -12.114  0.8990  0.3081  0.3112
     8 C(13)  Bbb     0.0681     9.144     3.263     3.050 -0.3110  0.9495 -0.0416
              Bcc     0.2025    27.173     9.696     9.064 -0.3083 -0.0594  0.9494
 
              Baa    -0.4988   -19.239    -6.865    -6.418  0.9701  0.0407 -0.2394
     9 N(14)  Bbb    -0.4754   -18.337    -6.543    -6.116  0.2350  0.0908  0.9677
              Bcc     0.9743    37.576    13.408    12.534 -0.0611  0.9950 -0.0786
 
              Baa    -0.7819   -30.157   -10.761   -10.059  0.9255 -0.0444 -0.3761
    10 N(14)  Bbb    -0.3316   -12.789    -4.563    -4.266  0.3773  0.0230  0.9258
              Bcc     1.1135    42.945    15.324    14.325  0.0324  0.9987 -0.0381
 
              Baa    -0.5147   -19.851    -7.083    -6.622  0.2196  0.8016  0.5560
    11 N(14)  Bbb    -0.4608   -17.773    -6.342    -5.928 -0.0613 -0.5575  0.8279
              Bcc     0.9755    37.624    13.425    12.550  0.9737 -0.2159 -0.0733
 
              Baa    -1.0090    73.011    26.052    24.354 -0.0209  0.1161  0.9930
    12 O(17)  Bbb    -0.6035    43.666    15.581    14.565 -0.0710  0.9906 -0.1173
              Bcc     1.6125  -116.677   -41.633   -38.919  0.9973  0.0730  0.0125
 
              Baa    -1.0313    74.624    26.628    24.892  0.0949 -0.1361  0.9862
    13 O(17)  Bbb    -0.5148    37.253    13.293    12.426  0.9626 -0.2401 -0.1257
              Bcc     1.5461  -111.876   -39.920   -37.318  0.2538  0.9612  0.1082
 
              Baa    -1.6447   119.011    42.466    39.698  0.6785 -0.1480  0.7196
    14 O(17)  Bbb     0.7706   -55.762   -19.897   -18.600 -0.5307  0.5786  0.6194
              Bcc     0.8741   -63.249   -22.569   -21.098  0.5080  0.8021 -0.3140
 
              Baa    -1.6070   116.283    41.493    38.788  0.1852  0.6578  0.7300
    15 O(17)  Bbb     0.7125   -51.558   -18.397   -17.198  0.9511 -0.3070  0.0354
              Bcc     0.8945   -64.725   -23.095   -21.590  0.2474  0.6877 -0.6825
 
              Baa    -0.6209   -25.456    -9.083    -8.491  0.8388 -0.3051 -0.4508
    16 S(33)  Bbb     0.2062     8.455     3.017     2.820  0.2279  0.9489 -0.2181
              Bcc     0.4147    17.001     6.066     5.671  0.4943  0.0802  0.8656
 
              Baa    -0.2891  -154.253   -55.041   -51.453  0.4498  0.8332 -0.3216
    17 H(1)   Bbb     0.1344    71.688    25.580    23.913  0.7960 -0.2106  0.5675
              Bcc     0.1547    82.565    29.461    27.541 -0.4052  0.5112  0.7579
 
              Baa    -0.2899  -154.699   -55.201   -51.602 -0.5797  0.7816  0.2303
    18 H(1)   Bbb     0.1345    71.769    25.609    23.940  0.7465  0.3961  0.5347
              Bcc     0.1554    82.930    29.592    27.663 -0.3267 -0.4818  0.8131
 
              Baa    -0.2884  -153.851   -54.898   -51.319 -0.0763  0.0501  0.9958
    19 H(1)   Bbb     0.1352    72.160    25.749    24.070  0.9913  0.1117  0.0703
              Bcc     0.1531    81.690    29.149    27.249 -0.1077  0.9925 -0.0582
 
              Baa    -0.2865  -152.889   -54.555   -50.998  0.7237 -0.5982 -0.3440
    20 H(1)   Bbb     0.1330    70.951    25.317    23.667  0.3961  0.7683 -0.5028
              Bcc     0.1536    81.938    29.238    27.332  0.5651  0.2276  0.7930
 
              Baa    -0.2901  -154.766   -55.224   -51.624  0.0146 -0.0261  0.9996
    21 H(1)   Bbb     0.1364    72.768    25.965    24.273  0.0872  0.9959  0.0247
              Bcc     0.1537    81.998    29.259    27.352  0.9961 -0.0868 -0.0169
 
              Baa    -0.2900  -154.737   -55.214   -51.615  0.8782  0.3601  0.3148
    22 H(1)   Bbb     0.1344    71.731    25.595    23.927 -0.1576  0.8393 -0.5203
              Bcc     0.1556    83.006    29.619    27.688 -0.4516  0.4073  0.7938
 
              Baa    -0.2763  -147.417   -52.602   -49.173 -0.4263  0.8641 -0.2675
    23 H(1)   Bbb     0.1261    67.258    23.999    22.435  0.0810  0.3310  0.9402
              Bcc     0.1502    80.159    28.603    26.738  0.9010  0.3791 -0.2110
 
              Baa    -0.2825  -150.747   -53.790   -50.284  0.9263 -0.0393 -0.3748
    24 H(1)   Bbb     0.1328    70.830    25.274    23.626  0.3667 -0.1359  0.9204
              Bcc     0.1498    79.916    28.516    26.657  0.0871  0.9899  0.1115
 
              Baa    -0.2926  -156.139   -55.714   -52.083  0.5306  0.7435  0.4069
    25 H(1)   Bbb     0.1313    70.070    25.003    23.373 -0.1412 -0.3958  0.9074
              Bcc     0.1613    86.070    30.712    28.710  0.8357 -0.5390 -0.1050
 
              Baa    -0.2929  -156.296   -55.770   -52.135  0.8421 -0.1661 -0.5130
    26 H(1)   Bbb     0.1358    72.480    25.863    24.177 -0.0194  0.9414 -0.3367
              Bcc     0.1571    83.817    29.908    27.958  0.5389  0.2935  0.7896
 
              Baa    -0.2959  -157.893   -56.340   -52.668  0.1386  0.7113  0.6891
    27 H(1)   Bbb     0.1388    74.051    26.423    24.701 -0.2098 -0.6589  0.7223
              Bcc     0.1571    83.843    29.917    27.967  0.9679 -0.2447  0.0579
 
              Baa    -0.2948  -157.275   -56.120   -52.461  0.7432 -0.2464  0.6220
    28 H(1)   Bbb     0.1367    72.957    26.033    24.336  0.5297  0.7847 -0.3220
              Bcc     0.1580    84.318    30.087    28.126 -0.4088  0.5688  0.7137
 
              Baa    -0.2889  -154.150   -55.005   -51.419  0.3083  0.9377 -0.1599
    29 H(1)   Bbb     0.1397    74.515    26.589    24.856  0.9510 -0.2998  0.0758
              Bcc     0.1493    79.634    28.416    26.563 -0.0231  0.1754  0.9842
 
              Baa    -0.2847  -151.899   -54.201   -50.668 -0.1477 -0.1058  0.9834
    30 H(1)   Bbb     0.1310    69.897    24.941    23.315  0.9832 -0.1231  0.1345
              Bcc     0.1537    82.002    29.260    27.353  0.1069  0.9867  0.1222
 
              Baa    -0.2845  -151.814   -54.171   -50.640 -0.0863 -0.0697  0.9938
    31 H(1)   Bbb     0.1299    69.308    24.731    23.119  0.7888  0.6045  0.1109
              Bcc     0.1546    82.506    29.440    27.521 -0.6085  0.7935  0.0028
 
              Baa    -0.3970  -211.835   -75.588   -70.660  0.0856  0.0710  0.9938
    32 H(1)   Bbb     0.1562    83.359    29.745    27.806  0.9945  0.0543 -0.0895
              Bcc     0.2408   128.476    45.843    42.855 -0.0603  0.9960 -0.0659
 
              Baa    -0.3471  -185.174   -66.075   -61.767  0.0762 -0.3468  0.9349
    33 H(1)   Bbb     0.1402    74.821    26.698    24.958  0.9890 -0.0929 -0.1151
              Bcc     0.2068   110.353    39.377    36.810  0.1267  0.9333  0.3359
 

 ---------------------------------------------------------------------------------

 No NMR shielding tensors so no spin-rotation constants.
 Leave Link  601 at Sat Feb 17 21:04:16 2018, MaxMem=   33554432 cpu:       0.6
 Merz-Kollman atomic radii used.
 Read replacement radii for each type of atom:
 Atom Element Radius
    1     6    1.50
    2     6    1.50
    3     6    1.50
    4     6    1.50
    5     6    1.50
    6     6    1.50
    7     6    1.50
    8     6    1.50
    9     7    1.50
   10     7    1.50
   11     7    1.50
   12     8    1.40
   13     8    1.40
   14     8    1.40
   15     8    1.40
   16    16    1.75
   17     1    1.20
   18     1    1.20
   19     1    1.20
   20     1    1.20
   21     1    1.20
   22     1    1.20
   23     1    1.20
   24     1    1.20
   25     1    1.20
   26     1    1.20
   27     1    1.20
   28     1    1.20
   29     1    1.20
   30     1    1.20
   31     1    1.20
   32     1    1.20
   33     1    1.20
 Generate VDW surfaces: Layer= 4 Dens= 1 Start= 1.400 Inc= 0.200

 **********************************************************************

            Electrostatic Properties Using The SCF Density

 **********************************************************************

       Atomic Center    1 is at   2.352613 -1.171400  0.155409
       Atomic Center    2 is at   0.261953  1.022397 -0.639459
       Atomic Center    3 is at   4.816266 -1.042898 -0.011508
       Atomic Center    4 is at   0.829905  3.338304 -0.233472
       Atomic Center    5 is at   0.635379  1.792411  1.705430
       Atomic Center    6 is at  -3.185915 -1.947883  0.867377
       Atomic Center    7 is at   1.056156 -1.369601 -0.627514
       Atomic Center    8 is at  -0.050574 -0.411720 -0.151642
       Atomic Center    9 is at   3.491279 -1.185104 -0.590299
       Atomic Center   10 is at  -1.322727 -0.842059 -0.766062
       Atomic Center   11 is at   0.644734  1.973000  0.250103
       Atomic Center   12 is at   2.350133 -1.040236  1.378475
       Atomic Center   13 is at   0.159630  1.223738 -1.854487
       Atomic Center   14 is at  -3.750004 -0.159157 -1.017045
       Atomic Center   15 is at  -2.487681  0.589172  1.076805
       Atomic Center   16 is at  -2.760018 -0.409369  0.032799
       Atomic Center   17 is at   5.305778 -0.127275 -0.363531
       Atomic Center   18 is at   5.448513 -1.901992 -0.263034
       Atomic Center   19 is at   4.695147 -0.989872  1.071039
       Atomic Center   20 is at   0.031490  3.990553  0.143366
       Atomic Center   21 is at   0.801681  3.328977 -1.321836
       Atomic Center   22 is at   1.793932  3.729787  0.111109
       Atomic Center   23 is at   1.114755  0.852750  1.984473
       Atomic Center   24 is at  -0.385426  1.829146  2.102233
       Atomic Center   25 is at   1.217173  2.605528  2.147244
       Atomic Center   26 is at  -4.105796 -1.763655  1.427012
       Atomic Center   27 is at  -3.338418 -2.722511  0.115047
       Atomic Center   28 is at  -2.377961 -2.218842  1.549968
       Atomic Center   29 is at   0.714687 -2.396772 -0.454732
       Atomic Center   30 is at   1.200129 -1.241475 -1.705822
       Atomic Center   31 is at  -0.142210 -0.489812  0.929547
       Atomic Center   32 is at   3.406919 -1.255328 -1.594113
       Atomic Center   33 is at  -1.384435 -0.465962 -1.716641
      ESP Fit Center   34 is at   2.605740  0.913289  0.155409
      ESP Fit Center   35 is at   2.605740 -3.256088  0.155409
      ESP Fit Center   36 is at   2.361953  1.022397 -0.639459
      ESP Fit Center   37 is at  -1.309919  2.414954 -0.639459
      ESP Fit Center   38 is at   6.634920 -1.042898  1.038492
      ESP Fit Center   39 is at   6.346215 -0.059660  1.038492
      ESP Fit Center   40 is at   4.557445  0.757244  1.038492
      ESP Fit Center   41 is at   4.557445 -2.843040  1.038492
      ESP Fit Center   42 is at   6.916266 -1.042898 -0.011508
      ESP Fit Center   43 is at   5.866266 -1.042898 -1.830162
      ESP Fit Center   44 is at   1.083032  5.422992 -0.233472
      ESP Fit Center   45 is at  -1.209073  2.835741 -0.233472
      ESP Fit Center   46 is at   2.648558  3.338304 -1.283472
      ESP Fit Center   47 is at   1.585401  4.992609 -1.283472
      ESP Fit Center   48 is at   0.571083  5.138446 -1.283472
      ESP Fit Center   49 is at  -0.915080  3.850678 -1.283472
      ESP Fit Center   50 is at  -0.915080  2.825930 -1.283472
      ESP Fit Center   51 is at   2.359853  2.355066 -1.283472
      ESP Fit Center   52 is at   0.635379  1.792411  3.805430
      ESP Fit Center   53 is at   0.110379  2.701738  3.524084
      ESP Fit Center   54 is at   0.110379  0.883085  3.524084
      ESP Fit Center   55 is at   2.735379  1.792411  1.705430
      ESP Fit Center   56 is at  -3.710915 -2.857210  2.686030
      ESP Fit Center   57 is at  -3.444737 -3.748026  1.917377
      ESP Fit Center   58 is at  -4.757788 -3.340441  0.867377
      ESP Fit Center   59 is at  -1.655967 -2.931122 -0.182623
      ESP Fit Center   60 is at   1.811652 -3.023906 -1.677514
      ESP Fit Center   61 is at  -0.309395 -2.211862  0.898358
      ESP Fit Center   62 is at   3.744406  0.899585 -0.590299
      ESP Fit Center   63 is at   2.746609  0.778430 -0.590299
      ESP Fit Center   64 is at   2.746609 -3.148638 -0.590299
      ESP Fit Center   65 is at   3.744406 -3.269792 -0.590299
      ESP Fit Center   66 is at   4.246775  0.469201 -1.640299
      ESP Fit Center   67 is at   3.232458  0.615038 -1.640299
      ESP Fit Center   68 is at   2.300314  0.189343 -1.640299
      ESP Fit Center   69 is at   3.232458 -2.985246 -1.640299
      ESP Fit Center   70 is at   4.246775 -2.839409 -1.640299
      ESP Fit Center   71 is at  -1.069600 -2.926748 -0.766062
      ESP Fit Center   72 is at  -2.513692 -2.216506 -1.816062
      ESP Fit Center   73 is at  -1.581549 -2.642201 -1.816062
      ESP Fit Center   74 is at  -0.567231 -2.496364 -1.816062
      ESP Fit Center   75 is at   2.744734  1.973000  0.250103
      ESP Fit Center   76 is at  -1.394244  2.475563  0.250103
      ESP Fit Center   77 is at   2.504192  0.997082  0.250103
      ESP Fit Center   78 is at   2.463388  1.973000 -0.799897
      ESP Fit Center   79 is at   2.350133 -1.040236  3.338475
      ESP Fit Center   80 is at   3.330133 -1.040236  3.075884
      ESP Fit Center   81 is at   2.840133 -0.191531  3.075884
      ESP Fit Center   82 is at   1.860133 -0.191531  3.075884
      ESP Fit Center   83 is at   1.370133 -1.040236  3.075884
      ESP Fit Center   84 is at   1.860133 -1.888941  3.075884
      ESP Fit Center   85 is at   2.840133 -1.888941  3.075884
      ESP Fit Center   86 is at   3.723366 -0.042524  2.358475
      ESP Fit Center   87 is at   2.874661  0.574096  2.358475
      ESP Fit Center   88 is at   0.652723 -1.040236  2.358475
      ESP Fit Center   89 is at   0.976899 -2.037949  2.358475
      ESP Fit Center   90 is at   1.825604 -2.654569  2.358475
      ESP Fit Center   91 is at   2.874661 -2.654569  2.358475
      ESP Fit Center   92 is at   3.723366 -2.037949  2.358475
      ESP Fit Center   93 is at   3.330133  0.657174  1.378475
      ESP Fit Center   94 is at   0.652723 -2.020236  1.378475
      ESP Fit Center   95 is at   1.370133 -2.737646  1.378475
      ESP Fit Center   96 is at   2.350133 -3.000236  1.378475
      ESP Fit Center   97 is at   3.330133 -2.737646  1.378475
      ESP Fit Center   98 is at   2.119630  1.223738 -1.854487
      ESP Fit Center   99 is at  -0.820370  2.921148 -1.854487
      ESP Fit Center  100 is at  -1.537780  2.203738 -1.854487
      ESP Fit Center  101 is at  -1.800370  1.223738 -1.854487
      ESP Fit Center  102 is at   1.857040  1.223738 -2.834487
      ESP Fit Center  103 is at   1.532864  2.221451 -2.834487
      ESP Fit Center  104 is at  -0.364898  2.838071 -2.834487
      ESP Fit Center  105 is at  -1.213603  2.221451 -2.834487
      ESP Fit Center  106 is at  -1.537780  1.223738 -2.834487
      ESP Fit Center  107 is at   1.532864  0.226026 -2.834487
      ESP Fit Center  108 is at   1.139630  1.223738 -3.551897
      ESP Fit Center  109 is at   0.649630  2.072443 -3.551897
      ESP Fit Center  110 is at  -0.330370  2.072443 -3.551897
      ESP Fit Center  111 is at  -0.820370  1.223738 -3.551897
      ESP Fit Center  112 is at  -0.330370  0.375033 -3.551897
      ESP Fit Center  113 is at   0.649630  0.375033 -3.551897
      ESP Fit Center  114 is at   0.159630  1.223738 -3.814487
      ESP Fit Center  115 is at  -5.123237  0.838556 -0.037045
      ESP Fit Center  116 is at  -5.447414 -0.159157 -0.037045
      ESP Fit Center  117 is at  -5.123237 -1.156869 -0.037045
      ESP Fit Center  118 is at  -3.750004  1.800843 -1.017045
      ESP Fit Center  119 is at  -4.730004  1.538253 -1.017045
      ESP Fit Center  120 is at  -5.447414  0.820843 -1.017045
      ESP Fit Center  121 is at  -5.710004 -0.159157 -1.017045
      ESP Fit Center  122 is at  -5.447414 -1.139157 -1.017045
      ESP Fit Center  123 is at  -4.730004 -1.856567 -1.017045
      ESP Fit Center  124 is at  -3.225475  1.455176 -1.997045
      ESP Fit Center  125 is at  -4.274532  1.455176 -1.997045
      ESP Fit Center  126 is at  -5.123237  0.838556 -1.997045
      ESP Fit Center  127 is at  -5.447414 -0.159157 -1.997045
      ESP Fit Center  128 is at  -5.123237 -1.156869 -1.997045
      ESP Fit Center  129 is at  -4.274532 -1.773490 -1.997045
      ESP Fit Center  130 is at  -3.225475 -1.773490 -1.997045
      ESP Fit Center  131 is at  -2.770004 -0.159157 -2.714455
      ESP Fit Center  132 is at  -3.260004  0.689548 -2.714455
      ESP Fit Center  133 is at  -4.240004  0.689548 -2.714455
      ESP Fit Center  134 is at  -4.730004 -0.159157 -2.714455
      ESP Fit Center  135 is at  -4.240004 -1.007862 -2.714455
      ESP Fit Center  136 is at  -3.260004 -1.007862 -2.714455
      ESP Fit Center  137 is at  -3.750004 -0.159157 -2.977045
      ESP Fit Center  138 is at  -2.487681  0.589172  3.036805
      ESP Fit Center  139 is at  -1.507681  0.589172  2.774215
      ESP Fit Center  140 is at  -1.997681  1.437877  2.774215
      ESP Fit Center  141 is at  -2.977681  1.437877  2.774215
      ESP Fit Center  142 is at  -3.467681  0.589172  2.774215
      ESP Fit Center  143 is at  -2.977681 -0.259533  2.774215
      ESP Fit Center  144 is at  -1.997681 -0.259533  2.774215
      ESP Fit Center  145 is at  -3.012209  2.203504  2.056805
      ESP Fit Center  146 is at  -3.860914  1.586884  2.056805
      ESP Fit Center  147 is at  -4.185091  0.589172  2.056805
      ESP Fit Center  148 is at  -2.487681  2.549172  1.076805
      ESP Fit Center  149 is at  -3.467681  2.286582  1.076805
      ESP Fit Center  150 is at  -4.185091  1.569172  1.076805
      ESP Fit Center  151 is at  -1.963152  2.203504  0.096805
      ESP Fit Center  152 is at  -3.012209  2.203504  0.096805
      ESP Fit Center  153 is at  -4.597915  0.130286  1.560349
      ESP Fit Center  154 is at  -4.249269  1.458093  0.577975
      ESP Fit Center  155 is at  -4.912049  0.626994  0.577975
      ESP Fit Center  156 is at  -5.148592 -0.409369  0.577975
      ESP Fit Center  157 is at  -2.228511  1.919318 -0.512378
      ESP Fit Center  158 is at  -3.291526  1.919318 -0.512378
      ESP Fit Center  159 is at  -1.964296  1.333020 -1.494751
      ESP Fit Center  160 is at  -3.032620 -2.305359 -1.494751
      ESP Fit Center  161 is at   5.610926  0.811874  0.995618
      ESP Fit Center  162 is at   6.903553 -0.127275  0.155618
      ESP Fit Center  163 is at   6.529745  0.899755  0.155618
      ESP Fit Center  164 is at   5.583229  1.446226  0.155618
      ESP Fit Center  165 is at   4.506891  1.256439  0.155618
      ESP Fit Center  166 is at   6.903553 -0.127275 -0.882679
      ESP Fit Center  167 is at   6.529745  0.899755 -0.882679
      ESP Fit Center  168 is at   5.583229  1.446226 -0.882679
      ESP Fit Center  169 is at   4.506891  1.256439 -0.882679
      ESP Fit Center  170 is at   6.293257 -0.127275 -1.722679
      ESP Fit Center  171 is at   5.610926  0.811874 -1.722679
      ESP Fit Center  172 is at   4.506891  0.453151 -1.722679
      ESP Fit Center  173 is at   5.305778 -0.127275 -2.043531
      ESP Fit Center  174 is at   6.435992 -1.901992  1.096115
      ESP Fit Center  175 is at   5.753661 -2.841141  1.096115
      ESP Fit Center  176 is at   7.046288 -1.901992  0.256115
      ESP Fit Center  177 is at   4.649626 -3.285706  0.256115
      ESP Fit Center  178 is at   5.725964 -3.475494  0.256115
      ESP Fit Center  179 is at   6.672480 -2.929022  0.256115
      ESP Fit Center  180 is at   7.046288 -1.901992 -0.782182
      ESP Fit Center  181 is at   4.649626 -3.285706 -0.782182
      ESP Fit Center  182 is at   5.725964 -3.475494 -0.782182
      ESP Fit Center  183 is at   6.672480 -2.929022 -0.782182
      ESP Fit Center  184 is at   6.435992 -1.901992 -1.622182
      ESP Fit Center  185 is at   5.753661 -2.841141 -1.622182
      ESP Fit Center  186 is at   5.448513 -1.901992 -1.943034
      ESP Fit Center  187 is at   4.695147 -0.989872  2.751039
      ESP Fit Center  188 is at   5.682626 -0.989872  2.430187
      ESP Fit Center  189 is at   5.000295 -0.050724  2.430187
      ESP Fit Center  190 is at   3.896260 -0.409446  2.430187
      ESP Fit Center  191 is at   5.000295 -1.929021  2.430187
      ESP Fit Center  192 is at   6.292922 -0.989872  1.590187
      ESP Fit Center  193 is at   5.919114  0.037158  1.590187
      ESP Fit Center  194 is at   4.972598  0.583629  1.590187
      ESP Fit Center  195 is at   3.896260  0.393842  1.590187
      ESP Fit Center  196 is at   3.896260 -2.373586  1.590187
      ESP Fit Center  197 is at   4.972598 -2.563373  1.590187
      ESP Fit Center  198 is at   5.919114 -2.016902  1.590187
      ESP Fit Center  199 is at   0.031490  3.990553  1.823366
      ESP Fit Center  200 is at   0.336638  4.929701  1.502515
      ESP Fit Center  201 is at  -0.767398  4.570978  1.502515
      ESP Fit Center  202 is at  -0.767398  3.410127  1.502515
      ESP Fit Center  203 is at   0.308941  5.564054  0.662515
      ESP Fit Center  204 is at  -0.767398  5.374266  0.662515
      ESP Fit Center  205 is at  -1.469927  4.537024  0.662515
      ESP Fit Center  206 is at  -1.469927  3.444081  0.662515
      ESP Fit Center  207 is at   0.308941  5.564054 -0.375782
      ESP Fit Center  208 is at  -0.767398  5.374266 -0.375782
      ESP Fit Center  209 is at  -1.469927  4.537024 -0.375782
      ESP Fit Center  210 is at  -1.469927  3.444081 -0.375782
      ESP Fit Center  211 is at  -0.767398  4.570978 -1.215782
      ESP Fit Center  212 is at   2.399456  3.328977 -1.840985
      ESP Fit Center  213 is at   2.025648  4.356007 -1.840985
      ESP Fit Center  214 is at   1.079132  4.902478 -1.840985
      ESP Fit Center  215 is at   0.002794  4.712691 -1.840985
      ESP Fit Center  216 is at  -0.699736  3.875448 -1.840985
      ESP Fit Center  217 is at   2.025648  2.301947 -1.840985
      ESP Fit Center  218 is at   1.789161  3.328977 -2.680985
      ESP Fit Center  219 is at   1.106829  4.268126 -2.680985
      ESP Fit Center  220 is at   0.002794  3.909403 -2.680985
      ESP Fit Center  221 is at   0.801681  3.328977 -3.001836
      ESP Fit Center  222 is at   2.781411  3.729787  1.470257
      ESP Fit Center  223 is at   2.099080  4.668936  1.470257
      ESP Fit Center  224 is at   3.391707  3.729787  0.630257
      ESP Fit Center  225 is at   3.017898  4.756817  0.630257
      ESP Fit Center  226 is at   2.071382  5.303288  0.630257
      ESP Fit Center  227 is at   3.017898  2.702757  0.630257
      ESP Fit Center  228 is at   3.391707  3.729787 -0.408040
      ESP Fit Center  229 is at   3.017898  4.756817 -0.408040
      ESP Fit Center  230 is at   2.071382  5.303288 -0.408040
      ESP Fit Center  231 is at   3.017898  2.702757 -0.408040
      ESP Fit Center  232 is at   2.781411  3.729787 -1.248040
      ESP Fit Center  233 is at   2.099080  4.668936 -1.248040
      ESP Fit Center  234 is at   1.114755  0.852750  3.664473
      ESP Fit Center  235 is at   2.102234  0.852750  3.343622
      ESP Fit Center  236 is at   0.315867  0.272325  3.343622
      ESP Fit Center  237 is at   1.419903 -0.086398  3.343622
      ESP Fit Center  238 is at   2.712530  0.852750  2.503622
      ESP Fit Center  239 is at  -0.385426  1.829146  3.782233
      ESP Fit Center  240 is at  -0.080278  2.768295  3.461381
      ESP Fit Center  241 is at  -1.184314  2.409572  3.461381
      ESP Fit Center  242 is at  -1.184314  1.248721  3.461381
      ESP Fit Center  243 is at  -1.184314  3.212860  2.621381
      ESP Fit Center  244 is at  -1.886844  2.375618  2.621381
      ESP Fit Center  245 is at  -1.184314  0.445433  2.621381
      ESP Fit Center  246 is at  -1.184314  3.212860  1.583084
      ESP Fit Center  247 is at   1.217173  2.605528  3.827244
      ESP Fit Center  248 is at   2.204653  2.605528  3.506392
      ESP Fit Center  249 is at   1.522321  3.544677  3.506392
      ESP Fit Center  250 is at   0.418286  3.185954  3.506392
      ESP Fit Center  251 is at   2.814948  2.605528  2.666392
[...]
  703 Fit       0.002977
  704 Fit       0.015212
  705 Fit       0.003053
  706 Fit       0.016474
  707 Fit       0.018257
  708 Fit       0.023715
  709 Fit       0.029621
  710 Fit       0.006902
  711 Fit       0.004854
  712 Fit       0.005075
  713 Fit       0.003815
  714 Fit       0.001418
  715 Fit      -0.021871
  716 Fit      -0.000442
  717 Fit       0.001488
  718 Fit       0.001372
  719 Fit       0.002303
  720 Fit      -0.001153
  721 Fit      -0.002095
  722 Fit      -0.002736
  723 Fit      -0.002808
  724 Fit       0.012879
  725 Fit       0.003349
  726 Fit       0.016693
  727 Fit       0.018304
  728 Fit       0.017415
  729 Fit       0.018274
  730 Fit       0.019984
  731 Fit       0.016014
  732 Fit       0.020380
  733 Fit      -0.003236
  734 Fit       0.010452
  735 Fit       0.017583
  736 Fit       0.005947
  737 Fit       0.002398
  738 Fit       0.011367
  739 Fit       0.009527
  740 Fit       0.000685
  741 Fit       0.020321
  742 Fit       0.018052
  743 Fit       0.020039
  744 Fit       0.011346
  745 Fit       0.009827
  746 Fit       0.002843
  747 Fit       0.005852
  748 Fit      -0.003868
  749 Fit       0.000602
  750 Fit       0.007359
  751 Fit       0.000822
  752 Fit       0.000288
  753 Fit      -0.025426
  754 Fit      -0.024784
  755 Fit      -0.022913
  756 Fit      -0.020875
  757 Fit      -0.024469
  758 Fit      -0.025890
  759 Fit      -0.017606
  760 Fit      -0.017652
  761 Fit      -0.011452
  762 Fit      -0.017018
  763 Fit      -0.020710
  764 Fit      -0.021718
  765 Fit      -0.018925
  766 Fit      -0.011312
  767 Fit      -0.003703
  768 Fit      -0.009453
  769 Fit      -0.012344
  770 Fit      -0.011269
  771 Fit      -0.006919
  772 Fit      -0.014048
  773 Fit      -0.031984
  774 Fit      -0.036059
  775 Fit      -0.017180
  776 Fit      -0.023530
  777 Fit      -0.030303
  778 Fit      -0.035772
  779 Fit      -0.035314
  780 Fit      -0.006163
  781 Fit      -0.025702
  782 Fit      -0.031178
  783 Fit      -0.034629
  784 Fit      -0.031820
  785 Fit      -0.023340
  786 Fit      -0.021097
  787 Fit      -0.030450
  788 Fit      -0.040482
  789 Fit      -0.036071
  790 Fit      -0.029405
  791 Fit      -0.019422
  792 Fit      -0.042280
  793 Fit      -0.041933
  794 Fit      -0.039187
  795 Fit      -0.034930
  796 Fit      -0.028755
  797 Fit      -0.019007
  798 Fit      -0.037427
  799 Fit      -0.041137
  800 Fit      -0.040845
  801 Fit      -0.038179
  802 Fit      -0.034085
  803 Fit      -0.027824
  804 Fit      -0.018823
  805 Fit      -0.033493
  806 Fit      -0.038071
  807 Fit      -0.035615
  808 Fit      -0.029669
  809 Fit      -0.020259
  810 Fit      -0.031519
  811 Fit      -0.019840
  812 Fit      -0.025897
  813 Fit      -0.021266
  814 Fit      -0.010262
  815 Fit      -0.009410
  816 Fit      -0.027426
  817 Fit      -0.031237
  818 Fit      -0.025865
  819 Fit      -0.032366
  820 Fit      -0.035752
  821 Fit      -0.032022
  822 Fit      -0.026150
  823 Fit      -0.035247
  824 Fit      -0.039793
  825 Fit      -0.015106
  826 Fit      -0.039726
  827 Fit      -0.033360
  828 Fit      -0.024713
  829 Fit      -0.011585
  830 Fit      -0.028663
  831 Fit      -0.036127
  832 Fit      -0.042009
  833 Fit      -0.033650
  834 Fit       0.012366
  835 Fit       0.010572
  836 Fit       0.007525
  837 Fit       0.015061
  838 Fit       0.014160
  839 Fit       0.013227
  840 Fit       0.011542
  841 Fit       0.008463
  842 Fit       0.016043
  843 Fit       0.015279
  844 Fit       0.014248
  845 Fit       0.012231
  846 Fit       0.018313
  847 Fit       0.016809
  848 Fit       0.017675
  849 Fit       0.024697
  850 Fit       0.013755
  851 Fit       0.008593
  852 Fit       0.011350
  853 Fit       0.012775
  854 Fit       0.015237
  855 Fit       0.011808
  856 Fit       0.013749
  857 Fit       0.014768
  858 Fit       0.015114
  859 Fit       0.016652
  860 Fit       0.017368
  861 Fit       0.017205
  862 Fit       0.016966
  863 Fit       0.019549
  864 Fit       0.020595
  865 Fit      -0.007009
  866 Fit       0.004407
  867 Fit       0.000778
  868 Fit      -0.015088
  869 Fit      -0.016888
  870 Fit       0.000071
  871 Fit       0.009990
  872 Fit       0.008804
  873 Fit       0.004852
  874 Fit      -0.004119
  875 Fit      -0.005326
  876 Fit       0.004280
  877 Fit       0.008578
  878 Fit       0.007204
  879 Fit       0.003080
  880 Fit      -0.001536
  881 Fit       0.006163
  882 Fit       0.003860
  883 Fit       0.000581
  884 Fit      -0.005324
  885 Fit      -0.014384
  886 Fit       0.004136
  887 Fit       0.001574
  888 Fit      -0.002417
  889 Fit      -0.009121
  890 Fit      -0.019052
  891 Fit       0.000790
  892 Fit      -0.003641
  893 Fit      -0.010477
  894 Fit      -0.003059
  895 Fit       0.000346
  896 Fit       0.000746
  897 Fit      -0.001766
  898 Fit      -0.007945
  899 Fit      -0.019708
  900 Fit      -0.013714
  901 Fit      -0.010504
  902 Fit      -0.005428
  903 Fit      -0.010544
  904 Fit      -0.028599
  905 Fit      -0.020306
  906 Fit       0.011117
  907 Fit       0.009335
  908 Fit       0.009758
  909 Fit       0.008815
  910 Fit       0.007518
  911 Fit       0.006232
  912 Fit       0.008175
  913 Fit       0.008583
  914 Fit       0.007980
  915 Fit       0.006986
  916 Fit       0.005730
  917 Fit       0.005528
  918 Fit       0.006146
  919 Fit       0.005829
  920 Fit       0.002745
  921 Fit      -0.007347
  922 Fit      -0.005615
  923 Fit      -0.014375
  924 Fit      -0.015091
  925 Fit      -0.000396
  926 Fit      -0.001885
  927 Fit      -0.006897
  928 Fit      -0.004814
  929 Fit       0.000008
  930 Fit      -0.006964
  931 Fit      -0.017061
  932 Fit      -0.003066
  933 Fit      -0.016082
  934 Fit       0.004198
  935 Fit       0.004256
  936 Fit       0.006692
  937 Fit       0.004900
  938 Fit       0.004043
  939 Fit       0.008247
  940 Fit       0.009104
  941 Fit       0.007265
  942 Fit       0.003606
  943 Fit       0.004591
  944 Fit       0.010058
  945 Fit       0.011901
  946 Fit       0.010289
  947 Fit       0.011837
  948 Fit       0.002082
  949 Fit       0.006039
  950 Fit       0.012391
  951 Fit       0.015566
  952 Fit       0.003064
  953 Fit       0.009581
  954 Fit       0.013454
  955 Fit       0.015991
  956 Fit      -0.000473
  957 Fit       0.005807
  958 Fit       0.010574
  959 Fit       0.014264
  960 Fit      -0.004359
  961 Fit       0.005528
  962 Fit       0.011218
  963 Fit       0.014707
  964 Fit       0.017098
  965 Fit       0.018405
  966 Fit       0.018937
  967 Fit       0.005716
  968 Fit       0.012490
  969 Fit       0.015568
  970 Fit       0.015951
  971 Fit       0.011806
  972 Fit      -0.003680
  973 Fit       0.008857
  974 Fit       0.010266
  975 Fit       0.000560
  976 Fit       0.013264
  977 Fit       0.013291
  978 Fit       0.007150
  979 Fit       0.017049
  980 Fit       0.016446
  981 Fit       0.013719
  982 Fit       0.019147
  983 Fit       0.018606
  984 Fit       0.016711
  985 Fit       0.020550
  986 Fit       0.020260
  987 Fit       0.020298
  988 Fit       0.014200
  989 Fit       0.002023
  990 Fit       0.019964
  991 Fit       0.016541
  992 Fit       0.013437
  993 Fit       0.015427
  994 Fit       0.017600
  995 Fit       0.017805
  996 Fit       0.018025
  997 Fit       0.012256
  998 Fit       0.016923
  999 Fit       0.019589
 1000 Fit       0.014048
 1001 Fit       0.011969
 1002 Fit       0.018202
 1003 Fit       0.026368
 1004 Fit       0.026309
 1005 Fit       0.003702
 1006 Fit       0.005182
 1007 Fit       0.013812
 1008 Fit       0.022337
 1009 Fit       0.010587
 1010 Fit       0.011331
 1011 Fit       0.030976
 1012 Fit       0.028154
 1013 Fit       0.021263
 1014 Fit       0.012379
 1015 Fit       0.029036
 1016 Fit       0.028680
 1017 Fit       0.030709
 1018 Fit       0.031185
 1019 Fit       0.026702
 1020 Fit       0.022154
 1021 Fit       0.032165
 1022 Fit       0.031882
 1023 Fit       0.030178
 1024 Fit      -0.017501
 1025 Fit      -0.010394
 1026 Fit       0.000393
 1027 Fit       0.005208
 1028 Fit      -0.004815
 1029 Fit       0.007175
 1030 Fit       0.014226
 1031 Fit       0.010852
 1032 Fit       0.010455
 1033 Fit       0.009255
 1034 Fit       0.006618
 1035 Fit       0.001732
 1036 Fit       0.001966
 1037 Fit       0.010684
 1038 Fit       0.012706
 1039 Fit       0.012553
 1040 Fit       0.003227
 1041 Fit       0.014133
 1042 Fit       0.015349
 1043 Fit       0.017392
 1044 Fit       0.022297
 1045 Fit       0.022808
 1046 Fit       0.004653
 1047 Fit       0.004901
 1048 Fit       0.003278
 1049 Fit       0.003314
 1050 Fit       0.001881
 1051 Fit       0.003088
 1052 Fit       0.003183
 1053 Fit       0.002278
 1054 Fit       0.000268
 1055 Fit      -0.003316
 1056 Fit      -0.009360
 1057 Fit      -0.018786
 1058 Fit      -0.000642
 1059 Fit       0.000416
 1060 Fit       0.000402
 1061 Fit       0.001230
 1062 Fit      -0.001139
 1063 Fit      -0.001789
 1064 Fit      -0.002566
 1065 Fit      -0.000813
 1066 Fit      -0.003754
 1067 Fit      -0.002415
 1068 Fit      -0.000034
 1069 Fit      -0.002718
 1070 Fit      -0.000914
 1071 Fit       0.010076
 1072 Fit       0.002376
 1073 Fit       0.004161
 1074 Fit       0.013641
 1075 Fit       0.014990
 1076 Fit       0.015532
 1077 Fit       0.015131
 1078 Fit       0.016038
 1079 Fit       0.014501
 1080 Fit       0.016031
 1081 Fit       0.017086
 1082 Fit       0.018162
 1083 Fit       0.010001
 1084 Fit       0.018830
 1085 Fit      -0.002712
 1086 Fit       0.018468
 1087 Fit       0.019965
 1088 Fit       0.009880
 1089 Fit       0.015742
 1090 Fit       0.008938
 1091 Fit       0.004696
 1092 Fit       0.016942
 1093 Fit       0.013562
 1094 Fit       0.011285
 1095 Fit       0.001963
 1096 Fit       0.020253
 1097 Fit       0.019702
 1098 Fit       0.024013
 1099 Fit       0.018202
 1100 Fit       0.002327
 1101 Fit       0.003564
 1102 Fit      -0.003973
 1103 Fit       0.001776
 1104 Fit       0.007606
 1105 Fit       0.001352
 1106 Fit       0.002916
 1107 Fit      -0.019837
 1108 Fit      -0.019468
 1109 Fit      -0.017906
 1110 Fit      -0.016432
 1111 Fit      -0.019097
 1112 Fit      -0.020326
 1113 Fit      -0.014294
 1114 Fit      -0.014218
 1115 Fit      -0.008414
 1116 Fit      -0.011182
 1117 Fit      -0.014843
 1118 Fit      -0.017183
 1119 Fit      -0.017514
 1120 Fit      -0.015528
 1121 Fit      -0.008981
 1122 Fit       0.000506
 1123 Fit      -0.006432
 1124 Fit      -0.010346
 1125 Fit      -0.011833
 1126 Fit      -0.010215
 1127 Fit      -0.030807
 1128 Fit      -0.004678
 1129 Fit      -0.011944
 1130 Fit      -0.026557
 1131 Fit      -0.031751
 1132 Fit      -0.033210
 1133 Fit      -0.013448
 1134 Fit      -0.018969
 1135 Fit      -0.021541
 1136 Fit      -0.024897
 1137 Fit      -0.029182
 1138 Fit      -0.031022
 1139 Fit      -0.027286
 1140 Fit      -0.004165
 1141 Fit      -0.005624
 1142 Fit      -0.020376
 1143 Fit      -0.025284
 1144 Fit      -0.028445
 1145 Fit      -0.026446
 1146 Fit      -0.019444
 1147 Fit      -0.016769
 1148 Fit      -0.024543
 1149 Fit      -0.030787
 1150 Fit      -0.024574
 1151 Fit      -0.015937
 1152 Fit      -0.036923
 1153 Fit      -0.035888
 1154 Fit      -0.033375
 1155 Fit      -0.029667
 1156 Fit      -0.024589
 1157 Fit      -0.017536
 1158 Fit      -0.036279
 1159 Fit      -0.036378
 1160 Fit      -0.034783
 1161 Fit      -0.031985
 1162 Fit      -0.028065
 1163 Fit      -0.022500
 1164 Fit      -0.014422
 1165 Fit      -0.032965
 1166 Fit      -0.034952
 1167 Fit      -0.035113
 1168 Fit      -0.033610
 1169 Fit      -0.030877
 1170 Fit      -0.026914
 1171 Fit      -0.021356
 1172 Fit      -0.014729
 1173 Fit      -0.028880
 1174 Fit      -0.032154
 1175 Fit      -0.029988
 1176 Fit      -0.024731
 1177 Fit      -0.017570
 1178 Fit      -0.026542
 1179 Fit      -0.015054
 1180 Fit      -0.020151
 1181 Fit      -0.016369
 1182 Fit      -0.007907
 1183 Fit      -0.007193
 1184 Fit      -0.019593
 1185 Fit      -0.024380
 1186 Fit      -0.023155
 1187 Fit      -0.015151
 1188 Fit      -0.023699
 1189 Fit      -0.028201
 1190 Fit      -0.027666
 1191 Fit      -0.021993
 1192 Fit      -0.029124
 1193 Fit      -0.032342
 1194 Fit      -0.028996
 1195 Fit      -0.012827
 1196 Fit      -0.029702
 1197 Fit      -0.021532
 1198 Fit      -0.011146
 1199 Fit      -0.033165
 1200 Fit      -0.034392
 1201 Fit      -0.033750
 1202 Fit      -0.030390
 1203 Fit      -0.036398
 1204 Fit      -0.033027
 1205 Fit       0.010457
 1206 Fit       0.008632
 1207 Fit       0.005698
 1208 Fit       0.012082
 1209 Fit       0.011102
 1210 Fit       0.009765
 1211 Fit       0.007594
 1212 Fit       0.014015
 1213 Fit       0.013125
 1214 Fit       0.012321
 1215 Fit       0.011098
 1216 Fit       0.009000
 1217 Fit       0.015108
 1218 Fit       0.014025
 1219 Fit       0.012975
 1220 Fit       0.011385
 1221 Fit       0.017486
 1222 Fit       0.015748
 1223 Fit       0.017183
 1224 Fit       0.006261
 1225 Fit       0.009059
 1226 Fit       0.010593
 1227 Fit       0.013123
 1228 Fit       0.009533
 1229 Fit       0.011166
 1230 Fit       0.012146
 1231 Fit       0.012665
 1232 Fit       0.014284
 1233 Fit       0.013374
 1234 Fit       0.013854
 1235 Fit       0.014136
 1236 Fit       0.014199
 1237 Fit       0.015762
 1238 Fit       0.017595
 1239 Fit       0.016415
 1240 Fit       0.015908
 1241 Fit       0.018885
 1242 Fit       0.019814
 1243 Fit      -0.007394
 1244 Fit       0.002238
 1245 Fit      -0.000899
 1246 Fit      -0.001560
 1247 Fit       0.007402
 1248 Fit       0.006405
 1249 Fit       0.002927
 1250 Fit      -0.005078
 1251 Fit      -0.006793
 1252 Fit       0.002239
 1253 Fit       0.006171
 1254 Fit       0.002304
 1255 Fit       0.005593
 1256 Fit       0.003006
 1257 Fit      -0.000279
 1258 Fit      -0.005681
 1259 Fit       0.004114
 1260 Fit       0.001863
 1261 Fit      -0.001242
 1262 Fit      -0.006328
 1263 Fit      -0.014891
 1264 Fit       0.000573
 1265 Fit      -0.002868
 1266 Fit      -0.008201
 1267 Fit      -0.016244
 1268 Fit      -0.005454
 1269 Fit      -0.012269
 1270 Fit      -0.004398
 1271 Fit      -0.001373
 1272 Fit      -0.001274
 1273 Fit      -0.003772
 1274 Fit      -0.009563
 1275 Fit      -0.020517
 1276 Fit      -0.011397
 1277 Fit      -0.007190
 1278 Fit      -0.011870
 1279 Fit      -0.019656
 1280 Fit       0.008447
 1281 Fit       0.008730
 1282 Fit       0.007971
 1283 Fit       0.007741
 1284 Fit       0.007982
 1285 Fit       0.007446
 1286 Fit       0.006536
 1287 Fit       0.005742
 1288 Fit       0.006686
 1289 Fit       0.006730
 1290 Fit       0.006241
 1291 Fit       0.005524
 1292 Fit       0.005421
 1293 Fit       0.004008
 1294 Fit       0.004455
 1295 Fit      -0.006350
 1296 Fit      -0.005439
 1297 Fit      -0.011541
 1298 Fit      -0.011765
 1299 Fit      -0.002593
 1300 Fit      -0.002125
 1301 Fit      -0.005992
 1302 Fit      -0.004324
 1303 Fit      -0.006112
 1304 Fit      -0.013332
 1305 Fit      -0.009192
 1306 Fit       0.002964
 1307 Fit       0.003068
 1308 Fit       0.004972
 1309 Fit       0.003649
 1310 Fit       0.002956
 1311 Fit       0.006268
 1312 Fit       0.006948
 1313 Fit       0.005505
 1314 Fit       0.002635
 1315 Fit       0.003333
 1316 Fit       0.007481
 1317 Fit       0.009005
 1318 Fit       0.008350
 1319 Fit       0.006304
 1320 Fit       0.004610
 1321 Fit       0.009503
 1322 Fit       0.004286
 1323 Fit       0.009718
 1324 Fit       0.012861
 1325 Fit       0.001324
 1326 Fit       0.007325
 1327 Fit       0.010998
 1328 Fit       0.013507
 1329 Fit       0.002744
 1330 Fit       0.007404
 1331 Fit       0.010803
 1332 Fit       0.013650
 1333 Fit      -0.003896
 1334 Fit       0.002999
 1335 Fit       0.008196
 1336 Fit       0.014479
 1337 Fit       0.015918
 1338 Fit       0.017098
 1339 Fit       0.008455
 1340 Fit       0.012140
 1341 Fit       0.014320
 1342 Fit       0.015446
 1343 Fit       0.015764
 1344 Fit       0.001667
 1345 Fit       0.008732
 1346 Fit       0.011923
 1347 Fit       0.012504
 1348 Fit      -0.006452
 1349 Fit       0.005247
 1350 Fit       0.006998
 1351 Fit       0.010656
 1352 Fit       0.010073
 1353 Fit       0.005346
 1354 Fit       0.014184
 1355 Fit       0.013273
 1356 Fit       0.008887
 1357 Fit       0.016200
 1358 Fit       0.015300
 1359 Fit       0.012760
 1360 Fit       0.017338
 1361 Fit       0.016504
 1362 Fit       0.013918
 1363 Fit       0.019079
 1364 Fit       0.010935
 1365 Fit       0.019017
 1366 Fit       0.013484
 1367 Fit       0.008813
 1368 Fit       0.017226
 1369 Fit       0.015802
 1370 Fit       0.014643
 1371 Fit       0.013764
 1372 Fit       0.013628
 1373 Fit       0.015408
 1374 Fit       0.016309
 1375 Fit       0.017563
 1376 Fit       0.010516
 1377 Fit       0.014913
 1378 Fit       0.018198
 1379 Fit       0.010625
 1380 Fit       0.015989
 1381 Fit       0.023058
 1382 Fit       0.020357
 1383 Fit       0.002603
 1384 Fit       0.003066
 1385 Fit       0.011417
 1386 Fit       0.018513
 1387 Fit       0.008281
 1388 Fit       0.007029
 1389 Fit       0.026843
 1390 Fit       0.024296
 1391 Fit       0.018658
 1392 Fit       0.010297
 1393 Fit       0.026264
 1394 Fit       0.026070
 1395 Fit       0.027052
 1396 Fit       0.026367
 1397 Fit       0.022410
 1398 Fit       0.018170
 1399 Fit       0.026987
 1400 Fit       0.027195
 1401 Fit       0.025017
 1402 Fit      -0.017679
 1403 Fit      -0.011110
 1404 Fit      -0.001883
 1405 Fit       0.002136
 1406 Fit      -0.007026
 -----------------------------------------------------------------
 Leave Link  602 at Sat Feb 17 21:04:17 2018, MaxMem=   33554432 cpu:       0.6

 Test job not archived.
 1\1\GINC-NODE075\SP\RHF\6-31G(d)\C8H17N3O4S1\WULSDORT\17-Feb-2018\0\\#
 HF/6-31G* Geom=AllCheck Guess=Read Pop=(MK,ReadRadii) Integral=(Grid=U
 ltraFine) iop(6/33=2)\\Optimization for frag35-conf1\\0,1\C,0,-0.48494
 02937,3.1772606702,-0.3672746066\C,0,-2.1885315674,5.5942669191,-1.402
 2981278\C,0,-0.0355853684,1.038897264,-1.5246174489\C,0,-2.0949693791,
 6.1279775677,-3.7596735196\C,0,-0.0151826481,6.3009166103,-2.406327215
 3\C,0,-1.0839363682,7.900132162,2.6527935635\C,0,-1.5222155483,3.98023
 56819,0.4152495589\C,0,-1.5356694844,5.460358196,-0.0065302754\N,0,-0.
 8972325371,1.9520282721,-0.793475897\N,0,-2.3631783779,6.2046467973,0.
 9642121906\N,0,-1.4264491429,5.9090447254,-2.4800894552\O,0,0.64909438
 47,3.6118231204,-0.5627751196\O,0,-3.4045609071,5.382238462,-1.4624602
 507\O,0,-3.3524488783,8.4962971459,1.4009066873\O,0,-1.185016134,8.345
 4698065,0.0528901193\S,0,-2.0561372373,7.8681372209,1.1366347263\H,0,-
 0.4165036402,0.8603018562,-2.536997057\H,0,0.0502151632,0.0785390228,-
 1.0036621345\H,0,0.9495595881,1.5021535449,-1.5899849957\H,0,-2.065566
 9413,7.1911594638,-4.0311176619\H,0,-3.1321739065,5.8093749212,-3.6695
 71047\H,0,-1.5949482462,5.5516102608,-4.5465169835\H,0,0.5495709863,5.
 6072980755,-1.781367106\H,0,0.0922425366,7.3240781516,-2.0289076694\H,
 0,0.3994316142,6.2500789748,-3.4164525232\H,0,-0.8240968316,8.94385920
 78,2.8436609424\H,0,-1.6900731854,7.4968366728,3.4647389516\H,0,-0.178
 5348192,7.3072091817,2.5084702097\H,0,-1.2521967285,3.9312335052,1.476
 4864233\H,0,-2.5316596725,3.5688497042,0.3071953156\H,0,-0.5195117949,
 5.8466969657,0.0338610705\H,0,-1.8571942041,1.6848172373,-0.6298823976
 \H,0,-3.351075691,6.1077597437,0.71216249\\Version=AM64L-G09RevC.01\St
 ate=1-A\HF=-1173.0941222\RMSD=8.349e-09\Dipole=0.8997829,-1.8967352,0.
 3380188\Quadrupole=-12.7960317,2.3730354,10.4229964,8.5188826,1.138751
 6,1.8490997\PG=C01 [X(C8H17N3O4S1)]\\@


 A MAN BEGINS CUTTING HIS WISDOM TEETH THE 1ST
 TIME HE BITES OFF MORE THAN HE CAN CHEW.
 Job cpu time:  0 days  0 hours  4 minutes  5.2 seconds.
 File lengths (MBytes):  RWF=     45 Int=      0 D2E=      0 Chk=      6 Scr=      1
 Normal termination of Gaussian 09 at Sat Feb 17 21:04:17 2018.
