 Entering Gaussian System, Link 0=g09
 Initial command:
 /home/fb_chem/chemsoft/lx24-amd64/Gaussian_09_C.01_NBO_3.1_64_istanbul-64/g09/l1.exe /local/2397394.1.parallel_long/Gau-21656.inp -scrdir=/local/2397394.1.parallel_long/
 Entering Link 1 = /home/fb_chem/chemsoft/lx24-amd64/Gaussian_09_C.01_NBO_3.1_64_istanbul-64/g09/l1.exe PID=     21657.
  
 Copyright (c) 1988,1990,1992,1993,1995,1998,2003,2009,2011,
            Gaussian, Inc.  All Rights Reserved.
  
 This is part of the Gaussian(R) 09 program.  It is based on
 the Gaussian(R) 03 system (copyright 2003, Gaussian, Inc.),
 the Gaussian(R) 98 system (copyright 1998, Gaussian, Inc.),
 the Gaussian(R) 94 system (copyright 1995, Gaussian, Inc.),
 the Gaussian 92(TM) system (copyright 1992, Gaussian, Inc.),
 the Gaussian 90(TM) system (copyright 1990, Gaussian, Inc.),
 the Gaussian 88(TM) system (copyright 1988, Gaussian, Inc.),
 the Gaussian 86(TM) system (copyright 1986, Carnegie Mellon
 University), and the Gaussian 82(TM) system (copyright 1983,
 Carnegie Mellon University). Gaussian is a federally registered
 trademark of Gaussian, Inc.
  
 This software contains proprietary and confidential information,
 including trade secrets, belonging to Gaussian, Inc.
  
 This software is provided under written license and may be
 used, copied, transmitted, or stored only in accord with that
 written license.
  
 The following legend is applicable only to US Government
 contracts under FAR:
  
                    RESTRICTED RIGHTS LEGEND
  
 Use, reproduction and disclosure by the US Government is
 subject to restrictions as set forth in subparagraphs (a)
 and (c) of the Commercial Computer Software - Restricted
 Rights clause in FAR 52.227-19.
  
 Gaussian, Inc.
 340 Quinnipiac St., Bldg. 40, Wallingford CT 06492
  
  
 ---------------------------------------------------------------
 Warning -- This program may not be used in any manner that
 competes with the business of Gaussian, Inc. or will provide
 assistance to any competitor of Gaussian, Inc.  The licensee
 of this program is prohibited from giving any competitor of
 Gaussian, Inc. access to this program.  By using this program,
 the user acknowledges that Gaussian, Inc. is engaged in the
 business of creating and licensing software in the field of
 computational chemistry and represents and warrants to the
 licensee that it is not a competitor of Gaussian, Inc. and that
 it will not use this program in any manner prohibited above.
 ---------------------------------------------------------------
  

 Cite this work as:
 Gaussian 09, Revision C.01,
 M. J. Frisch, G. W. Trucks, H. B. Schlegel, G. E. Scuseria, 
 M. A. Robb, J. R. Cheeseman, G. Scalmani, V. Barone, B. Mennucci, 
 G. A. Petersson, H. Nakatsuji, M. Caricato, X. Li, H. P. Hratchian, 
 A. F. Izmaylov, J. Bloino, G. Zheng, J. L. Sonnenberg, M. Hada, 
 M. Ehara, K. Toyota, R. Fukuda, J. Hasegawa, M. Ishida, T. Nakajima, 
 Y. Honda, O. Kitao, H. Nakai, T. Vreven, J. A. Montgomery, Jr., 
 J. E. Peralta, F. Ogliaro, M. Bearpark, J. J. Heyd, E. Brothers, 
 K. N. Kudin, V. N. Staroverov, T. Keith, R. Kobayashi, J. Normand, 
 K. Raghavachari, A. Rendell, J. C. Burant, S. S. Iyengar, J. Tomasi, 
 M. Cossi, N. Rega, J. M. Millam, M. Klene, J. E. Knox, J. B. Cross, 
 V. Bakken, C. Adamo, J. Jaramillo, R. Gomperts, R. E. Stratmann, 
 O. Yazyev, A. J. Austin, R. Cammi, C. Pomelli, J. W. Ochterski, 
 R. L. Martin, K. Morokuma, V. G. Zakrzewski, G. A. Voth, 
 P. Salvador, J. J. Dannenberg, S. Dapprich, A. D. Daniels, 
 O. Farkas, J. B. Foresman, J. V. Ortiz, J. Cioslowski, 
 and D. J. Fox, Gaussian, Inc., Wallingford CT, 2010.
 
 ******************************************
 Gaussian 09:  AM64L-G09RevC.01 23-Sep-2011
                16-Feb-2018 
 ******************************************
 %nprocs=4
 Will use up to    4 processors via shared memory.
 %chk=frag35-conf1.chk
 ---------------------------------------------------------
 #B3LYP/6-31G* Integral=(Grid=UltraFine) freq Opt pop=none
 ---------------------------------------------------------
 1/14=-1,18=20,19=15,26=3,38=1/1,3;
 2/9=110,12=2,17=6,18=5,40=1/2;
 3/5=1,6=6,7=1,11=2,16=1,25=1,30=1,71=1,74=-5,75=-5/1,2,3;
 4//1;
 5/5=2,38=5/2;
 7//1,2,3,16;
 1/14=-1,18=20,19=15/3(2);
 2/9=110/2;
 99//99;
 2/9=110/2;
 3/5=1,6=6,7=1,11=2,16=1,25=1,30=1,71=1,74=-5,75=-5/1,2,3;
 4/5=5,16=3/1;
 5/5=2,38=5/2;
 7//1,2,3,16;
 1/14=-1,18=20,19=15/3(-5);
 2/9=110/2;
 99/9=1/99;
 -----------------------------
 Optimization for frag35-conf1
 -----------------------------
 Charge =  0 Multiplicity = 1
 Symbolic Z-Matrix:
 C                    -0.69123   3.2916   -0.41864 
 C                    -2.13732   5.56612  -1.86977 
 C                    -0.06509   0.90439  -0.39816 
 C                    -2.10022   6.13964  -4.26777 
 C                    -0.41018   7.1526   -2.77756 
 C                    -0.99253   6.74797   2.6492 
 C                    -1.60596   4.30541   0.23453 
 C                    -1.49241   5.66135  -0.4604 
 N                    -0.8416    2.0196    0.08437 
 N                    -2.31028   6.68397   0.26183 
 N                    -1.58165   6.29896  -2.91598 
 O                     0.12241   3.56819  -1.29739 
 O                    -3.15449   4.88063  -2.04823 
 O                    -2.6562    8.60658   1.80597 
 O                    -0.45272   8.35502   0.62268 
 S                    -1.58439   7.76139   1.31024 
 H                    -0.35123   0.69439  -1.43212 
 H                    -0.26959   0.03522   0.23088 
 H                     0.99836   1.15498  -0.3588 
 H                    -2.40481   7.12028  -4.64515 
 H                    -2.95851   5.46468  -4.30681 
 H                    -1.30508   5.73462  -4.90094 
 H                     0.4821    6.52051  -2.76869 
 H                    -0.46362   7.7262   -1.85317 
 H                    -0.35482   7.85518  -3.6143 
 H                    -0.61635   7.41456   3.42867 
 H                    -1.82207   6.15662   3.04031 
 H                    -0.18037   6.11564   2.28866 
 H                    -1.3154    4.37763   1.28686 
 H                    -2.63377   3.92295   0.21506 
 H                    -0.44743   5.97078  -0.52874 
 H                    -1.54137   1.85008   0.80339 
 H                    -3.23165   6.35384   0.56926 
 

 GradGradGradGradGradGradGradGradGradGradGradGradGradGradGradGradGradGrad
 Berny optimization.
 Initialization pass.
                           ----------------------------
                           !    Initial Parameters    !
                           ! (Angstroms and Degrees)  !
 --------------------------                            --------------------------
 ! Name  Definition              Value          Derivative Info.                !
 --------------------------------------------------------------------------------
 ! R1    R(1,7)                  1.5137         estimate D2E/DX2                !
 ! R2    R(1,9)                  1.3761         estimate D2E/DX2                !
 ! R3    R(1,12)                 1.2291         estimate D2E/DX2                !
 ! R4    R(2,8)                  1.5528         estimate D2E/DX2                !
 ! R5    R(2,11)                 1.393          estimate D2E/DX2                !
 ! R6    R(2,13)                 1.2395         estimate D2E/DX2                !
 ! R7    R(3,9)                  1.442          estimate D2E/DX2                !
 ! R8    R(3,17)                 1.0932         estimate D2E/DX2                !
 ! R9    R(3,18)                 1.0922         estimate D2E/DX2                !
 ! R10   R(3,19)                 1.0933         estimate D2E/DX2                !
 ! R11   R(4,11)                 1.4566         estimate D2E/DX2                !
 ! R12   R(4,20)                 1.094          estimate D2E/DX2                !
 ! R13   R(4,21)                 1.0926         estimate D2E/DX2                !
 ! R14   R(4,22)                 1.0942         estimate D2E/DX2                !
 ! R15   R(5,11)                 1.4561         estimate D2E/DX2                !
 ! R16   R(5,23)                 1.0935         estimate D2E/DX2                !
 ! R17   R(5,24)                 1.0892         estimate D2E/DX2                !
 ! R18   R(5,25)                 1.094          estimate D2E/DX2                !
 ! R19   R(6,16)                 1.7805         estimate D2E/DX2                !
 ! R20   R(6,26)                 1.0924         estimate D2E/DX2                !
 ! R21   R(6,27)                 1.0912         estimate D2E/DX2                !
 ! R22   R(6,28)                 1.0906         estimate D2E/DX2                !
 ! R23   R(7,8)                  1.5279         estimate D2E/DX2                !
 ! R24   R(7,29)                 1.0941         estimate D2E/DX2                !
 ! R25   R(7,30)                 1.0968         estimate D2E/DX2                !
 ! R26   R(8,10)                 1.4954         estimate D2E/DX2                !
 ! R27   R(8,31)                 1.092          estimate D2E/DX2                !
 ! R28   R(9,32)                 1.0175         estimate D2E/DX2                !
 ! R29   R(10,16)                1.6694         estimate D2E/DX2                !
 ! R30   R(10,33)                1.0259         estimate D2E/DX2                !
 ! R31   R(14,16)                1.4522         estimate D2E/DX2                !
 ! R32   R(15,16)                1.4511         estimate D2E/DX2                !
 ! A1    A(7,1,9)              113.2873         estimate D2E/DX2                !
 ! A2    A(7,1,12)             123.906          estimate D2E/DX2                !
 ! A3    A(9,1,12)             122.7986         estimate D2E/DX2                !
 ! A4    A(8,2,11)             118.9303         estimate D2E/DX2                !
 ! A5    A(8,2,13)             120.3578         estimate D2E/DX2                !
 ! A6    A(11,2,13)            120.6749         estimate D2E/DX2                !
 ! A7    A(9,3,17)             108.9114         estimate D2E/DX2                !
 ! A8    A(9,3,18)             108.7769         estimate D2E/DX2                !
 ! A9    A(9,3,19)             109.5405         estimate D2E/DX2                !
 ! A10   A(17,3,18)            110.0504         estimate D2E/DX2                !
 ! A11   A(17,3,19)            109.4321         estimate D2E/DX2                !
 ! A12   A(18,3,19)            110.1077         estimate D2E/DX2                !
 ! A13   A(11,4,20)            108.7364         estimate D2E/DX2                !
 ! A14   A(11,4,21)            112.3582         estimate D2E/DX2                !
 ! A15   A(11,4,22)            108.5909         estimate D2E/DX2                !
 ! A16   A(20,4,21)            108.8264         estimate D2E/DX2                !
 ! A17   A(20,4,22)            109.5438         estimate D2E/DX2                !
 ! A18   A(21,4,22)            108.7553         estimate D2E/DX2                !
 ! A19   A(11,5,23)            108.5648         estimate D2E/DX2                !
 ! A20   A(11,5,24)            110.4838         estimate D2E/DX2                !
 ! A21   A(11,5,25)            110.1514         estimate D2E/DX2                !
 ! A22   A(23,5,24)            109.7278         estimate D2E/DX2                !
 ! A23   A(23,5,25)            109.6418         estimate D2E/DX2                !
 ! A24   A(24,5,25)            108.2636         estimate D2E/DX2                !
 ! A25   A(16,6,26)            107.6821         estimate D2E/DX2                !
 ! A26   A(16,6,27)            108.9828         estimate D2E/DX2                !
 ! A27   A(16,6,28)            109.2047         estimate D2E/DX2                !
 ! A28   A(26,6,27)            109.6755         estimate D2E/DX2                !
 ! A29   A(26,6,28)            109.4648         estimate D2E/DX2                !
 ! A30   A(27,6,28)            111.7397         estimate D2E/DX2                !
 ! A31   A(1,7,8)              110.685          estimate D2E/DX2                !
 ! A32   A(1,7,29)             107.3834         estimate D2E/DX2                !
 ! A33   A(1,7,30)             108.9702         estimate D2E/DX2                !
 ! A34   A(8,7,29)             111.0485         estimate D2E/DX2                !
 ! A35   A(8,7,30)             111.7787         estimate D2E/DX2                !
 ! A36   A(29,7,30)            106.7949         estimate D2E/DX2                !
 ! A37   A(2,8,7)              109.1187         estimate D2E/DX2                !
 ! A38   A(2,8,10)             104.6633         estimate D2E/DX2                !
 ! A39   A(2,8,31)             110.9779         estimate D2E/DX2                !
 ! A40   A(7,8,10)             110.278          estimate D2E/DX2                !
 ! A41   A(7,8,31)             110.5527         estimate D2E/DX2                !
 ! A42   A(10,8,31)            111.0893         estimate D2E/DX2                !
 ! A43   A(1,9,3)              122.2557         estimate D2E/DX2                !
 ! A44   A(1,9,32)             119.1723         estimate D2E/DX2                !
 ! A45   A(3,9,32)             118.5498         estimate D2E/DX2                !
 ! A46   A(8,10,16)            120.4533         estimate D2E/DX2                !
 ! A47   A(8,10,33)            114.5737         estimate D2E/DX2                !
 ! A48   A(16,10,33)           114.2062         estimate D2E/DX2                !
 ! A49   A(2,11,4)             119.8328         estimate D2E/DX2                !
 ! A50   A(2,11,5)             123.9146         estimate D2E/DX2                !
 ! A51   A(4,11,5)             116.0258         estimate D2E/DX2                !
 ! A52   A(6,16,10)            104.4466         estimate D2E/DX2                !
 ! A53   A(6,16,14)            108.657          estimate D2E/DX2                !
 ! A54   A(6,16,15)            109.2641         estimate D2E/DX2                !
 ! A55   A(10,16,14)           105.6093         estimate D2E/DX2                !
 ! A56   A(10,16,15)           107.7916         estimate D2E/DX2                !
 ! A57   A(14,16,15)           119.9486         estimate D2E/DX2                !
 ! D1    D(9,1,7,8)           -174.3014         estimate D2E/DX2                !
 ! D2    D(9,1,7,29)            64.334          estimate D2E/DX2                !
 ! D3    D(9,1,7,30)           -50.9926         estimate D2E/DX2                !
 ! D4    D(12,1,7,8)             6.7149         estimate D2E/DX2                !
 ! D5    D(12,1,7,29)         -114.6497         estimate D2E/DX2                !
 ! D6    D(12,1,7,30)          130.0237         estimate D2E/DX2                !
 ! D7    D(7,1,9,3)           -179.9377         estimate D2E/DX2                !
 ! D8    D(7,1,9,32)             1.7996         estimate D2E/DX2                !
 ! D9    D(12,1,9,3)            -0.9411         estimate D2E/DX2                !
 ! D10   D(12,1,9,32)         -179.2039         estimate D2E/DX2                !
 ! D11   D(11,2,8,7)          -145.2817         estimate D2E/DX2                !
 ! D12   D(11,2,8,10)           96.693          estimate D2E/DX2                !
 ! D13   D(11,2,8,31)          -23.2188         estimate D2E/DX2                !
 ! D14   D(13,2,8,7)            36.9166         estimate D2E/DX2                !
 ! D15   D(13,2,8,10)          -81.1087         estimate D2E/DX2                !
 ! D16   D(13,2,8,31)          158.9795         estimate D2E/DX2                !
 ! D17   D(8,2,11,4)           174.9072         estimate D2E/DX2                !
 ! D18   D(8,2,11,5)             0.6034         estimate D2E/DX2                !
 ! D19   D(13,2,11,4)           -7.2983         estimate D2E/DX2                !
 ! D20   D(13,2,11,5)          178.3979         estimate D2E/DX2                !
 ! D21   D(17,3,9,1)           -67.0044         estimate D2E/DX2                !
 ! D22   D(17,3,9,32)          111.2687         estimate D2E/DX2                !
 ! D23   D(18,3,9,1)           173.0447         estimate D2E/DX2                !
 ! D24   D(18,3,9,32)           -8.6822         estimate D2E/DX2                !
 ! D25   D(19,3,9,1)            52.6493         estimate D2E/DX2                !
 ! D26   D(19,3,9,32)         -129.0776         estimate D2E/DX2                !
 ! D27   D(20,4,11,2)          124.0353         estimate D2E/DX2                !
 ! D28   D(20,4,11,5)          -61.224          estimate D2E/DX2                !
 ! D29   D(21,4,11,2)            3.5064         estimate D2E/DX2                !
 ! D30   D(21,4,11,5)          178.2471         estimate D2E/DX2                !
 ! D31   D(22,4,11,2)         -116.8352         estimate D2E/DX2                !
 ! D32   D(22,4,11,5)           57.9055         estimate D2E/DX2                !
 ! D33   D(23,5,11,2)           78.0911         estimate D2E/DX2                !
 ! D34   D(23,5,11,4)          -96.4105         estimate D2E/DX2                !
 ! D35   D(24,5,11,2)          -42.2785         estimate D2E/DX2                !
 ! D36   D(24,5,11,4)          143.2198         estimate D2E/DX2                !
 ! D37   D(25,5,11,2)         -161.8455         estimate D2E/DX2                !
 ! D38   D(25,5,11,4)           23.6529         estimate D2E/DX2                !
 ! D39   D(26,6,16,10)        -173.0528         estimate D2E/DX2                !
 ! D40   D(26,6,16,14)         -60.7032         estimate D2E/DX2                !
 ! D41   D(26,6,16,15)          71.8418         estimate D2E/DX2                !
 ! D42   D(27,6,16,10)         -54.1467         estimate D2E/DX2                !
 ! D43   D(27,6,16,14)          58.2029         estimate D2E/DX2                !
 ! D44   D(27,6,16,15)        -169.2521         estimate D2E/DX2                !
 ! D45   D(28,6,16,10)          68.1698         estimate D2E/DX2                !
 ! D46   D(28,6,16,14)        -179.4805         estimate D2E/DX2                !
 ! D47   D(28,6,16,15)         -46.9356         estimate D2E/DX2                !
 ! D48   D(1,7,8,2)             70.3366         estimate D2E/DX2                !
 ! D49   D(1,7,8,10)          -175.2262         estimate D2E/DX2                !
 ! D50   D(1,7,8,31)           -51.9825         estimate D2E/DX2                !
 ! D51   D(29,7,8,2)          -170.4881         estimate D2E/DX2                !
 ! D52   D(29,7,8,10)          -56.0509         estimate D2E/DX2                !
 ! D53   D(29,7,8,31)           67.1928         estimate D2E/DX2                !
 ! D54   D(30,7,8,2)           -51.3342         estimate D2E/DX2                !
 ! D55   D(30,7,8,10)           63.103          estimate D2E/DX2                !
 ! D56   D(30,7,8,31)         -173.6533         estimate D2E/DX2                !
 ! D57   D(2,8,10,16)         -142.5255         estimate D2E/DX2                !
 ! D58   D(2,8,10,33)           75.1142         estimate D2E/DX2                !
 ! D59   D(7,8,10,16)          100.2422         estimate D2E/DX2                !
 ! D60   D(7,8,10,33)          -42.1181         estimate D2E/DX2                !
 ! D61   D(31,8,10,16)         -22.6882         estimate D2E/DX2                !
 ! D62   D(31,8,10,33)        -165.0486         estimate D2E/DX2                !
 ! D63   D(8,10,16,6)          -66.3947         estimate D2E/DX2                !
 ! D64   D(8,10,16,14)         179.0878         estimate D2E/DX2                !
 ! D65   D(8,10,16,15)          49.7398         estimate D2E/DX2                !
 ! D66   D(33,10,16,6)          76.0938         estimate D2E/DX2                !
 ! D67   D(33,10,16,14)        -38.4237         estimate D2E/DX2                !
 ! D68   D(33,10,16,15)       -167.7716         estimate D2E/DX2                !
 --------------------------------------------------------------------------------
 Trust Radius=3.00D-01 FncErr=1.00D-07 GrdErr=1.00D-06
 Number of steps in this run=    167 maximum allowed number of steps=    198.
 GradGradGradGradGradGradGradGradGradGradGradGradGradGradGradGradGradGrad

                          Input orientation:                          
 ---------------------------------------------------------------------
 Center     Atomic      Atomic             Coordinates (Angstroms)
 Number     Number       Type             X           Y           Z
 ---------------------------------------------------------------------
      1          6           0       -0.691234    3.291597   -0.418644
      2          6           0       -2.137317    5.566122   -1.869769
      3          6           0       -0.065093    0.904387   -0.398163
      4          6           0       -2.100218    6.139642   -4.267772
      5          6           0       -0.410178    7.152596   -2.777560
      6          6           0       -0.992532    6.747972    2.649198
      7          6           0       -1.605958    4.305411    0.234525
      8          6           0       -1.492414    5.661346   -0.460398
      9          7           0       -0.841603    2.019601    0.084370
     10          7           0       -2.310283    6.683973    0.261834
     11          7           0       -1.581652    6.298960   -2.915983
     12          8           0        0.122410    3.568185   -1.297392
     13          8           0       -3.154490    4.880626   -2.048229
     14          8           0       -2.656201    8.606585    1.805965
     15          8           0       -0.452721    8.355022    0.622681
     16         16           0       -1.584386    7.761386    1.310241
     17          1           0       -0.351231    0.694386   -1.432116
     18          1           0       -0.269587    0.035223    0.230876
     19          1           0        0.998364    1.154984   -0.358803
     20          1           0       -2.404814    7.120280   -4.645151
     21          1           0       -2.958515    5.464684   -4.306806
     22          1           0       -1.305078    5.734619   -4.900935
     23          1           0        0.482105    6.520509   -2.768688
     24          1           0       -0.463616    7.726197   -1.853171
     25          1           0       -0.354821    7.855183   -3.614303
     26          1           0       -0.616354    7.414564    3.428670
     27          1           0       -1.822069    6.156625    3.040315
     28          1           0       -0.180368    6.115642    2.288659
     29          1           0       -1.315396    4.377626    1.286855
     30          1           0       -2.633768    3.922951    0.215059
     31          1           0       -0.447432    5.970782   -0.528739
     32          1           0       -1.541372    1.850085    0.803390
     33          1           0       -3.231653    6.353835    0.569263
 ---------------------------------------------------------------------
                    Distance matrix (angstroms):
                    1          2          3          4          5
     1  C    0.000000
     2  C    3.061108   0.000000
     3  C    2.468044   5.309567   0.000000
     4  C    4.991231   2.465912   6.820814   0.000000
     5  C    4.533298   2.514755   6.694829   2.470434   0.000000
     6  C    4.631302   4.809196   6.655376   7.031466   5.472893
     7  C    1.513661   2.509938   3.787020   4.886653   4.313816
     8  C    2.501868   1.552834   4.966867   3.885137   2.960456
     9  N    1.376084   4.251511   1.442050   6.123724   5.892742
    10  N    3.820024   2.413139   6.235390   4.567029   3.614958
    11  N    4.009212   1.392975   6.143353   1.456581   1.456093
    12  O    1.229111   3.070136   2.817728   4.513937   3.914403
    13  O    3.353832   1.239513   5.298826   2.760975   3.636622
    14  O    6.087616   4.798403   8.419968   6.579150   5.307297
    15  O    5.174893   4.102211   7.530228   5.615932   3.606837
    16  S    4.875016   3.903509   7.228093   5.831841   4.296453
    17  H    2.808600   5.207250   1.093176   6.383628   6.597134
    18  H    3.347183   6.204189   1.092224   7.800831   7.728354
    19  H    2.724598   5.619043   1.093293   7.051812   6.618589
    20  H    5.954707   3.192133   7.883434   1.094004   2.732675
    21  H    4.998067   2.573676   6.666759   1.092596   3.417845
    22  H    5.141604   3.147854   6.718903   1.094161   2.705592
    23  H    4.162367   2.929211   6.120428   3.010100   1.093518
    24  H    4.666407   2.732668   6.986627   3.320531   1.089206
    25  H    5.581373   3.385335   7.664271   2.533084   1.093998
    26  H    5.639706   5.814079   7.571719   7.941190   6.215177
    27  H    4.631584   4.955501   6.518902   7.313398   6.069024
    28  H    3.945339   4.628622   5.864254   6.831778   5.176356
    29  H    2.116073   3.471649   4.057824   5.880011   5.003933
    30  H    2.138604   2.700552   4.010717   5.029331   4.932619
    31  H    2.692507   2.194953   5.082479   4.091526   2.540722
    32  H    2.072212   4.616261   2.125435   6.665531   6.497648
    33  H    4.099633   2.786923   6.376480   4.972216   4.449715
                    6          7          8          9         10
     6  C    0.000000
     7  C    3.488988   0.000000
     8  C    3.331700   1.527865   0.000000
     9  N    5.381320   2.414894   3.739336   0.000000
    10  N    2.727649   2.480802   1.495425   4.893351   0.000000
    11  N    5.614260   3.728342   2.538585   5.278514   3.282935
    12  O    5.189384   2.424361   2.773002   2.288384   4.249390
    13  O    5.497896   2.817763   2.427597   4.252398   3.049776
    14  O    2.633112   4.698141   3.894256   7.045921   2.490067
    15  O    2.642116   4.228472   3.083815   6.370131   2.524510
    16  S    1.780479   3.619585   2.748416   5.917988   1.669402
    17  H    7.329003   4.170316   5.188181   2.072774   6.525527
    18  H    7.171605   4.474417   5.798829   2.070368   6.954946
    19  H    6.655317   4.130341   5.149912   2.080732   6.473180
    20  H    7.439132   5.689719   4.524724   7.129441   4.927251
    21  H    7.341520   4.878218   4.121042   5.969283   4.772771
    22  H    7.624243   5.339112   4.445091   6.234536   5.344708
    23  H    5.619589   4.276208   3.156753   5.490930   4.124101
    24  H    4.637672   4.167157   2.694783   6.038392   2.994938
    25  H    6.392499   5.383280   4.006764   6.926121   4.496666
    26  H    1.092442   4.566038   4.355008   6.351433   3.664970
    27  H    1.091236   3.368405   3.550910   5.178213   2.869913
    28  H    1.090614   3.086861   3.079799   4.698263   2.994588
    29  H    2.752954   1.094093   2.175354   2.689002   2.712877
    30  H    4.074240   1.096836   2.186538   2.617570   2.780302
    31  H    3.316691   2.167537   1.091975   4.017848   2.145660
    32  H    5.262844   2.521191   4.015628   1.017547   4.924529
    33  H    3.081418   2.636470   2.136514   4.973233   1.025879
                   11         12         13         14         15
    11  N    0.000000
    12  O    3.602887   0.000000
    13  O    2.288774   3.608924   0.000000
    14  O    5.364381   6.537352   5.383852   0.000000
    15  O    4.245471   5.189534   5.148276   2.513716   0.000000
    16  S    4.472099   5.224542   4.695032   1.452201   1.451141
    17  H    5.926808   2.915683   5.075673   8.854430   7.932077
    18  H    7.131524   3.869249   6.082344   9.035766   8.331033
    19  H    6.297312   2.733456   5.829302   8.577203   7.410095
    20  H    2.083791   5.496520   3.510281   6.624892   5.751983
    21  H    2.127477   4.705888   2.341090   6.879601   6.239624
    22  H    2.082069   4.440347   3.505362   7.419989   6.172792
    23  H    2.080834   3.318178   4.053775   5.926898   3.967458
    24  H    2.101566   4.235727   3.921240   4.355661   2.554483
    25  H    2.101093   4.896343   4.374782   5.936351   4.267489
    26  H    6.513907   6.138082   6.546708   2.866192   2.963918
    27  H    5.962847   5.412644   5.412651   2.867350   3.543024
    28  H    5.393097   4.409191   5.401783   3.545072   2.804368
    29  H    4.628851   3.066075   3.841622   4.466690   4.123714
    30  H    4.068881   3.163840   2.512123   4.946505   4.956449
    31  H    2.663285   2.586121   3.290205   4.156556   2.647715
    32  H    5.798953   3.183289   4.462965   6.920859   6.597881
    33  H    3.856482   4.742782   3.004590   2.633526   3.424919
                   16         17         18         19         20
    16  S    0.000000
    17  H    7.680084   0.000000
    18  H    7.911215   1.790727   0.000000
    19  H    7.287034   1.784814   1.791449   0.000000
    20  H    6.045727   7.472142   8.861877   8.095626   0.000000
    21  H    6.222081   6.149594   7.569672   7.058125   1.778219
    22  H    6.539458   6.192453   7.738917   6.849077   1.787429
    23  H    4.737914   6.035278   7.184800   5.904483   3.495016
    24  H    3.356269   7.045302   7.970695   6.895749   3.454062
    25  H    5.076590   7.485918   8.714610   7.571132   2.409398
    26  H    2.354806   8.298091   8.049894   7.492303   8.274767
    27  H    2.371688   7.211245   6.911925   6.672725   7.767536
    28  H    2.374246   6.577490   6.419807   5.745136   7.350863
    29  H    3.394515   4.678534   4.589692   4.295009   6.625532
    30  H    4.127253   4.283315   4.550168   4.602536   5.822111
    31  H    2.807272   5.354036   5.986611   5.031015   4.700802
    32  H    5.933147   2.783804   2.288871   2.878215   7.629358
    33  H    2.289921   6.658206   6.986644   6.766269   5.334905
                   21         22         23         24         25
    21  H    0.000000
    22  H    1.777557   0.000000
    23  H    3.913877   2.891042   0.000000
    24  H    4.166449   3.736752   1.785005   0.000000
    25  H    3.601842   2.656163   1.787978   1.769198   0.000000
    26  H    8.314165   8.525190   6.357137   5.293230   7.061587
    27  H    7.466624   7.969242   6.259883   5.315557   7.022952
    28  H    7.186237   7.287003   5.116595   4.452962   6.156411
    29  H    5.930479   6.334847   4.926498   4.668856   6.085841
    30  H    4.788493   5.587571   5.035744   4.842708   5.943069
    31  H    4.564588   4.461774   2.486687   2.199060   3.616663
    32  H    6.417766   6.905416   6.218285   6.538163   7.548849
    33  H    4.963995   5.832511   4.996168   3.926015   5.294566
                   26         27         28         29         30
    26  H    0.000000
    27  H    1.785211   0.000000
    28  H    1.782388   1.806059   0.000000
    29  H    3.781404   2.548759   2.304908   0.000000
    30  H    5.156415   3.691914   3.889330   1.758858   0.000000
    31  H    4.215937   3.829139   2.833732   2.566688   3.086570
    32  H    6.221830   4.860957   4.717344   2.583267   2.415830
    33  H    4.017604   2.851652   3.510470   2.844711   2.528266
                   31         32         33
    31  H    0.000000
    32  H    4.466701   0.000000
    33  H    3.017320   4.816184   0.000000
 Stoichiometry    C8H17N3O4S
 Framework group  C1[X(C8H17N3O4S)]
 Deg. of freedom    93
 Full point group                 C1      NOp   1
 Largest Abelian subgroup         C1      NOp   1
 Largest concise Abelian subgroup C1      NOp   1
                         Standard orientation:                         
 ---------------------------------------------------------------------
 Center     Atomic      Atomic             Coordinates (Angstroms)
 Number     Number       Type             X           Y           Z
 ---------------------------------------------------------------------
      1          6           0        2.212445   -1.016098    0.192051
      2          6           0        0.512988    1.388445   -0.644846
      3          6           0        4.459882   -2.026628    0.330245
      4          6           0        0.949620    3.788896   -0.287201
      5          6           0       -0.308887    2.540854    1.433728
      6          6           0       -2.180091   -2.478867    0.314105
      7          6           0        0.899552   -1.090011   -0.557628
      8          6           0       -0.036643    0.034809   -0.118664
      9          7           0        3.143227   -1.928329   -0.249637
     10          7           0       -1.370569   -0.114125   -0.778022
     11          7           0        0.346052    2.531704    0.133275
     12          8           0        2.430668   -0.237157    1.117440
     13          8           0        1.054295    1.454604   -1.757951
     14          8           0       -3.775938   -0.751420   -0.870158
     15          8           0       -2.752765   -0.109973    1.334481
     16         16           0       -2.654994   -0.782942    0.052544
     17          1           0        5.017751   -1.115364    0.099126
     18          1           0        4.967708   -2.894760   -0.095682
     19          1           0        4.374609   -2.135707    1.414736
     20          1           0        0.165675    4.548655   -0.358210
     21          1           0        1.449612    3.706639   -1.255192
     22          1           0        1.685298    4.091165    0.464197
     23          1           0        0.392338    2.156113    2.179408
     24          1           0       -1.203004    1.919116    1.414581
     25          1           0       -0.605507    3.559870    1.699163
     26          1           0       -3.037424   -3.000780    0.745402
     27          1           0       -1.922146   -2.927469   -0.646632
     28          1           0       -1.344038   -2.513509    1.013572
     29          1           0        0.459890   -2.070338   -0.350995
     30          1           0        1.101686   -1.054065   -1.635078
     31          1           0       -0.135258    0.049084    0.968755
     32          1           0        2.908175   -2.539086   -1.028822
     33          1           0       -1.329698   -0.374058   -1.769582
 ---------------------------------------------------------------------
 Rotational constants (GHZ):      0.5422831      0.3333858      0.2422148
 Standard basis: 6-31G(d) (6D, 7F)
 There are   278 symmetry adapted basis functions of A   symmetry.
 Integral buffers will be    131072 words long.
 Raffenetti 2 integral format.
 Two-electron integral symmetry is turned on.
   278 basis functions,   540 primitive gaussians,   278 cartesian basis functions
    67 alpha electrons       67 beta electrons
       nuclear repulsion energy      1381.8145966890 Hartrees.
 NAtoms=   33 NActive=   33 NUniq=   33 SFac= 1.00D+00 NAtFMM=   60 NAOKFM=F Big=F
 One-electron integrals computed using PRISM.
 NBasis=   278 RedAO= T  NBF=   278
 NBsUse=   278 1.00D-06 NBFU=   278
 Harris functional with IExCor=  402 diagonalized for initial guess.
 ExpMin= 1.17D-01 ExpMax= 2.19D+04 ExpMxC= 3.30D+03 IAcc=3 IRadAn=         5 AccDes= 0.00D+00
 HarFok:  IExCor=  402 AccDes= 0.00D+00 IRadAn=         5 IDoV= 1
 ScaDFX=  1.000000  1.000000  1.000000  1.000000
 FoFCou: FMM=F IPFlag=           0 FMFlag=      100000 FMFlg1=           0
         NFxFlg=           0 DoJE=T BraDBF=F KetDBF=T FulRan=T
         Omega=  0.000000  0.000000  1.000000  0.000000  0.000000 ICntrl=     500 IOpCl=  0
         NMat0=    1 NMatS0=    1 NMatT0=    0 NMatD0=    1 NMtDS0=    0 NMtDT0=    0
         I1Cent=           4 NGrid=           0.
 Petite list used in FoFCou.
 Initial guess orbital symmetries:
       Occupied  (A) (A) (A) (A) (A) (A) (A) (A) (A) (A) (A) (A)
                 (A) (A) (A) (A) (A) (A) (A) (A) (A) (A) (A) (A)
                 (A) (A) (A) (A) (A) (A) (A) (A) (A) (A) (A) (A)
                 (A) (A) (A) (A) (A) (A) (A) (A) (A) (A) (A) (A)
                 (A) (A) (A) (A) (A) (A) (A) (A) (A) (A) (A) (A)
                 (A) (A) (A) (A) (A) (A) (A)
       Virtual   (A) (A) (A) (A) (A) (A) (A) (A) (A) (A) (A) (A)
                 (A) (A) (A) (A) (A) (A) (A) (A) (A) (A) (A) (A)
                 (A) (A) (A) (A) (A) (A) (A) (A) (A) (A) (A) (A)
                 (A) (A) (A) (A) (A) (A) (A) (A) (A) (A) (A) (A)
                 (A) (A) (A) (A) (A) (A) (A) (A) (A) (A) (A) (A)
                 (A) (A) (A) (A) (A) (A) (A) (A) (A) (A) (A) (A)
                 (A) (A) (A) (A) (A) (A) (A) (A) (A) (A) (A) (A)
                 (A) (A) (A) (A) (A) (A) (A) (A) (A) (A) (A) (A)
                 (A) (A) (A) (A) (A) (A) (A) (A) (A) (A) (A) (A)
                 (A) (A) (A) (A) (A) (A) (A) (A) (A) (A) (A) (A)
                 (A) (A) (A) (A) (A) (A) (A) (A) (A) (A) (A) (A)
                 (A) (A) (A) (A) (A) (A) (A) (A) (A) (A) (A) (A)
                 (A) (A) (A) (A) (A) (A) (A) (A) (A) (A) (A) (A)
                 (A) (A) (A) (A) (A) (A) (A) (A) (A) (A) (A) (A)
                 (A) (A) (A) (A) (A) (A) (A) (A) (A) (A) (A) (A)
                 (A) (A) (A) (A) (A) (A) (A) (A) (A) (A) (A) (A)
                 (A) (A) (A) (A) (A) (A) (A) (A) (A) (A) (A) (A)
                 (A) (A) (A) (A) (A) (A) (A)
 The electronic state of the initial guess is 1-A.
 Requested convergence on RMS density matrix=1.00D-08 within 128 cycles.
 Requested convergence on MAX density matrix=1.00D-06.
 Requested convergence on             energy=1.00D-06.
 No special actions if energy rises.
 Integral accuracy reduced to 1.0D-05 until final iterations.
 Initial convergence to 1.0D-05 achieved.  Increase integral accuracy.
 SCF Done:  E(RB3LYP) =  -1178.37433135     A.U. after   15 cycles
             Convg  =    0.5941D-08             -V/T =  2.0074
 Calling FoFJK, ICntrl=      2127 FMM=F ISym2X=0 I1Cent= 0 IOpClX= 0 NMat=1 NMatS=1 NMatT=0.
 ***** Axes restored to original set *****
 -------------------------------------------------------------------
 Center     Atomic                   Forces (Hartrees/Bohr)
 Number     Number              X              Y              Z
 -------------------------------------------------------------------
      1        6           0.001453130   -0.018945317    0.001346385
      2        6          -0.004280400    0.004982394   -0.031412470
      3        6           0.000426284    0.000348822   -0.002945021
      4        6          -0.000520425    0.000057927    0.001110090
      5        6           0.000908339   -0.006279093    0.004772281
      6        6           0.007162743    0.000558230    0.010320068
      7        6           0.003807168   -0.001211618   -0.000399668
      8        6          -0.020637540    0.002820674   -0.002011633
      9        7          -0.005458585    0.013904158    0.006069568
     10        7           0.008120481   -0.005495539   -0.006347141
     11        7          -0.014686418   -0.011501089    0.021376115
     12        8          -0.003122671   -0.000627247    0.004005959
     13        8           0.013015534    0.004303673    0.010930747
     14        8          -0.009673194    0.003966965    0.008536207
     15        8           0.015874993    0.000111385   -0.005769120
     16       16          -0.016452616   -0.000694304   -0.007671955
     17        1           0.003715988   -0.004644663   -0.002128443
     18        1           0.001205258   -0.000665386   -0.001129008
     19        1           0.001294296   -0.002708596   -0.001604522
     20        1          -0.000353447    0.000827347   -0.003676503
     21        1           0.002630934    0.001047679    0.006190338
     22        1           0.000551746    0.000294358   -0.004209905
     23        1           0.006735990    0.003417673   -0.001044304
     24        1           0.001698867    0.002531842    0.001010879
     25        1          -0.001294368   -0.001652084    0.000178629
     26        1           0.000710692   -0.000012791    0.000843576
     27        1           0.000274180   -0.000150173    0.000380705
     28        1           0.000026248   -0.001285858    0.000627118
     29        1           0.000349256    0.002716374    0.001584430
     30        1          -0.000408050    0.004402844   -0.003420677
     31        1          -0.003864614    0.002337228    0.003452980
     32        1           0.003975291    0.002558988   -0.005928868
     33        1           0.006814909    0.004685198   -0.003036835
 -------------------------------------------------------------------
 Cartesian Forces:  Max     0.031412470 RMS     0.006984376

 GradGradGradGradGradGradGradGradGradGradGradGradGradGradGradGradGradGrad
 Berny optimization.
 Internal  Forces:  Max     0.026954221 RMS     0.005238487
 Search for a local minimum.
 Step number   1 out of a maximum of  167
 All quantities printed in internal units (Hartrees-Bohrs-Radians)
 Mixed Optimization -- RFO/linear search
 Second derivative matrix not updated -- first step.
 ITU=  0
     Eigenvalues ---    0.00230   0.00397   0.00429   0.00585   0.00629
     Eigenvalues ---    0.00858   0.00943   0.00950   0.01136   0.01147
     Eigenvalues ---    0.01188   0.01489   0.01701   0.01705   0.01785
     Eigenvalues ---    0.02008   0.04265   0.04760   0.05238   0.05304
     Eigenvalues ---    0.06000   0.06249   0.06349   0.07347   0.07518
     Eigenvalues ---    0.07656   0.07744   0.07783   0.07850   0.08412
     Eigenvalues ---    0.08854   0.09230   0.12647   0.12975   0.13700
     Eigenvalues ---    0.15995   0.16000   0.16000   0.16000   0.16000
     Eigenvalues ---    0.16000   0.16000   0.16000   0.16000   0.16000
     Eigenvalues ---    0.16000   0.16000   0.16000   0.16784   0.17022
     Eigenvalues ---    0.18334   0.21892   0.22001   0.22549   0.24876
     Eigenvalues ---    0.24929   0.24985   0.24996   0.25000   0.25000
     Eigenvalues ---    0.25000   0.27412   0.27717   0.29622   0.30985
     Eigenvalues ---    0.32862   0.34034   0.34336   0.34344   0.34354
     Eigenvalues ---    0.34355   0.34409   0.34435   0.34448   0.34514
     Eigenvalues ---    0.34532   0.34557   0.34585   0.34670   0.34742
     Eigenvalues ---    0.34905   0.37396   0.37458   0.39306   0.39840
     Eigenvalues ---    0.43413   0.44732   0.46805   0.49825   0.87235
     Eigenvalues ---    0.91458   0.94963   0.95432
 RFO step:  Lambda=-1.58494791D-02 EMin= 2.30000000D-03
 Linear search not attempted -- first point.
 Iteration  1 RMS(Cart)=  0.14438367 RMS(Int)=  0.00356336
 Iteration  2 RMS(Cart)=  0.00788229 RMS(Int)=  0.00036207
 Iteration  3 RMS(Cart)=  0.00003277 RMS(Int)=  0.00036189
 Iteration  4 RMS(Cart)=  0.00000003 RMS(Int)=  0.00036189
 Variable       Old X    -DE/DX   Delta X   Delta X   Delta X     New X
                                 (Linear)    (Quad)   (Total)
    R1        2.86040   0.01033   0.00000   0.03171   0.03171   2.89211
    R2        2.60042  -0.01149   0.00000  -0.02236  -0.02236   2.57806
    R3        2.32268  -0.00507   0.00000  -0.00545  -0.00545   2.31723
    R4        2.93443  -0.00646   0.00000  -0.02226  -0.02226   2.91217
    R5        2.63234  -0.02695   0.00000  -0.05570  -0.05570   2.57664
    R6        2.34234  -0.01463   0.00000  -0.01648  -0.01648   2.32586
    R7        2.72508   0.01212   0.00000   0.02964   0.02964   2.75472
    R8        2.06580   0.00193   0.00000   0.00537   0.00537   2.07117
    R9        2.06400  -0.00035   0.00000  -0.00096  -0.00096   2.06305
   R10        2.06603   0.00058   0.00000   0.00161   0.00161   2.06764
   R11        2.75254  -0.00052   0.00000  -0.00134  -0.00134   2.75120
   R12        2.06737   0.00211   0.00000   0.00587   0.00587   2.07324
   R13        2.06471  -0.00294   0.00000  -0.00813  -0.00813   2.05657
   R14        2.06766   0.00273   0.00000   0.00760   0.00760   2.07526
   R15        2.75162   0.00578   0.00000   0.01481   0.01481   2.76643
   R16        2.06645   0.00351   0.00000   0.00976   0.00976   2.07621
   R17        2.05830   0.00211   0.00000   0.00578   0.00578   2.06408
   R18        2.06736  -0.00126   0.00000  -0.00351  -0.00351   2.06384
   R19        3.36462   0.01238   0.00000   0.04224   0.04224   3.40686
   R20        2.06442   0.00084   0.00000   0.00232   0.00232   2.06674
   R21        2.06214   0.00001   0.00000   0.00003   0.00003   2.06216
   R22        2.06096   0.00056   0.00000   0.00154   0.00154   2.06250
   R23        2.88725   0.00172   0.00000   0.00550   0.00550   2.89274
   R24        2.06754   0.00180   0.00000   0.00500   0.00500   2.07253
   R25        2.07272  -0.00109   0.00000  -0.00307  -0.00307   2.06965
   R26        2.82594  -0.00690   0.00000  -0.02004  -0.02004   2.80590
   R27        2.06353  -0.00325   0.00000  -0.00899  -0.00899   2.05454
   R28        1.92289  -0.00735   0.00000  -0.01587  -0.01587   1.90702
   R29        3.15471   0.00527   0.00000   0.01272   0.01272   3.16743
   R30        1.93863  -0.00854   0.00000  -0.01897  -0.01897   1.91965
   R31        2.74426   0.01236   0.00000   0.01280   0.01280   2.75707
   R32        2.74226   0.01516   0.00000   0.01562   0.01562   2.75788
    A1        1.97724   0.01097   0.00000   0.04123   0.04123   2.01847
    A2        2.16257  -0.00600   0.00000  -0.02259  -0.02259   2.13998
    A3        2.14324  -0.00497   0.00000  -0.01870  -0.01870   2.12454
    A4        2.07573  -0.00567   0.00000  -0.02120  -0.02122   2.05451
    A5        2.10064  -0.00834   0.00000  -0.03131  -0.03133   2.06931
    A6        2.10617   0.01401   0.00000   0.05286   0.05285   2.15902
    A7        1.90086   0.00808   0.00000   0.04768   0.04728   1.94814
    A8        1.89851   0.00043   0.00000   0.00134   0.00122   1.89973
    A9        1.91184   0.00312   0.00000   0.01708   0.01679   1.92863
   A10        1.92074  -0.00380   0.00000  -0.02020  -0.02042   1.90032
   A11        1.90995  -0.00499   0.00000  -0.02621  -0.02675   1.88320
   A12        1.92174  -0.00264   0.00000  -0.01854  -0.01856   1.90319
   A13        1.89781   0.00531   0.00000   0.03144   0.03120   1.92901
   A14        1.96102  -0.01084   0.00000  -0.06478  -0.06443   1.89659
   A15        1.89527   0.00544   0.00000   0.03266   0.03245   1.92772
   A16        1.89938   0.00176   0.00000   0.00651   0.00683   1.90621
   A17        1.91190  -0.00354   0.00000  -0.01352  -0.01429   1.89762
   A18        1.89814   0.00187   0.00000   0.00799   0.00836   1.90650
   A19        1.89481   0.01003   0.00000   0.06143   0.06098   1.95580
   A20        1.92831   0.00273   0.00000   0.01714   0.01641   1.94472
   A21        1.92250  -0.00538   0.00000  -0.03663  -0.03636   1.88615
   A22        1.91511  -0.00360   0.00000  -0.00848  -0.00976   1.90535
   A23        1.91361  -0.00327   0.00000  -0.02204  -0.02150   1.89211
   A24        1.88956  -0.00066   0.00000  -0.01228  -0.01230   1.87726
   A25        1.87941   0.00074   0.00000   0.00481   0.00479   1.88420
   A26        1.90211   0.00024   0.00000   0.00069   0.00069   1.90280
   A27        1.90598   0.00138   0.00000   0.00793   0.00792   1.91390
   A28        1.91420  -0.00052   0.00000  -0.00318  -0.00318   1.91102
   A29        1.91052  -0.00075   0.00000  -0.00284  -0.00287   1.90765
   A30        1.95022  -0.00102   0.00000  -0.00691  -0.00691   1.94332
   A31        1.93182   0.00115   0.00000   0.00313   0.00308   1.93490
   A32        1.87419   0.00100   0.00000   0.02026   0.02016   1.89435
   A33        1.90189   0.00205   0.00000   0.01231   0.01200   1.91389
   A34        1.93816  -0.00082   0.00000  -0.00382  -0.00396   1.93420
   A35        1.95091  -0.00504   0.00000  -0.04601  -0.04607   1.90483
   A36        1.86392   0.00196   0.00000   0.01738   0.01690   1.88083
   A37        1.90448  -0.00641   0.00000  -0.02093  -0.02187   1.88261
   A38        1.82672   0.00023   0.00000   0.01282   0.01261   1.83933
   A39        1.93693   0.00311   0.00000   0.00569   0.00550   1.94243
   A40        1.92471   0.01054   0.00000   0.06782   0.06802   1.99274
   A41        1.92951  -0.00078   0.00000  -0.00848  -0.00787   1.92163
   A42        1.93887  -0.00656   0.00000  -0.05474  -0.05452   1.88435
   A43        2.13376  -0.00204   0.00000  -0.00870  -0.00873   2.12503
   A44        2.07995  -0.00050   0.00000  -0.00443  -0.00446   2.07549
   A45        2.06908   0.00253   0.00000   0.01279   0.01276   2.08184
   A46        2.10231   0.00878   0.00000   0.04359   0.04261   2.14492
   A47        1.99969  -0.00210   0.00000   0.00599   0.00500   2.00469
   A48        1.99327  -0.00416   0.00000  -0.00499  -0.00618   1.98709
   A49        2.09148  -0.00404   0.00000  -0.01543  -0.01543   2.07605
   A50        2.16272  -0.00028   0.00000  -0.00122  -0.00122   2.16149
   A51        2.02503   0.00430   0.00000   0.01607   0.01606   2.04109
   A52        1.82294   0.01748   0.00000   0.06477   0.06528   1.88822
   A53        1.89642  -0.00706   0.00000  -0.03083  -0.03172   1.86470
   A54        1.90702  -0.00854   0.00000  -0.04558  -0.04567   1.86135
   A55        1.84323  -0.00195   0.00000   0.00849   0.00905   1.85228
   A56        1.88132  -0.00513   0.00000  -0.01881  -0.01775   1.86357
   A57        2.09350   0.00760   0.00000   0.03168   0.03064   2.12414
    D1       -3.04213   0.00186   0.00000   0.03617   0.03628  -3.00586
    D2        1.12284   0.00154   0.00000   0.02617   0.02625   1.14909
    D3       -0.88999  -0.00232   0.00000  -0.01121  -0.01139  -0.90138
    D4        0.11720   0.00196   0.00000   0.03991   0.04001   0.15720
    D5       -2.00101   0.00164   0.00000   0.02990   0.02998  -1.97103
    D6        2.26934  -0.00223   0.00000  -0.00747  -0.00766   2.26168
    D7       -3.14050   0.00014   0.00000   0.00308   0.00312  -3.13738
    D8        0.03141   0.00054   0.00000   0.01661   0.01657   0.04798
    D9       -0.01643   0.00003   0.00000  -0.00066  -0.00063  -0.01705
   D10       -3.12770   0.00043   0.00000   0.01287   0.01282  -3.11487
   D11       -2.53564   0.00440   0.00000   0.03718   0.03692  -2.49873
   D12        1.68761  -0.00490   0.00000  -0.03841  -0.03843   1.64918
   D13       -0.40524   0.00115   0.00000   0.01624   0.01620  -0.38904
   D14        0.64432   0.00394   0.00000   0.02559   0.02553   0.66985
   D15       -1.41561  -0.00536   0.00000  -0.05000  -0.04981  -1.46543
   D16        2.77472   0.00069   0.00000   0.00465   0.00482   2.77953
   D17        3.05271   0.00123   0.00000   0.02713   0.02702   3.07972
   D18        0.01053   0.00118   0.00000   0.03348   0.03329   0.04382
   D19       -0.12738   0.00119   0.00000   0.03684   0.03703  -0.09035
   D20        3.11363   0.00114   0.00000   0.04319   0.04330  -3.12626
   D21       -1.16945   0.00011   0.00000   0.00480   0.00470  -1.16475
   D22        1.94201  -0.00033   0.00000  -0.00894  -0.00909   1.93292
   D23        3.02020  -0.00031   0.00000   0.00034   0.00028   3.02048
   D24       -0.15153  -0.00075   0.00000  -0.01340  -0.01351  -0.16504
   D25        0.91890   0.00077   0.00000   0.01186   0.01209   0.93099
   D26       -2.25283   0.00033   0.00000  -0.00188  -0.00170  -2.25452
   D27        2.16482  -0.00097   0.00000  -0.00925  -0.00968   2.15514
   D28       -1.06856  -0.00113   0.00000  -0.01590  -0.01634  -1.08490
   D29        0.06120   0.00012   0.00000   0.00251   0.00249   0.06369
   D30        3.11100  -0.00004   0.00000  -0.00415  -0.00417   3.10683
   D31       -2.03916   0.00096   0.00000   0.01135   0.01181  -2.02735
   D32        1.01064   0.00079   0.00000   0.00469   0.00515   1.01579
   D33        1.36295   0.00162   0.00000   0.02398   0.02467   1.38761
   D34       -1.68268   0.00200   0.00000   0.03171   0.03245  -1.65024
   D35       -0.73790  -0.00193   0.00000  -0.01472  -0.01523  -0.75313
   D36        2.49966  -0.00155   0.00000  -0.00699  -0.00745   2.49221
   D37       -2.82474   0.00059   0.00000   0.01302   0.01277  -2.81197
   D38        0.41282   0.00097   0.00000   0.02075   0.02055   0.43337
   D39       -3.02034  -0.00144   0.00000  -0.02159  -0.02164  -3.04198
   D40       -1.05947   0.00163   0.00000   0.00569   0.00518  -1.05429
   D41        1.25388  -0.00057   0.00000  -0.01234  -0.01175   1.24213
   D42       -0.94504  -0.00150   0.00000  -0.02226  -0.02232  -0.96736
   D43        1.01583   0.00158   0.00000   0.00502   0.00449   1.02033
   D44       -2.95401  -0.00062   0.00000  -0.01302  -0.01243  -2.96644
   D45        1.18979  -0.00173   0.00000  -0.02535  -0.02542   1.16437
   D46       -3.13253   0.00134   0.00000   0.00193   0.00140  -3.13113
   D47       -0.81918  -0.00086   0.00000  -0.01610  -0.01553  -0.83471
   D48        1.22761  -0.00139   0.00000  -0.01932  -0.01914   1.20847
   D49       -3.05827   0.00106   0.00000   0.02147   0.02140  -3.03687
   D50       -0.90727  -0.00052   0.00000  -0.00706  -0.00690  -0.91416
   D51       -2.97558   0.00008   0.00000   0.00560   0.00562  -2.96996
   D52       -0.97827   0.00253   0.00000   0.04639   0.04616  -0.93211
   D53        1.17274   0.00095   0.00000   0.01786   0.01786   1.19059
   D54       -0.89595  -0.00134   0.00000  -0.00550  -0.00543  -0.90138
   D55        1.10136   0.00111   0.00000   0.03529   0.03511   1.13647
   D56       -3.03082  -0.00047   0.00000   0.00676   0.00681  -3.02401
   D57       -2.48754   0.00053   0.00000   0.06231   0.06292  -2.42462
   D58        1.31099  -0.00154   0.00000  -0.00336  -0.00315   1.30783
   D59        1.74956   0.00281   0.00000   0.04692   0.04630   1.79586
   D60       -0.73510   0.00073   0.00000  -0.01875  -0.01977  -0.75487
   D61       -0.39598   0.00095   0.00000   0.04810   0.04872  -0.34727
   D62       -2.88064  -0.00112   0.00000  -0.01757  -0.01736  -2.89800
   D63       -1.15881  -0.00093   0.00000  -0.03570  -0.03537  -1.19417
   D64        3.12567   0.00033   0.00000  -0.03227  -0.03255   3.09312
   D65        0.86812  -0.00450   0.00000  -0.06470  -0.06468   0.80344
   D66        1.32809   0.00183   0.00000   0.03349   0.03378   1.36187
   D67       -0.67062   0.00310   0.00000   0.03692   0.03659  -0.63403
   D68       -2.92817  -0.00173   0.00000   0.00449   0.00447  -2.92370
         Item               Value     Threshold  Converged?
 Maximum Force            0.026954     0.000450     NO 
 RMS     Force            0.005238     0.000300     NO 
 Maximum Displacement     0.678695     0.001800     NO 
 RMS     Displacement     0.148321     0.001200     NO 
 Predicted change in Energy=-8.737381D-03
 GradGradGradGradGradGradGradGradGradGradGradGradGradGradGradGradGradGrad

                          Input orientation:                          
 ---------------------------------------------------------------------
 Center     Atomic      Atomic             Coordinates (Angstroms)
 Number     Number       Type             X           Y           Z
 ---------------------------------------------------------------------
      1          6           0       -0.720571    3.240857   -0.443436
      2          6           0       -2.164898    5.519047   -1.832129
      3          6           0       -0.029437    0.879226   -0.600011
      4          6           0       -2.088164    6.094133   -4.190887
      5          6           0       -0.369547    7.041206   -2.659989
      6          6           0       -0.990030    7.008107    2.731997
      7          6           0       -1.654582    4.244424    0.236799
      8          6           0       -1.548883    5.621522   -0.423275
      9          7           0       -0.855173    1.943638   -0.043074
     10          7           0       -2.318754    6.687293    0.266738
     11          7           0       -1.576715    6.231705   -2.834770
     12          8           0        0.113525    3.574932   -1.277888
     13          8           0       -3.170965    4.826851   -1.985574
     14          8           0       -2.670432    8.731481    1.678908
     15          8           0       -0.427535    8.331033    0.536309
     16         16           0       -1.599756    7.837162    1.251756
     17          1           0       -0.248702    0.711011   -1.660613
     18          1           0       -0.223475   -0.042802   -0.048595
     19          1           0        1.031599    1.131386   -0.511852
     20          1           0       -2.378584    7.072483   -4.593546
     21          1           0       -2.959440    5.442346   -4.170116
     22          1           0       -1.323983    5.655785   -4.846539
     23          1           0        0.542327    6.428364   -2.663662
     24          1           0       -0.408353    7.620887   -1.735056
     25          1           0       -0.312995    7.748666   -3.490091
     26          1           0       -0.614366    7.773714    3.416716
     27          1           0       -1.814297    6.470556    3.203644
     28          1           0       -0.175876    6.331978    2.465137
     29          1           0       -1.391373    4.300489    1.300007
     30          1           0       -2.688878    3.891117    0.166808
     31          1           0       -0.508890    5.935156   -0.468963
     32          1           0       -1.571354    1.712249    0.629182
     33          1           0       -3.250921    6.415584    0.565345
 ---------------------------------------------------------------------
                    Distance matrix (angstroms):
                    1          2          3          4          5
     1  C    0.000000
     2  C    3.033925   0.000000
     3  C    2.465661   5.254165   0.000000
     4  C    4.904578   2.429064   6.657928   0.000000
     5  C    4.413500   2.495116   6.506088   2.488823   0.000000
     6  C    4.934386   4.942556   7.041890   7.068775   5.427671
     7  C    1.530439   2.483053   3.829610   4.818072   4.226664
     8  C    2.520729   1.541053   4.982904   3.835243   2.899867
     9  N    1.364253   4.207096   1.457735   5.995935   5.750590
    10  N    3.864771   2.407013   6.302846   4.502825   3.534175
    11  N    3.923854   1.363499   6.003104   1.455871   1.463931
    12  O    1.226227   3.045978   2.783305   4.436144   3.762794
    13  O    3.301212   1.230794   5.231895   2.764393   3.634027
    14  O    6.201069   4.785674   8.592220   6.461358   5.193952
    15  O    5.191885   4.066349   7.548453   5.487058   3.447223
    16  S    4.977214   3.899152   7.369384   5.735770   4.177165
    17  H    2.846805   5.178652   1.096015   6.226067   6.409737
    18  H    3.344461   6.155021   1.091717   7.635288   7.551416
    19  H    2.743109   5.586797   1.094146   6.920771   6.442335
    20  H    5.886746   3.175571   7.734549   1.097109   2.788521
    21  H    4.873113   2.470499   6.492506   1.088292   3.397703
    22  H    5.057994   3.132491   6.521072   1.098180   2.758865
    23  H    4.084668   2.974453   5.947983   3.060002   1.098683
    24  H    4.577164   2.740913   6.847036   3.344227   1.092263
    25  H    5.456057   3.339098   7.458027   2.525830   1.092138
    26  H    5.954733   5.919294   8.000638   7.928979   6.125590
    27  H    4.992834   5.136857   6.994033   7.409169   6.065900
    28  H    4.279196   4.804535   6.256923   6.929363   5.177590
    29  H    2.147648   3.448696   4.143668   5.818299   4.923132
    30  H    2.160896   2.630677   4.090493   4.919719   4.826296
    31  H    2.702723   2.184887   5.080304   4.046245   2.458324
    32  H    2.052069   4.571877   2.140643   6.534605   6.376580
    33  H    4.183205   2.780487   6.510552   4.906840   4.369954
                    6          7          8          9         10
     6  C    0.000000
     7  C    3.782273   0.000000
     8  C    3.491515   1.530774   0.000000
     9  N    5.776509   2.451735   3.761997   0.000000
    10  N    2.818854   2.531724   1.484818   4.973964   0.000000
    11  N    5.651185   3.659219   2.487650   5.167370   3.221418
    12  O    5.392931   2.422540   2.771732   2.263684   4.241302
    13  O    5.636474   2.752741   2.388186   4.177214   3.043093
    14  O    2.627311   4.821339   3.917766   7.234307   2.509304
    15  O    2.624420   4.277350   3.085397   6.427860   2.520171
    16  S    1.802834   3.733752   2.778016   6.079853   1.676132
    17  H    7.713496   4.249904   5.228250   2.122171   6.611788
    18  H    7.618046   4.528778   5.829379   2.084470   7.055764
    19  H    7.010378   4.179361   5.179581   2.106992   6.534460
    20  H    7.456260   5.643964   4.492755   7.023720   4.875891
    21  H    7.346384   4.749587   4.007567   5.805289   4.652531
    22  H    7.705486   5.285978   4.429110   6.088769   5.310290
    23  H    5.638915   4.243663   3.169146   5.378965   4.103666
    24  H    4.546252   4.103876   2.649347   5.940843   2.920344
    25  H    6.302474   5.288598   3.931605   6.773052   4.389002
    26  H    1.093671   4.863107   4.500087   6.783651   3.742675
    27  H    1.091250   3.712592   3.734413   5.652795   2.987787
    28  H    1.091427   3.392631   3.276099   5.100009   3.090491
    29  H    3.089153   1.096738   2.177071   2.765163   2.761252
    30  H    4.379716   1.095214   2.154550   2.683133   2.822335
    31  H    3.410113   2.160853   1.087217   4.029084   2.093460
    32  H    5.727643   2.563748   4.048529   1.009150   5.043911
    33  H    3.187019   2.714807   2.122460   5.109608   1.015837
                   11         12         13         14         15
    11  N    0.000000
    12  O    3.512725   0.000000
    13  O    2.288315   3.585526   0.000000
    14  O    5.274313   6.563769   5.378206   0.000000
    15  O    4.134243   5.119039   5.115232   2.548819   0.000000
    16  S    4.390639   5.244143   4.691586   1.458977   1.459409
    17  H    5.798304   2.911998   5.058197   9.019153   7.932414
    18  H    6.997391   3.835718   6.012745   9.271456   8.396718
    19  H    6.181627   2.720402   5.787043   8.733035   7.420420
    20  H    2.107889   5.425593   3.531608   6.494700   5.630804
    21  H    2.078020   4.614687   2.279430   6.716623   6.074990
    22  H    2.107789   4.373975   3.504796   7.338548   6.077469
    23  H    2.135016   3.200987   4.100389   5.872315   3.847155
    24  H    2.122326   4.105011   3.937185   4.243297   2.379869
    25  H    2.080289   4.742975   4.355292   5.765586   4.069910
    26  H    6.510375   6.340261   6.663703   2.857394   2.939771
    27  H    6.047804   5.673206   5.609839   2.858245   3.535415
    28  H    5.482829   4.657821   5.571786   3.549448   2.789253
    29  H    4.567311   3.071921   3.773466   4.627444   4.213966
    30  H    3.965441   3.168688   2.395986   5.071085   4.996304
    31  H    2.612514   2.571463   3.258082   4.135825   2.599503
    32  H    5.694249   3.153621   4.369948   7.181888   6.717534
    33  H    3.794411   4.773501   3.006270   2.634457   3.411934
                   16         17         18         19         20
    16  S    0.000000
    17  H    7.815962   0.000000
    18  H    8.104251   1.779740   0.000000
    19  H    7.416318   1.770745   1.780038   0.000000
    20  H    5.946332   7.321668   8.713688   7.974096   0.000000
    21  H    6.081166   6.002603   7.386426   6.920670   1.781582
    22  H    6.482566   5.979729   7.530291   6.693913   1.784158
    23  H    4.680142   5.858325   7.021469   5.738262   3.559644
    24  H    3.222927   6.912122   7.849233   6.758943   3.514758
    25  H    4.914132   7.271844   8.518150   7.380124   2.437518
    26  H    2.379511   8.706019   8.559153   7.890714   8.232162
    27  H    2.392384   7.699639   7.451953   7.100054   7.840721
    28  H    2.401105   6.972976   6.852659   6.112824   7.431371
    29  H    3.543134   4.791172   4.695412   4.381421   6.587299
    30  H    4.234922   4.405338   4.647616   4.681736   5.733964
    31  H    2.787201   5.364646   5.999513   5.044914   4.669202
    32  H    6.156538   2.827551   2.314382   2.900815   7.527325
    33  H    2.284379   6.819851   7.159128   6.886442   5.273201
                   21         22         23         24         25
    21  H    0.000000
    22  H    1.782645   0.000000
    23  H    3.937513   2.974045   0.000000
    24  H    4.145311   3.792273   1.785557   0.000000
    25  H    3.575642   2.691133   1.777008   1.762262   0.000000
    26  H    8.276151   8.559823   6.333949   5.158154   6.913424
    27  H    7.532656   8.106152   6.323032   5.262194   6.978076
    28  H    7.250259   7.432092   5.179738   4.399654   6.122952
    29  H    5.803871   6.294554   4.896705   4.604669   5.999822
    30  H    4.613938   5.487316   4.988974   4.767500   5.822233
    31  H    4.466161   4.461569   2.482945   2.110636   3.529079
    32  H    6.234875   6.752495   6.127986   6.469482   7.415538
    33  H    4.843217   5.794728   4.981504   3.850297   5.182188
                   26         27         28         29         30
    26  H    0.000000
    27  H    1.784223   0.000000
    28  H    1.782240   1.802504   0.000000
    29  H    4.140952   2.917514   2.638543   0.000000
    30  H    5.471751   4.079310   4.189904   1.770662   0.000000
    31  H    4.299991   3.934308   2.979482   2.565184   3.055266
    32  H    6.739995   5.415567   5.163331   2.679812   2.492011
    33  H    4.114153   3.004585   3.615536   2.910545   2.616803
                   31         32         33
    31  H    0.000000
    32  H    4.490847   0.000000
    33  H    2.969737   4.994636   0.000000
 Stoichiometry    C8H17N3O4S
 Framework group  C1[X(C8H17N3O4S)]
 Deg. of freedom    93
 Full point group                 C1      NOp   1
 Largest Abelian subgroup         C1      NOp   1
 Largest concise Abelian subgroup C1      NOp   1
                         Standard orientation:                         
 ---------------------------------------------------------------------
 Center     Atomic      Atomic             Coordinates (Angstroms)
 Number     Number       Type             X           Y           Z
 ---------------------------------------------------------------------
      1          6           0        2.252605   -1.037693    0.157039
      2          6           0        0.546163    1.332140   -0.665545
      3          6           0        4.549331   -1.907114    0.377591
      4          6           0        0.988959    3.683883   -0.248907
      5          6           0       -0.236985    2.362830    1.467519
      6          6           0       -2.471295   -2.452313    0.335320
      7          6           0        0.936910   -1.119560   -0.620450
      8          6           0       -0.026043   -0.013976   -0.180366
      9          7           0        3.243972   -1.871807   -0.270317
     10          7           0       -1.378265   -0.108587   -0.786361
     11          7           0        0.391257    2.416565    0.146339
     12          8           0        2.407363   -0.291123    1.117411
     13          8           0        1.088745    1.377343   -1.769363
     14          8           0       -3.845727   -0.558935   -0.860013
     15          8           0       -2.700140   -0.046383    1.358409
     16         16           0       -2.711165   -0.688756    0.048023
     17          1           0        5.097580   -0.969199    0.232721
     18          1           0        5.132172   -2.726342   -0.047860
     19          1           0        4.438633   -2.069109    1.454001
     20          1           0        0.225485    4.470160   -0.299153
     21          1           0        1.444154    3.563351   -1.230054
     22          1           0        1.759531    3.986301    0.472731
     23          1           0        0.449547    1.981058    2.235652
     24          1           0       -1.139480    1.747691    1.455429
     25          1           0       -0.533312    3.377207    1.743192
     26          1           0       -3.385249   -2.847636    0.787563
     27          1           0       -2.294426   -2.947621   -0.620826
     28          1           0       -1.635480   -2.602274    1.020985
     29          1           0        0.495279   -2.109761   -0.455227
     30          1           0        1.135530   -1.016956   -1.692605
     31          1           0       -0.141331   -0.027328    0.900638
     32          1           0        3.078819   -2.451540   -1.079648
     33          1           0       -1.387359   -0.327499   -1.778289
 ---------------------------------------------------------------------
 Rotational constants (GHZ):      0.5744808      0.3192852      0.2417738
 Standard basis: 6-31G(d) (6D, 7F)
 There are   278 symmetry adapted basis functions of A   symmetry.
 Integral buffers will be    131072 words long.
 Raffenetti 2 integral format.
 Two-electron integral symmetry is turned on.
   278 basis functions,   540 primitive gaussians,   278 cartesian basis functions
    67 alpha electrons       67 beta electrons
       nuclear repulsion energy      1381.5608081418 Hartrees.
 NAtoms=   33 NActive=   33 NUniq=   33 SFac= 1.00D+00 NAtFMM=   60 NAOKFM=F Big=F
 One-electron integrals computed using PRISM.
 NBasis=   278 RedAO= T  NBF=   278
 NBsUse=   278 1.00D-06 NBFU=   278
 Initial guess read from the read-write file.
 B after Tr=     0.000000    0.000000    0.000000
         Rot=    1.000000    0.000000    0.000000    0.000000 Ang=   0.00 deg.
 Initial guess orbital symmetries:
       Occupied  (A) (A) (A) (A) (A) (A) (A) (A) (A) (A) (A) (A)
                 (A) (A) (A) (A) (A) (A) (A) (A) (A) (A) (A) (A)
                 (A) (A) (A) (A) (A) (A) (A) (A) (A) (A) (A) (A)
                 (A) (A) (A) (A) (A) (A) (A) (A) (A) (A) (A) (A)
                 (A) (A) (A) (A) (A) (A) (A) (A) (A) (A) (A) (A)
                 (A) (A) (A) (A) (A) (A) (A)
       Virtual   (A) (A) (A) (A) (A) (A) (A) (A) (A) (A) (A) (A)
                 (A) (A) (A) (A) (A) (A) (A) (A) (A) (A) (A) (A)
                 (A) (A) (A) (A) (A) (A) (A) (A) (A) (A) (A) (A)
                 (A) (A) (A) (A) (A) (A) (A) (A) (A) (A) (A) (A)
                 (A) (A) (A) (A) (A) (A) (A) (A) (A) (A) (A) (A)
                 (A) (A) (A) (A) (A) (A) (A) (A) (A) (A) (A) (A)
                 (A) (A) (A) (A) (A) (A) (A) (A) (A) (A) (A) (A)
                 (A) (A) (A) (A) (A) (A) (A) (A) (A) (A) (A) (A)
                 (A) (A) (A) (A) (A) (A) (A) (A) (A) (A) (A) (A)
                 (A) (A) (A) (A) (A) (A) (A) (A) (A) (A) (A) (A)
                 (A) (A) (A) (A) (A) (A) (A) (A) (A) (A) (A) (A)
                 (A) (A) (A) (A) (A) (A) (A) (A) (A) (A) (A) (A)
                 (A) (A) (A) (A) (A) (A) (A) (A) (A) (A) (A) (A)
                 (A) (A) (A) (A) (A) (A) (A) (A) (A) (A) (A) (A)
                 (A) (A) (A) (A) (A) (A) (A) (A) (A) (A) (A) (A)
                 (A) (A) (A) (A) (A) (A) (A) (A) (A) (A) (A) (A)
                 (A) (A) (A) (A) (A) (A) (A) (A) (A) (A) (A) (A)
                 (A) (A) (A) (A) (A) (A) (A)
 Harris functional with IExCor=  402 diagonalized for initial guess.
 ExpMin= 1.17D-01 ExpMax= 2.19D+04 ExpMxC= 3.30D+03 IAcc=3 IRadAn=         5 AccDes= 0.00D+00
 HarFok:  IExCor=  402 AccDes= 0.00D+00 IRadAn=         5 IDoV= 1
 ScaDFX=  1.000000  1.000000  1.000000  1.000000
 FoFCou: FMM=F IPFlag=           0 FMFlag=      100000 FMFlg1=           0
         NFxFlg=           0 DoJE=T BraDBF=F KetDBF=T FulRan=T
         Omega=  0.000000  0.000000  1.000000  0.000000  0.000000 ICntrl=     500 IOpCl=  0
         NMat0=    1 NMatS0=    1 NMatT0=    0 NMatD0=    1 NMtDS0=    0 NMtDT0=    0
         I1Cent=           4 NGrid=           0.
 Petite list used in FoFCou.
 Requested convergence on RMS density matrix=1.00D-08 within 128 cycles.
 Requested convergence on MAX density matrix=1.00D-06.
 Requested convergence on             energy=1.00D-06.
 No special actions if energy rises.
 Integral accuracy reduced to 1.0D-05 until final iterations.
 Initial convergence to 1.0D-05 achieved.  Increase integral accuracy.
 SCF Done:  E(RB3LYP) =  -1178.38180541     A.U. after   13 cycles
             Convg  =    0.6654D-08             -V/T =  2.0074
 Calling FoFJK, ICntrl=      2127 FMM=F ISym2X=0 I1Cent= 0 IOpClX= 0 NMat=1 NMatS=1 NMatT=0.
 ***** Axes restored to original set *****
 -------------------------------------------------------------------
 Center     Atomic                   Forces (Hartrees/Bohr)
 Number     Number              X              Y              Z
 -------------------------------------------------------------------
      1        6           0.000582476   -0.004812422   -0.000019721
      2        6           0.003990466    0.003106998   -0.007511571
      3        6          -0.000429608    0.001063836    0.000134461
      4        6          -0.000215771   -0.000148511   -0.000875296
      5        6          -0.000190132    0.000034838    0.000547399
      6        6           0.001505692   -0.002650269    0.003221274
      7        6           0.000550207   -0.000862352    0.004617598
      8        6          -0.003784685    0.004031709   -0.000439189
      9        7           0.000185224    0.002539974    0.000473296
     10        7           0.006057715   -0.006391957    0.003041463
     11        7          -0.000846924   -0.001167869    0.003613204
     12        8           0.001326027    0.002604385   -0.001527081
     13        8          -0.001778008   -0.000937277   -0.000253251
     14        8          -0.004420725    0.000554705    0.000307010
     15        8           0.006091453    0.000865762   -0.003528215
     16       16          -0.003930658   -0.001083702    0.000167871
     17        1          -0.000524327    0.000702987    0.000162671
     18        1          -0.000323889   -0.000113749    0.000486892
     19        1          -0.000234009    0.000536827    0.000140511
     20        1           0.000454307    0.000078259    0.000017389
     21        1          -0.000396827   -0.000478809    0.000491742
     22        1          -0.000089237    0.000407263    0.000107655
     23        1          -0.001054515   -0.000761611   -0.000550810
     24        1           0.000032869    0.000176817   -0.001195032
     25        1           0.000032169    0.000435707   -0.000675313
     26        1          -0.000589659    0.000933151   -0.001750461
     27        1          -0.000227486   -0.000449744    0.000529177
     28        1          -0.000465805   -0.001030267   -0.000559946
     29        1           0.000438200    0.001139789    0.001043842
     30        1          -0.000080458    0.000294834   -0.000540748
     31        1           0.000280703   -0.000371022    0.001193309
     32        1          -0.000596188   -0.001003262   -0.000646534
     33        1          -0.001348599    0.002754981   -0.000223596
 -------------------------------------------------------------------
 Cartesian Forces:  Max     0.007511571 RMS     0.002060300

 GradGradGradGradGradGradGradGradGradGradGradGradGradGradGradGradGradGrad
 Berny optimization.
 Using GEDIIS/GDIIS optimizer.
 Internal  Forces:  Max     0.006915148 RMS     0.001625827
 Search for a local minimum.
 Step number   2 out of a maximum of  167
 All quantities printed in internal units (Hartrees-Bohrs-Radians)
 Mixed Optimization -- RFO/linear search
 Update second derivatives using D2CorX and points    1    2
 DE= -7.47D-03 DEPred=-8.74D-03 R= 8.55D-01
 SS=  1.41D+00  RLast= 3.19D-01 DXNew= 5.0454D-01 9.5568D-01
 Trust test= 8.55D-01 RLast= 3.19D-01 DXMaxT set to 5.05D-01
 ITU=  1  0
 Use linear search instead of GDIIS.
     Eigenvalues ---    0.00230   0.00397   0.00436   0.00585   0.00628
     Eigenvalues ---    0.00896   0.00943   0.00952   0.01136   0.01149
     Eigenvalues ---    0.01186   0.01485   0.01570   0.01699   0.01787
     Eigenvalues ---    0.02007   0.04311   0.04521   0.05031   0.05438
     Eigenvalues ---    0.05957   0.06200   0.06579   0.07165   0.07460
     Eigenvalues ---    0.07481   0.07649   0.07688   0.07702   0.08324
     Eigenvalues ---    0.08807   0.09086   0.12633   0.13293   0.14052
     Eigenvalues ---    0.15618   0.15990   0.16000   0.16000   0.16000
     Eigenvalues ---    0.16000   0.16000   0.16000   0.16000   0.16000
     Eigenvalues ---    0.16000   0.16000   0.16301   0.17429   0.18255
     Eigenvalues ---    0.18972   0.21803   0.21990   0.22449   0.23603
     Eigenvalues ---    0.24902   0.24920   0.24994   0.24996   0.25000
     Eigenvalues ---    0.26602   0.27412   0.29341   0.29652   0.31176
     Eigenvalues ---    0.32803   0.34036   0.34317   0.34343   0.34353
     Eigenvalues ---    0.34371   0.34431   0.34437   0.34460   0.34525
     Eigenvalues ---    0.34552   0.34565   0.34638   0.34700   0.34744
     Eigenvalues ---    0.34984   0.37396   0.37565   0.39518   0.40798
     Eigenvalues ---    0.43530   0.44774   0.45746   0.49576   0.87423
     Eigenvalues ---    0.91676   0.93769   0.95196
 RFO step:  Lambda=-3.01625525D-03 EMin= 2.29994180D-03
 Quartic linear search produced a step of -0.03983.
 Iteration  1 RMS(Cart)=  0.15242745 RMS(Int)=  0.00494895
 Iteration  2 RMS(Cart)=  0.00971939 RMS(Int)=  0.00008529
 Iteration  3 RMS(Cart)=  0.00004423 RMS(Int)=  0.00008247
 Iteration  4 RMS(Cart)=  0.00000001 RMS(Int)=  0.00008247
 Variable       Old X    -DE/DX   Delta X   Delta X   Delta X     New X
                                 (Linear)    (Quad)   (Total)
    R1        2.89211  -0.00065  -0.00126   0.00521   0.00395   2.89606
    R2        2.57806  -0.00313   0.00089  -0.01107  -0.01018   2.56788
    R3        2.31723   0.00265   0.00022   0.00153   0.00174   2.31898
    R4        2.91217   0.00572   0.00089   0.01472   0.01560   2.92777
    R5        2.57664  -0.00281   0.00222  -0.01839  -0.01617   2.56047
    R6        2.32586   0.00201   0.00066  -0.00155  -0.00089   2.32497
    R7        2.75472  -0.00281  -0.00118  -0.00006  -0.00124   2.75348
    R8        2.07117  -0.00016  -0.00021   0.00078   0.00056   2.07173
    R9        2.06305   0.00040   0.00004   0.00088   0.00092   2.06396
   R10        2.06764  -0.00009  -0.00006   0.00011   0.00005   2.06768
   R11        2.75120   0.00034   0.00005   0.00056   0.00062   2.75181
   R12        2.07324  -0.00006  -0.00023   0.00118   0.00094   2.07418
   R13        2.05657   0.00061   0.00032  -0.00016   0.00017   2.05674
   R14        2.07526  -0.00029  -0.00030   0.00093   0.00062   2.07588
   R15        2.76643  -0.00126  -0.00059   0.00017  -0.00042   2.76601
   R16        2.07621  -0.00045  -0.00039   0.00098   0.00059   2.07680
   R17        2.06408  -0.00092  -0.00023  -0.00119  -0.00142   2.06266
   R18        2.06384   0.00080   0.00014   0.00141   0.00155   2.06539
   R19        3.40686   0.00273  -0.00168   0.01891   0.01723   3.42409
   R20        2.06674  -0.00065  -0.00009  -0.00125  -0.00134   2.06540
   R21        2.06216   0.00062   0.00000   0.00171   0.00171   2.06387
   R22        2.06250   0.00043  -0.00006   0.00152   0.00146   2.06395
   R23        2.89274  -0.00008  -0.00022   0.00100   0.00078   2.89352
   R24        2.07253   0.00118  -0.00020   0.00438   0.00419   2.07672
   R25        2.06965   0.00002   0.00012  -0.00065  -0.00053   2.06912
   R26        2.80590  -0.00549   0.00080  -0.02041  -0.01961   2.78629
   R27        2.05454   0.00011   0.00036  -0.00174  -0.00138   2.05316
   R28        1.90702   0.00022   0.00063  -0.00313  -0.00250   1.90451
   R29        3.16743  -0.00378  -0.00051  -0.00614  -0.00665   3.16078
   R30        1.91965   0.00044   0.00076  -0.00336  -0.00260   1.91705
   R31        2.75707   0.00367  -0.00051   0.00661   0.00610   2.76317
   R32        2.75788   0.00692  -0.00062   0.01048   0.00986   2.76774
    A1        2.01847  -0.00153  -0.00164   0.00361   0.00196   2.02043
    A2        2.13998  -0.00151   0.00090  -0.01081  -0.00991   2.13006
    A3        2.12454   0.00304   0.00074   0.00731   0.00805   2.13259
    A4        2.05451   0.00634   0.00085   0.01906   0.01987   2.07438
    A5        2.06931  -0.00313   0.00125  -0.01908  -0.01787   2.05144
    A6        2.15902  -0.00322  -0.00210  -0.00036  -0.00251   2.15652
    A7        1.94814  -0.00109  -0.00188   0.00385   0.00199   1.95013
    A8        1.89973  -0.00025  -0.00005  -0.00078  -0.00082   1.89891
    A9        1.92863  -0.00056  -0.00067   0.00034  -0.00032   1.92831
   A10        1.90032   0.00071   0.00081  -0.00032   0.00050   1.90082
   A11        1.88320   0.00070   0.00107  -0.00290  -0.00181   1.88138
   A12        1.90319   0.00055   0.00074  -0.00027   0.00047   1.90365
   A13        1.92901  -0.00019  -0.00124   0.00573   0.00449   1.93350
   A14        1.89659  -0.00058   0.00257  -0.01746  -0.01489   1.88170
[...]
 0000732,-0.00001097,0.00000248,-0.00000277,0.00001385,0.00001539,-0.00
 000376,-0.00000868,-0.00000544,-0.00000615,-0.00000399,0.00000016,-0.0
 0000460,0.00001408,0.00935339,-0.00527163,-0.00066234,-0.01147387,0.00
 881243,0.00035264,0.25494371,0.00002881,-0.00014001,-0.00006407,0.0000
 6850,0.00004711,-0.00019996,0.00002323,-0.00001150,-0.00002372,-0.0000
 2485,-0.00000010,-0.00000677,0.00004396,0.00005416,0.00000044,0.126816
 92,-0.13195694,-0.02058304,-0.00003317,0.00000425,-0.00010337,-0.00021
 490,-0.00006003,-0.00006284,-0.00001371,0.00007159,0.00004055,0.000252
 29,-0.00017176,0.00027081,-0.00003919,-0.00002911,0.00009040,-0.000019
 74,0.00004117,0.00008698,0.00001233,-0.00002226,0.00009474,-0.00123597
 ,0.00162968,-0.00084480,-0.00086429,-0.00018223,0.00035059,-0.00194928
 ,-0.00011876,-0.00026150,-0.00000065,0.00000660,0.00000897,-0.00000582
 ,0.00000787,0.00000305,-0.00000011,-0.00000565,-0.00000490,0.00000508,
 -0.00000690,0.00000993,-0.00000068,0.00000236,-0.00000817,0.00000263,0
 .00000066,0.00000813,0.00000668,0.00001700,-0.00000921,-0.00000181,-0.
 00002079,0.00002279,-0.00000336,-0.00001127,0.00000405,0.02604128,-0.0
 1344280,-0.00276929,-0.01136400,0.00747841,0.00032935,-0.13764182,0.13
 667193,-0.00013637,-0.00016894,0.00000983,-0.00001645,0.00009558,-0.00
 017031,0.00001480,-0.00001559,-0.00000978,-0.00001303,0.00001594,-0.00
 003545,-0.00004396,0.00000381,-0.00001444,0.03416582,-0.02064888,-0.05
 251134,0.00016002,-0.00008473,-0.00009064,-0.00063211,-0.00050148,0.00
 012759,0.00003273,0.00007706,0.00000679,0.00246045,-0.00067902,-0.0002
 1406,0.00004327,0.00000054,0.00002900,0.00007711,0.00011924,0.00001197
 ,0.00021413,-0.00001348,0.00016305,-0.00641551,0.00032537,-0.00470375,
 0.00240985,-0.00195158,0.00004581,-0.02242178,0.01662432,0.00537943,-0
 .00000244,0.00000314,0.00000418,-0.00000193,0.00000882,0.00000104,0.00
 000084,-0.00000758,-0.00000077,-0.00000639,-0.00000739,0.00001111,0.00
 000448,0.00000663,-0.00000292,-0.00000008,-0.00000492,0.00000778,0.000
 01124,-0.00004755,-0.00002838,-0.00002436,0.00002542,-0.00001700,0.000
 01079,-0.00000247,0.00001935,0.00562707,-0.00232400,-0.00096233,0.0190
 2946,-0.01488213,-0.00063533,-0.03469937,0.02355098,0.05360930,0.00597
 306,-0.00213014,0.02455916,-0.00119712,-0.00010232,-0.00050138,-0.0000
 1279,0.00073951,-0.00070822,0.00003087,0.00001131,-0.00000246,-0.00010
 920,-0.00000234,-0.00003768,0.00007283,-0.00006731,-0.00002157,-0.0650
 9726,0.00108311,-0.06181365,0.00022690,-0.00123943,0.00127323,-0.00090
 100,0.00066450,-0.00005946,-0.00027385,-0.00036071,-0.00015811,0.00012
 994,0.00004921,-0.00020000,-0.00143795,0.00121374,-0.00273655,0.001114
 91,0.00104713,-0.00026113,-0.00003009,-0.00007987,-0.00000217,-0.00019
 636,-0.00014243,0.00008589,0.00025309,0.00060870,0.00008380,0.00009120
 ,-0.00007856,-0.00003178,-0.00017572,0.00015705,0.00017606,0.00003836,
 -0.00010623,-0.00005245,-0.00001105,0.00000840,-0.00001493,0.00001573,
 -0.00000599,0.00003422,0.00001640,0.00000960,-0.00001695,0.00005311,0.
 00010579,-0.00000726,0.00004739,-0.00002124,0.00002487,0.00000940,0.00
 001058,-0.00001248,-0.00004046,0.00000302,-0.00000896,0.,0.00002929,0.
 00002451,-0.00002073,-0.00003068,-0.00000842,0.06731106,-0.00573247,0.
 00054004,-0.01958861,-0.00210752,-0.00647821,-0.00174221,0.00016650,-0
 .00086511,0.00120653,-0.00044443,0.00036099,0.00009141,0.00050212,-0.0
 0001303,-0.00003425,0.00009730,0.00009860,-0.00007403,0.00038945,-0.04
 259124,0.00536392,0.01060691,-0.00722890,0.03424878,0.00185770,-0.0018
 1187,0.00007140,-0.00071423,0.00321762,0.00003740,0.00054903,0.0002917
 9,0.00151371,0.00013238,-0.00015632,0.00171346,0.00108150,0.00097755,0
 .00048013,-0.00022554,0.00042750,0.00005953,0.00034529,0.00020180,-0.0
 0052252,-0.00057010,-0.00116475,0.00049097,-0.00012112,0.00008425,0.00
 003382,0.00034239,-0.00030640,-0.00026694,0.00002597,0.00000444,-0.000
 00282,0.00000028,-0.00004291,0.00003097,0.00002242,0.00001233,-0.00005
 903,0.00009582,-0.00003385,0.00023173,-0.00003487,-0.00009753,0.000023
 28,-0.00011592,-0.00004389,-0.00001772,-0.00007210,-0.00001544,0.00001
 943,-0.00001875,0.00003941,0.00000300,0.00001162,-0.00004579,-0.000069
 45,-0.00010848,-0.00008225,0.00000794,-0.00361053,0.05244274,-0.004216
 66,-0.00109522,-0.01725505,0.00098281,0.00183436,0.00097817,0.00004994
 ,-0.00059220,0.00043287,0.00019842,-0.00012280,-0.00001561,-0.00022813
 ,-0.00000973,0.00001917,-0.00004126,0.00000532,0.00002352,-0.06605609,
 0.01033076,-0.29497040,-0.00317400,0.00204489,-0.01069950,0.00172131,-
 0.00049342,0.00009367,0.00058937,-0.00200601,0.00164836,-0.00030026,0.
 00006248,-0.00048471,0.00074211,-0.00057219,0.00273730,0.00010504,-0.0
 0006266,0.00002328,0.00004891,-0.00009232,-0.00004931,-0.00014597,-0.0
 0008094,0.00015118,0.00018841,0.00020273,0.00013754,-0.00006776,0.0000
 5637,0.00003090,0.00016502,-0.00009551,-0.00015876,0.00001761,0.000003
 77,-0.00000978,-0.00000539,0.00002949,-0.00002830,-0.00000247,-0.00001
 145,0.00002644,-0.00004013,0.00001060,-0.00008207,-0.00001070,0.000014
 22,-0.00002043,0.00005168,0.00003041,-0.00001172,0.00003550,0.00000399
 ,-0.00000841,0.00002471,-0.00001434,0.00000518,0.00000405,0.00000331,0
 .00001359,0.00004373,0.00005376,0.00002236,0.06984108,-0.00982784,0.31
 919548,-0.01778641,-0.01412637,-0.00606473,-0.00126701,-0.00016502,-0.
 00086846,0.00037812,0.00049639,0.00043210,-0.00002310,0.00006492,-0.00
 003182,-0.00012528,-0.00001600,0.00004243,-0.00003282,-0.00000121,0.00
 000042,-0.27276415,-0.08872392,-0.02404615,0.00056309,-0.00063489,0.00
 116050,0.00190390,-0.00011419,-0.00045208,0.00100202,-0.00015757,-0.00
 012081,0.00008551,-0.00003816,0.00008326,-0.00289264,0.00375958,0.0038
 6469,0.00088223,0.00126223,-0.00051239,0.00006752,-0.00009032,-0.00004
 130,0.00000937,0.00010013,-0.00001986,0.00008615,-0.00008576,0.0000171
 2,-0.00005539,0.00001372,0.00000263,0.00004301,-0.00004714,-0.00003057
 ,0.00019584,-0.00032492,-0.00018832,-0.00000486,0.00000688,-0.00000433
 ,0.00002171,-0.00000873,-0.00000758,-0.00000158,-0.00000684,0.00002326
 ,0.00005490,0.00008396,-0.00007526,0.00002708,0.00000439,0.00001976,-0
 .00000633,-0.00001436,0.00002283,0.00000350,-0.00000066,-0.00000275,0.
 00000231,-0.00000590,0.00000076,0.00000551,0.00001007,0.00000945,-0.00
 615126,-0.00209717,-0.00071383,0.29471139,0.01487838,0.00855089,0.0056
 7345,-0.00478451,-0.00002233,-0.00158388,-0.00032826,0.00039432,0.0003
 2627,0.00000263,-0.00004980,0.00000890,-0.00026725,0.00011472,-0.00003
 795,-0.00001096,0.00007887,-0.00002214,-0.08921694,-0.08654844,-0.0120
 9952,-0.03129404,-0.01506119,-0.00210183,-0.00016981,-0.00107871,-0.00
 043588,0.00019645,0.00231169,0.00068733,0.00085457,0.00008028,-0.00024
 413,0.00410202,-0.00087822,-0.00388256,0.00252525,0.00175747,-0.000676
 19,0.00024958,-0.00000539,-0.00003962,0.00060038,-0.00039048,-0.000416
 42,-0.00085818,-0.00010416,0.00050648,-0.00000969,0.00004235,0.0000087
 3,0.00000113,0.00002091,0.00004025,0.00011522,0.00029074,0.00007777,0.
 00000551,0.00002422,0.00000268,0.00003505,-0.00000566,0.00009599,0.000
 02606,-0.00000222,-0.00000871,0.00011541,-0.00016941,0.00000210,0.0000
 8602,0.00013042,-0.00009635,0.00011230,-0.00000050,0.00009601,0.000026
 76,-0.00000992,0.00001852,0.00000440,-0.00001071,-0.00001539,0.0000487
 4,0.00001734,0.00006470,0.00153753,0.00037093,0.00008800,0.09855728,0.
 09809476,0.01545072,0.01034827,0.00191549,0.00314649,0.00089034,-0.000
 26387,-0.00017776,0.00015838,0.00007780,-0.00010015,0.00007188,-0.0000
 6677,0.00027685,-0.00007161,0.00004058,-0.00004117,-0.00000822,0.00002
 168,-0.02780840,-0.01363791,-0.05324442,0.00875512,0.00386503,0.000580
 35,-0.00080979,0.00012784,-0.00035396,-0.00018621,-0.00031692,-0.00025
 539,-0.00059387,0.00011714,0.00046080,0.00490308,-0.00265657,-0.001817
 02,-0.00096753,-0.00085251,-0.00037359,0.00001072,0.00004332,0.0000099
 8,0.00000801,0.00015884,0.00002202,-0.00003952,-0.00002142,-0.00023089
 ,0.00001752,-0.00000113,-0.00001585,-0.00005139,0.00004500,0.00002880,
 0.00003796,0.00023169,0.00008077,0.00000276,-0.00003355,0.00002403,-0.
 00001568,0.00002215,-0.00008073,0.00000201,0.00000631,0.00005204,-0.00
 008596,-0.00005418,0.00002502,-0.00010146,-0.00005413,0.00003102,-0.00
 007547,-0.00000028,-0.00002357,0.00001724,-0.00001213,0.00000550,-0.00
 001465,0.00000347,0.00000796,0.00003249,0.00003716,-0.00000942,-0.0295
 7915,-0.01231440,-0.00148462,0.02719624,0.01348294,0.05375249,-0.00038
 182,0.00027866,0.00059758,-0.00930372,-0.00425066,0.00147152,-0.000121
 41,0.00004796,0.00002796,-0.00003013,0.00018377,0.00000096,-0.00089051
 ,0.00007381,0.00173302,-0.00003161,0.00026030,-0.00012693,0.00282240,-
 0.00195009,-0.00017497,-0.29088192,-0.09292565,-0.01381254,-0.00038268
 ,-0.00045379,-0.00007757,-0.01801176,-0.00138326,0.00248114,0.00021867
 ,0.00019950,-0.00073329,-0.00046287,0.00134419,0.00013542,-0.00081386,
 0.00029428,-0.00258853,0.00092901,0.00045540,-0.00007006,0.00186657,-0
 .00158051,-0.00129901,-0.00387314,-0.00210635,0.00152225,0.00001011,-0
 .00000825,-0.00001203,0.00000707,-0.00000498,0.00000158,0.00001644,0.0
 0006329,0.00002242,-0.00002449,0.00001355,-0.00003442,-0.00004271,-0.0
 0002176,0.00014597,0.00007626,-0.00002633,0.00002660,-0.00027011,-0.00
 026123,0.00255849,0.00008579,0.00014956,-0.00004207,0.00019854,-0.0001
 1303,0.00043667,0.00006594,-0.00000020,0.00008921,0.00000341,-0.000043
 11,-0.00006005,0.00022266,0.00003896,0.00014984,0.00043411,-0.00033660
 ,0.00018828,0.00050539,0.00149359,0.00031731,0.31861331,-0.00484848,-0
 .00152447,0.00000434,0.00395220,0.00119496,0.00033228,0.00023359,0.000
 00969,-0.00004959,0.00009663,-0.00009057,-0.00005916,-0.00057298,0.000
 98339,0.00066315,-0.00011912,-0.00012441,0.00016337,-0.02907479,-0.014
 48674,-0.00125218,-0.09993248,-0.08317231,-0.00613235,0.00087775,0.000
 98144,0.00014047,0.02076452,0.00536513,-0.00013072,-0.00014977,-0.0002
 1244,-0.00056028,0.00215895,0.00229509,0.00029287,0.00089506,0.0007809
 9,0.00093224,-0.00070242,-0.00003541,0.00029799,-0.00113273,-0.0013553
 1,0.00041207,0.00405078,0.00051702,-0.00180282,-0.00000268,0.00003594,
 0.00003581,-0.00001307,0.00004088,0.00000380,0.00005847,-0.00014691,-0
 .00009937,0.00000976,-0.00000591,0.00001580,0.00000801,0.00000568,0.00
 000090,-0.00000496,0.00000357,-0.00005992,0.00029994,0.00031049,-0.000
 31108,-0.00006792,-0.00034606,0.00042262,0.00005489,-0.00024413,0.0001
 3936,-0.00002734,-0.00001449,-0.00001777,0.00002591,0.00003342,0.00011
 464,-0.00001765,0.00009868,-0.00013491,0.00023130,0.00133155,0.0000669
 3,0.00063860,-0.00576119,0.00174668,0.09980345,0.09522097,-0.00066314,
 -0.00078094,0.00045308,-0.02625787,-0.01267527,0.00977452,-0.00000360,
 -0.00004007,-0.00002221,0.00010772,0.00033436,-0.00004012,-0.00038896,
 0.00054260,-0.00223784,0.00028293,0.00008443,-0.00002691,0.00902244,0.
 00536310,0.00051418,-0.01381801,-0.00693041,-0.05476629,0.00025286,0.0
 0015597,0.00013157,0.02589013,0.00671271,-0.00107167,0.00177557,0.0002
 3953,-0.00069203,0.00010682,0.00009785,-0.00081292,-0.00605465,0.00147
 451,-0.00799559,-0.00031796,-0.00008462,-0.00029269,-0.00036865,-0.000
 34152,-0.00049269,0.00182170,-0.00013616,0.00184355,-0.00001421,-0.000
 00023,0.00000885,0.00000550,0.00001023,-0.00000495,-0.00000667,-0.0000
 0878,0.00000458,-0.00007731,0.00004306,-0.00007738,0.00004156,-0.00004
 893,0.00038535,0.00007400,-0.00003114,0.00001201,0.00187986,-0.0005061
 0,-0.00236265,0.00034455,0.00041028,-0.00021618,0.00041081,0.00000157,
 0.00022143,-0.00011533,0.00005466,0.00004540,-0.00006492,0.00006241,-0
 .00001084,-0.00022149,-0.00010960,-0.00032177,0.00049567,-0.00049622,0
 .00034027,-0.00034657,0.00181472,0.00003443,0.00484461,0.00729647,0.06
 162756,-0.00972827,0.00028953,0.00016957,0.00055422,0.00012249,0.00019
 883,-0.01081073,-0.00565772,-0.00041779,0.00004788,-0.00000750,0.00003
 123,0.00003944,-0.00001446,0.00001849,0.00000696,0.00001821,-0.0000053
 7,0.00054497,0.00191216,-0.00027315,-0.00016371,-0.00038106,0.00027819
 ,-0.41119050,-0.10540795,0.07390740,-0.00001538,0.00028901,0.00004292,
 -0.00017166,0.00001502,-0.00000808,0.00397892,-0.00120925,0.00070100,-
 0.00036288,-0.00022364,-0.00012758,-0.00008546,0.00009895,0.00002809,0
 .00001270,0.00006905,-0.00001662,-0.00001453,-0.00020911,-0.00003193,0
 .00047130,-0.00013619,0.00000663,0.00003564,-0.00004484,-0.00029068,-0
 .00047643,0.00226344,0.00133613,-0.00000697,-0.00000100,-0.00001174,-0
 .00000764,0.00001465,0.00000088,0.00000446,0.00000269,-0.00001439,-0.0
 0003818,-0.00003976,-0.00002369,-0.00001526,0.00000005,-0.00000013,-0.
 00000453,-0.00000025,-0.00001033,0.00000189,0.00000292,0.00000414,0.00
 000386,-0.00000465,-0.00000347,-0.00000896,-0.00000755,-0.00000068,-0.
 00005830,-0.00006541,-0.00001081,0.00044811,0.00108644,0.00051115,0.00
 013636,-0.00003426,-0.00001048,0.42682897,-0.03217381,-0.00154412,0.01
 324476,-0.00073115,-0.00039502,0.00041312,0.02313889,0.00924989,-0.001
 27577,0.00009087,-0.00001790,0.00007472,-0.00024038,-0.00000912,-0.000
 02572,0.00000913,0.00005257,0.00001809,-0.00109494,-0.00103655,0.00060
 322,0.00069687,-0.00001670,-0.00000664,-0.09925512,-0.08588514,-0.0092
 0636,0.00005970,0.00028920,0.00014813,0.00019655,0.00005064,-0.0003092
 6,-0.00271657,-0.00619713,-0.00556982,0.00035762,0.00051805,-0.0000829
 4,-0.00006274,0.00016047,0.00009068,0.00006058,0.00017278,0.00004867,-
 0.00010709,-0.00052210,-0.00026354,-0.00064987,0.00030273,-0.00033431,
 0.00014861,-0.00001988,0.00069167,0.00277910,-0.00358683,-0.00269796,-
 0.00000678,0.00003698,-0.00002743,0.00001813,-0.00002831,0.00004376,-0
 .00000935,-0.00001415,-0.00002325,0.00001563,0.00009174,-0.00007598,0.
 00005585,0.00000782,0.00002561,0.00003013,-0.00001194,-0.00000566,0.00
 001083,0.00000317,0.00001669,0.00000477,-0.00000488,-0.00000364,-0.000
 01342,-0.00000596,-0.00000402,0.00037208,0.00048676,0.00031936,0.00192
 246,-0.00106714,-0.00106902,-0.00014836,0.00044534,-0.00003594,0.10721
 944,0.08856844,-0.01342868,0.00470819,-0.00243836,0.00034705,0.0003584
 2,0.00070116,0.01418753,0.00774555,-0.00335463,0.00003755,0.00005419,-
 0.00004234,-0.00001067,0.00003232,-0.00001344,0.00000004,0.00000983,-0
 .00001919,-0.00108336,0.00061301,-0.00273926,0.00035434,0.00028738,0.0
 0022688,0.07401209,-0.00875445,-0.03085865,0.00003630,0.00013405,-0.00
 015467,-0.00000949,-0.00018598,-0.00022741,0.00009962,-0.00611215,0.00
 561120,-0.00019989,-0.00035138,-0.00040009,-0.00002602,0.00005712,-0.0
 0003778,0.00005133,0.00004581,-0.00012537,-0.00006619,-0.00008926,0.00
 016758,0.00028483,0.00047726,-0.00034784,-0.00063107,-0.00021771,0.000
 47459,0.00148466,-0.00248555,-0.00168412,-0.00002139,-0.00004277,-0.00
 001316,-0.00003386,0.00005456,0.00001285,0.00002512,0.00002806,-0.0000
 5648,0.00003364,0.00014261,-0.00003669,-0.00000385,-0.00006168,0.00004
 767,0.00001392,-0.00001169,0.00000836,-0.00000093,0.00000313,-0.000001
 17,0.00000130,-0.00001037,-0.00000968,-0.00000592,-0.00000631,0.000007
 67,0.00001530,-0.00088104,-0.00037796,0.00064904,-0.00112268,0.0004163
 6,-0.00012348,0.00027618,-0.00002329,-0.07600191,0.00533658,0.03513754
 ,-0.00039607,0.00027298,0.00034644,0.00018717,-0.00048245,-0.00112171,
 -0.00004370,0.00000954,0.00001678,0.00006885,0.00013643,-0.00008827,-0
 .00008021,0.00009859,0.00016509,0.00019595,0.00081997,0.00070949,0.000
 00905,-0.00007631,-0.00001745,-0.02053262,0.00058768,-0.00164223,0.000
 06498,-0.00016375,-0.00011147,-0.38054214,-0.03317484,-0.07520429,-0.0
 0116874,-0.00045123,0.00031130,0.00024086,0.00006236,-0.00010279,-0.00
 069549,-0.00022860,-0.00190480,-0.00026476,0.00284578,0.00186470,0.001
 39536,0.00169343,-0.00115030,-0.00442727,-0.00628847,-0.00410647,0.000
 01157,-0.00001252,-0.00001810,0.00001225,-0.00001352,-0.00000416,0.000
 00298,0.00001134,0.00000448,0.00002402,-0.00000210,-0.00001738,0.00002
 724,-0.00001147,-0.00001802,-0.00001347,-0.00000733,-0.00002728,0.0000
 3485,-0.00005453,0.00005888,-0.00007943,-0.00004767,0.00004463,-0.0000
 3004,-0.00007925,0.00000067,0.00020932,0.00005981,0.00041809,0.0000645
 1,0.00001332,-0.00000797,-0.00011110,0.00010084,0.00000154,-0.00010523
 ,0.00014855,0.00001551,0.00011417,0.00027895,-0.00003747,-0.00068929,0
 .00254081,0.00137311,0.00004373,0.00002235,0.00001305,0.40647271,0.000
 43670,-0.00015987,-0.00038790,0.00423617,0.00107322,-0.00036435,-0.000
 01580,-0.00003994,-0.00003433,0.00004420,0.00012654,-0.00003818,0.0001
 7832,-0.00012041,0.00013285,0.00104341,-0.00458514,-0.00054600,0.00116
 252,0.00132763,0.00002236,0.01780652,0.00513127,0.00555748,-0.00004377
 ,-0.00016257,-0.00005429,-0.01495548,-0.04946735,-0.02064358,-0.001447
 40,-0.00019366,0.00030680,-0.00058184,-0.00048391,0.00016185,-0.002534
 48,-0.00173622,0.00212908,0.00401710,0.00445530,0.00210535,0.00035604,
 -0.00458748,0.00349357,-0.04102399,-0.00879821,-0.01257068,0.00000820,
 -0.00000376,-0.00000568,0.00000393,-0.00000541,0.00000041,-0.00001480,
 0.00000831,0.00000686,-0.00003956,-0.00003179,-0.00000351,-0.00003830,
 0.00004024,-0.00011315,-0.00002028,-0.00001818,-0.00001406,-0.00008431
 ,0.00009852,0.00000426,-0.00003067,-0.00007024,0.00000161,-0.00010663,
 0.00001676,-0.00006958,-0.00068867,0.00024196,-0.00108210,-0.00005662,
 0.00000471,-0.00022705,0.00020932,0.00011950,0.00054916,0.00009595,0.0
 0008922,-0.00008413,-0.00026150,-0.00111443,-0.00025247,0.00091389,-0.
 00213386,-0.00247255,0.00004054,-0.00007372,-0.00003123,0.03139131,0.0
 6105297,-0.00003409,0.00024584,0.00030400,0.01123931,0.00234053,-0.002
 92488,-0.00001987,-0.00002147,0.00005633,-0.00039315,-0.00030203,-0.00
 052268,0.00113373,-0.00005913,0.00014339,-0.00081944,-0.00411221,0.000
 29767,-0.00066624,0.00021897,-0.00038269,0.02882941,0.00357308,0.00322
 981,-0.00001775,-0.00012433,-0.00030333,-0.11351852,-0.03412872,-0.044
 91359,-0.00289802,-0.00101405,0.00286248,0.00027268,-0.00025597,-0.000
 27965,-0.00541455,0.00166864,0.00231424,0.00146458,0.00074558,-0.00165
 041,0.00180835,0.00424481,-0.00226886,-0.00220590,0.00555810,-0.001162
 06,0.00000205,-0.00004038,-0.00002862,0.00000614,0.00000210,-0.0000212
 0,0.00000590,0.00000905,0.00002134,0.00012937,-0.00012484,0.00023116,-
 0.00002556,0.00005180,-0.00039241,-0.00011490,0.00000658,0.00016982,-0
 .00025250,0.00002350,0.00005939,-0.00033977,-0.00024686,0.00004759,-0.
 00028108,-0.00002408,-0.00007296,-0.00060543,-0.00010131,-0.00117335,0
 .00005491,-0.00000366,0.00003497,0.00037237,0.00009489,0.00027143,-0.0
 0037902,0.00026965,-0.00022264,0.00000233,-0.00021163,0.00063296,0.002
 40411,-0.00274782,-0.00392877,0.00002418,-0.00005780,0.00014973,0.0802
 3641,0.02452317,0.04942176\\0.00000603,0.00000300,-0.00000001,-0.00000
 929,-0.00000399,0.00000570,-0.00000030,-0.00000055,-0.00000510,-0.0000
 0194,0.00000257,-0.00000062,-0.00000338,0.00000821,-0.00000124,-0.0000
 0078,-0.00000217,-0.00000497,-0.00000353,-0.00000215,0.00000079,0.0000
 0522,0.00000300,-0.00000158,-0.00000336,-0.00000260,0.00000058,-0.0000
 0370,0.00000547,-0.00000201,0.00000637,-0.00000829,-0.00000146,-0.0000
 0323,0.00000075,0.00000331,0.00000555,0.00000405,-0.00000004,-0.000004
 76,0.00000462,0.00000162,0.00000109,-0.00000019,-0.00000109,0.00000269
 ,-0.00001066,0.00000280,-0.00000014,0.00000003,0.00000085,0.00000159,-
 0.00000036,0.00000057,-0.00000104,-0.00000058,0.00000152,0.00000132,0.
 00000007,-0.00000004,0.00000020,0.00000071,0.00000007,-0.00000005,-0.0
 0000072,0.00000015,0.00000100,-0.00000046,-0.00000057,0.00000082,-0.00
 000046,0.00000079,0.00000037,-0.00000111,0.00000023,-0.00000180,0.0000
 0026,0.00000101,0.00000019,-0.00000075,-0.00000026,0.00000149,0.000000
 54,0.00000059,0.00000146,0.00000191,-0.00000026,0.00000077,-0.00000118
 ,0.00000097,0.00000020,-0.00000047,-0.00000154,-0.00000052,0.00000051,
 -0.00000149,0.00000142,0.00000100,0.00000072\\\@


 NECESSARY EVIL: ONE WE LIKE TOO MUCH TO RELINQUISH.
 Job cpu time:  0 days  3 hours  3 minutes  3.7 seconds.
 File lengths (MBytes):  RWF=    338 Int=      0 D2E=      0 Chk=      6 Scr=      1
 Normal termination of Gaussian 09 at Fri Feb 16 23:06:17 2018.
