 Entering Gaussian System, Link 0=g09
 Initial command:
 /home/fb_chem/chemsoft/lx24-amd64/Gaussian_09_C.01_NBO_3.1_64_istanbul-64/g09/l1.exe /local/2397364.1.parallel/Gau-20858.inp -scrdir=/local/2397364.1.parallel/
 Entering Link 1 = /home/fb_chem/chemsoft/lx24-amd64/Gaussian_09_C.01_NBO_3.1_64_istanbul-64/g09/l1.exe PID=     20859.
  
 Copyright (c) 1988,1990,1992,1993,1995,1998,2003,2009,2011,
            Gaussian, Inc.  All Rights Reserved.
  
 This is part of the Gaussian(R) 09 program.  It is based on
 the Gaussian(R) 03 system (copyright 2003, Gaussian, Inc.),
 the Gaussian(R) 98 system (copyright 1998, Gaussian, Inc.),
 the Gaussian(R) 94 system (copyright 1995, Gaussian, Inc.),
 the Gaussian 92(TM) system (copyright 1992, Gaussian, Inc.),
 the Gaussian 90(TM) system (copyright 1990, Gaussian, Inc.),
 the Gaussian 88(TM) system (copyright 1988, Gaussian, Inc.),
 the Gaussian 86(TM) system (copyright 1986, Carnegie Mellon
 University), and the Gaussian 82(TM) system (copyright 1983,
 Carnegie Mellon University). Gaussian is a federally registered
 trademark of Gaussian, Inc.
  
 This software contains proprietary and confidential information,
 including trade secrets, belonging to Gaussian, Inc.
  
 This software is provided under written license and may be
 used, copied, transmitted, or stored only in accord with that
 written license.
  
 The following legend is applicable only to US Government
 contracts under FAR:
  
                    RESTRICTED RIGHTS LEGEND
  
 Use, reproduction and disclosure by the US Government is
 subject to restrictions as set forth in subparagraphs (a)
 and (c) of the Commercial Computer Software - Restricted
 Rights clause in FAR 52.227-19.
  
 Gaussian, Inc.
 340 Quinnipiac St., Bldg. 40, Wallingford CT 06492
  
  
 ---------------------------------------------------------------
 Warning -- This program may not be used in any manner that
 competes with the business of Gaussian, Inc. or will provide
 assistance to any competitor of Gaussian, Inc.  The licensee
 of this program is prohibited from giving any competitor of
 Gaussian, Inc. access to this program.  By using this program,
 the user acknowledges that Gaussian, Inc. is engaged in the
 business of creating and licensing software in the field of
 computational chemistry and represents and warrants to the
 licensee that it is not a competitor of Gaussian, Inc. and that
 it will not use this program in any manner prohibited above.
 ---------------------------------------------------------------
  

 Cite this work as:
 Gaussian 09, Revision C.01,
 M. J. Frisch, G. W. Trucks, H. B. Schlegel, G. E. Scuseria, 
 M. A. Robb, J. R. Cheeseman, G. Scalmani, V. Barone, B. Mennucci, 
 G. A. Petersson, H. Nakatsuji, M. Caricato, X. Li, H. P. Hratchian, 
 A. F. Izmaylov, J. Bloino, G. Zheng, J. L. Sonnenberg, M. Hada, 
 M. Ehara, K. Toyota, R. Fukuda, J. Hasegawa, M. Ishida, T. Nakajima, 
 Y. Honda, O. Kitao, H. Nakai, T. Vreven, J. A. Montgomery, Jr., 
 J. E. Peralta, F. Ogliaro, M. Bearpark, J. J. Heyd, E. Brothers, 
 K. N. Kudin, V. N. Staroverov, T. Keith, R. Kobayashi, J. Normand, 
 K. Raghavachari, A. Rendell, J. C. Burant, S. S. Iyengar, J. Tomasi, 
 M. Cossi, N. Rega, J. M. Millam, M. Klene, J. E. Knox, J. B. Cross, 
 V. Bakken, C. Adamo, J. Jaramillo, R. Gomperts, R. E. Stratmann, 
 O. Yazyev, A. J. Austin, R. Cammi, C. Pomelli, J. W. Ochterski, 
 R. L. Martin, K. Morokuma, V. G. Zakrzewski, G. A. Voth, 
 P. Salvador, J. J. Dannenberg, S. Dapprich, A. D. Daniels, 
 O. Farkas, J. B. Foresman, J. V. Ortiz, J. Cioslowski, 
 and D. J. Fox, Gaussian, Inc., Wallingford CT, 2010.
 
 ******************************************
 Gaussian 09:  AM64L-G09RevC.01 23-Sep-2011
                16-Feb-2018 
 ******************************************
 %nprocs=4
 Will use up to    4 processors via shared memory.
 %chk=frag25-conf0.chk
 ---------------------------------------------------------
 #B3LYP/6-31G* Integral=(Grid=UltraFine) freq Opt pop=none
 ---------------------------------------------------------
 1/14=-1,18=20,19=15,26=3,38=1/1,3;
 2/9=110,12=2,17=6,18=5,40=1/2;
 3/5=1,6=6,7=1,11=2,16=1,25=1,30=1,71=1,74=-5,75=-5/1,2,3;
 4//1;
 5/5=2,38=5/2;
 7//1,2,3,16;
 1/14=-1,18=20,19=15/3(2);
 2/9=110/2;
 99//99;
 2/9=110/2;
 3/5=1,6=6,7=1,11=2,16=1,25=1,30=1,71=1,74=-5,75=-5/1,2,3;
 4/5=5,16=3/1;
 5/5=2,38=5/2;
 7//1,2,3,16;
 1/14=-1,18=20,19=15/3(-5);
 2/9=110/2;
 99/9=1/99;
 -----------------------------
 Optimization for frag25-conf0
 -----------------------------
 Charge =  0 Multiplicity = 1
 Symbolic Z-Matrix:
 C                     0.93305  -4.38897  -1.29116 
 C                     0.85947  -0.60443  -0.49779 
 C                    -0.63556  -2.30213   0.5945 
 C                     0.44712  -5.76149  -3.27779 
 C                     1.30204  -3.47551  -3.6239 
 C                     4.26796  -3.63749   2.17372 
 C                     1.48638  -3.07898  -0.66532 
 C                     0.3425   -2.04358  -0.55542 
 N                     2.08599  -3.47484   0.64537 
 N                     0.88028  -4.5051   -2.67846 
 O                     0.54314  -5.31199  -0.5599 
 O                     2.44771  -1.75005   2.43618 
 O                     3.91648  -1.74127   0.38347 
 S                     3.17815  -2.4616    1.40437 
 H                     1.34845  -0.3772    0.45181 
 H                     1.56995  -0.41001  -1.30782 
 H                     0.02972   0.10219  -0.61166 
 H                    -0.16516  -2.16225   1.57215 
 H                    -1.04178  -3.31723   0.55002 
 H                    -1.48176  -1.60832   0.53771 
 H                    -0.41656  -5.56507  -3.91996 
 H                     0.16633  -6.50595  -2.52904 
 H                     1.26705  -6.16183  -3.8816 
 H                     2.27649  -3.76139  -4.03025 
 H                     1.38032  -2.4888   -3.16895 
 H                     0.57198  -3.41775  -4.437 
 H                     5.03408  -3.08083   2.71763 
 H                     3.69221  -4.25251   2.86775 
 H                     4.73263  -4.24899   1.39811 
 H                     2.297    -2.72293  -1.30796 
 H                    -0.25153  -2.10806  -1.47739 
 H                     1.3979   -3.88854   1.28535 
 

 GradGradGradGradGradGradGradGradGradGradGradGradGradGradGradGradGradGrad
 Berny optimization.
 Initialization pass.
                           ----------------------------
                           !    Initial Parameters    !
                           ! (Angstroms and Degrees)  !
 --------------------------                            --------------------------
 ! Name  Definition              Value          Derivative Info.                !
 --------------------------------------------------------------------------------
 ! R1    R(1,7)                  1.5537         estimate D2E/DX2                !
 ! R2    R(1,10)                 1.3932         estimate D2E/DX2                !
 ! R3    R(1,11)                 1.2405         estimate D2E/DX2                !
 ! R4    R(2,8)                  1.5303         estimate D2E/DX2                !
 ! R5    R(2,15)                 1.092          estimate D2E/DX2                !
 ! R6    R(2,16)                 1.0949         estimate D2E/DX2                !
 ! R7    R(2,17)                 1.0958         estimate D2E/DX2                !
 ! R8    R(3,8)                  1.5316         estimate D2E/DX2                !
 ! R9    R(3,18)                 1.0939         estimate D2E/DX2                !
 ! R10   R(3,19)                 1.0943         estimate D2E/DX2                !
 ! R11   R(3,20)                 1.0957         estimate D2E/DX2                !
 ! R12   R(4,10)                 1.4579         estimate D2E/DX2                !
 ! R13   R(4,21)                 1.094          estimate D2E/DX2                !
 ! R14   R(4,22)                 1.0926         estimate D2E/DX2                !
 ! R15   R(4,23)                 1.0941         estimate D2E/DX2                !
 ! R16   R(5,10)                 1.4601         estimate D2E/DX2                !
 ! R17   R(5,24)                 1.0938         estimate D2E/DX2                !
 ! R18   R(5,25)                 1.0894         estimate D2E/DX2                !
 ! R19   R(5,26)                 1.0943         estimate D2E/DX2                !
 ! R20   R(6,14)                 1.7783         estimate D2E/DX2                !
 ! R21   R(6,27)                 1.0921         estimate D2E/DX2                !
 ! R22   R(6,28)                 1.0915         estimate D2E/DX2                !
 ! R23   R(6,29)                 1.0915         estimate D2E/DX2                !
 ! R24   R(7,8)                  1.5468         estimate D2E/DX2                !
 ! R25   R(7,9)                  1.4947         estimate D2E/DX2                !
 ! R26   R(7,30)                 1.094          estimate D2E/DX2                !
 ! R27   R(8,31)                 1.0987         estimate D2E/DX2                !
 ! R28   R(9,14)                 1.672          estimate D2E/DX2                !
 ! R29   R(9,32)                 1.0267         estimate D2E/DX2                !
 ! R30   R(12,14)                1.4507         estimate D2E/DX2                !
 ! R31   R(13,14)                1.4513         estimate D2E/DX2                !
 ! A1    A(7,1,10)             119.0056         estimate D2E/DX2                !
 ! A2    A(7,1,11)             120.1238         estimate D2E/DX2                !
 ! A3    A(10,1,11)            120.8705         estimate D2E/DX2                !
 ! A4    A(8,2,15)             112.3162         estimate D2E/DX2                !
 ! A5    A(8,2,16)             110.9994         estimate D2E/DX2                !
 ! A6    A(8,2,17)             110.2873         estimate D2E/DX2                !
 ! A7    A(15,2,16)            108.4117         estimate D2E/DX2                !
 ! A8    A(15,2,17)            107.1723         estimate D2E/DX2                !
 ! A9    A(16,2,17)            107.4565         estimate D2E/DX2                !
 ! A10   A(8,3,18)             112.0134         estimate D2E/DX2                !
 ! A11   A(8,3,19)             111.2929         estimate D2E/DX2                !
 ! A12   A(8,3,20)             110.3259         estimate D2E/DX2                !
 ! A13   A(18,3,19)            108.3355         estimate D2E/DX2                !
 ! A14   A(18,3,20)            107.3041         estimate D2E/DX2                !
 ! A15   A(19,3,20)            107.3722         estimate D2E/DX2                !
 ! A16   A(10,4,21)            108.7322         estimate D2E/DX2                !
 ! A17   A(10,4,22)            112.4482         estimate D2E/DX2                !
 ! A18   A(10,4,23)            108.635          estimate D2E/DX2                !
 ! A19   A(21,4,22)            108.7664         estimate D2E/DX2                !
 ! A20   A(21,4,23)            109.4729         estimate D2E/DX2                !
 ! A21   A(22,4,23)            108.7525         estimate D2E/DX2                !
 ! A22   A(10,5,24)            108.2761         estimate D2E/DX2                !
 ! A23   A(10,5,25)            112.8954         estimate D2E/DX2                !
 ! A24   A(10,5,26)            109.005          estimate D2E/DX2                !
 ! A25   A(24,5,25)            109.1393         estimate D2E/DX2                !
 ! A26   A(24,5,26)            109.397          estimate D2E/DX2                !
 ! A27   A(25,5,26)            108.0864         estimate D2E/DX2                !
 ! A28   A(14,6,27)            107.9597         estimate D2E/DX2                !
 ! A29   A(14,6,28)            108.9304         estimate D2E/DX2                !
 ! A30   A(14,6,29)            108.9002         estimate D2E/DX2                !
 ! A31   A(27,6,28)            109.9107         estimate D2E/DX2                !
 ! A32   A(27,6,29)            109.9265         estimate D2E/DX2                !
 ! A33   A(28,6,29)            111.1429         estimate D2E/DX2                !
 ! A34   A(1,7,8)              109.2473         estimate D2E/DX2                !
 ! A35   A(1,7,9)              105.8302         estimate D2E/DX2                !
 ! A36   A(1,7,30)             107.5579         estimate D2E/DX2                !
 ! A37   A(8,7,9)              114.3077         estimate D2E/DX2                !
 ! A38   A(8,7,30)             111.8288         estimate D2E/DX2                !
 ! A39   A(9,7,30)             107.7009         estimate D2E/DX2                !
 ! A40   A(2,8,3)              110.2561         estimate D2E/DX2                !
 ! A41   A(2,8,7)              112.4807         estimate D2E/DX2                !
 ! A42   A(2,8,31)             105.6325         estimate D2E/DX2                !
 ! A43   A(3,8,7)              114.3674         estimate D2E/DX2                !
 ! A44   A(3,8,31)             105.9541         estimate D2E/DX2                !
 ! A45   A(7,8,31)             107.5137         estimate D2E/DX2                !
 ! A46   A(7,9,14)             119.9743         estimate D2E/DX2                !
 ! A47   A(7,9,32)             112.6095         estimate D2E/DX2                !
 ! A48   A(14,9,32)            113.5148         estimate D2E/DX2                !
 ! A49   A(1,10,4)             119.5032         estimate D2E/DX2                !
 ! A50   A(1,10,5)             125.1057         estimate D2E/DX2                !
 ! A51   A(4,10,5)             115.299          estimate D2E/DX2                !
 ! A52   A(6,14,9)             101.3027         estimate D2E/DX2                !
 ! A53   A(6,14,12)            108.9778         estimate D2E/DX2                !
 ! A54   A(6,14,13)            108.709          estimate D2E/DX2                !
 ! A55   A(9,14,12)            106.9307         estimate D2E/DX2                !
 ! A56   A(9,14,13)            108.2863         estimate D2E/DX2                !
 ! A57   A(12,14,13)           120.8663         estimate D2E/DX2                !
 ! D1    D(10,1,7,8)            85.7419         estimate D2E/DX2                !
 ! D2    D(10,1,7,9)          -150.7402         estimate D2E/DX2                !
 ! D3    D(10,1,7,30)          -35.8303         estimate D2E/DX2                !
 ! D4    D(11,1,7,8)           -94.095          estimate D2E/DX2                !
 ! D5    D(11,1,7,9)            29.4229         estimate D2E/DX2                !
 ! D6    D(11,1,7,30)          144.3328         estimate D2E/DX2                !
 ! D7    D(7,1,10,4)           175.9381         estimate D2E/DX2                !
 ! D8    D(7,1,10,5)            -0.4031         estimate D2E/DX2                !
 ! D9    D(11,1,10,4)           -4.2262         estimate D2E/DX2                !
 ! D10   D(11,1,10,5)          179.4326         estimate D2E/DX2                !
 ! D11   D(15,2,8,3)            57.737          estimate D2E/DX2                !
 ! D12   D(15,2,8,7)           -71.2151         estimate D2E/DX2                !
 ! D13   D(15,2,8,31)          171.7852         estimate D2E/DX2                !
 ! D14   D(16,2,8,3)           179.288          estimate D2E/DX2                !
 ! D15   D(16,2,8,7)            50.336          estimate D2E/DX2                !
 ! D16   D(16,2,8,31)          -66.6638         estimate D2E/DX2                !
 ! D17   D(17,2,8,3)           -61.7344         estimate D2E/DX2                !
 ! D18   D(17,2,8,7)           169.3136         estimate D2E/DX2                !
 ! D19   D(17,2,8,31)           52.3138         estimate D2E/DX2                !
 ! D20   D(18,3,8,2)           -60.45           estimate D2E/DX2                !
 ! D21   D(18,3,8,7)            67.4721         estimate D2E/DX2                !
 ! D22   D(18,3,8,31)         -174.2933         estimate D2E/DX2                !
 ! D23   D(19,3,8,2)           178.1003         estimate D2E/DX2                !
 ! D24   D(19,3,8,7)           -53.9776         estimate D2E/DX2                !
 ! D25   D(19,3,8,31)           64.257          estimate D2E/DX2                !
 ! D26   D(20,3,8,2)            59.0156         estimate D2E/DX2                !
 ! D27   D(20,3,8,7)          -173.0624         estimate D2E/DX2                !
 ! D28   D(20,3,8,31)          -54.8278         estimate D2E/DX2                !
 ! D29   D(21,4,10,1)          122.3712         estimate D2E/DX2                !
 ! D30   D(21,4,10,5)          -60.9392         estimate D2E/DX2                !
 ! D31   D(22,4,10,1)            1.8631         estimate D2E/DX2                !
 ! D32   D(22,4,10,5)          178.5527         estimate D2E/DX2                !
 ! D33   D(23,4,10,1)         -118.5616         estimate D2E/DX2                !
 ! D34   D(23,4,10,5)           58.128          estimate D2E/DX2                !
 ! D35   D(24,5,10,1)          103.2188         estimate D2E/DX2                !
 ! D36   D(24,5,10,4)          -73.2592         estimate D2E/DX2                !
 ! D37   D(25,5,10,1)          -17.731          estimate D2E/DX2                !
 ! D38   D(25,5,10,4)          165.791          estimate D2E/DX2                !
 ! D39   D(26,5,10,1)         -137.856          estimate D2E/DX2                !
 ! D40   D(26,5,10,4)           45.666          estimate D2E/DX2                !
 ! D41   D(27,6,14,9)         -179.5188         estimate D2E/DX2                !
 ! D42   D(27,6,14,12)         -67.013          estimate D2E/DX2                !
 ! D43   D(27,6,14,13)          66.5582         estimate D2E/DX2                !
 ! D44   D(28,6,14,9)          -60.2019         estimate D2E/DX2                !
 ! D45   D(28,6,14,12)          52.304          estimate D2E/DX2                !
 ! D46   D(28,6,14,13)        -174.1248         estimate D2E/DX2                !
 ! D47   D(29,6,14,9)           61.1623         estimate D2E/DX2                !
 ! D48   D(29,6,14,12)         173.6682         estimate D2E/DX2                !
 ! D49   D(29,6,14,13)         -52.7607         estimate D2E/DX2                !
 ! D50   D(1,7,8,2)           -156.8946         estimate D2E/DX2                !
 ! D51   D(1,7,8,3)             76.3239         estimate D2E/DX2                !
 ! D52   D(1,7,8,31)           -41.0209         estimate D2E/DX2                !
 ! D53   D(9,7,8,2)             84.762          estimate D2E/DX2                !
 ! D54   D(9,7,8,3)            -42.0195         estimate D2E/DX2                !
 ! D55   D(9,7,8,31)          -159.3643         estimate D2E/DX2                !
 ! D56   D(30,7,8,2)           -37.9431         estimate D2E/DX2                !
 ! D57   D(30,7,8,3)          -164.7246         estimate D2E/DX2                !
 ! D58   D(30,7,8,31)           77.9306         estimate D2E/DX2                !
 ! D59   D(1,7,9,14)           161.4628         estimate D2E/DX2                !
 ! D60   D(1,7,9,32)           -60.8803         estimate D2E/DX2                !
 ! D61   D(8,7,9,14)           -78.2694         estimate D2E/DX2                !
 ! D62   D(8,7,9,32)            59.3875         estimate D2E/DX2                !
 ! D63   D(30,7,9,14)           46.651          estimate D2E/DX2                !
 ! D64   D(30,7,9,32)         -175.6921         estimate D2E/DX2                !
 ! D65   D(7,9,14,6)          -145.7833         estimate D2E/DX2                !
 ! D66   D(7,9,14,12)          100.1687         estimate D2E/DX2                !
 ! D67   D(7,9,14,13)          -31.5439         estimate D2E/DX2                !
 ! D68   D(32,9,14,6)           76.9132         estimate D2E/DX2                !
 ! D69   D(32,9,14,12)         -37.1348         estimate D2E/DX2                !
 ! D70   D(32,9,14,13)        -168.8474         estimate D2E/DX2                !
 --------------------------------------------------------------------------------
 Trust Radius=3.00D-01 FncErr=1.00D-07 GrdErr=1.00D-06
 Number of steps in this run=    168 maximum allowed number of steps=    192.
 GradGradGradGradGradGradGradGradGradGradGradGradGradGradGradGradGradGrad

                          Input orientation:                          
 ---------------------------------------------------------------------
 Center     Atomic      Atomic             Coordinates (Angstroms)
 Number     Number       Type             X           Y           Z
 ---------------------------------------------------------------------
      1          6           0        0.933053   -4.388971   -1.291160
      2          6           0        0.859471   -0.604429   -0.497792
      3          6           0       -0.635555   -2.302125    0.594504
      4          6           0        0.447119   -5.761492   -3.277792
      5          6           0        1.302035   -3.475513   -3.623895
      6          6           0        4.267956   -3.637488    2.173722
      7          6           0        1.486377   -3.078980   -0.665320
      8          6           0        0.342501   -2.043576   -0.555423
      9          7           0        2.085987   -3.474836    0.645371
     10          7           0        0.880282   -4.505103   -2.678460
     11          8           0        0.543143   -5.311989   -0.559900
     12          8           0        2.447707   -1.750047    2.436178
     13          8           0        3.916480   -1.741273    0.383465
     14         16           0        3.178151   -2.461602    1.404373
     15          1           0        1.348452   -0.377197    0.451812
     16          1           0        1.569946   -0.410013   -1.307822
     17          1           0        0.029725    0.102188   -0.611662
     18          1           0       -0.165159   -2.162252    1.572154
     19          1           0       -1.041779   -3.317229    0.550017
     20          1           0       -1.481760   -1.608322    0.537714
     21          1           0       -0.416563   -5.565071   -3.919964
     22          1           0        0.166327   -6.505955   -2.529035
     23          1           0        1.267051   -6.161826   -3.881605
     24          1           0        2.276490   -3.761391   -4.030246
     25          1           0        1.380315   -2.488803   -3.168946
     26          1           0        0.571975   -3.417753   -4.437000
     27          1           0        5.034078   -3.080835    2.717635
     28          1           0        3.692214   -4.252514    2.867753
     29          1           0        4.732627   -4.248990    1.398112
     30          1           0        2.297003   -2.722934   -1.307963
     31          1           0       -0.251532   -2.108063   -1.477386
     32          1           0        1.397902   -3.888539    1.285351
 ---------------------------------------------------------------------
                    Distance matrix (angstroms):
                    1          2          3          4          5
     1  C    0.000000
     2  C    3.867506   0.000000
     3  C    3.220433   2.512048   0.000000
     4  C    2.463057   5.873136   5.304156   0.000000
     5  C    2.532233   4.267494   4.788109   2.465029   0.000000
     6  C    4.867413   5.287174   5.321799   6.987789   6.514237
     7  C    1.553679   2.558218   2.587133   3.885992   2.990717
     8  C    2.528031   1.530268   1.531592   4.609245   3.519470
     9  N    2.432088   3.324214   2.963888   4.827618   4.340647
    10  N    1.393152   4.468892   4.226483   1.457856   1.460061
    11  O    1.240457   4.718584   3.432383   2.756486   3.651935
    12  O    4.811563   3.527480   3.633602   7.262471   6.404239
    13  O    4.326143   3.378511   4.591309   6.450072   5.089386
    14  S    4.002638   3.527549   3.902010   6.345903   5.461805
    15  H    4.393727   1.092010   2.768031   6.611579   5.119874
    16  H    4.029642   1.094861   3.473206   5.812043   3.851398
    17  H    4.631223   1.095788   2.770948   6.454859   4.846882
    18  H    3.789844   2.785921   1.093910   6.070535   5.556640
    19  H    2.904915   3.474470   1.094273   4.779473   4.789579
    20  H    4.111947   2.749806   1.095742   5.960493   5.343679
    21  H    3.180453   6.160153   5.574512   1.094034   2.721670
    22  H    2.569402   6.279681   5.298273   1.092569   3.416450
    23  H    3.156734   6.519276   6.209085   1.094141   2.698872
    24  H    3.114686   4.944955   5.656657   2.813039   1.093805
    25  H    2.708645   3.310167   4.273421   3.404878   1.089359
    26  H    3.312091   4.849207   5.293278   2.617721   1.094287
    27  H    5.882181   5.822276   6.104000   8.010696   7.368780
    28  H    4.992809   5.714880   5.263199   7.111637   6.961191
    29  H    4.657095   5.646115   5.766580   6.520531   6.130887
    30  H    2.153212   2.685319   3.520846   4.066341   2.630566
    31  H    2.576909   2.110651   2.116096   4.132447   2.981777
    32  H    2.665506   3.775564   2.670005   5.023366   4.927522
                    6          7          8          9         10
     6  C    0.000000
     7  C    4.013636   0.000000
     8  C    5.039641   1.546800   0.000000
     9  N    2.668951   1.494706   2.555417   0.000000
    10  N    5.981033   2.540454   3.294785   3.682801   0.000000
    11  O    4.914354   2.426341   3.274569   2.684805   2.291948
    12  O    2.635265   3.508491   3.669840   2.512514   6.017198
    13  O    2.631385   2.965605   3.707590   2.534667   5.121781
    14  S    1.778280   2.743517   3.472241   1.671990   5.111323
    15  H    4.702975   2.926882   2.191638   3.190108   5.201672
    16  H    5.460495   2.746484   2.177441   3.670749   4.373104
    17  H    6.301281   3.499220   2.169169   4.313171   5.120764
    18  H    4.710702   2.928182   2.190523   2.765766   4.964838
    19  H    5.561679   2.815205   2.181840   3.133186   3.940613
    20  H    6.312945   3.524196   2.170789   4.027937   4.930958
    21  H    7.924222   4.516030   4.929223   5.610180   2.084867
    22  H    6.867851   4.118267   4.882521   4.790577   2.129664
    23  H    7.214201   4.460552   5.373849   5.327671   2.083718
    24  H    6.516940   3.523164   4.331927   4.688262   2.080824
    25  H    6.180780   2.574432   2.847066   4.002405   2.134496
    26  H    7.576952   3.895699   4.124035   5.303394   2.090417
    27  H    1.092084   4.902098   5.813751   3.625017   6.957039
    28  H    1.091518   4.327298   5.274289   2.850216   6.223443
    29  H    1.091524   4.020549   5.287093   2.858432   5.614677
    30  H    4.104047   1.094017   2.201799   2.103663   2.657346
    31  H    6.007953   2.149990   1.098658   3.440663   2.910220
    32  H    3.014870   2.113843   2.811798   1.026736   4.044734
                   11         12         13         14         15
    11  O    0.000000
    12  O    5.029043   0.000000
    13  O    5.001935   2.524084   0.000000
    14  S    4.350442   1.450682   1.451295   0.000000
    15  H    5.101397   2.651563   2.908633   2.932561   0.000000
    16  H    5.063899   4.072308   3.184168   3.761827   1.773823
    17  H    5.438712   4.308915   4.415370   4.533212   1.760633
    18  H    3.868874   2.782718   4.272000   3.360875   2.594726
    19  H    2.779021   4.264994   5.205354   4.389742   3.790335
    20  H    4.361437   4.366344   5.402080   4.816010   3.087579
    21  H    3.503586   7.947262   7.205289   7.134567   7.010117
    22  H    2.333461   7.244080   6.726700   6.395277   6.916975
    23  H    3.504282   7.795647   6.689662   6.729452   7.228212
    24  H    4.177577   6.774175   5.123601   5.660170   5.692352
    25  H    3.934254   5.753477   4.428381   4.914082   4.191632
    26  H    4.315190   7.317116   6.101900   6.467459   5.809336
    27  H    5.990724   2.922246   2.914069   2.356389   5.101710
    28  H    4.773672   2.827966   3.539535   2.369199   5.133037
    29  H    4.745056   3.541631   2.825641   2.368794   5.228661
    30  H    3.215405   3.871409   2.539152   2.863823   3.082051
    31  H    3.426139   4.767604   4.579261   4.493579   3.045924
    32  H    2.482291   2.645684   3.430363   2.284645   3.609260
                   16         17         18         19         20
    16  H    0.000000
    17  H    1.766145   0.000000
    18  H    3.791463   3.151940   0.000000
    19  H    4.327190   3.766966   1.774035   0.000000
    20  H    3.762293   2.555679   1.763617   1.764680   0.000000
    21  H    6.110984   6.577374   6.465736   5.042263   6.054865
    22  H    6.373540   6.882044   5.983092   4.594351   6.008989
    23  H    6.308681   7.173658   6.913125   5.749930   6.915253
    24  H    4.375218   5.626891   6.317102   5.673359   6.294951
    25  H    2.796625   3.882915   4.997314   4.514811   4.765086
    26  H    4.453561   5.226589   6.183008   5.242581   5.677997
    27  H    5.944560   6.801426   5.402590   6.455268   7.026840
    28  H    6.058404   6.669602   4.574614   5.353256   6.260259
    29  H    5.662364   6.714851   5.326638   5.910263   6.806762
    30  H    2.424502   3.688725   3.830363   3.866878   4.350624
    31  H    2.495978   2.390354   3.051245   2.489365   2.413261
    32  H    4.342152   4.625632   2.346376   2.611351   3.748440
                   21         22         23         24         25
    21  H    0.000000
    22  H    1.777556   0.000000
    23  H    1.786656   1.777487   0.000000
    24  H    3.243140   3.773467   2.608285   0.000000
    25  H    3.640909   4.245086   3.743235   1.778889   0.000000
    26  H    2.419816   3.652652   2.884706   1.785751   1.767576
    27  H    8.940840   7.934355   8.199571   7.321293   6.953582
    28  H    8.042260   6.828997   7.421638   7.058885   6.700543
    29  H    7.518520   6.431755   6.598831   5.978079   5.932475
    30  H    4.718446   4.510216   4.417059   2.913698   2.087676
    31  H    4.236074   4.541148   4.951702   3.954931   2.381021
    32  H    5.761800   4.787189   5.646448   5.389216   4.669082
                   26         27         28         29         30
    26  H    0.000000
    27  H    8.438760   0.000000
    28  H    7.986998   1.787726   0.000000
    29  H    7.214604   1.787903   1.800643   0.000000
    30  H    3.639968   4.881097   4.660776   3.947652   0.000000
    31  H    3.339576   6.817782   6.247562   6.139535   2.627127
    32  H    5.800784   3.990689   2.810755   3.356044   2.981995
                   31         32
    31  H    0.000000
    32  H    3.677423   0.000000
 Stoichiometry    C8H18N2O3S
 Framework group  C1[X(C8H18N2O3S)]
 Deg. of freedom    90
 Full point group                 C1      NOp   1
 Largest Abelian subgroup         C1      NOp   1
 Largest concise Abelian subgroup C1      NOp   1
                         Standard orientation:                         
 ---------------------------------------------------------------------
 Center     Atomic      Atomic             Coordinates (Angstroms)
 Number     Number       Type             X           Y           Z
 ---------------------------------------------------------------------
      1          6           0        1.680018   -0.482540   -0.455895
      2          6           0       -0.453025    2.486036    0.807152
      3          6           0        0.067386    2.053945   -1.612116
      4          6           0        4.029117   -1.174982   -0.193387
      5          6           0        2.976257    0.087642    1.643358
      6          6           0       -2.895588   -2.109366   -0.125788
      7          6           0        0.397830    0.170343    0.130327
      8          6           0        0.417162    1.688267   -0.166532
      9          7           0       -0.750588   -0.562327   -0.484877
     10          7           0        2.845094   -0.487883    0.307938
     11          8           0        1.659556   -0.986732   -1.589079
     12          8           0       -3.031538    0.489887   -0.538127
     13          8           0       -2.094864   -0.343044    1.652733
     14         16           0       -2.265439   -0.482459    0.218256
     15          1           0       -1.519631    2.322168    0.639867
     16          1           0       -0.221569    2.224598    1.844841
     17          1           0       -0.268318    3.559733    0.689636
     18          1           0       -0.977164    1.832471   -1.849818
     19          1           0        0.703379    1.517346   -2.322754
     20          1           0        0.219917    3.125771   -1.781153
     21          1           0        4.853705   -0.458209   -0.249978
     22          1           0        3.871786   -1.608671   -1.183774
     23          1           0        4.289822   -1.976543    0.504236
     24          1           0        2.963413   -0.728561    2.371408
     25          1           0        2.179616    0.791398    1.881677
     26          1           0        3.930407    0.619243    1.710156
     27          1           0       -3.904498   -2.173997    0.287216
     28          1           0       -2.926438   -2.255830   -1.206995
     29          1           0       -2.249555   -2.847352    0.353212
     30          1           0        0.385311   -0.033847    1.205047
     31          1           0        1.444152    2.043658   -0.005171
     32          1           0       -0.769017   -0.479538   -1.508103
 ---------------------------------------------------------------------
 Rotational constants (GHZ):      0.9298773      0.3839545      0.3487977
 Standard basis: 6-31G(d) (6D, 7F)
 There are   250 symmetry adapted basis functions of A   symmetry.
 Integral buffers will be    131072 words long.
 Raffenetti 2 integral format.
 Two-electron integral symmetry is turned on.
   250 basis functions,   488 primitive gaussians,   250 cartesian basis functions
    60 alpha electrons       60 beta electrons
       nuclear repulsion energy      1174.5206189758 Hartrees.
 NAtoms=   32 NActive=   32 NUniq=   32 SFac= 1.00D+00 NAtFMM=   60 NAOKFM=F Big=F
 One-electron integrals computed using PRISM.
 NBasis=   250 RedAO= T  NBF=   250
 NBsUse=   250 1.00D-06 NBFU=   250
 Harris functional with IExCor=  402 diagonalized for initial guess.
 ExpMin= 1.17D-01 ExpMax= 2.19D+04 ExpMxC= 3.30D+03 IAcc=3 IRadAn=         5 AccDes= 0.00D+00
 HarFok:  IExCor=  402 AccDes= 0.00D+00 IRadAn=         5 IDoV= 1
 ScaDFX=  1.000000  1.000000  1.000000  1.000000
 FoFCou: FMM=F IPFlag=           0 FMFlag=      100000 FMFlg1=           0
         NFxFlg=           0 DoJE=T BraDBF=F KetDBF=T FulRan=T
         Omega=  0.000000  0.000000  1.000000  0.000000  0.000000 ICntrl=     500 IOpCl=  0
         NMat0=    1 NMatS0=    1 NMatT0=    0 NMatD0=    1 NMtDS0=    0 NMtDT0=    0
         I1Cent=           4 NGrid=           0.
 Petite list used in FoFCou.
 Initial guess orbital symmetries:
       Occupied  (A) (A) (A) (A) (A) (A) (A) (A) (A) (A) (A) (A)
                 (A) (A) (A) (A) (A) (A) (A) (A) (A) (A) (A) (A)
                 (A) (A) (A) (A) (A) (A) (A) (A) (A) (A) (A) (A)
                 (A) (A) (A) (A) (A) (A) (A) (A) (A) (A) (A) (A)
                 (A) (A) (A) (A) (A) (A) (A) (A) (A) (A) (A) (A)
       Virtual   (A) (A) (A) (A) (A) (A) (A) (A) (A) (A) (A) (A)
                 (A) (A) (A) (A) (A) (A) (A) (A) (A) (A) (A) (A)
                 (A) (A) (A) (A) (A) (A) (A) (A) (A) (A) (A) (A)
                 (A) (A) (A) (A) (A) (A) (A) (A) (A) (A) (A) (A)
                 (A) (A) (A) (A) (A) (A) (A) (A) (A) (A) (A) (A)
                 (A) (A) (A) (A) (A) (A) (A) (A) (A) (A) (A) (A)
                 (A) (A) (A) (A) (A) (A) (A) (A) (A) (A) (A) (A)
                 (A) (A) (A) (A) (A) (A) (A) (A) (A) (A) (A) (A)
                 (A) (A) (A) (A) (A) (A) (A) (A) (A) (A) (A) (A)
                 (A) (A) (A) (A) (A) (A) (A) (A) (A) (A) (A) (A)
                 (A) (A) (A) (A) (A) (A) (A) (A) (A) (A) (A) (A)
                 (A) (A) (A) (A) (A) (A) (A) (A) (A) (A) (A) (A)
                 (A) (A) (A) (A) (A) (A) (A) (A) (A) (A) (A) (A)
                 (A) (A) (A) (A) (A) (A) (A) (A) (A) (A) (A) (A)
                 (A) (A) (A) (A) (A) (A) (A) (A) (A) (A) (A) (A)
                 (A) (A) (A) (A) (A) (A) (A) (A) (A) (A)
 The electronic state of the initial guess is 1-A.
 Requested convergence on RMS density matrix=1.00D-08 within 128 cycles.
 Requested convergence on MAX density matrix=1.00D-06.
 Requested convergence on             energy=1.00D-06.
 No special actions if energy rises.
 Integral accuracy reduced to 1.0D-05 until final iterations.
 Initial convergence to 1.0D-05 achieved.  Increase integral accuracy.
 SCF Done:  E(RB3LYP) =  -1048.99498980     A.U. after   15 cycles
             Convg  =    0.4817D-08             -V/T =  2.0073
 Calling FoFJK, ICntrl=      2127 FMM=F ISym2X=0 I1Cent= 0 IOpClX= 0 NMat=1 NMatS=1 NMatT=0.
 ***** Axes restored to original set *****
 -------------------------------------------------------------------
 Center     Atomic                   Forces (Hartrees/Bohr)
 Number     Number              X              Y              Z
 -------------------------------------------------------------------
      1        6          -0.004624042   -0.020736643   -0.001569207
      2        6           0.001662291    0.004947604   -0.001210359
      3        6          -0.002435623   -0.006092804    0.001866616
      4        6          -0.000289019    0.002060198   -0.000586162
      5        6           0.001511380   -0.008028393    0.003676248
      6        6           0.005970203   -0.006012043    0.003680972
      7        6          -0.000764242   -0.017031759    0.004626122
      8        6          -0.005855400    0.012595681   -0.002723098
      9        7          -0.003620820   -0.006399804   -0.018800619
     10        7          -0.002039661    0.008539164    0.025423060
     11        8           0.004852424    0.014990444   -0.007823252
     12        8          -0.002595184    0.014718432    0.023190511
     13        8           0.009245238    0.007395489   -0.012886677
     14       16          -0.015188331   -0.011456764   -0.006470049
     15        1           0.001564931   -0.000612621    0.000514347
     16        1           0.001682135    0.001396901    0.000227902
     17        1          -0.001150248   -0.000333730    0.000091050
     18        1           0.001369136    0.001041454    0.000185699
     19        1          -0.000452571   -0.001583284    0.000528729
     20        1           0.000997566    0.000615430   -0.000978826
     21        1          -0.001134446   -0.002269072   -0.003347326
     22        1           0.002309207    0.006604093    0.002928796
     23        1          -0.000009798   -0.002469176   -0.003573926
     24        1           0.002686002    0.003663951   -0.005930542
     25        1          -0.000647023   -0.001132546    0.001095852
     26        1           0.000289146    0.000730940   -0.001625962
     27        1          -0.000446905    0.001238834    0.000698118
     28        1           0.000474244   -0.000906407    0.000056662
     29        1          -0.000980220   -0.000115825    0.000388033
     30        1           0.000099794    0.004196006    0.006489389
     31        1           0.001518654   -0.003529241   -0.002407449
     32        1           0.006001180    0.003975489   -0.005734652
 -------------------------------------------------------------------
 Cartesian Forces:  Max     0.025423060 RMS     0.006820974

 GradGradGradGradGradGradGradGradGradGradGradGradGradGradGradGradGradGrad
 Berny optimization.
 Internal  Forces:  Max     0.025020272 RMS     0.004651248
 Search for a local minimum.
 Step number   1 out of a maximum of  168
 All quantities printed in internal units (Hartrees-Bohrs-Radians)
 Mixed Optimization -- RFO/linear search
 Second derivative matrix not updated -- first step.
 ITU=  0
     Eigenvalues ---    0.00230   0.00230   0.00348   0.00366   0.00439
     Eigenvalues ---    0.00658   0.00857   0.00897   0.00926   0.01157
     Eigenvalues ---    0.01667   0.01782   0.01899   0.03064   0.04320
     Eigenvalues ---    0.04610   0.04730   0.05189   0.05361   0.05363
     Eigenvalues ---    0.05579   0.05606   0.06072   0.06228   0.06813
     Eigenvalues ---    0.07253   0.07324   0.07718   0.07731   0.08593
     Eigenvalues ---    0.09425   0.12297   0.13223   0.16000   0.16000
     Eigenvalues ---    0.16000   0.16000   0.16000   0.16000   0.16000
     Eigenvalues ---    0.16000   0.16000   0.16000   0.16000   0.16000
     Eigenvalues ---    0.16000   0.16000   0.16000   0.17149   0.17177
     Eigenvalues ---    0.17727   0.17837   0.17926   0.22723   0.24948
     Eigenvalues ---    0.24972   0.25000   0.25000   0.25000   0.27341
     Eigenvalues ---    0.27905   0.27925   0.29277   0.29399   0.32939
     Eigenvalues ---    0.33831   0.34152   0.34157   0.34257   0.34322
     Eigenvalues ---    0.34324   0.34338   0.34351   0.34353   0.34365
     Eigenvalues ---    0.34377   0.34517   0.34573   0.34581   0.34637
     Eigenvalues ---    0.34638   0.34887   0.36957   0.37234   0.39484
     Eigenvalues ---    0.43281   0.46775   0.86865   0.95364   0.95635
 RFO step:  Lambda=-1.27359411D-02 EMin= 2.30000000D-03
 Linear search not attempted -- first point.
 Iteration  1 RMS(Cart)=  0.08735116 RMS(Int)=  0.00227352
 Iteration  2 RMS(Cart)=  0.00337020 RMS(Int)=  0.00028804
 Iteration  3 RMS(Cart)=  0.00000478 RMS(Int)=  0.00028803
 Iteration  4 RMS(Cart)=  0.00000000 RMS(Int)=  0.00028803
 Variable       Old X    -DE/DX   Delta X   Delta X   Delta X     New X
                                 (Linear)    (Quad)   (Total)
    R1        2.93603  -0.00617   0.00000  -0.02156  -0.02156   2.91447
    R2        2.63268  -0.01873   0.00000  -0.03898  -0.03898   2.59370
    R3        2.34412  -0.01729   0.00000  -0.01962  -0.01962   2.32451
    R4        2.89179   0.00634   0.00000   0.02065   0.02065   2.91244
    R5        2.06360   0.00102   0.00000   0.00285   0.00285   2.06645
    R6        2.06899   0.00117   0.00000   0.00330   0.00330   2.07229
    R7        2.07074   0.00065   0.00000   0.00182   0.00182   2.07256
    R8        2.89429   0.00255   0.00000   0.00834   0.00834   2.90263
    R9        2.06719   0.00089   0.00000   0.00249   0.00249   2.06968
   R10        2.06788   0.00161   0.00000   0.00453   0.00453   2.07241
   R11        2.07065  -0.00033   0.00000  -0.00093  -0.00093   2.06972
   R12        2.75495  -0.00176   0.00000  -0.00457  -0.00457   2.75038
   R13        2.06743   0.00245   0.00000   0.00689   0.00689   2.07431
   R14        2.06466  -0.00309   0.00000  -0.00862  -0.00862   2.05603
   R15        2.06763   0.00287   0.00000   0.00805   0.00805   2.07568
   R16        2.75912  -0.00045   0.00000  -0.00118  -0.00118   2.75794
   R17        2.06699   0.00364   0.00000   0.01021   0.01021   2.07720
   R18        2.05859  -0.00062   0.00000  -0.00170  -0.00170   2.05689
   R19        2.06790   0.00105   0.00000   0.00296   0.00296   2.07086
   R20        3.36046   0.00900   0.00000   0.03083   0.03083   3.39129
   R21        2.06374   0.00067   0.00000   0.00186   0.00186   2.06559
   R22        2.06267   0.00030   0.00000   0.00083   0.00083   2.06350
   R23        2.06268  -0.00063   0.00000  -0.00175  -0.00175   2.06093
   R24        2.92303   0.00619   0.00000   0.02119   0.02119   2.94422
   R25        2.82458  -0.01502   0.00000  -0.04391  -0.04391   2.78067
   R26        2.06739  -0.00237   0.00000  -0.00666  -0.00666   2.06073
   R27        2.07616   0.00141   0.00000   0.00401   0.00401   2.08017
   R28        3.15960   0.00457   0.00000   0.01122   0.01122   3.17082
   R29        1.94025  -0.00920   0.00000  -0.02064  -0.02064   1.91961
   R30        2.74139   0.02502   0.00000   0.02582   0.02582   2.76721
   R31        2.74255   0.01744   0.00000   0.01805   0.01805   2.76060
    A1        2.07704  -0.00459   0.00000  -0.01752  -0.01806   2.05898
    A2        2.09656  -0.00115   0.00000  -0.00441  -0.00492   2.09163
    A3        2.10959   0.00574   0.00000   0.02178   0.02122   2.13081
    A4        1.96029  -0.00103   0.00000  -0.00814  -0.00813   1.95215
    A5        1.93730   0.00256   0.00000   0.01534   0.01536   1.95266
    A6        1.92488  -0.00141   0.00000  -0.00659  -0.00661   1.91826
    A7        1.89214  -0.00128   0.00000  -0.01032  -0.01028   1.88186
    A8        1.87051   0.00113   0.00000   0.00548   0.00544   1.87595
    A9        1.87547   0.00002   0.00000   0.00434   0.00433   1.87980
   A10        1.95500  -0.00186   0.00000  -0.01240  -0.01246   1.94254
   A11        1.94243   0.00147   0.00000   0.01131   0.01135   1.95377
   A12        1.92555  -0.00196   0.00000  -0.01250  -0.01257   1.91298
   A13        1.89081   0.00049   0.00000   0.00494   0.00498   1.89579
   A14        1.87281   0.00125   0.00000   0.00185   0.00168   1.87449
   A15        1.87400   0.00074   0.00000   0.00753   0.00757   1.88157
   A16        1.89773   0.00573   0.00000   0.03478   0.03456   1.93229
   A17        1.96259  -0.01196   0.00000  -0.07243  -0.07203   1.89056
   A18        1.89604   0.00535   0.00000   0.03240   0.03214   1.92818
   A19        1.89833   0.00226   0.00000   0.01012   0.01054   1.90888
   A20        1.91066  -0.00374   0.00000  -0.01487  -0.01569   1.89497
   A21        1.89809   0.00237   0.00000   0.01039   0.01074   1.90883
   A22        1.88978   0.00992   0.00000   0.06189   0.06179   1.95156
   A23        1.97040  -0.00436   0.00000  -0.02688  -0.02688   1.94351
   A24        1.90250   0.00079   0.00000   0.00167   0.00134   1.90384
   A25        1.90484  -0.00214   0.00000  -0.00734  -0.00715   1.89769
   A26        1.90934  -0.00435   0.00000  -0.02172  -0.02213   1.88721
   A27        1.88646  -0.00004   0.00000  -0.00849  -0.00870   1.87776
   A28        1.88425  -0.00163   0.00000  -0.00909  -0.00908   1.87517
   A29        1.90119   0.00142   0.00000   0.00752   0.00753   1.90873
   A30        1.90067  -0.00018   0.00000  -0.00073  -0.00073   1.89994
   A31        1.91830   0.00000   0.00000  -0.00068  -0.00066   1.91765
   A32        1.91858   0.00110   0.00000   0.00780   0.00779   1.92638
   A33        1.93981  -0.00073   0.00000  -0.00496  -0.00496   1.93485
   A34        1.90672  -0.00068   0.00000   0.00566   0.00575   1.91248
   A35        1.84709  -0.00602   0.00000  -0.02861  -0.02873   1.81836
   A36        1.87724   0.00555   0.00000   0.05263   0.05241   1.92965
   A37        1.99505   0.00855   0.00000   0.04090   0.04107   2.03612
   A38        1.95178  -0.00377   0.00000  -0.02466  -0.02469   1.92709
   A39        1.87974  -0.00376   0.00000  -0.04438  -0.04381   1.83593
   A40        1.92433   0.00224   0.00000   0.01730   0.01729   1.94162
   A41        1.96316   0.00201   0.00000   0.01090   0.01114   1.97430
   A42        1.84363   0.00018   0.00000   0.02079   0.02070   1.86434
   A43        1.99609  -0.00440   0.00000  -0.02903  -0.02920   1.96689
   A44        1.84925   0.00132   0.00000   0.00885   0.00801   1.85726
   A45        1.87647  -0.00116   0.00000  -0.02641  -0.02657   1.84990
   A46        2.09395   0.00347   0.00000   0.01682   0.01672   2.11067
   A47        1.96541  -0.00075   0.00000   0.00241   0.00231   1.96772
   A48        1.98121  -0.00165   0.00000  -0.00304  -0.00317   1.97803
   A49        2.08572  -0.00304   0.00000  -0.01164  -0.01164   2.07408
   A50        2.18351   0.00351   0.00000   0.01335   0.01335   2.19686
   A51        2.01235  -0.00047   0.00000  -0.00185  -0.00185   2.01050
   A52        1.76807  -0.00435   0.00000  -0.01424  -0.01406   1.75401
   A53        1.90202  -0.00670   0.00000  -0.03790  -0.03803   1.86399
   A54        1.89733   0.00080   0.00000  -0.01696  -0.01760   1.87973
   A55        1.86629   0.01257   0.00000   0.08937   0.08929   1.95558
   A56        1.88995  -0.00253   0.00000  -0.01655  -0.01720   1.87275
   A57        2.10952  -0.00033   0.00000  -0.00362  -0.00538   2.10413
    D1        1.49648  -0.00269   0.00000  -0.00259  -0.00210   1.49438
    D2       -2.63091   0.00356   0.00000   0.03252   0.03299  -2.59792
    D3       -0.62536  -0.00109   0.00000  -0.00786  -0.00822  -0.63358
    D4       -1.64227  -0.00142   0.00000   0.05743   0.05752  -1.58475
    D5        0.51353   0.00483   0.00000   0.09254   0.09261   0.60613
    D6        2.51908   0.00019   0.00000   0.05216   0.05140   2.57048
    D7        3.07070   0.00166   0.00000   0.06330   0.06357   3.13427
    D8       -0.00704   0.00175   0.00000   0.06615   0.06643   0.05940
    D9       -0.07376   0.00036   0.00000   0.00277   0.00249  -0.07127
   D10        3.13169   0.00045   0.00000   0.00562   0.00535   3.13704
   D11        1.00770  -0.00148   0.00000  -0.00572  -0.00571   1.00199
   D12       -1.24294   0.00098   0.00000   0.01032   0.01035  -1.23259
   D13        2.99822   0.00121   0.00000   0.02374   0.02377   3.02199
   D14        3.12917  -0.00201   0.00000  -0.01373  -0.01375   3.11542
   D15        0.87853   0.00044   0.00000   0.00231   0.00231   0.88083
   D16       -1.16350   0.00067   0.00000   0.01574   0.01573  -1.14777
   D17       -1.07747  -0.00127   0.00000  -0.00283  -0.00285  -1.08032
   D18        2.95508   0.00119   0.00000   0.01321   0.01321   2.96829
   D19        0.91305   0.00142   0.00000   0.02664   0.02663   0.93968
   D20       -1.05505   0.00091   0.00000   0.02714   0.02720  -1.02786
   D21        1.17761   0.00198   0.00000   0.03316   0.03310   1.21071
   D22       -3.04199  -0.00106   0.00000  -0.01005  -0.01022  -3.05221
   D23        3.10844   0.00054   0.00000   0.02146   0.02157   3.13000
   D24       -0.94209   0.00161   0.00000   0.02747   0.02747  -0.91462
   D25        1.12150  -0.00144   0.00000  -0.01573  -0.01585   1.10565
   D26        1.03002  -0.00005   0.00000   0.01295   0.01312   1.04313
   D27       -3.02051   0.00102   0.00000   0.01897   0.01902  -3.00149
   D28       -0.95693  -0.00203   0.00000  -0.02424  -0.02430  -0.98122
   D29        2.13578  -0.00099   0.00000  -0.01075  -0.01126   2.12452
   D30       -1.06359  -0.00091   0.00000  -0.01273  -0.01322  -1.07681
   D31        0.03252  -0.00010   0.00000  -0.00095  -0.00093   0.03159
   D32        3.11633  -0.00003   0.00000  -0.00293  -0.00289   3.11344
   D33       -2.06929   0.00088   0.00000   0.00999   0.01045  -2.05884
   D34        1.01453   0.00095   0.00000   0.00801   0.00849   1.02302
   D35        1.80151   0.00029   0.00000   0.01130   0.01105   1.81256
   D36       -1.27861   0.00047   0.00000   0.01439   0.01416  -1.26445
   D37       -0.30946  -0.00108   0.00000  -0.00503  -0.00488  -0.31435
   D38        2.89360  -0.00090   0.00000  -0.00194  -0.00177   2.89183
   D39       -2.40604   0.00123   0.00000   0.02182   0.02189  -2.38415
   D40        0.79702   0.00141   0.00000   0.02491   0.02500   0.82202
   D41       -3.13319  -0.00449   0.00000  -0.03009  -0.02996   3.12003
   D42       -1.16960   0.00516   0.00000   0.04963   0.04928  -1.12031
   D43        1.16166   0.00004   0.00000   0.00121   0.00144   1.16310
   D44       -1.05072  -0.00463   0.00000  -0.03189  -0.03176  -1.08248
   D45        0.91288   0.00502   0.00000   0.04784   0.04748   0.96036
   D46       -3.03905  -0.00010   0.00000  -0.00058  -0.00037  -3.03942
   D47        1.06748  -0.00477   0.00000  -0.03380  -0.03367   1.03381
   D48        3.03108   0.00488   0.00000   0.04592   0.04557   3.07665
   D49       -0.92085  -0.00024   0.00000  -0.00250  -0.00227  -0.92312
   D50       -2.73833  -0.00248   0.00000  -0.04794  -0.04764  -2.78597
   D51        1.33210  -0.00359   0.00000  -0.05671  -0.05625   1.27585
   D52       -0.71595  -0.00186   0.00000  -0.03286  -0.03288  -0.74883
   D53        1.47938   0.00017   0.00000  -0.04174  -0.04177   1.43760
   D54       -0.73338  -0.00095   0.00000  -0.05052  -0.05038  -0.78376
   D55       -2.78143   0.00078   0.00000  -0.02667  -0.02700  -2.80844
   D56       -0.66223   0.00164   0.00000   0.00588   0.00576  -0.65647
   D57       -2.87499   0.00053   0.00000  -0.00290  -0.00285  -2.87784
   D58        1.36015   0.00226   0.00000   0.02096   0.02053   1.38067
   D59        2.81806   0.00047   0.00000   0.00632   0.00673   2.82479
   D60       -1.06256   0.00101   0.00000   0.02537   0.02585  -1.03672
   D61       -1.36606   0.00054   0.00000   0.01789   0.01787  -1.34819
   D62        1.03651   0.00108   0.00000   0.03694   0.03698   1.07349
   D63        0.81421  -0.00126   0.00000  -0.01978  -0.02027   0.79395
   D64       -3.06641  -0.00072   0.00000  -0.00073  -0.00115  -3.06756
   D65       -2.54440   0.00039   0.00000   0.04469   0.04452  -2.49988
   D66        1.74827   0.00516   0.00000   0.06084   0.06126   1.80953
   D67       -0.55055  -0.00162   0.00000   0.01324   0.01297  -0.53757
   D68        1.34239  -0.00054   0.00000   0.02326   0.02310   1.36549
   D69       -0.64812   0.00424   0.00000   0.03941   0.03984  -0.60829
   D70       -2.94694  -0.00254   0.00000  -0.00819  -0.00845  -2.95539
         Item               Value     Threshold  Converged?
 Maximum Force            0.025020     0.000450     NO 
 RMS     Force            0.004651     0.000300     NO 
 Maximum Displacement     0.285100     0.001800     NO 
 RMS     Displacement     0.088210     0.001200     NO 
 Predicted change in Energy=-7.062654D-03
 GradGradGradGradGradGradGradGradGradGradGradGradGradGradGradGradGradGrad

                          Input orientation:                          
 ---------------------------------------------------------------------
 Center     Atomic      Atomic             Coordinates (Angstroms)
 Number     Number       Type             X           Y           Z
 ---------------------------------------------------------------------
      1          6           0        0.935717   -4.376084   -1.256624
      2          6           0        0.811723   -0.561867   -0.481625
      3          6           0       -0.703760   -2.333467    0.525896
      4          6           0        0.422872   -5.737810   -3.208993
      5          6           0        1.409395   -3.513736   -3.578960
      6          6           0        4.304910   -3.678915    2.073015
      7          6           0        1.466175   -3.057690   -0.657422
      8          6           0        0.310283   -2.015667   -0.583176
      9          7           0        2.074370   -3.461286    0.620242
     10          7           0        0.911195   -4.498039   -2.623500
     11          8           0        0.490626   -5.250312   -0.514528
     12          8           0        2.558494   -1.781439    2.556231
     13          8           0        3.876462   -1.699177    0.386042
     14         16           0        3.165739   -2.460999    1.410038
     15          1           0        1.263494   -0.354269    0.492329
     16          1           0        1.556408   -0.331620   -1.252972
     17          1           0       -0.027435    0.132476   -0.610341
     18          1           0       -0.266448   -2.185604    1.519082
     19          1           0       -1.077078   -3.362359    0.457305
     20          1           0       -1.562845   -1.659222    0.442602
     21          1           0       -0.428735   -5.544108   -3.873931
     22          1           0        0.108221   -6.396414   -2.402151
     23          1           0        1.216294   -6.226991   -3.790087
     24          1           0        2.375515   -3.814134   -4.008643
     25          1           0        1.521621   -2.534533   -3.117105
     26          1           0        0.688498   -3.412821   -4.398117
     27          1           0        5.092234   -3.136689    2.603019
     28          1           0        3.772502   -4.332534    2.767058
     29          1           0        4.728271   -4.251864    1.247244
     30          1           0        2.290601   -2.669218   -1.256244
     31          1           0       -0.234631   -2.098812   -1.535996
     32          1           0        1.411332   -3.907718    1.247101
 ---------------------------------------------------------------------
                    Distance matrix (angstroms):
                    1          2          3          4          5
     1  C    0.000000
     2  C    3.894131   0.000000
     3  C    3.168209   2.539755   0.000000
     4  C    2.434964   5.863458   5.177668   0.000000
     5  C    2.522154   4.320212   4.765323   2.461018   0.000000
     6  C    4.787902   5.333341   5.412077   6.870871   6.352647
     7  C    1.542269   2.586184   2.575531   3.844741   2.957463
     8  C    2.533036   1.541198   1.536008   4.556527   3.525193
     9  N    2.378238   3.348884   2.999814   4.751110   4.251852
    10  N    1.372525   4.482296   4.148752   1.455436   1.459438
    11  O    1.230076   4.699543   3.319190   2.739048   3.640134
    12  O    4.889116   3.710408   3.881919   7.311057   6.477797
    13  O    4.302577   3.382151   4.626047   6.415771   5.010019
    14  S    3.968834   3.567420   3.971271   6.292556   5.392875
    15  H    4.397871   1.093516   2.790777   6.587028   5.155474
    16  H    4.091817   1.096607   3.504301   5.859848   3.944325
    17  H    4.655369   1.096753   2.798094   6.435529   4.916508
    18  H    3.734696   2.793171   1.095228   5.953824   5.528329
    19  H    2.831349   3.505983   1.096672   4.618913   4.743090
    20  H    4.063437   2.774338   1.095250   5.823410   5.333516
    21  H    3.174319   6.153796   5.453653   1.097679   2.754657
    22  H    2.465504   6.182659   5.073490   1.088006   3.374576
    23  H    3.150081   6.572917   6.121589   1.098402   2.728299
    24  H    3.156329   5.046043   5.677707   2.855308   1.099206
    25  H    2.682533   3.367659   4.273664   3.387724   1.088459
    26  H    3.295143   4.845827   5.229655   2.624909   1.095853
    27  H    5.805995   5.870904   6.209118   7.896091   7.205716
    28  H    4.923339   5.791207   5.390361   6.993425   6.821045
    29  H    4.546235   5.651939   5.805820   6.372012   5.903560
    30  H    2.179244   2.688502   3.500707   4.088752   2.623880
    31  H    2.575603   2.137465   2.127568   4.058760   2.979687
    32  H    2.591181   3.813495   2.733499   4.917628   4.842117
                    6          7          8          9         10
     6  C    0.000000
     7  C    3.987433   0.000000
     8  C    5.077281   1.558015   0.000000
     9  N    2.670808   1.471468   2.578766   0.000000
    10  N    5.851967   2.499614   3.268973   3.598569   0.000000
    11  O    4.869644   2.404102   3.240395   2.645102   2.278279
    12  O    2.623715   3.626230   3.868486   2.608508   6.076440
    13  O    2.636059   2.957001   3.709067   2.531287   5.067917
    14  S    1.794594   2.742070   3.510677   1.677927   5.049944
    15  H    4.775149   2.944739   2.196716   3.213633   5.196473
    16  H    5.460846   2.791824   2.199425   3.684024   4.433249
    17  H    6.363672   3.522818   2.174699   4.341319   5.135709
    18  H    4.840881   2.915423   2.186547   2.813309   4.888270
    19  H    5.628190   2.793489   2.195666   3.157208   3.838536
    20  H    6.416226   3.512937   2.165151   4.063044   4.856000
    21  H    7.826398   4.485408   4.881097   5.549890   2.110272
    22  H    6.710000   4.004397   4.747677   4.649255   2.073063
    23  H    7.099874   4.463239   5.370325   5.276023   2.107910
    24  H    6.381804   3.553841   4.385601   4.652072   2.128516
    25  H    5.999472   2.515315   2.856109   3.890009   2.114621
    26  H    7.417870   3.837147   4.080302   5.206431   2.092022
    27  H    1.093065   4.876989   5.854535   3.625502   6.830144
    28  H    1.091957   4.321046   5.345923   2.872550   6.105128
    29  H    1.090598   3.961701   5.279169   2.839248   5.441813
    30  H    4.020062   1.090493   2.191303   2.048250   2.667721
    31  H    6.010750   2.141046   1.100778   3.440521   2.872607
    32  H    3.017826   2.086328   2.853432   1.015811   3.947173
                   11         12         13         14         15
    11  O    0.000000
    12  O    5.073334   0.000000
    13  O    4.988534   2.540379   0.000000
    14  S    4.317459   1.464345   1.460844   0.000000
    15  H    5.057896   2.823744   2.940692   2.983125   0.000000
    16  H    5.086720   4.197163   3.152654   3.770388   1.769855
    17  H    5.408510   4.514120   4.425849   4.583057   1.766154
    18  H    3.755152   3.036334   4.322510   3.444944   2.597832
    19  H    2.639417   4.485776   5.225783   4.440907   3.811576
    20  H    4.246030   4.633335   5.439747   4.892677   3.113449
    21  H    3.495301   8.026717   7.173952   7.095501   6.990156
    22  H    2.241183   7.203289   6.636090   6.274447   6.798542
    23  H    3.494250   7.863853   6.709519   6.710017   7.268437
    24  H    4.221878   6.874802   5.102857   5.640703   5.784981
    25  H    3.900232   5.816270   4.302922   4.817007   4.224712
    26  H    4.300905   7.383850   5.998989   6.385715   5.796707
    27  H    5.946537   2.873800   2.908527   2.364560   5.182289
    28  H    4.730944   2.833081   3.551706   2.390044   5.224567
    29  H    4.696634   3.538980   2.825502   2.382269   5.269328
    30  H    3.232970   3.923631   2.480532   2.813944   3.077571
    31  H    3.391363   4.964735   4.555768   4.513626   3.066253
    32  H    2.398666   2.747882   3.419932   2.279800   3.635730
                   16         17         18         19         20
    16  H    0.000000
    17  H    1.771135   0.000000
    18  H    3.800572   3.156750   0.000000
    19  H    4.364136   3.802038   1.780237   0.000000
    20  H    3.790413   2.583864   1.765371   1.771119   0.000000
    21  H    6.162811   6.560158   6.355350   4.892850   5.917010
    22  H    6.340314   6.771661   5.766052   4.334387   5.772873
    23  H    6.427133   7.218066   6.835101   5.613022   6.819369
    24  H    4.515813   5.735709   6.339387   5.662967   6.322018
    25  H    2.886006   3.974466   4.981283   4.496103   4.790784
    26  H    4.487650   5.237265   6.118107   5.166714   5.619272
    27  H    5.936257   6.871982   5.549320   6.535704   7.151250
    28  H    6.089255   6.766289   4.741294   5.458446   6.404344
    29  H    5.628509   6.729770   5.412074   5.925985   6.851816
    30  H    2.450187   3.693234   3.804579   3.841609   4.330729
    31  H    2.531974   2.424545   3.056477   2.505897   2.423271
    32  H    4.365763   4.673683   2.419627   2.667093   3.814274
                   21         22         23         24         25
    21  H    0.000000
    22  H    1.783504   0.000000
    23  H    1.783110   1.784068   0.000000
    24  H    3.297692   3.793364   2.685785   0.000000
    25  H    3.665271   4.174084   3.765684   1.778020   0.000000
    26  H    2.462795   3.636265   2.927084   1.777292   1.762519
    27  H    8.844639   7.779326   8.089789   7.180082   6.769911
    28  H    7.951166   6.663878   7.288300   6.937610   6.551538
    29  H    7.381804   6.265942   6.450566   5.775068   5.681494
    30  H    4.744688   4.468542   4.498027   2.982238   2.017988
    31  H    4.168174   4.397402   4.922192   3.983613   2.402952
    32  H    5.682305   4.605296   5.548904   5.344273   4.576472
                   26         27         28         29         30
    26  H    0.000000
    27  H    8.275569   0.000000
    28  H    7.854724   1.788476   0.000000
    29  H    6.992414   1.792822   1.797174   0.000000
    30  H    3.604309   4.791825   4.598870   3.835942   0.000000
    31  H    3.281847   6.825256   6.289905   6.083786   2.603924
    32  H    5.712784   3.997753   2.840046   3.334744   2.928094
                   31         32
    31  H    0.000000
    32  H    3.704992   0.000000
 Stoichiometry    C8H18N2O3S
 Framework group  C1[X(C8H18N2O3S)]
 Deg. of freedom    90
 Full point group                 C1      NOp   1
 Largest Abelian subgroup         C1      NOp   1
 Largest concise Abelian subgroup C1      NOp   1
                         Standard orientation:                         
 ---------------------------------------------------------------------
 Center     Atomic      Atomic             Coordinates (Angstroms)
 Number     Number       Type             X           Y           Z
 ---------------------------------------------------------------------
      1          6           0        1.657819   -0.479353   -0.462151
      2          6           0       -0.440761    2.523440    0.858249
      3          6           0        0.205881    2.112401   -1.563168
      4          6           0        3.980986   -1.170539   -0.229324
      5          6           0        2.901006   -0.083194    1.696276
      6          6           0       -2.820051   -2.143762   -0.142116
      7          6           0        0.402784    0.187588    0.136740
      8          6           0        0.466235    1.726288   -0.099456
      9          7           0       -0.719735   -0.530482   -0.487395
     10          7           0        2.788515   -0.536998    0.313754
     11          8           0        1.642482   -0.879143   -1.625344
     12          8           0       -3.145868    0.424100   -0.570841
     13          8           0       -2.102803   -0.321343    1.622296
     14         16           0       -2.259133   -0.469292    0.177396
     15          1           0       -1.500331    2.380149    0.628998
     16          1           0       -0.282032    2.236827    1.904769
     17          1           0       -0.226535    3.595429    0.769850
     18          1           0       -0.837635    1.932082   -1.842602
     19          1           0        0.853915    1.559957   -2.254215
     20          1           0        0.402133    3.180962   -1.701859
     21          1           0        4.824196   -0.467815   -0.238031
     22          1           0        3.765804   -1.488638   -1.247296
     23          1           0        4.260337   -2.044772    0.374138
     24          1           0        2.903680   -0.924672    2.403497
     25          1           0        2.088596    0.591778    1.959232
     26          1           0        3.840961    0.466997    1.817385
     27          1           0       -3.826544   -2.237074    0.273883
     28          1           0       -2.846291   -2.317316   -1.219874
     29          1           0       -2.140652   -2.842538    0.347305
     30          1           0        0.324581   -0.030760    1.202284
     31          1           0        1.502606    2.024497    0.121268
     32          1           0       -0.716025   -0.460188   -1.500764
 ---------------------------------------------------------------------
 Rotational constants (GHZ):      0.9165172      0.3875228      0.3509873
 Standard basis: 6-31G(d) (6D, 7F)
 There are   250 symmetry adapted basis functions of A   symmetry.
 Integral buffers will be    131072 words long.
 Raffenetti 2 integral format.
 Two-electron integral symmetry is turned on.
   250 basis functions,   488 primitive gaussians,   250 cartesian basis functions
    60 alpha electrons       60 beta electrons
       nuclear repulsion energy      1174.0390832625 Hartrees.
 NAtoms=   32 NActive=   32 NUniq=   32 SFac= 1.00D+00 NAtFMM=   60 NAOKFM=F Big=F
 One-electron integrals computed using PRISM.
 NBasis=   250 RedAO= T  NBF=   250
 NBsUse=   250 1.00D-06 NBFU=   250
 Initial guess read from the read-write file.
 B after Tr=     0.000000    0.000000    0.000000
         Rot=    1.000000    0.000000    0.000000    0.000000 Ang=   0.00 deg.
 Initial guess orbital symmetries:
       Occupied  (A) (A) (A) (A) (A) (A) (A) (A) (A) (A) (A) (A)
                 (A) (A) (A) (A) (A) (A) (A) (A) (A) (A) (A) (A)
                 (A) (A) (A) (A) (A) (A) (A) (A) (A) (A) (A) (A)
                 (A) (A) (A) (A) (A) (A) (A) (A) (A) (A) (A) (A)
                 (A) (A) (A) (A) (A) (A) (A) (A) (A) (A) (A) (A)
       Virtual   (A) (A) (A) (A) (A) (A) (A) (A) (A) (A) (A) (A)
                 (A) (A) (A) (A) (A) (A) (A) (A) (A) (A) (A) (A)
                 (A) (A) (A) (A) (A) (A) (A) (A) (A) (A) (A) (A)
                 (A) (A) (A) (A) (A) (A) (A) (A) (A) (A) (A) (A)
                 (A) (A) (A) (A) (A) (A) (A) (A) (A) (A) (A) (A)
                 (A) (A) (A) (A) (A) (A) (A) (A) (A) (A) (A) (A)
                 (A) (A) (A) (A) (A) (A) (A) (A) (A) (A) (A) (A)
                 (A) (A) (A) (A) (A) (A) (A) (A) (A) (A) (A) (A)
                 (A) (A) (A) (A) (A) (A) (A) (A) (A) (A) (A) (A)
                 (A) (A) (A) (A) (A) (A) (A) (A) (A) (A) (A) (A)
                 (A) (A) (A) (A) (A) (A) (A) (A) (A) (A) (A) (A)
                 (A) (A) (A) (A) (A) (A) (A) (A) (A) (A) (A) (A)
                 (A) (A) (A) (A) (A) (A) (A) (A) (A) (A) (A) (A)
                 (A) (A) (A) (A) (A) (A) (A) (A) (A) (A) (A) (A)
                 (A) (A) (A) (A) (A) (A) (A) (A) (A) (A) (A) (A)
                 (A) (A) (A) (A) (A) (A) (A) (A) (A) (A)
 Harris functional with IExCor=  402 diagonalized for initial guess.
 ExpMin= 1.17D-01 ExpMax= 2.19D+04 ExpMxC= 3.30D+03 IAcc=3 IRadAn=         5 AccDes= 0.00D+00
 HarFok:  IExCor=  402 AccDes= 0.00D+00 IRadAn=         5 IDoV= 1
 ScaDFX=  1.000000  1.000000  1.000000  1.000000
 FoFCou: FMM=F IPFlag=           0 FMFlag=      100000 FMFlg1=           0
         NFxFlg=           0 DoJE=T BraDBF=F KetDBF=T FulRan=T
         Omega=  0.000000  0.000000  1.000000  0.000000  0.000000 ICntrl=     500 IOpCl=  0
         NMat0=    1 NMatS0=    1 NMatT0=    0 NMatD0=    1 NMtDS0=    0 NMtDT0=    0
         I1Cent=           4 NGrid=           0.
 Petite list used in FoFCou.
 Requested convergence on RMS density matrix=1.00D-08 within 128 cycles.
 Requested convergence on MAX density matrix=1.00D-06.
 Requested convergence on             energy=1.00D-06.
 No special actions if energy rises.
 Integral accuracy reduced to 1.0D-05 until final iterations.
 Initial convergence to 1.0D-05 achieved.  Increase integral accuracy.
 SCF Done:  E(RB3LYP) =  -1049.00112251     A.U. after   13 cycles
             Convg  =    0.4743D-08             -V/T =  2.0073
 Calling FoFJK, ICntrl=      2127 FMM=F ISym2X=0 I1Cent= 0 IOpClX= 0 NMat=1 NMatS=1 NMatT=0.
 ***** Axes restored to original set *****
 -------------------------------------------------------------------
 Center     Atomic                   Forces (Hartrees/Bohr)
 Number     Number              X              Y              Z
 -------------------------------------------------------------------
      1        6          -0.003974687    0.000555250   -0.004064937
      2        6          -0.000132847   -0.001148784   -0.000110051
      3        6          -0.001155879   -0.001173774   -0.000075028
      4        6          -0.000309680   -0.001726883    0.000100867
      5        6          -0.000713878   -0.000627698    0.002204832
      6        6           0.002070317   -0.003290662    0.001300289
      7        6           0.003410548   -0.005414101    0.001064861
      8        6          -0.002611822    0.004579120   -0.000996669
      9        7          -0.000424307    0.003930882   -0.000820474
     10        7           0.001881966    0.002143324   -0.000541446
     11        8           0.001462795    0.000201967    0.001338588
     12        8          -0.004808182    0.003034458    0.003436645
     13        8           0.000793217    0.004752215   -0.007266176
     14       16           0.003281509   -0.006020190    0.002557601
     15        1           0.000720315   -0.000379119    0.000502231
     16        1           0.000000795   -0.000459864    0.000507394
     17        1          -0.000246969   -0.000610688    0.000330724
     18        1           0.000495027    0.000217966    0.000384007
     19        1           0.000969115    0.000849676    0.000090240
     20        1          -0.000099933    0.000312956    0.000428173
     21        1           0.000429122    0.000450871   -0.000163061
     22        1          -0.000227442   -0.000576228    0.000350862
     23        1          -0.000305962    0.000354184   -0.000208839
     24        1          -0.000265859   -0.000572674    0.000315450
     25        1           0.000398235    0.000202976   -0.000911781
     26        1          -0.000089014   -0.000083484   -0.000339127
     27        1          -0.000941222    0.000671496    0.000070783
     28        1           0.000044603   -0.000303657    0.000003641
     29        1          -0.000280074   -0.000083423    0.000007988
     30        1          -0.000529321    0.001960418    0.000120790
     31        1           0.001618213   -0.000594862   -0.000635669
     32        1          -0.000458701   -0.001151669    0.001017292
 -------------------------------------------------------------------
 Cartesian Forces:  Max     0.007266176 RMS     0.001921379

 GradGradGradGradGradGradGradGradGradGradGradGradGradGradGradGradGradGrad
 Berny optimization.
 Using GEDIIS/GDIIS optimizer.
 Internal  Forces:  Max     0.007957782 RMS     0.001262155
 Search for a local minimum.
 Step number   2 out of a maximum of  168
 All quantities printed in internal units (Hartrees-Bohrs-Radians)
 Mixed Optimization -- RFO/linear search
 Update second derivatives using D2CorX and points    1    2
 DE= -6.13D-03 DEPred=-7.06D-03 R= 8.68D-01
 SS=  1.41D+00  RLast= 3.31D-01 DXNew= 5.0454D-01 9.9426D-01
 Trust test= 8.68D-01 RLast= 3.31D-01 DXMaxT set to 5.05D-01
 ITU=  1  0
 Use linear search instead of GDIIS.
     Eigenvalues ---    0.00230   0.00233   0.00348   0.00366   0.00437
     Eigenvalues ---    0.00657   0.00895   0.00910   0.00927   0.01158
     Eigenvalues ---    0.01679   0.01780   0.01839   0.03074   0.04182
     Eigenvalues ---    0.04572   0.04802   0.04939   0.05359   0.05373
     Eigenvalues ---    0.05598   0.05659   0.06051   0.06262   0.06903
     Eigenvalues ---    0.07173   0.07462   0.07576   0.07667   0.09249
     Eigenvalues ---    0.09539   0.12507   0.13395   0.15691   0.16000
     Eigenvalues ---    0.16000   0.16000   0.16000   0.16000   0.16000
     Eigenvalues ---    0.16000   0.16000   0.16000   0.16000   0.16000
     Eigenvalues ---    0.16000   0.16000   0.16470   0.17276   0.17362
     Eigenvalues ---    0.17621   0.18038   0.18574   0.22843   0.24616
     Eigenvalues ---    0.24949   0.24970   0.25000   0.25664   0.27328
     Eigenvalues ---    0.27553   0.27929   0.29264   0.29746   0.32803
     Eigenvalues ---    0.33835   0.34154   0.34159   0.34261   0.34306
     Eigenvalues ---    0.34325   0.34344   0.34351   0.34356   0.34366
     Eigenvalues ---    0.34430   0.34552   0.34574   0.34633   0.34636
     Eigenvalues ---    0.34650   0.34886   0.36981   0.37315   0.39532
     Eigenvalues ---    0.43499   0.46336   0.86071   0.91710   0.95619
 RFO step:  Lambda=-1.80095286D-03 EMin= 2.29679267D-03
 Quartic linear search produced a step of -0.03026.
 Iteration  1 RMS(Cart)=  0.09416621 RMS(Int)=  0.00224238
 Iteration  2 RMS(Cart)=  0.00369350 RMS(Int)=  0.00013300
 Iteration  3 RMS(Cart)=  0.00000487 RMS(Int)=  0.00013299
 Iteration  4 RMS(Cart)=  0.00000000 RMS(Int)=  0.00013299
 Variable       Old X    -DE/DX   Delta X   Delta X   Delta X     New X
                                 (Linear)    (Quad)   (Total)
    R1        2.91447   0.00106   0.00065   0.00053   0.00118   2.91564
    R2        2.59370  -0.00078   0.00118  -0.00738  -0.00620   2.58749
    R3        2.32451   0.00013   0.00059  -0.00276  -0.00216   2.32234
    R4        2.91244  -0.00226  -0.00062  -0.00430  -0.00493   2.90752
    R5        2.06645   0.00067  -0.00009   0.00229   0.00220   2.06865
    R6        2.07229  -0.00045  -0.00010  -0.00078  -0.00088   2.07141
    R7        2.07256  -0.00024  -0.00006  -0.00040  -0.00045   2.07211
    R8        2.90263   0.00042  -0.00025   0.00260   0.00235   2.90498
    R9        2.06968   0.00058  -0.00008   0.00198   0.00190   2.07158
   R10        2.07241  -0.00113  -0.00014  -0.00250  -0.00263   2.06978
   R11        2.06972   0.00024   0.00003   0.00053   0.00056   2.07028
   R12        2.75038   0.00138   0.00014   0.00289   0.00303   2.75340
   R13        2.07431  -0.00015  -0.00021   0.00059   0.00038   2.07469
   R14        2.05603   0.00068   0.00026   0.00060   0.00086   2.05689
   R15        2.07568  -0.00027  -0.00024   0.00044   0.00020   2.07588
   R16        2.75794  -0.00179   0.00004  -0.00483  -0.00479   2.75315
   R17        2.07720  -0.00020  -0.00031   0.00095   0.00064   2.07784
   R18        2.05689  -0.00016   0.00005  -0.00070  -0.00065   2.05624
   R19        2.07086   0.00030  -0.00009   0.00129   0.00120   2.07206
   R20        3.39129   0.00312  -0.00093   0.01529   0.01436   3.40565
   R21        2.06559  -0.00031  -0.00006  -0.00059  -0.00064   2.06495
   R22        2.06350   0.00016  -0.00003   0.00057   0.00055   2.06405
   R23        2.06093  -0.00007   0.00005  -0.00045  -0.00040   2.06053
   R24        2.94422   0.00141  -0.00064   0.00800   0.00736   2.95158
   R25        2.78067  -0.00045   0.00133  -0.00784  -0.00651   2.77416
   R26        2.06073   0.00023   0.00020  -0.00034  -0.00014   2.06059
   R27        2.08017  -0.00021  -0.00012   0.00001  -0.00011   2.08006
   R28        3.17082  -0.00058  -0.00034   0.00024  -0.00010   3.17073
   R29        1.91961   0.00143   0.00062   0.00012   0.00075   1.92035
   R30        2.76721   0.00609  -0.00078   0.00996   0.00918   2.77639
   R31        2.76060   0.00796  -0.00055   0.01071   0.01016   2.77076
    A1        2.05898   0.00311   0.00055   0.01058   0.01034   2.06932
    A2        2.09163  -0.00328   0.00015  -0.01208  -0.01271   2.07892
    A3        2.13081   0.00023  -0.00064   0.00552   0.00409   2.13490
    A4        1.95215  -0.00045   0.00025  -0.00514  -0.00490   1.94725
    A5        1.95266  -0.00015  -0.00046   0.00126   0.00079   1.95345
    A6        1.91826  -0.00058   0.00020  -0.00308  -0.00288   1.91538
    A7        1.88186   0.00005   0.00031  -0.00367  -0.00337   1.87850
    A8        1.87595   0.00055  -0.00016   0.00427   0.00410   1.88005
    A9        1.87980   0.00066  -0.00013   0.00694   0.00681   1.88661
   A10        1.94254  -0.00058   0.00038  -0.00708  -0.00671   1.93583
   A11        1.95377  -0.00044  -0.00034  -0.00064  -0.00099   1.95278
   A12        1.91298   0.00060   0.00038   0.00319   0.00357   1.91655
   A13        1.89579   0.00027  -0.00015  -0.00027  -0.00044   1.89535
   A14        1.87449  -0.00011  -0.00005  -0.00104  -0.00108   1.87341
   A15        1.88157   0.00029  -0.00023   0.00621   0.00597   1.88754
   A16        1.93229  -0.00081  -0.00105  -0.00063  -0.00167   1.93062
   A17        1.89056   0.00063   0.00218  -0.00552  -0.00335   1.88721
   A18        1.92818  -0.00006  -0.00097   0.00391   0.00294   1.93112
   A19        1.90888   0.00027  -0.00032   0.00418   0.00384   1.91272
   A20        1.89497  -0.00008   0.00047  -0.00554  -0.00504   1.88993
   A21        1.90883   0.00006  -0.00033   0.00377   0.00343   1.91227
   A22        1.95156  -0.00137  -0.00187  -0.00022  -0.00209   1.94947
   A23        1.94351   0.00178   0.00081   0.00806   0.00887   1.95238
   A24        1.90384  -0.00004  -0.00004  -0.00028  -0.00032   1.90352
   A25        1.89769  -0.00016   0.00022  -0.00158  -0.00137   1.89632
   A26        1.88721   0.00016   0.00067  -0.00529  -0.00461   1.88259
   A27        1.87776  -0.00038   0.00026  -0.00111  -0.00086   1.87690
   A28        1.87517  -0.00150   0.00027  -0.01062  -0.01035   1.86482
   A29        1.90873   0.00046  -0.00023   0.00350   0.00327   1.91200
   A30        1.89994   0.00007   0.00002   0.00102   0.00104   1.90098
   A31        1.91765   0.00031   0.00002   0.00027   0.00028   1.91793
   A32        1.92638   0.00079  -0.00024   0.00661   0.00638   1.93275
   A33        1.93485  -0.00017   0.00015  -0.00106  -0.00092   1.93393
   A34        1.91248   0.00010  -0.00017   0.00329   0.00317   1.91565
   A35        1.81836   0.00134   0.00087   0.00662   0.00749   1.82585
   A36        1.92965   0.00083  -0.00159   0.02707   0.02554   1.95519
   A37        2.03612  -0.00178  -0.00124  -0.00763  -0.00898   2.02714
   A38        1.92709  -0.00073   0.00075  -0.01906  -0.01847   1.90861
[...]
 769,-0.00002639,0.00004002,-0.17827472,-0.09768877,-0.09942505,-0.0009
 3067,0.00008907,0.00146105,-0.00011619,-0.00011968,-0.00054419,-0.0019
 4339,0.00142705,-0.00457535,-0.00003501,-0.00012765,-0.00015234,-0.000
 05265,-0.00011014,-0.00010229,0.00192820,0.00165059,0.00215562,0.00159
 549,0.00087448,0.00098656,-0.01393716,-0.01234038,-0.00988261,0.000000
 59,0.00003903,0.00003246,0.00000584,0.00000771,-0.00001958,0.00002263,
 0.00003597,0.00001998,0.00000397,-0.00003529,0.00000338,0.00002289,-0.
 00000168,0.00000776,-0.00002914,0.00000949,0.00000521,-0.00000952,-0.0
 0000972,-0.00001304,0.00000091,0.00000930,0.00001449,-0.00000244,-0.00
 001900,-0.00002055,0.00000888,-0.00000538,-0.00002193,-0.00001238,-0.0
 0001180,0.00001573,-0.00000235,0.00000406,-0.00001512,0.18793415,-0.00
 002788,-0.00051762,-0.00003584,0.00003746,0.00003548,-0.00000855,-0.00
 002999,-0.00004821,0.00003100,-0.00003560,-0.00004958,0.00001486,0.000
 02495,0.00001086,-0.00003482,-0.09747337,-0.12017151,-0.07598328,0.001
 19682,0.00028865,-0.00107474,0.00010963,0.00010656,0.00042754,0.003030
 48,-0.00033013,0.00467449,0.00004120,0.00016716,0.00010410,0.00002629,
 0.00021004,0.00000981,-0.00150900,-0.00104339,-0.00057286,-0.00147444,
 -0.00035002,-0.00131342,0.01511471,0.01103795,0.01042196,-0.00000366,-
 0.00002606,-0.00001568,-0.00000591,-0.00000357,0.00002304,-0.00001599,
 -0.00003433,-0.00000703,-0.00000630,0.00002468,0.00000317,-0.00001551,
 0.00000192,-0.00000156,0.00002770,-0.00000626,-0.00000343,0.00000648,0
 .00001179,0.00000955,0.00000364,-0.00000801,-0.00001057,0.00000377,0.0
 0001893,0.00002220,-0.00000606,0.00000829,0.00002022,0.00001405,0.0000
 1333,-0.00001675,0.00000091,-0.00000148,0.00001049,0.10453434,0.126384
 76,0.00005287,0.00014956,0.00015161,-0.00004161,-0.00005005,-0.0000218
 7,0.00001371,0.00004231,-0.00003077,0.00002368,0.00003373,-0.00000179,
 -0.00001891,-0.00002573,0.00002922,-0.09977338,-0.07627751,-0.12655677
 ,-0.00048071,0.00004922,0.00081715,-0.00008219,-0.00007712,-0.00030172
 ,-0.00211151,0.00079896,-0.00145867,-0.00002695,-0.00005353,-0.0000852
 5,-0.00004157,-0.00004479,-0.00006204,0.00121216,0.00043243,0.00060281
 ,0.00180692,0.00098430,0.00031584,-0.00775176,-0.00705960,-0.00650699,
 -0.00000233,0.00001204,0.00003287,0.00000469,0.00000486,-0.00002325,0.
 00001933,0.00002354,0.00001516,-0.00000305,-0.00001725,-0.00000546,0.0
 0001371,-0.00000102,0.00000115,-0.00001707,0.00000374,0.00000259,-0.00
 000761,-0.00000474,-0.00000799,0.00000312,0.00000574,0.00000803,0.0000
 0016,-0.00001088,-0.00000874,0.00000653,-0.00000544,-0.00001178,-0.000
 00757,-0.00000852,0.00001152,-0.00000308,0.00000376,-0.00001011,0.1099
 8701,0.08129218,0.13100655,0.00001486,0.00000580,-0.00005094,0.0000292
 3,0.00007540,-0.00003206,-0.00001405,-0.00002398,-0.00001580,-0.000013
 43,-0.00001227,0.00000128,0.00001074,0.00002884,-0.00000667,-0.1177482
 9,-0.08923478,0.08493903,0.00025270,-0.00000715,-0.00003932,0.00008089
 ,0.00004520,0.00014320,-0.00044495,-0.00126747,0.00199218,0.00000575,0
 .00000742,0.00006398,-0.00001726,-0.00009150,0.00005546,-0.00088482,-0
 .00173299,0.00062027,-0.00190136,0.00531103,-0.00445178,0.01191202,0.0
 1372691,-0.01264371,0.00002463,-0.00003347,-0.00005339,0.00000513,-0.0
 0003305,0.00008985,-0.00004961,-0.00001791,-0.00000734,0.00003543,0.00
 001661,0.00000144,-0.00001509,-0.00000660,-0.00000131,0.00000875,-0.00
 000241,0.00000972,0.00000363,0.00000111,0.00000310,-0.00000116,-0.0000
 0320,-0.00000484,-0.00000015,0.00000428,0.00000331,-0.00000398,-0.0000
 0257,0.00000403,0.00000433,0.00000164,0.00000236,0.00000184,-0.0000038
 3,0.00000616,-0.00905405,-0.01280568,0.01474456,0.12424464,0.00002121,
 0.00005319,-0.00008037,-0.00001032,-0.00005988,0.00003864,0.00002383,0
 .00002044,0.00003316,0.00000362,-0.00000161,-0.00000920,-0.00000698,-0
 .00001014,-0.00000463,-0.08923108,-0.15890873,0.10404399,-0.00003021,0
 .00006421,0.00035990,-0.00007888,-0.00004511,-0.00014464,0.00052107,0.
 00108398,-0.00194866,-0.00000813,-0.00001190,0.00001018,0.00002953,0.0
 0000850,0.00003464,0.00149187,0.00207769,-0.00226996,0.00300049,-0.002
 74064,0.00298611,-0.01354687,-0.01295235,0.01206173,-0.00002516,0.0000
 0382,0.00007026,-0.00000933,0.00003409,-0.00009543,0.00005357,0.000015
 06,0.00000830,-0.00001833,-0.00001136,-0.00000223,0.00000513,0.0000064
 5,-0.00000503,-0.00000346,-0.00000274,-0.00000773,0.00000077,-0.000001
 66,0.00000252,-0.00000301,0.00000122,-0.00000143,-0.00000072,-0.000000
 76,-0.00000104,0.00000039,0.00000021,0.00000123,-0.00000497,-0.0000012
 3,-0.00000243,0.00000120,0.00000050,0.00000100,-0.00591939,-0.00863507
 ,0.00922388,0.09531459,0.16677262,0.00003981,0.00016595,-0.00029157,0.
 00001812,0.00005361,-0.00000971,-0.00000330,-0.00001919,-0.00000844,-0
 .00001720,-0.00002370,-0.00000303,0.00002397,0.00005381,-0.00003117,0.
 08513157,0.10464819,-0.14766499,0.00002263,-0.00015947,-0.00031847,0.0
 0004823,0.00003224,0.00014939,-0.00047284,-0.00161870,0.00123699,-0.00
 000631,-0.00000490,0.00016291,0.00004239,-0.00021031,0.00019489,-0.000
 66551,-0.00153593,0.00101164,-0.00198384,0.00269246,-0.00034414,0.0077
 3097,0.00645847,-0.00861271,0.00001624,-0.00000287,-0.00005234,0.00000
 541,-0.00002211,0.00006377,-0.00003503,-0.00002357,-0.00001112,0.00000
 507,0.00001173,0.00000407,-0.00002189,-0.00000374,-0.00000028,0.000011
 90,-0.00000683,0.00000530,0.00000894,-0.00000067,0.00000992,-0.0000109
 7,-0.00000545,-0.00001124,-0.00000054,0.00000971,0.00000257,-0.0000077
 7,-0.00000060,0.00001808,0.00000664,-0.00000374,-0.00000368,0.00000016
 ,-0.00000916,0.00001582,-0.00801558,-0.01226914,0.01254579,-0.09066048
 ,-0.11445268,0.15387981,-0.00007943,0.00024289,-0.00035726,0.00005835,
 0.00003260,0.00009243,0.00003157,-0.00003326,0.00006753,-0.00001945,-0
 .00002598,-0.00002115,0.00000558,0.00004295,-0.00002812,-0.09830604,0.
 05629192,0.09291823,-0.00002975,-0.00036681,-0.00041823,0.00006925,0.0
 0002325,0.00015504,0.00102296,-0.00110461,-0.00109389,0.00001362,-0.00
 006713,0.00008586,0.00010058,-0.00016124,0.00012552,-0.00299459,0.0048
 9900,-0.00084038,0.00113887,-0.00196118,-0.00152517,-0.00944431,0.0085
 9667,0.01763602,0.00000995,-0.00005140,0.00005325,-0.00000310,0.000005
 96,-0.00003103,-0.00000819,-0.00001505,-0.00003288,0.00002861,0.000026
 26,-0.00001035,-0.00002639,-0.00000309,-0.00001101,0.00001002,-0.00000
 407,-0.00001437,0.00001106,-0.00000387,0.00001131,-0.00001376,-0.00000
 243,-0.00000790,-0.00000371,0.00000293,-0.00000648,-0.00000786,-0.0000
 0390,0.00000083,-0.00000856,0.00000802,-0.00000595,0.00001011,-0.00000
 473,0.00001500,0.01276988,-0.01123774,-0.01709980,-0.00595461,0.007890
 62,0.00969795,0.10170556,0.00005407,0.00003512,0.00003952,-0.00003950,
 -0.00002489,-0.00009214,-0.00001280,0.00002457,-0.00006202,-0.00000292
 ,0.00000257,0.00001112,0.00001580,0.00002723,-0.00002024,0.05629648,-0
 .11476762,-0.10604070,0.00000878,0.00032492,0.00020571,-0.00004890,-0.
 00003981,-0.00010147,-0.00134976,0.00016781,0.00109671,-0.00000171,0.0
 0002017,0.00004292,-0.00000154,-0.00009100,0.00003476,0.00471885,-0.00
 315732,0.00092443,-0.00182257,0.00174066,0.00193511,0.00787775,-0.0100
 5115,-0.01818016,-0.00000108,0.00005872,-0.00005871,0.00000317,-0.0000
 0735,0.00004642,0.00000374,0.00000268,0.00002769,-0.00003158,-0.000031
 72,0.00001260,0.00001179,0.00000250,0.00001755,-0.00000208,-0.00000119
 ,0.00001224,0.00000292,-0.00000232,0.00000098,-0.00000668,-0.00000134,
 -0.00000096,0.00000062,0.00000459,-0.00000306,-0.00000135,0.00000554,0
 .00001174,0.00001073,-0.00001391,-0.00000141,-0.00000621,-0.00000733,0
 .00000306,0.00726230,-0.00667837,-0.00974723,-0.00941200,0.01306448,0.
 01592262,-0.06337044,0.11931473,-0.00005329,0.00006191,-0.00001108,0.0
 0003821,-0.00000761,0.00004906,0.00001946,-0.00001352,0.00002680,-0.00
 000543,0.00000205,-0.00001274,-0.00001697,-0.00000585,0.00001187,0.094
 36543,-0.10734173,-0.21664184,0.00016305,-0.00027521,0.00006084,0.0000
 3862,0.00002532,0.00002329,-0.00002571,0.00062753,-0.00001124,0.000010
 65,-0.00005303,-0.00005620,0.00001001,0.00000140,-0.00004354,-0.003367
 65,0.00341258,0.00157643,-0.00004000,-0.00075459,-0.00019923,-0.005577
 72,0.00615071,0.00841246,-0.00000002,-0.00002049,0.00004860,-0.0000003
 9,0.00000414,-0.00001512,-0.00000331,-0.00000091,-0.00001258,0.0000271
 5,0.00001335,-0.00000793,-0.00000651,-0.00000225,-0.00000632,0.0000001
 8,0.00000128,-0.00000719,0.00000128,-0.00000336,-0.00000066,0.00000016
 ,0.00000205,0.00000288,-0.00000245,-0.00000639,-0.00000695,-0.00000013
 ,-0.00000481,-0.00001742,-0.00001029,0.00000946,0.00000398,0.00000941,
 0.00000332,-0.00000234,0.00790490,-0.00587828,-0.01025009,0.00600475,-
 0.01006758,-0.01176112,-0.09951561,0.11398183,0.22892148,-0.00559556,-
 0.00141786,0.00697951,0.00116254,-0.00157946,0.00015517,-0.00210056,0.
 00378955,-0.00185507,0.00007638,-0.00004611,-0.00033919,-0.00004285,-0
 .00131410,0.00047022,-0.00003798,0.00000832,0.00015846,-0.20496746,-0.
 08038507,0.11321798,-0.01898297,-0.00678199,0.01403080,0.01198577,0.00
 707826,-0.00915185,0.00016847,-0.00040851,-0.00079018,0.00022385,-0.00
 116374,-0.00131465,-0.00026604,-0.00018943,0.00020339,-0.00185557,-0.0
 0044671,-0.00042583,0.00131867,0.00048800,-0.00185587,0.00008429,0.000
 09776,-0.00005592,0.00057185,0.00098281,-0.00020282,0.00017438,-0.0003
 0097,-0.00036965,0.00008859,0.00005651,0.00011665,0.00024697,-0.000071
 34,-0.00022546,-0.00092650,-0.00025114,0.00107657,-0.00002244,0.000049
 36,0.00001100,0.00006281,0.00013128,0.00012625,-0.00000470,-0.00004230
 ,-0.00000142,0.00015396,0.00044508,0.00016253,0.00077304,0.00090885,-0
 .00119676,0.00016967,0.00042385,0.00015469,0.00003089,-0.00001059,0.00
 000884,0.00009174,-0.00005151,0.00006966,-0.00003282,0.00003613,-0.000
 01148,0.21816382,-0.01883664,-0.00787598,0.01940550,0.00108189,0.00150
 583,-0.00111172,0.00311313,-0.00349996,0.00100582,0.00033272,-0.000242
 73,-0.00002466,0.00001325,-0.00004227,0.00023574,-0.00011227,-0.000152
 32,0.00027396,-0.07772213,-0.08490604,0.05454416,0.01794823,0.00701933
 ,-0.01321796,-0.00414842,-0.00424775,0.00740026,0.00107610,0.00004882,
 -0.00065274,-0.00152845,-0.00629492,-0.00263007,0.00004305,0.00015023,
 0.00027040,-0.00058965,-0.00082282,-0.00064981,-0.00086879,0.00038312,
 -0.00109320,-0.00010076,-0.00018438,-0.00009246,-0.00016168,-0.0004828
 4,0.00046753,-0.00018453,0.00026082,0.00010926,-0.00018745,-0.00001988
 ,-0.00007798,-0.00003133,0.00000223,0.00019056,0.00109337,0.00038113,-
 0.00110747,0.00004268,0.00018136,0.00000361,0.00008576,0.00014288,0.00
 020428,-0.00001713,-0.00009437,-0.00002409,0.00008899,0.00017018,-0.00
 008685,-0.00005681,0.00141010,-0.00041007,0.00014532,0.00025802,0.0000
 3518,0.00003118,0.00001504,-0.00002917,0.00007816,-0.00005568,0.000002
 56,0.00003550,-0.00002167,0.00003698,0.08000882,0.09653381,-0.01034175
 ,-0.00057333,0.01146063,-0.00034327,0.00052742,0.00013330,0.00028997,-
 0.00045217,0.00090509,0.00021872,-0.00024039,0.00004196,-0.00104314,-0
 .00078027,-0.00321922,-0.00030630,-0.00021805,0.00015911,0.10505257,0.
 05110083,-0.12392118,0.00369848,0.00078442,-0.00024109,0.01763275,0.01
 724396,-0.02741155,0.00098088,0.00101614,-0.00051659,-0.00037574,-0.00
 461937,-0.00020804,-0.00119692,-0.00092038,0.00024098,-0.00051836,-0.0
 0100204,0.00317557,0.00553820,0.00486941,-0.00378554,0.00005295,-0.000
 01814,-0.00007404,-0.00005290,-0.00041295,0.00016120,-0.00021376,0.000
 04691,0.00011396,-0.00022109,0.00012015,0.00009322,0.00007062,0.000013
 67,-0.00009519,0.00016171,0.00009090,-0.00008176,0.00005504,0.00004420
 ,0.00003325,0.00006448,0.00010980,0.00002067,0.00001540,-0.00004548,-0
 .00002689,-0.00003748,-0.00023916,-0.00029575,-0.00171016,-0.00102166,
 -0.00463580,0.00002482,0.00015112,0.00000827,-0.00005164,-0.00000337,-
 0.00003752,0.00014110,-0.00015607,0.00013542,-0.00003073,0.00002031,-0
 .00002853,-0.11513368,-0.06440774,0.15319473,-0.00000565,-0.00040177,-
 0.00218190,-0.00493214,-0.00159144,-0.01094670,0.00875032,0.00041253,0
 .02461955,0.00014081,0.00015905,0.00028469,0.00011337,0.00038203,0.000
 51993,-0.00029314,-0.00040325,-0.00028500,-0.00973570,0.00042899,-0.02
 223409,-0.09277980,-0.00166372,-0.09433186,-0.00519942,0.00305734,-0.0
 0179020,0.00061946,-0.00008533,0.00038399,0.00011201,0.00029447,0.0005
 6831,0.00002598,-0.00016867,-0.00049296,-0.00033659,-0.00019526,0.0001
 1580,0.00160735,0.00200542,0.00147038,0.00012800,-0.00228920,0.0001934
 3,-0.00009256,0.00042139,-0.00000193,0.00082256,0.00017055,0.00068032,
 -0.00325413,-0.00141806,0.00399964,0.00080877,0.00011852,-0.00091599,0
 .00123355,0.00033843,-0.00063160,-0.00003252,0.00001030,-0.00001418,-0
 .00003507,-0.00007556,-0.00003854,-0.00002418,-0.00003335,-0.00003667,
 -0.00007729,-0.00026531,0.00000561,-0.00066220,0.00007534,0.00021635,0
 .00001071,0.00011454,0.00022411,-0.00014544,0.00013305,-0.00008271,0.0
 0001795,-0.00001682,0.00003115,0.00003799,-0.00002557,-0.00000384,0.00
 028825,-0.00068569,0.00033833,0.10326751,0.00073358,-0.00065286,0.0022
 5985,-0.01471669,-0.00498830,-0.03094517,0.00303408,0.00020748,0.00800
 504,-0.00013350,-0.00025915,-0.00014797,0.00047277,0.00009707,-0.00067
 887,0.00035392,0.00052742,0.00032555,0.00848681,-0.00122073,0.01932146
 ,-0.00221231,-0.04747430,-0.00663531,0.00586305,-0.00185771,0.00227095
 ,-0.00030989,-0.00018874,-0.00039772,0.00004926,-0.00017750,-0.0005728
 8,-0.00022361,0.00066442,0.00029186,0.00015040,0.00061971,-0.00021483,
 -0.00107910,-0.00334584,-0.00114712,-0.00219357,-0.00613734,-0.0005581
 7,0.00020461,0.00116117,0.00071384,0.00059817,0.00144802,0.00008939,-0
 .00110100,0.00015406,0.00114415,0.00057278,0.00019577,-0.00003662,-0.0
 0001792,0.00024847,-0.00068213,0.00005275,-0.00000963,0.00000600,0.000
 01976,0.00001215,0.00001688,-0.00000412,0.00006076,0.00004265,0.000013
 24,-0.00003820,0.00005697,0.00004400,0.00000515,-0.00012360,0.00009510
 ,-0.00001562,-0.00000870,0.00016977,-0.00015103,0.00009452,-0.00004489
 ,0.00004062,-0.00004418,-0.00005182,0.00004286,-0.00001400,-0.00021891
 ,0.00048172,-0.00034283,0.00142169,0.06011297,-0.00100460,-0.00044071,
 -0.00143705,-0.00240626,-0.00097333,-0.00460310,-0.00790073,-0.0001573
 4,-0.02250150,0.00005947,0.00014582,0.00015779,0.00067030,-0.00025774,
 -0.00011744,-0.00004958,0.00001246,0.00000749,-0.00018930,0.00042876,-
 0.00106192,-0.09397177,-0.00535257,-0.25012971,-0.00053344,0.00028272,
 0.00093597,0.00119884,-0.00045969,0.00056309,0.00011738,0.00014014,0.0
 0059070,-0.00035106,0.00006530,0.00000225,-0.00026667,-0.00002701,0.00
 010673,0.00105867,-0.00004631,0.00016262,-0.00017428,-0.00107617,0.001
 24347,-0.00027934,-0.00038885,0.00057228,0.00042753,-0.00030969,0.0002
 7795,0.00386243,0.00140698,-0.00206701,-0.00005037,0.00033062,0.000724
 22,-0.00001411,-0.00059960,0.00090060,-0.00002493,0.00005383,0.0000503
 9,-0.00002532,-0.00002512,-0.00004201,-0.00001281,-0.00003198,-0.00002
 007,0.00001013,-0.00028815,-0.00002484,-0.00007661,-0.00038794,-0.0004
 7185,-0.00004878,0.00011449,0.00020661,0.00000196,0.00001294,-0.000007
 13,0.00000599,-0.00000300,0.00000501,-0.00000763,0.00000933,-0.0000107
 9,-0.00052598,0.00036006,0.00012625,0.10026808,0.00792979,0.27589303,0
 .00142826,0.00142172,-0.00183355,-0.00024450,0.00009554,0.00018279,-0.
 00004047,0.00039502,-0.00026511,0.00004966,-0.00007368,-0.00008095,0.0
 0016238,0.00016911,0.00000669,0.00006435,0.00030321,-0.00066646,0.0113
 1613,0.01009207,-0.00878585,0.00096906,0.00043819,-0.00113759,-0.19690
 021,-0.14783204,0.14060813,-0.00029868,-0.00054121,0.00086133,-0.00277
 204,-0.00071460,0.00091979,0.00091139,0.00153721,0.00011951,0.00018621
 ,-0.00256279,-0.00138351,-0.01135968,-0.00382463,0.01330424,0.00008293
 ,-0.00000699,-0.00001859,-0.00009039,-0.00014827,0.00004479,-0.0000204
 8,0.00008889,-0.00000956,-0.00080897,0.00094608,0.00047077,-0.00066174
 ,-0.00015428,-0.00031646,0.00011097,-0.00029949,0.00033173,0.00000075,
 0.00000676,-0.00000780,-0.00000844,-0.00007708,-0.00004315,-0.00003353
 ,-0.00001684,0.00004041,-0.00003189,-0.00002421,0.00005027,-0.00001057
 ,-0.00008937,0.00006396,-0.00004196,-0.00010570,0.00003670,0.00019540,
 0.00035220,-0.00034550,-0.00064146,0.00060729,-0.00100955,-0.00009139,
 -0.00016642,0.00004757,-0.00100051,0.00001358,-0.00275908,-0.00037878,
 -0.00002845,0.00023274,0.19995818,0.00187273,0.00450839,-0.00442158,0.
 00015144,-0.00034053,0.00009889,0.00037719,0.00081627,0.00107044,-0.00
 016730,-0.00024294,-0.00008225,0.00010665,0.00059329,-0.00017343,0.000
 51591,-0.00022951,-0.00071845,-0.00272102,-0.00330963,0.00829941,-0.00
 154288,-0.00043434,0.00027151,-0.12165214,-0.10754206,0.11380194,-0.00
 039540,-0.00068193,0.00248152,-0.00055595,-0.00372163,0.00271725,0.004
 18299,0.00304561,-0.00008006,-0.00284045,0.00022992,-0.00133294,-0.017
 91460,-0.01456032,0.00947400,-0.00004289,-0.00024906,0.00002298,0.0000
 9228,0.00010476,-0.00016863,0.00000027,-0.00000486,-0.00008002,0.00072
 256,-0.00068642,-0.00103068,-0.00021292,0.00002149,-0.00003282,-0.0003
 4926,-0.00002562,-0.00063110,0.00006722,-0.00000373,0.00011688,-0.0000
 8729,-0.00013627,-0.00014760,-0.00001193,0.00006232,0.00005843,-0.0000
 8217,-0.00014597,0.00019007,-0.00003936,-0.00009042,0.00011164,-0.0000
 0764,-0.00013499,0.00020022,-0.00010470,-0.00028080,0.00025781,0.00011
 877,0.00019178,0.00036558,0.00037019,0.00005785,0.00011572,0.00017516,
 -0.00000101,-0.00068587,-0.00022464,0.00043711,-0.00046803,0.14019917,
 0.12275322,0.00247159,0.00497965,-0.00550525,0.00004933,-0.00015958,-0
 .00004673,0.00002565,0.00045174,0.00042953,-0.00014903,-0.00023092,0.0
 0003490,0.00023327,0.00072911,-0.00029009,0.00038355,0.00019493,-0.000
 82369,0.02211908,0.01229962,-0.01726183,0.00023290,-0.00052239,0.00055
 724,0.13278079,0.12654654,-0.19524745,-0.00022193,-0.00027348,0.001946
 15,-0.00013804,-0.00121981,0.00464982,0.00110987,0.00076832,-0.0021149
 7,-0.00512140,-0.00441739,0.00023226,-0.01040153,-0.00973194,0.0145866
 9,-0.00007837,0.00004257,0.00006420,-0.00003704,-0.00007584,-0.0000383
 4,0.00000682,0.00002005,0.00005392,0.00013333,-0.00028128,0.00025295,-
 0.00033240,-0.00003499,0.00000370,-0.00009481,-0.00017874,0.00007698,0
 .00005553,0.00000297,0.00008710,-0.00008168,-0.00018110,-0.00015188,-0
 .00002058,0.00004850,0.00008685,-0.00011150,-0.00015439,0.00009478,-0.
 00011320,-0.00032784,0.00005137,-0.00004878,-0.00022458,0.00007334,0.0
 0008989,0.00015179,-0.00015235,-0.00086415,0.00037657,-0.00031738,0.00
 019895,-0.00004859,-0.00003477,-0.00348591,0.00107013,-0.00542493,0.00
 006848,-0.00001880,-0.00003203,-0.13865867,-0.12960084,0.20415992\\-0.
 00000420,-0.00000733,0.00000192,0.00000156,0.00000032,-0.00000144,-0.0
 0000328,-0.00000164,0.00000039,-0.00000238,0.00000269,0.00000018,-0.00
 000447,-0.00000118,0.00000389,0.00000344,-0.00000313,0.00000073,-0.000
 00052,-0.00000113,-0.00000585,0.00000962,-0.00000155,0.00000109,-0.000
 01401,0.00001565,0.00000889,0.00001132,-0.00000289,0.00000002,-0.00000
 039,0.00000633,-0.00000422,-0.00000008,-0.00000365,0.00000576,0.000005
 99,0.00000376,-0.00000738,-0.00000714,-0.00000848,-0.00000339,0.000002
 37,-0.00000094,0.00000158,0.00000104,-0.00000044,0.00000117,0.00000119
 ,-0.00000056,0.00000099,0.00000056,-0.00000028,0.00000193,0.00000135,0
 .00000188,0.00000170,0.00000195,0.00000190,0.00000024,-0.00000241,0.00
 000072,-0.00000069,-0.00000112,0.00000059,0.00000076,-0.00000191,0.000
 00152,-0.00000148,0.00000042,0.00000091,-0.00000023,-0.00000089,0.0000
 0106,-0.00000153,-0.00000053,0.00000014,-0.00000140,-0.00000102,-0.000
 00075,-0.00000070,-0.00000078,-0.00000130,-0.00000007,-0.00000061,-0.0
 0000199,-0.00000052,-0.00000071,0.00000119,-0.00000146,0.00000113,-0.0
 0000095,-0.00000175,0.00000449,-0.00000049,0.00000085\\\@


 A HARD FALL SHOULD MEAN A HIGH BOUNCE 
 IF ONE IS MADE OF THE RIGHT MATERIAL.

                -- THE CHEMIST ANALYST, MARCH 1950
 Job cpu time:  0 days  2 hours 30 minutes 17.9 seconds.
 File lengths (MBytes):  RWF=    268 Int=      0 D2E=      0 Chk=      6 Scr=      1
 Normal termination of Gaussian 09 at Fri Feb 16 20:57:27 2018.
