 Entering Gaussian System, Link 0=g09
 Initial command:
 /home/fb_chem/chemsoft/lx24-amd64/Gaussian_09_C.01_NBO_3.1_64_istanbul-64/g09/l1.exe /local/2400030.1.parallel_long/Gau-17182.inp -scrdir=/local/2400030.1.parallel_long/
 Entering Link 1 = /home/fb_chem/chemsoft/lx24-amd64/Gaussian_09_C.01_NBO_3.1_64_istanbul-64/g09/l1.exe PID=     17183.
  
 Copyright (c) 1988,1990,1992,1993,1995,1998,2003,2009,2011,
            Gaussian, Inc.  All Rights Reserved.
  
 This is part of the Gaussian(R) 09 program.  It is based on
 the Gaussian(R) 03 system (copyright 2003, Gaussian, Inc.),
 the Gaussian(R) 98 system (copyright 1998, Gaussian, Inc.),
 the Gaussian(R) 94 system (copyright 1995, Gaussian, Inc.),
 the Gaussian 92(TM) system (copyright 1992, Gaussian, Inc.),
 the Gaussian 90(TM) system (copyright 1990, Gaussian, Inc.),
 the Gaussian 88(TM) system (copyright 1988, Gaussian, Inc.),
 the Gaussian 86(TM) system (copyright 1986, Carnegie Mellon
 University), and the Gaussian 82(TM) system (copyright 1983,
 Carnegie Mellon University). Gaussian is a federally registered
 trademark of Gaussian, Inc.
  
 This software contains proprietary and confidential information,
 including trade secrets, belonging to Gaussian, Inc.
  
 This software is provided under written license and may be
 used, copied, transmitted, or stored only in accord with that
 written license.
  
 The following legend is applicable only to US Government
 contracts under FAR:
  
                    RESTRICTED RIGHTS LEGEND
  
 Use, reproduction and disclosure by the US Government is
 subject to restrictions as set forth in subparagraphs (a)
 and (c) of the Commercial Computer Software - Restricted
 Rights clause in FAR 52.227-19.
  
 Gaussian, Inc.
 340 Quinnipiac St., Bldg. 40, Wallingford CT 06492
  
  
 ---------------------------------------------------------------
 Warning -- This program may not be used in any manner that
 competes with the business of Gaussian, Inc. or will provide
 assistance to any competitor of Gaussian, Inc.  The licensee
 of this program is prohibited from giving any competitor of
 Gaussian, Inc. access to this program.  By using this program,
 the user acknowledges that Gaussian, Inc. is engaged in the
 business of creating and licensing software in the field of
 computational chemistry and represents and warrants to the
 licensee that it is not a competitor of Gaussian, Inc. and that
 it will not use this program in any manner prohibited above.
 ---------------------------------------------------------------
  

 Cite this work as:
 Gaussian 09, Revision C.01,
 M. J. Frisch, G. W. Trucks, H. B. Schlegel, G. E. Scuseria, 
 M. A. Robb, J. R. Cheeseman, G. Scalmani, V. Barone, B. Mennucci, 
 G. A. Petersson, H. Nakatsuji, M. Caricato, X. Li, H. P. Hratchian, 
 A. F. Izmaylov, J. Bloino, G. Zheng, J. L. Sonnenberg, M. Hada, 
 M. Ehara, K. Toyota, R. Fukuda, J. Hasegawa, M. Ishida, T. Nakajima, 
 Y. Honda, O. Kitao, H. Nakai, T. Vreven, J. A. Montgomery, Jr., 
 J. E. Peralta, F. Ogliaro, M. Bearpark, J. J. Heyd, E. Brothers, 
 K. N. Kudin, V. N. Staroverov, T. Keith, R. Kobayashi, J. Normand, 
 K. Raghavachari, A. Rendell, J. C. Burant, S. S. Iyengar, J. Tomasi, 
 M. Cossi, N. Rega, J. M. Millam, M. Klene, J. E. Knox, J. B. Cross, 
 V. Bakken, C. Adamo, J. Jaramillo, R. Gomperts, R. E. Stratmann, 
 O. Yazyev, A. J. Austin, R. Cammi, C. Pomelli, J. W. Ochterski, 
 R. L. Martin, K. Morokuma, V. G. Zakrzewski, G. A. Voth, 
 P. Salvador, J. J. Dannenberg, S. Dapprich, A. D. Daniels, 
 O. Farkas, J. B. Foresman, J. V. Ortiz, J. Cioslowski, 
 and D. J. Fox, Gaussian, Inc., Wallingford CT, 2010.
 
 ******************************************
 Gaussian 09:  AM64L-G09RevC.01 23-Sep-2011
                17-Feb-2018 
 ******************************************
 %nprocs=2
 Will use up to    2 processors via shared memory.
 %chk=frag25-conf0.chk
 ----------------------------------------------------------------------
 #HF/6-31G* Geom=AllCheck Guess=Read Pop=(MK,ReadRadii) Integral=(Grid=
 UltraFine) iop(6/33=2)
 ----------------------------------------------------------------------
 1/29=7,38=1/1;
 2/12=2,40=1/2;
 3/5=1,6=6,7=1,11=9,14=-4,16=1,25=1,30=1,75=-5,116=-2/1,2,3;
 4/5=1/1;
 5/5=2,38=6/2;
 6/7=2,8=2,9=2,10=2,15=8,20=101,28=1,33=2/1,2;
 99/5=1,9=1/99;
 Structure from the checkpoint file:  frag25-conf0.chk
 -----------------------------
 Optimization for frag25-conf0
 -----------------------------
 Charge =  0 Multiplicity = 1
 Redundant internal coordinates found in file.
 C,0,0.9788485305,-4.3704468444,-1.2542991328
 C,0,0.8301135769,-0.5655137574,-0.3867098192
 C,0,-0.7487456962,-2.3767253451,0.4053820374
 C,0,0.3769993292,-5.7462198097,-3.1683876447
 C,0,1.3892562883,-3.5553316265,-3.6072217465
 C,0,4.3290209251,-3.6386433766,2.0874606163
 C,0,1.5013904987,-3.0435248035,-0.664937266
 C,0,0.3343784516,-2.0012677241,-0.6177404177
 N,0,2.0925038202,-3.4153111936,0.6249104822
 N,0,0.9421358167,-4.5207153254,-2.6152495082
 O,0,0.5634622963,-5.2404414891,-0.4883361169
 O,0,2.5434295794,-1.7635962971,2.5780969813
 O,0,3.860299495,-1.6335084844,0.3973159292
 S,0,3.1733912472,-2.4233483394,1.4260806916
 H,0,1.2225802513,-0.4335230479,0.6260682652
 H,0,1.6217622011,-0.2866035821,-1.0905374698
 H,0,-0.0021470835,0.1370564236,-0.5129588002
 H,0,-0.3633367542,-2.2860671919,1.4277173087
 H,0,-1.1142400302,-3.398517557,0.2645222592
 H,0,-1.5998287567,-1.6924659933,0.3173498721
 H,0,-0.4991798559,-5.5173260924,-3.7891009106
 H,0,0.0827347907,-6.3950191438,-2.3453694468
 H,0,1.1200559776,-6.2568518587,-3.7941379324
 H,0,2.1476970755,-4.0082322938,-4.2592666125
 H,0,1.8222517752,-2.6701260808,-3.1463733881
 H,0,0.5480759989,-3.23641468,-4.2374845133
 H,0,5.0748934365,-3.0873602834,2.6647273674
 H,0,3.7886320556,-4.328620311,2.7389647557
 H,0,4.7940546678,-4.1702748078,1.2567814506
 H,0,2.3206915362,-2.6315228192,-1.2559448934
 H,0,-0.1238566481,-2.0342693449,-1.6178544295
 H,0,1.4546965841,-3.9221903015,1.2333200446
 Recover connectivity data from disk.
                          Input orientation:                          
 ---------------------------------------------------------------------
 Center     Atomic      Atomic             Coordinates (Angstroms)
 Number     Number       Type             X           Y           Z
 ---------------------------------------------------------------------
      1          6           0        0.978849   -4.370447   -1.254299
      2          6           0        0.830114   -0.565514   -0.386710
      3          6           0       -0.748746   -2.376725    0.405382
      4          6           0        0.376999   -5.746220   -3.168388
      5          6           0        1.389256   -3.555332   -3.607222
      6          6           0        4.329021   -3.638643    2.087461
      7          6           0        1.501390   -3.043525   -0.664937
      8          6           0        0.334378   -2.001268   -0.617740
      9          7           0        2.092504   -3.415311    0.624910
     10          7           0        0.942136   -4.520715   -2.615250
     11          8           0        0.563462   -5.240441   -0.488336
     12          8           0        2.543430   -1.763596    2.578097
     13          8           0        3.860299   -1.633508    0.397316
     14         16           0        3.173391   -2.423348    1.426081
     15          1           0        1.222580   -0.433523    0.626068
     16          1           0        1.621762   -0.286604   -1.090537
     17          1           0       -0.002147    0.137056   -0.512959
     18          1           0       -0.363337   -2.286067    1.427717
     19          1           0       -1.114240   -3.398518    0.264522
     20          1           0       -1.599829   -1.692466    0.317350
     21          1           0       -0.499180   -5.517326   -3.789101
     22          1           0        0.082735   -6.395019   -2.345369
     23          1           0        1.120056   -6.256852   -3.794138
     24          1           0        2.147697   -4.008232   -4.259267
     25          1           0        1.822252   -2.670126   -3.146373
     26          1           0        0.548076   -3.236415   -4.237485
     27          1           0        5.074893   -3.087360    2.664727
     28          1           0        3.788632   -4.328620    2.738965
     29          1           0        4.794055   -4.170275    1.256781
     30          1           0        2.320692   -2.631523   -1.255945
     31          1           0       -0.123857   -2.034269   -1.617854
     32          1           0        1.454697   -3.922190    1.233320
 ---------------------------------------------------------------------
                    Distance matrix (angstroms):
                    1          2          3          4          5
     1  C    0.000000
     2  C    3.905426   0.000000
     3  C    3.116737   2.529959   0.000000
     4  C    2.432840   5.897691   5.039109   0.000000
     5  C    2.523706   4.429825   4.696930   2.453004   0.000000
     6  C    4.788168   5.273329   5.495957   6.905382   6.409256
     7  C    1.543088   2.582356   2.579403   3.851763   2.988571
     8  C    2.536446   1.536398   1.536524   4.531256   3.530564
     9  N    2.384102   3.276942   3.033076   4.771289   4.292448
    10  N    1.369713   4.541207   4.071853   1.458493   1.454610
    11  O    1.231315   4.683629   3.274369   2.733726   3.639915
    12  O    4.891916   3.627800   3.991871   7.319617   6.542217
    13  O    4.303652   3.307164   4.668590   6.462354   5.082891
    14  S    3.973870   3.496957   4.053043   6.322217   5.458815
    15  H    4.369732   1.094153   2.776844   6.583134   5.262529
    16  H    4.137382   1.095387   3.496526   5.972797   4.131869
    17  H    4.672208   1.096449   2.778463   6.465910   5.014399
    18  H    3.652302   2.770699   1.096325   5.800425   5.480258
    19  H    2.762695   3.497217   1.094297   4.418186   4.613294
    20  H    4.036241   2.769538   1.095583   5.700100   5.273249
    21  H    3.150416   6.153351   5.245888   1.097892   2.729229
    22  H    2.468268   6.195002   4.940109   1.088527   3.370919
    23  H    3.166898   6.639726   6.015295   1.097471   2.721327
    24  H    3.244570   5.346497   5.728014   2.710348   1.097959
    25  H    2.679993   3.609636   4.394437   3.398763   1.087867
    26  H    3.220402   4.694861   4.896634   2.733378   1.098419
    27  H    5.812286   5.804234   6.286845   7.947640   7.289737
    28  H    4.882908   5.716961   5.462902   6.967470   6.828548
    29  H    4.571804   5.604301   5.887643   6.447953   5.969031
    30  H    2.196452   2.691800   3.499482   4.139651   2.692489
    31  H    2.608804   2.140799   2.145052   4.053836   2.925871
    32  H    2.572084   3.779137   2.815866   4.885033   4.854865
                    6          7          8          9         10
     6  C    0.000000
     7  C    3.990658   0.000000
     8  C    5.094731   1.565390   0.000000
     9  N    2.681593   1.466747   2.575792   0.000000
    10  N    5.862126   2.509696   3.272160   3.611634   0.000000
    11  O    4.835278   2.395275   3.249842   2.628381   2.277095
    12  O    2.635311   3.638864   3.892271   2.597390   6.093988
    13  O    2.663992   2.946350   3.687507   2.520262   5.091875
    14  S    1.802733   2.748192   3.523542   1.671581   5.070483
    15  H    4.696641   2.925156   2.189472   3.106095   5.223977
    16  H    5.353979   2.792175   2.195670   3.599051   4.551301
    17  H    6.306909   3.521338   2.167178   4.278040   5.196743
    18  H    4.927773   2.903473   2.179866   2.819724   4.800364
    19  H    5.745420   2.798471   2.197542   3.226975   3.712290
    20  H    6.486305   3.522472   2.170463   4.086087   4.802158
    21  H    7.834216   4.458965   4.807808   5.533425   2.109159
    22  H    6.728933   4.008610   4.727904   4.662660   2.079524
    23  H    7.193447   4.501420   5.368127   5.343033   2.106087
    24  H    6.721288   3.777245   4.536160   4.920344   2.102096
    25  H    5.883446   2.529803   3.009173   3.853689   2.116926
    26  H    7.379855   3.702581   3.830640   5.104914   2.106266
    27  H    1.092463   4.884518   5.867425   3.628092   6.856555
    28  H    1.092038   4.297615   5.349384   2.860107   6.066882
    29  H    1.090374   3.975450   5.301616   2.875345   5.472907
    30  H    4.028156   1.091004   2.179442   2.050368   2.705027
    31  H    6.010948   2.137306   1.100589   3.442314   2.883323
    32  H    3.011926   2.092275   2.893351   1.016802   3.928414
                   11         12         13         14         15
    11  O    0.000000
    12  O    5.041005   0.000000
    13  O    4.966234   2.550858   0.000000
    14  S    4.291006   1.469444   1.467667   0.000000
    15  H    4.978232   2.706317   2.906864   2.899153   0.000000
    16  H    5.101290   4.060770   3.006478   3.647821   1.768521
    17  H    5.407218   4.432501   4.345342   4.516591   1.767173
    18  H    3.641228   3.169486   4.396210   3.539392   2.567040
    19  H    2.602723   4.626461   5.280051   4.547962   3.792445
    20  H    4.232858   4.720448   5.461032   4.954503   3.105839
    21  H    3.478638   7.993070   7.184371   7.089330   6.950053
    22  H    2.238911   7.193443   6.668156   6.288892   6.757820
    23  H    3.503029   7.925952   6.815609   6.794308   7.311627
    24  H    4.271774   7.207256   5.500553   5.990583   6.123797
    25  H    3.905923   5.840501   4.217339   4.774287   4.426434
    26  H    4.251173   7.252777   5.917897   6.295183   5.653787
    27  H    5.910210   2.858000   2.954671   2.364502   5.102872
    28  H    4.652807   2.855828   3.571006   2.394211   5.120619
    29  H    4.699851   3.550111   2.836505   2.388925   5.207355
    30  H    3.237829   3.937358   2.469756   2.822002   3.095000
    31  H    3.468106   4.979326   4.482747   4.504305   3.067649
    32  H    2.344394   2.766458   3.424017   2.288579   3.548723
                   16         17         18         19         20
    16  H    0.000000
    17  H    1.774871   0.000000
    18  H    3.778899   3.125414   0.000000
    19  H    4.359576   3.787019   1.776070   0.000000
    20  H    3.786455   2.566934   1.764707   1.774598   0.000000
    21  H    6.256285   6.553792   6.137970   4.615139   5.718734
    22  H    6.423079   6.784758   5.596307   4.150097   5.659956
    23  H    6.573053   7.273757   6.725724   5.443792   6.718313
    24  H    4.916093   5.986658   6.450808   5.610406   6.352334
    25  H    3.154019   4.259528   5.083956   4.559358   4.966270
    26  H    4.444937   5.055210   5.816214   4.801837   5.267237
    27  H    5.819825   6.802271   5.634413   6.645538   7.211645
    28  H    5.974806   6.699797   4.809391   5.570109   6.469083
    29  H    5.536808   6.684956   5.493464   6.040541   6.921258
    30  H    2.452449   3.689531   3.811219   3.833909   4.327536
    31  H    2.525784   2.439316   3.065332   2.526930   2.457710
    32  H    4.318068   4.652888   2.453555   2.795038   3.891118
                   21         22         23         24         25
    21  H    0.000000
    22  H    1.786989   0.000000
    23  H    1.780126   1.787192   0.000000
    24  H    3.082917   3.691046   2.515687   0.000000
    25  H    3.729436   4.188359   3.711776   1.770586   0.000000
    26  H    2.549578   3.711256   3.105923   1.776222   1.770517
    27  H    8.867183   7.807901   8.209955   7.573518   6.672530
    28  H    7.900253   6.622245   7.315792   7.195176   6.422963
    29  H    7.435981   6.334155   6.585124   6.120151   5.519948
    30  H    4.764075   4.512117   4.585516   3.308353   1.955416
    31  H    4.121512   4.425844   4.910573   4.004191   2.554999
    32  H    5.620214   4.561160   5.553194   5.536801   4.569954
                   26         27         28         29         30
    26  H    0.000000
    27  H    8.255593   0.000000
    28  H    7.769489   1.789052   0.000000
    29  H    7.006239   1.798301   1.798003   0.000000
    30  H    3.521028   4.813012   4.581953   3.846957   0.000000
    31  H    2.959579   6.817368   6.289156   6.083741   2.542343
    32  H    5.587661   3.981419   2.807028   3.348643   2.934657
                   31         32
    31  H    0.000000
    32  H    3.766334   0.000000
 Stoichiometry    C8H18N2O3S
 Framework group  C1[X(C8H18N2O3S)]
 Deg. of freedom    90
 Full point group                 C1      NOp   1
 Largest Abelian subgroup         C1      NOp   1
 Largest concise Abelian subgroup C1      NOp   1
                         Standard orientation:                         
 ---------------------------------------------------------------------
 Center     Atomic      Atomic             Coordinates (Angstroms)
 Number     Number       Type             X           Y           Z
 ---------------------------------------------------------------------
      1          6           0        1.649747   -0.500259   -0.428051
      2          6           0       -0.526847    2.503724    0.792965
      3          6           0        0.353341    2.104643   -1.545132
      4          6           0        3.992005   -1.136471   -0.261415
      5          6           0        2.948547   -0.090204    1.696582
      6          6           0       -2.838531   -2.143138   -0.140195
      7          6           0        0.395557    0.174719    0.165695
      8          6           0        0.480921    1.720994   -0.062755
      9          7           0       -0.733985   -0.513876   -0.467804
     10          7           0        2.787722   -0.565995    0.331427
     11          8           0        1.610255   -0.918607   -1.585445
     12          8           0       -3.149192    0.430206   -0.615852
     13          8           0       -2.130553   -0.269074    1.615797
     14         16           0       -2.278958   -0.457364    0.167843
     15          1           0       -1.554976    2.334807    0.458917
     16          1           0       -0.469650    2.225919    1.850993
     17          1           0       -0.324773    3.578243    0.710643
     18          1           0       -0.661799    1.908269   -1.909626
     19          1           0        1.058234    1.555246   -2.176620
     20          1           0        0.542174    3.176370   -1.671804
     21          1           0        4.795187   -0.388539   -0.290781
     22          1           0        3.759367   -1.463241   -1.273340
     23          1           0        4.337744   -1.991839    0.332935
     24          1           0        3.283595   -0.910502    2.344940
     25          1           0        2.019249    0.304836    2.101308
     26          1           0        3.705380    0.704770    1.738344
     27          1           0       -3.868586   -2.207057    0.218103
     28          1           0       -2.804181   -2.340967   -1.213615
     29          1           0       -2.193044   -2.833018    0.404166
     30          1           0        0.296914   -0.020603    1.234530
     31          1           0        1.489448    2.007811    0.271770
     32          1           0       -0.695635   -0.507827   -1.483865
 ---------------------------------------------------------------------
 Rotational constants (GHZ):      0.9288114      0.3848870      0.3485069
 Standard basis: 6-31G(d) (6D, 7F)
 There are   250 symmetry adapted basis functions of A   symmetry.
 Integral buffers will be    131072 words long.
 Raffenetti 1 integral format.
 Two-electron integral symmetry is turned on.
   250 basis functions,   488 primitive gaussians,   250 cartesian basis functions
    60 alpha electrons       60 beta electrons
       nuclear repulsion energy      1173.5825913333 Hartrees.
 NAtoms=   32 NActive=   32 NUniq=   32 SFac= 1.00D+00 NAtFMM=   60 NAOKFM=F Big=F
 One-electron integrals computed using PRISM.
 NBasis=   250 RedAO= T  NBF=   250
 NBsUse=   250 1.00D-06 NBFU=   250
 Initial guess read from the checkpoint file:  frag25-conf0.chk
 B after Tr=     0.000000    0.000000    0.000000
         Rot=    1.000000    0.000000    0.000000    0.000000 Ang=   0.00 deg.
 Initial guess orbital symmetries:
       Occupied  (A) (A) (A) (A) (A) (A) (A) (A) (A) (A) (A) (A)
                 (A) (A) (A) (A) (A) (A) (A) (A) (A) (A) (A) (A)
                 (A) (A) (A) (A) (A) (A) (A) (A) (A) (A) (A) (A)
                 (A) (A) (A) (A) (A) (A) (A) (A) (A) (A) (A) (A)
                 (A) (A) (A) (A) (A) (A) (A) (A) (A) (A) (A) (A)
       Virtual   (A) (A) (A) (A) (A) (A) (A) (A) (A) (A) (A) (A)
                 (A) (A) (A) (A) (A) (A) (A) (A) (A) (A) (A) (A)
                 (A) (A) (A) (A) (A) (A) (A) (A) (A) (A) (A) (A)
                 (A) (A) (A) (A) (A) (A) (A) (A) (A) (A) (A) (A)
                 (A) (A) (A) (A) (A) (A) (A) (A) (A) (A) (A) (A)
                 (A) (A) (A) (A) (A) (A) (A) (A) (A) (A) (A) (A)
                 (A) (A) (A) (A) (A) (A) (A) (A) (A) (A) (A) (A)
                 (A) (A) (A) (A) (A) (A) (A) (A) (A) (A) (A) (A)
                 (A) (A) (A) (A) (A) (A) (A) (A) (A) (A) (A) (A)
                 (A) (A) (A) (A) (A) (A) (A) (A) (A) (A) (A) (A)
                 (A) (A) (A) (A) (A) (A) (A) (A) (A) (A) (A) (A)
                 (A) (A) (A) (A) (A) (A) (A) (A) (A) (A) (A) (A)
                 (A) (A) (A) (A) (A) (A) (A) (A) (A) (A) (A) (A)
                 (A) (A) (A) (A) (A) (A) (A) (A) (A) (A) (A) (A)
                 (A) (A) (A) (A) (A) (A) (A) (A) (A) (A) (A) (A)
                 (A) (A) (A) (A) (A) (A) (A) (A) (A) (A)
 Requested convergence on RMS density matrix=1.00D-08 within 128 cycles.
 Requested convergence on MAX density matrix=1.00D-06.
 Requested convergence on             energy=1.00D-06.
 No special actions if energy rises.
 SCF Done:  E(RHF) =  -1044.34568759     A.U. after   13 cycles
             Convg  =    0.4999D-08             -V/T =  2.0022

 **********************************************************************

            Population analysis using the SCF density.

 **********************************************************************

 Orbital symmetries:
 BldTbl:  Degeneracy threshold= 1.00D-02
       Occupied  (A) (A) (A) (A) (A) (A) (A) (A) (A) (A) (A) (A)
                 (A) (A) (A) (A) (A) (A) (A) (A) (A) (A) (A) (A)
                 (A) (A) (A) (A) (A) (A) (A) (A) (A) (A) (A) (A)
                 (A) (A) (A) (A) (A) (A) (A) (A) (A) (A) (A) (A)
                 (A) (A) (A) (A) (A) (A) (A) (A) (A) (A) (A) (A)
       Virtual   (A) (A) (A) (A) (A) (A) (A) (A) (A) (A) (A) (A)
                 (A) (A) (A) (A) (A) (A) (A) (A) (A) (A) (A) (A)
                 (A) (A) (A) (A) (A) (A) (A) (A) (A) (A) (A) (A)
                 (A) (A) (A) (A) (A) (A) (A) (A) (A) (A) (A) (A)
                 (A) (A) (A) (A) (A) (A) (A) (A) (A) (A) (A) (A)
                 (A) (A) (A) (A) (A) (A) (A) (A) (A) (A) (A) (A)
                 (A) (A) (A) (A) (A) (A) (A) (A) (A) (A) (A) (A)
                 (A) (A) (A) (A) (A) (A) (A) (A) (A) (A) (A) (A)
                 (A) (A) (A) (A) (A) (A) (A) (A) (A) (A) (A) (A)
                 (A) (A) (A) (A) (A) (A) (A) (A) (A) (A) (A) (A)
                 (A) (A) (A) (A) (A) (A) (A) (A) (A) (A) (A) (A)
                 (A) (A) (A) (A) (A) (A) (A) (A) (A) (A) (A) (A)
                 (A) (A) (A) (A) (A) (A) (A) (A) (A) (A) (A) (A)
                 (A) (A) (A) (A) (A) (A) (A) (A) (A) (A) (A) (A)
                 (A) (A) (A) (A) (A) (A) (A) (A) (A) (A) (A) (A)
                 (A) (A) (A) (A) (A) (A) (A) (A) (A) (A)
 The electronic state is 1-A.
 Alpha  occ. eigenvalues --  -92.21226 -20.55610 -20.55387 -20.53364 -15.60755
 Alpha  occ. eigenvalues --  -15.60233 -11.36611 -11.29666 -11.28278 -11.27647
 Alpha  occ. eigenvalues --  -11.26427 -11.24708 -11.21568 -11.21350  -9.18287
 Alpha  occ. eigenvalues --   -6.86889  -6.86857  -6.86769  -1.45102  -1.38818
 Alpha  occ. eigenvalues --   -1.33191  -1.25436  -1.23535  -1.08863  -1.03460
 Alpha  occ. eigenvalues --   -0.99184  -0.97804  -0.93094  -0.92340  -0.83966
 Alpha  occ. eigenvalues --   -0.78799  -0.75754  -0.73413  -0.68801  -0.67754
 Alpha  occ. eigenvalues --   -0.67167  -0.66130  -0.65282  -0.63474  -0.61743
 Alpha  occ. eigenvalues --   -0.60340  -0.59877  -0.59246  -0.58223  -0.56950
 Alpha  occ. eigenvalues --   -0.56831  -0.54498  -0.53822  -0.53661  -0.52726
 Alpha  occ. eigenvalues --   -0.51853  -0.50037  -0.48862  -0.48112  -0.47451
 Alpha  occ. eigenvalues --   -0.46396  -0.45345  -0.43068  -0.40436  -0.37924
 Alpha virt. eigenvalues --    0.18026   0.20514   0.21491   0.23718   0.24257
 Alpha virt. eigenvalues --    0.24728   0.26156   0.27049   0.27885   0.28841
 Alpha virt. eigenvalues --    0.29140   0.29654   0.29952   0.30324   0.31174
 Alpha virt. eigenvalues --    0.31629   0.32274   0.32535   0.33045   0.34179
 Alpha virt. eigenvalues --    0.34699   0.34765   0.36471   0.37301   0.38946
 Alpha virt. eigenvalues --    0.39859   0.41471   0.44966   0.45438   0.49062
 Alpha virt. eigenvalues --    0.53025   0.57003   0.59056   0.61095   0.65406
 Alpha virt. eigenvalues --    0.66401   0.68566   0.69931   0.72007   0.72244
 Alpha virt. eigenvalues --    0.73161   0.73570   0.75057   0.76450   0.77075
 Alpha virt. eigenvalues --    0.79011   0.83175   0.85681   0.87843   0.89296
 Alpha virt. eigenvalues --    0.91224   0.92171   0.94214   0.94767   0.95188
 Alpha virt. eigenvalues --    0.96708   0.96881   1.00234   1.02025   1.02962
 Alpha virt. eigenvalues --    1.04536   1.05357   1.06633   1.07263   1.07513
 Alpha virt. eigenvalues --    1.10115   1.10242   1.11717   1.13131   1.13553
 Alpha virt. eigenvalues --    1.14405   1.14450   1.15239   1.16322   1.16941
 Alpha virt. eigenvalues --    1.17069   1.18449   1.19357   1.20909   1.21653
 Alpha virt. eigenvalues --    1.21943   1.22571   1.23203   1.24876   1.25431
 Alpha virt. eigenvalues --    1.26116   1.28073   1.30573   1.32427   1.34290
 Alpha virt. eigenvalues --    1.36323   1.38522   1.38834   1.41953   1.42673
 Alpha virt. eigenvalues --    1.45743   1.49348   1.51648   1.52868   1.54081
 Alpha virt. eigenvalues --    1.54869   1.58036   1.62852   1.64516   1.65668
 Alpha virt. eigenvalues --    1.68321   1.70285   1.70595   1.76504   1.78052
 Alpha virt. eigenvalues --    1.81588   1.82805   1.89232   1.92770   1.95316
 Alpha virt. eigenvalues --    1.97511   2.01030   2.01920   2.04036   2.06645
 Alpha virt. eigenvalues --    2.09162   2.09441   2.11245   2.12016   2.13960
 Alpha virt. eigenvalues --    2.14928   2.16685   2.18054   2.19218   2.20702
 Alpha virt. eigenvalues --    2.23568   2.24817   2.27811   2.28966   2.30275
 Alpha virt. eigenvalues --    2.31964   2.35895   2.36180   2.37667   2.37896
 Alpha virt. eigenvalues --    2.40902   2.41594   2.43339   2.45120   2.45792
 Alpha virt. eigenvalues --    2.47560   2.50316   2.51882   2.53993   2.54968
 Alpha virt. eigenvalues --    2.57611   2.57894   2.60445   2.60796   2.64553
 Alpha virt. eigenvalues --    2.65469   2.69260   2.70787   2.73872   2.75511
 Alpha virt. eigenvalues --    2.77500   2.81650   2.87220   2.88050   2.91677
 Alpha virt. eigenvalues --    2.96286   2.99036   3.02706   3.08253   3.12305
 Alpha virt. eigenvalues --    3.14524   3.17664   3.18936   3.30921   3.38597
 Alpha virt. eigenvalues --    3.55084   4.18827   4.30825   4.38663   4.41948
 Alpha virt. eigenvalues --    4.47900   4.56065   4.60962   4.64321   4.67000
 Alpha virt. eigenvalues --    4.74855   4.77395   4.82174   5.01091   5.09599
          Condensed to atoms (all electrons):
              1          2          3          4          5          6
     1  C    4.158178   0.003445  -0.001795  -0.031429  -0.025279  -0.000162
     2  C    0.003445   5.151617  -0.063763   0.000004  -0.000041  -0.000028
     3  C   -0.001795  -0.063763   5.171638   0.000001  -0.000030   0.000001
     4  C   -0.031429   0.000004   0.000001   4.975798  -0.050837   0.000000
     5  C   -0.025279  -0.000041  -0.000030  -0.050837   4.950372   0.000000
     6  C   -0.000162  -0.000028   0.000001   0.000000   0.000000   5.494014
     7  C    0.351893  -0.051798  -0.058042   0.003462  -0.002988   0.001747
     8  C   -0.053053   0.337612   0.334019  -0.000263  -0.000051  -0.000142
     9  N   -0.058426   0.002680  -0.002537  -0.000095   0.000326  -0.065979
    10  N    0.311942  -0.000011   0.000364   0.216484   0.222497   0.000000
    11  O    0.555205  -0.000061  -0.002226  -0.007841   0.001684   0.000005
    12  O   -0.000063  -0.003879  -0.000767   0.000000   0.000000  -0.064001
    13  O    0.000065   0.001807   0.000025   0.000000   0.000005  -0.057154
    14  S   -0.000181  -0.000546  -0.000959   0.000000   0.000013   0.312537
    15  H   -0.000139   0.387761  -0.003194   0.000000   0.000001   0.000046
    16  H   -0.000061   0.391783   0.004199   0.000000  -0.000070   0.000004
    17  H   -0.000069   0.389136  -0.003101   0.000000   0.000005   0.000000
    18  H   -0.000011  -0.003653   0.388686   0.000000   0.000000   0.000000
    19  H    0.002995   0.003905   0.387916   0.000038  -0.000006   0.000001
    20  H   -0.000015  -0.003329   0.391736   0.000000   0.000002   0.000000
    21  H    0.001536   0.000000  -0.000002   0.398417  -0.001964   0.000000
    22  H   -0.005079   0.000000  -0.000001   0.395323   0.003072   0.000000
    23  H    0.001002   0.000000   0.000000   0.399269  -0.002120   0.000000
    24  H    0.000381   0.000000  -0.000001  -0.002032   0.400293   0.000000
    25  H   -0.002760   0.000414   0.000045   0.003431   0.398323   0.000000
    26  H    0.000971  -0.000028   0.000005  -0.001569   0.399076   0.000000
    27  H    0.000000   0.000000   0.000000   0.000000   0.000000   0.369069
    28  H    0.000007   0.000000  -0.000002   0.000000   0.000000   0.354881
    29  H    0.000036   0.000002   0.000000   0.000000   0.000000   0.356266
    30  H   -0.030490  -0.003493   0.003468  -0.000093  -0.004772   0.000125
    31  H   -0.000277  -0.041501  -0.040363  -0.000088  -0.001108   0.000001
    32  H   -0.005903  -0.000049   0.002053  -0.000005  -0.000026  -0.000734
              7          8          9         10         11         12
     1  C    0.351893  -0.053053  -0.058426   0.311942   0.555205  -0.000063
     2  C   -0.051798   0.337612   0.002680  -0.000011  -0.000061  -0.003879
     3  C   -0.058042   0.334019  -0.002537   0.000364  -0.002226  -0.000767
     4  C    0.003462  -0.000263  -0.000095   0.216484  -0.007841   0.000000
     5  C   -0.002988  -0.000051   0.000326   0.222497   0.001684   0.000000
     6  C    0.001747  -0.000142  -0.065979   0.000000   0.000005  -0.064001
     7  C    5.156084   0.324393   0.213385  -0.093781  -0.079627  -0.000863
     8  C    0.324393   5.148687  -0.062466  -0.000763  -0.001370   0.001540
     9  N    0.213385  -0.062466   7.534135   0.001322  -0.006736  -0.052801
    10  N   -0.093781  -0.000763   0.001322   7.361698  -0.091315   0.000000
    11  O   -0.079627  -0.001370  -0.006736  -0.091315   8.252384   0.000000
    12  O   -0.000863   0.001540  -0.052801   0.000000   0.000000   8.363826
    13  O    0.002076  -0.002463  -0.054677  -0.000003  -0.000002  -0.036944
    14  S   -0.019350  -0.002757   0.190667  -0.000102  -0.000468   0.474927
    15  H   -0.004080  -0.032708   0.000225  -0.000002   0.000002   0.006094
    16  H   -0.004148  -0.037252   0.000221   0.000013   0.000000   0.000038
    17  H    0.004816  -0.036604  -0.000132   0.000000   0.000000   0.000014
    18  H   -0.006234  -0.035605   0.002335  -0.000016  -0.000040   0.002012
    19  H   -0.003385  -0.034150   0.000030  -0.000261   0.005113   0.000004
    20  H    0.004449  -0.036251   0.000023  -0.000014   0.000090   0.000003
    21  H   -0.000048   0.000035  -0.000001  -0.048609   0.000484   0.000000
    22  H    0.000558  -0.000021  -0.000013  -0.029902   0.011310   0.000000
    23  H   -0.000075  -0.000003   0.000005  -0.047726   0.000382   0.000000
    24  H   -0.000061   0.000010   0.000011  -0.047334  -0.000023   0.000000
    25  H    0.001757  -0.002661   0.000086  -0.033670   0.000029   0.000000
    26  H   -0.000313   0.000348  -0.000011  -0.050419  -0.000002   0.000000
    27  H   -0.000022   0.000002   0.002518   0.000000   0.000000   0.000771
    28  H   -0.000049   0.000006   0.000312   0.000000  -0.000002   0.000226
    29  H   -0.000147  -0.000001   0.001558   0.000000   0.000000   0.001635
    30  H    0.408814  -0.038823  -0.037706   0.002387   0.001798  -0.000018
    31  H   -0.053801   0.404557   0.004296   0.001200   0.000076  -0.000001
    32  H   -0.018926  -0.001286   0.298427   0.000478   0.014689   0.000201
             13         14         15         16         17         18
     1  C    0.000065  -0.000181  -0.000139  -0.000061  -0.000069  -0.000011
     2  C    0.001807  -0.000546   0.387761   0.391783   0.389136  -0.003653
     3  C    0.000025  -0.000959  -0.003194   0.004199  -0.003101   0.388686
     4  C    0.000000   0.000000   0.000000   0.000000   0.000000   0.000000
     5  C    0.000005   0.000013   0.000001  -0.000070   0.000005   0.000000
     6  C   -0.057154   0.312537   0.000046   0.000004   0.000000   0.000000
     7  C    0.002076  -0.019350  -0.004080  -0.004148   0.004816  -0.006234
     8  C   -0.002463  -0.002757  -0.032708  -0.037252  -0.036604  -0.035605
     9  N   -0.054677   0.190667   0.000225   0.000221  -0.000132   0.002335
    10  N   -0.000003  -0.000102  -0.000002   0.000013   0.000000  -0.000016
    11  O   -0.000002  -0.000468   0.000002   0.000000   0.000000  -0.000040
    12  O   -0.036944   0.474927   0.006094   0.000038   0.000014   0.002012
    13  O    8.375511   0.472485  -0.002135   0.000665   0.000082  -0.000039
    14  S    0.472485  12.992277   0.003564  -0.000489   0.000127   0.000737
    15  H   -0.002135   0.003564   0.481147  -0.023183  -0.025321   0.002574
    16  H    0.000665  -0.000489  -0.023183   0.522407  -0.025486  -0.000029
    17  H    0.000082   0.000127  -0.025321  -0.025486   0.535095  -0.000047
    18  H   -0.000039   0.000737   0.002574  -0.000029  -0.000047   0.517747
    19  H    0.000000   0.000016  -0.000028  -0.000086  -0.000062  -0.024469
    20  H    0.000000  -0.000005   0.000089  -0.000050   0.002042  -0.025924
    21  H    0.000000   0.000000   0.000000   0.000000   0.000000   0.000000
    22  H    0.000000   0.000000   0.000000   0.000000   0.000000   0.000000
    23  H    0.000000   0.000000   0.000000   0.000000   0.000000   0.000000
    24  H    0.000000   0.000001   0.000000   0.000000   0.000000   0.000000
    25  H   -0.000045  -0.000002  -0.000005   0.000325  -0.000015   0.000000
    26  H    0.000000  -0.000001   0.000000  -0.000001   0.000001   0.000000
    27  H    0.000137  -0.021395  -0.000001   0.000000   0.000000   0.000000
    28  H    0.001430  -0.008676   0.000002   0.000000   0.000000   0.000001
    29  H    0.000746  -0.012935  -0.000002   0.000000   0.000000  -0.000001
    30  H    0.007522  -0.003135   0.000269   0.001801   0.000021  -0.000100
    31  H   -0.000033   0.000152   0.003761  -0.001524  -0.004385   0.004123
    32  H    0.000920  -0.003872   0.000024  -0.000002   0.000004  -0.000166
             19         20         21         22         23         24
     1  C    0.002995  -0.000015   0.001536  -0.005079   0.001002   0.000381
     2  C    0.003905  -0.003329   0.000000   0.000000   0.000000   0.000000
     3  C    0.387916   0.391736  -0.000002  -0.000001   0.000000  -0.000001
     4  C    0.000038   0.000000   0.398417   0.395323   0.399269  -0.002032
     5  C   -0.000006   0.000002  -0.001964   0.003072  -0.002120   0.400293
     6  C    0.000001   0.000000   0.000000   0.000000   0.000000   0.000000
     7  C   -0.003385   0.004449  -0.000048   0.000558  -0.000075  -0.000061
     8  C   -0.034150  -0.036251   0.000035  -0.000021  -0.000003   0.000010
     9  N    0.000030   0.000023  -0.000001  -0.000013   0.000005   0.000011
    10  N   -0.000261  -0.000014  -0.048609  -0.029902  -0.047726  -0.047334
    11  O    0.005113   0.000090   0.000484   0.011310   0.000382  -0.000023
    12  O    0.000004   0.000003   0.000000   0.000000   0.000000   0.000000
    13  O    0.000000   0.000000   0.000000   0.000000   0.000000   0.000000
    14  S    0.000016  -0.000005   0.000000   0.000000   0.000000   0.000001
    15  H   -0.000028   0.000089   0.000000   0.000000   0.000000   0.000000
    16  H   -0.000086  -0.000050   0.000000   0.000000   0.000000   0.000000
    17  H   -0.000062   0.002042   0.000000   0.000000   0.000000   0.000000
    18  H   -0.024469  -0.025924   0.000000   0.000000   0.000000   0.000000
    19  H    0.494014  -0.023000   0.000007   0.000013  -0.000001   0.000000
    20  H   -0.023000   0.526025   0.000000   0.000000   0.000000   0.000000
    21  H    0.000007   0.000000   0.542054  -0.021483  -0.039797  -0.001038
    22  H    0.000013   0.000000  -0.021483   0.426116  -0.021091  -0.000030
    23  H   -0.000001   0.000000  -0.039797  -0.021091   0.539421   0.004068
    24  H    0.000000   0.000000  -0.001038  -0.000030   0.004068   0.527601
    25  H   -0.000003  -0.000001  -0.000058  -0.000086  -0.000020  -0.024342
    26  H    0.000007   0.000001   0.004046  -0.000050  -0.001025  -0.039928
    27  H    0.000000   0.000000   0.000000   0.000000   0.000000   0.000000
    28  H    0.000000   0.000000   0.000000   0.000000   0.000000   0.000000
    29  H    0.000000   0.000000   0.000000   0.000000   0.000000   0.000000
    30  H   -0.000037  -0.000039  -0.000001  -0.000014  -0.000004   0.000022
    31  H   -0.001507  -0.003620  -0.000018  -0.000004   0.000004   0.000136
    32  H    0.000185   0.000024   0.000000  -0.000006   0.000000   0.000001
             25         26         27         28         29         30
     1  C   -0.002760   0.000971   0.000000   0.000007   0.000036  -0.030490
     2  C    0.000414  -0.000028   0.000000   0.000000   0.000002  -0.003493
     3  C    0.000045   0.000005   0.000000  -0.000002   0.000000   0.003468
     4  C    0.003431  -0.001569   0.000000   0.000000   0.000000  -0.000093
     5  C    0.398323   0.399076   0.000000   0.000000   0.000000  -0.004772
     6  C    0.000000   0.000000   0.369069   0.354881   0.356266   0.000125
     7  C    0.001757  -0.000313  -0.000022  -0.000049  -0.000147   0.408814
     8  C   -0.002661   0.000348   0.000002   0.000006  -0.000001  -0.038823
     9  N    0.000086  -0.000011   0.002518   0.000312   0.001558  -0.037706
    10  N   -0.033670  -0.050419   0.000000   0.000000   0.000000   0.002387
    11  O    0.000029  -0.000002   0.000000  -0.000002   0.000000   0.001798
    12  O    0.000000   0.000000   0.000771   0.000226   0.001635  -0.000018
    13  O   -0.000045   0.000000   0.000137   0.001430   0.000746   0.007522
    14  S   -0.000002  -0.000001  -0.021395  -0.008676  -0.012935  -0.003135
    15  H   -0.000005   0.000000  -0.000001   0.000002  -0.000002   0.000269
    16  H    0.000325  -0.000001   0.000000   0.000000   0.000000   0.001801
    17  H   -0.000015   0.000001   0.000000   0.000000   0.000000   0.000021
    18  H    0.000000   0.000000   0.000000   0.000001  -0.000001  -0.000100
    19  H   -0.000003   0.000007   0.000000   0.000000   0.000000  -0.000037
    20  H   -0.000001   0.000001   0.000000   0.000000   0.000000  -0.000039
    21  H   -0.000058   0.004046   0.000000   0.000000   0.000000  -0.000001
    22  H   -0.000086  -0.000050   0.000000   0.000000   0.000000  -0.000014
    23  H   -0.000020  -0.001025   0.000000   0.000000   0.000000  -0.000004
    24  H   -0.024342  -0.039928   0.000000   0.000000   0.000000   0.000022
    25  H    0.494641  -0.025779   0.000000   0.000000   0.000000  -0.000273
    26  H   -0.025779   0.536530   0.000000   0.000000   0.000000   0.000222
    27  H    0.000000   0.000000   0.449571  -0.016839  -0.015681  -0.000005
    28  H    0.000000   0.000000  -0.016839   0.466419  -0.018879  -0.000008
    29  H    0.000000   0.000000  -0.015681  -0.018879   0.458785   0.000017
    30  H   -0.000273   0.000222  -0.000005  -0.000008   0.000017   0.449101
    31  H   -0.000609  -0.000364   0.000000   0.000000   0.000000  -0.000061
    32  H   -0.000005   0.000000  -0.000023   0.000092   0.000104   0.002848
             31         32
     1  C   -0.000277  -0.005903
     2  C   -0.041501  -0.000049
     3  C   -0.040363   0.002053
     4  C   -0.000088  -0.000005
     5  C   -0.001108  -0.000026
     6  C    0.000001  -0.000734
     7  C   -0.053801  -0.018926
     8  C    0.404557  -0.001286
     9  N    0.004296   0.298427
    10  N    0.001200   0.000478
    11  O    0.000076   0.014689
    12  O   -0.000001   0.000201
    13  O   -0.000033   0.000920
    14  S    0.000152  -0.003872
    15  H    0.003761   0.000024
    16  H   -0.001524  -0.000002
    17  H   -0.004385   0.000004
    18  H    0.004123  -0.000166
    19  H   -0.001507   0.000185
    20  H   -0.003620   0.000024
    21  H   -0.000018   0.000000
    22  H   -0.000004  -0.000006
    23  H    0.000004   0.000000
    24  H    0.000136   0.000001
    25  H   -0.000609  -0.000005
    26  H   -0.000364   0.000000
    27  H    0.000000  -0.000023
    28  H    0.000000   0.000092
    29  H    0.000000   0.000104
    30  H   -0.000061   0.002848
    31  H    0.563883  -0.000022
    32  H   -0.000022   0.281813
 Mulliken atomic charges:
              1
     1  C    0.827532
     2  C   -0.497986
     3  C   -0.507372
     4  C   -0.297975
     5  C   -0.286376
     6  C   -0.700496
     7  C   -0.075697
     8  C   -0.172517
     9  N   -0.910983
    10  N   -0.674457
    11  O   -0.653539
    12  O   -0.691956
    13  O   -0.709980
    14  S    1.627370
    15  H    0.205238
    16  H    0.170926
    17  H    0.163878
    18  H    0.178120
    19  H    0.192750
    20  H    0.167762
    21  H    0.166441
    22  H    0.241387
    23  H    0.167711
    24  H    0.182266
    25  H    0.191285
    26  H    0.178279
    27  H    0.231897
    28  H    0.221078
    29  H    0.228495
    30  H    0.240657
    31  H    0.167098
    32  H    0.429165
 Sum of Mulliken atomic charges =   0.00000
 Mulliken charges with hydrogens summed into heavy atoms:
              1
     1  C    0.827532
     2  C    0.042056
     3  C    0.031260
     4  C    0.277563
     5  C    0.265455
     6  C   -0.019026
     7  C    0.164961
     8  C   -0.005420
     9  N   -0.481818
    10  N   -0.674457
    11  O   -0.653539
    12  O   -0.691956
    13  O   -0.709980
    14  S    1.627370
 Sum of Mulliken charges with hydrogens summed into heavy atoms =   0.00000
 DipInt: DoE/N= T F RetVal/Mat= T F Init=T NMatP=  1 IDeriv=0 Min/MaxMlt=  0  4
 Entering OneElI...
 OneElI was handed    33391655 working-precision words.
 Multipole integrals L=0 to 4 MinM= 0 MaxM= 0.
 Requested accuracy = 0.1000D-12
 PrsmSu:  NPrtUS=   1 ThrOK=F IAlg=1 NPAlg=1 LenDen=           0.
 Prism:   IPart=     0 DynPar=F LinDyn=F Incr=          38.
 PRISM was handed    33069608 working-precision words and  3877 shell-pairs
 IPart=  0 NShTot=        3877 NBatch=          74 AvBLen=        52.4
 PrSmSu:  NxtVal=             39.
 Electronic moments (au):
       -120.00000000          1.49470853         -0.67213197          0.46934478
      -2262.16324335       -797.67491513       -501.00814819          8.22366174
          7.18244539         -0.56322134      -2226.85069061      -1135.84023751
       -112.62927403        440.20588060       2630.55729750       -590.98236287
       -512.07215010       -247.22814932        255.19850790        -82.49640446
     -83986.60852546     -16107.39944852      -5797.83043740       4674.52057700
      -3693.41037787      -2145.71342970         27.80040852       -241.67434276
        610.81394251     -11187.36875656      -8255.03749254      -3406.22394990
       -457.66161073        647.35005613        320.85288389
 Electronic spatial extent (au):  <R**2>=           3560.8463
 DipInt: DoE/N= F T RetVal/Mat= T F Init=T NMatP=  1 IDeriv=0 Min/MaxMlt=  0  4
 Nuclear    moments (au):
        120.00000000          0.00000000          0.00000000          0.00000000
       2194.12546325        731.90333557        426.82104332          0.00000000
          0.00000000          0.00000000       2297.88221381       1114.36669703
        110.31681353       -464.49067711      -2693.25198508        606.64181720
        519.82455741        246.83695605       -252.42158501         70.52401273
      76508.85566439      13337.99757757       4076.45886963      -4474.91803303
       3656.67325140       2220.44787859        -42.55488355        356.87086789
       -598.20401179       9559.84172109       6617.07165131       2637.88922008
        482.10807309       -641.57652372       -302.20964841
 Total      moments (au):
          0.00000000          1.49470853         -0.67213197          0.46934478
        -68.03778010        -65.77157955        -74.18710487          8.22366174
          7.18244539         -0.56322134         71.03152320        -21.47354049
         -2.31246051        -24.28479652        -62.69468758         15.65945433
          7.75240731         -0.39119327          2.77692289        -11.97239173
      -7477.75286106      -2769.40187094      -1721.37156777        199.60254397
        -36.73712647         74.73444890        -14.75447503        115.19652513
         12.60993072      -1627.52703548      -1637.96584123       -768.33472982
         24.44646235          5.77353241         18.64323548
 Traceless Quadrup. (au):
          1.29437474          3.56057529         -4.85495003          8.22366174
          7.18244539         -0.56322134
 Charge=              0.0000 electrons
 Dipole moment (field-independent basis, Debye):
    X=              3.7992    Y=             -1.7084    Z=              1.1930  Tot=              4.3331
 Quadrupole moment (field-independent basis, Debye-Ang):
   XX=            -91.5131   YY=            -88.4650   ZZ=            -99.7842
   XY=             11.0611   XZ=              9.6606   YZ=             -0.7576
 Traceless Quadrupole moment (field-independent basis, Debye-Ang):
   XX=              1.7410   YY=              4.7891   ZZ=             -6.5301
   XY=             11.0611   XZ=              9.6606   YZ=             -0.7576
 Octapole moment (field-independent basis, Debye-Ang**2):
  XXX=             50.5575  YYY=            -15.2840  ZZZ=             -1.6459  XYY=            -17.2850
  XXY=            -44.6237  XXZ=             11.1458  XZZ=              5.5179  YZZ=             -0.2784
  YYZ=              1.9765  XYZ=             -8.5215
 Hexadecapole moment (field-independent basis, Debye-Ang**3):
 XXXX=          -2816.4801 YYYY=          -1043.0895 ZZZZ=           -648.3510 XXXY=             75.1799
 XXXZ=            -13.8370 YYYX=             28.1486 YYYZ=             -5.5572 ZZZX=             43.3885
 ZZZY=              4.7495 XXYY=           -613.0047 XXZZ=           -616.9364 YYZZ=           -289.3917
 XXYZ=              9.2077 YYXZ=              2.1746 ZZXY=              7.0219
 N-N= 1.173582591333D+03 E-N=-4.806730010799D+03  KE= 1.042081543274D+03
 Entering OneElI...
 OneElI was handed    33265605 working-precision words.
 Calculate electrostatic properties
    NBasis =   250  MinDer = 0  MaxDer = 0
    NGrid  =    32  NMatD  =   1
 Requested accuracy = 0.1000D-12
 PrsmSu:  NPrtUS=   2 ThrOK=T IAlg=1 NPAlg=1 LenDen=           0.
 Prism:   IPart=     0 DynPar=F LinDyn=F Incr=         512.
 PRISM was handed    16435083 working-precision words and  3528 shell-pairs
 PRISM was handed    16435083 working-precision words and  3528 shell-pairs
 IPart=  0 NShTot=       56800 NBatch=        1775 AvBLen=        32.0
 IPart=  1 NShTot=       56096 NBatch=        1753 AvBLen=        32.0
 PrSmSu:  NxtVal=           1025.
 --------------------------------------------------------
       Center         ----      EFG at Nuclei      ----
                      3XX-RR        3YY-RR        3ZZ-RR
 --------------------------------------------------------
     1   Atom        0.162759     -0.376357      0.213598
     2   Atom        0.019359     -0.015588     -0.003771
     3   Atom        0.031080      0.008200     -0.039280
     4   Atom       -0.172309      0.044569      0.127740
     5   Atom        0.134443      0.089751     -0.224194
     6   Atom        0.090742     -0.197552      0.106810
     7   Atom       -0.207590      0.086403      0.121187
     8   Atom        0.039991     -0.085607      0.045616
     9   Atom       -0.710885      1.064151     -0.353266
    10   Atom       -0.401710      0.756520     -0.354811
    11   Atom        1.433000     -0.459561     -0.973439
    12   Atom       -0.055927      0.044030      0.011897
    13   Atom        0.773412      0.836524     -1.609936
    14   Atom       -0.471291      0.240662      0.230629
    15   Atom       -0.237040      0.130568      0.106472
    16   Atom        0.147781      0.118255     -0.266036
    17   Atom        0.131984     -0.277243      0.145258
    18   Atom       -0.226123      0.131875      0.094249
    19   Atom       -0.036133      0.040885     -0.004752
    20   Atom        0.140008     -0.277415      0.137406
    21   Atom       -0.090693     -0.059064      0.149757
    22   Atom        0.124644      0.107988     -0.232632
    23   Atom        0.098088     -0.113756      0.015669
    24   Atom        0.111249     -0.097610     -0.013639
    25   Atom       -0.182624      0.102439      0.080185
    26   Atom       -0.055930     -0.076652      0.132582
    27   Atom       -0.242937      0.136152      0.106784
    28   Atom        0.153822      0.126187     -0.280009
    29   Atom       -0.006998     -0.035244      0.042242
    30   Atom        0.133044      0.135819     -0.268863
    31   Atom       -0.212016      0.106515      0.105501
    32   Atom        0.155224      0.220919     -0.376143
 --------------------------------------------------------
                        XY            XZ            YZ
 --------------------------------------------------------
     1   Atom       -0.222680     -0.007936      0.293440
     2   Atom        0.033860      0.032471     -0.024489
     3   Atom       -0.007305     -0.015644      0.030135
     4   Atom        0.140306      0.163712     -0.036062
     5   Atom       -0.021842     -0.049877     -0.119694
     6   Atom       -0.113141     -0.010640     -0.057386
     7   Atom       -0.110609     -0.142965     -0.095855
     8   Atom       -0.011403     -0.005517      0.017938
     9   Atom       -0.375253      0.187154     -0.368484
    10   Atom        0.377090     -0.164173     -0.475516
    11   Atom       -0.593578      0.068929     -0.143725
    12   Atom        0.883049     -0.753624      0.766517
    13   Atom       -0.030737     -0.239516     -0.261084
    14   Atom        0.024985      0.408568     -0.026493
    15   Atom       -0.061388     -0.123897     -0.026762
    16   Atom        0.014997     -0.024755      0.107464
    17   Atom       -0.080885      0.011894      0.031909
    18   Atom       -0.075584     -0.135130     -0.023759
    19   Atom        0.143360      0.162496     -0.122019
    20   Atom       -0.076943      0.007548      0.048896
    21   Atom       -0.211345      0.014214      0.001105
    22   Atom       -0.020194     -0.071893     -0.129355
    23   Atom        0.111993     -0.065436      0.184312
    24   Atom        0.100954     -0.077855      0.183012
    25   Atom        0.140686      0.133588     -0.066489
    26   Atom       -0.216782     -0.008185     -0.015090
    27   Atom       -0.026814      0.138919      0.003034
    28   Atom       -0.005428      0.017068     -0.076444
    29   Atom        0.162634     -0.137605      0.138467
    30   Atom       -0.010796      0.019403      0.071078
    31   Atom       -0.097915     -0.120104     -0.031786
    32   Atom       -0.023714      0.003784      0.001445
 --------------------------------------------------------


 ---------------------------------------------------------------------------------
              Nuclear Quadrupole in Principal Axis System
 ---------------------------------------------------------------------------------

       Atom             a.u.   MegaHertz   Gauss  10(-4) cm-1        Axes

              Baa    -0.5555   -74.542   -26.599   -24.865  0.2750  0.8992 -0.3402
     1 C(13)  Bbb     0.1719    23.067     8.231     7.694  0.8412 -0.0537  0.5380
              Bcc     0.3836    51.475    18.368    17.170 -0.4655  0.4342  0.7712
 
              Baa    -0.0618    -8.295    -2.960    -2.767 -0.4996  0.6619  0.5588
     2 C(13)  Bbb     0.0151     2.023     0.722     0.675 -0.0944 -0.6828  0.7245
              Bcc     0.0467     6.272     2.238     2.092  0.8611  0.3092  0.4037
 
              Baa    -0.0553    -7.422    -2.649    -2.476  0.1283 -0.4130  0.9016
     3 C(13)  Bbb     0.0135     1.815     0.648     0.605  0.5677  0.7761  0.2747
              Bcc     0.0418     5.608     2.001     1.871  0.8132 -0.4766 -0.3341
 
              Baa    -0.3033   -40.696   -14.521   -13.575  0.8533 -0.3811 -0.3560
     4 C(13)  Bbb     0.0987    13.242     4.725     4.417  0.2598  0.9025 -0.3435
              Bcc     0.2046    27.454     9.796     9.158  0.4522  0.2006  0.8691
 
              Baa    -0.2719   -36.482   -13.018   -12.169  0.1323  0.3187  0.9386
     5 C(13)  Bbb     0.1285    17.245     6.153     5.752  0.3323  0.8778 -0.3449
              Bcc     0.1434    19.237     6.864     6.417  0.9338 -0.3576 -0.0103
 
              Baa    -0.2461   -33.024   -11.784   -11.016  0.3188  0.9340  0.1615
     6 C(13)  Bbb     0.1121    15.044     5.368     5.018 -0.4592  0.0032  0.8883
              Bcc     0.1340    17.980     6.416     5.998  0.8291 -0.3574  0.4299
 
              Baa    -0.3093   -41.502   -14.809   -13.844  0.8709  0.3314  0.3630
     7 C(13)  Bbb     0.1022    13.719     4.895     4.576 -0.4691  0.7811  0.4122
              Bcc     0.2070    27.782     9.913     9.267 -0.1469 -0.5293  0.8356
 
              Baa    -0.0889   -11.927    -4.256    -3.979  0.0819  0.9883 -0.1285
     8 C(13)  Bbb     0.0366     4.913     1.753     1.639  0.8507 -0.0022  0.5256
              Bcc     0.0523     7.014     2.503     2.340 -0.5192  0.1524  0.8410
 
              Baa    -0.8186   -31.570   -11.265   -10.531  0.9517  0.1358 -0.2752
     9 N(14)  Bbb    -0.4216   -16.260    -5.802    -5.424  0.2279  0.2882  0.9301
              Bcc     1.2402    47.831    17.067    15.955 -0.2057  0.9479 -0.2434
 
              Baa    -0.5475   -21.117    -7.535    -7.044  0.5824  0.1245  0.8033
    10 N(14)  Bbb    -0.5010   -19.321    -6.894    -6.445  0.7659 -0.4153 -0.4909
              Bcc     1.0485    40.438    14.429    13.489  0.2725  0.9011 -0.3372
 
              Baa    -1.0146    73.417    26.197    24.489  0.0446  0.2949  0.9545
    11 O(17)  Bbb    -0.5935    42.946    15.324    14.325  0.2778  0.9141 -0.2954
              Bcc     1.6081  -116.363   -41.521   -38.814  0.9596 -0.2783  0.0411
 
              Baa    -1.6046   116.105    41.429    38.728  0.5992 -0.5784  0.5536
    12 O(17)  Bbb     0.7191   -52.032   -18.566   -17.356 -0.5338  0.2268  0.8146
              Bcc     0.8855   -64.073   -22.863   -21.372  0.5967  0.7836  0.1728
 
              Baa    -1.6614   120.220    42.897    40.101  0.0987  0.1046  0.9896
    13 O(17)  Bbb     0.7969   -57.664   -20.576   -19.235  0.9919  0.0694 -0.1062
              Bcc     0.8645   -62.555   -22.321   -20.866 -0.0798  0.9921 -0.0969
 
              Baa    -0.6602   -27.068    -9.658    -9.029  0.9079 -0.0375 -0.4175
    14 S(33)  Bbb     0.2409     9.876     3.524     3.294  0.0660  0.9964  0.0540
              Bcc     0.4193    17.192     6.135     5.735  0.4140 -0.0766  0.9071
 
              Baa    -0.2877  -153.495   -54.771   -51.200  0.9390  0.1574  0.3058
    15 H(1)   Bbb     0.1368    72.995    26.046    24.348 -0.2970  0.8194  0.4903
              Bcc     0.1509    80.500    28.725    26.852 -0.1734 -0.5512  0.8161
 
              Baa    -0.2958  -157.815   -56.312   -52.641  0.0624 -0.2529  0.9655
    16 H(1)   Bbb     0.1395    74.420    26.555    24.824 -0.6338  0.7372  0.2341
              Bcc     0.1563    83.395    29.757    27.818  0.7710  0.6266  0.1142
 
              Baa    -0.2952  -157.509   -56.203   -52.539  0.1875  0.9793 -0.0760
    17 H(1)   Bbb     0.1419    75.713    27.016    25.255  0.6974 -0.1873 -0.6917
              Bcc     0.1533    81.796    29.187    27.284  0.6917 -0.0767  0.7181
 
              Baa    -0.2903  -154.914   -55.277   -51.674  0.9237  0.1843  0.3359
    18 H(1)   Bbb     0.1413    75.384    26.899    25.146 -0.1905 -0.5399  0.8199
              Bcc     0.1491    79.530    28.378    26.528 -0.3324  0.8213  0.4636
 
              Baa    -0.2905  -155.021   -55.315   -51.709  0.6484 -0.4938 -0.5795
    19 H(1)   Bbb     0.1395    74.418    26.554    24.823  0.3663 -0.4649  0.8060
              Bcc     0.1511    80.603    28.761    26.886  0.6674  0.7349  0.1205
 
              Baa    -0.2968  -158.348   -56.502   -52.819  0.1743  0.9782 -0.1132
    20 H(1)   Bbb     0.1429    76.254    27.209    25.436  0.1240  0.0922  0.9880
              Bcc     0.1539    82.093    29.293    27.383  0.9769 -0.1862 -0.1052
 
              Baa    -0.2871  -153.183   -54.660   -51.096  0.7331  0.6796 -0.0256
    21 H(1)   Bbb     0.1326    70.733    25.239    23.594 -0.5979  0.6620  0.4519
              Bcc     0.1545    82.450    29.420    27.502  0.3240 -0.3160  0.8917
 
              Baa    -0.2896  -154.525   -55.138   -51.544  0.1772  0.3126  0.9332
    22 H(1)   Bbb     0.1371    73.150    26.102    24.400  0.9526 -0.2926 -0.0829
              Bcc     0.1525    81.374    29.036    27.144  0.2472  0.9037 -0.3496
 
              Baa    -0.2877  -153.501   -54.773   -51.202 -0.3178  0.7784 -0.5414
    23 H(1)   Bbb     0.1328    70.847    25.280    23.632  0.7402 -0.1532 -0.6547
              Bcc     0.1549    82.654    29.493    27.570  0.5926  0.6088  0.5274
 
              Baa    -0.2845  -151.772   -54.156   -50.626 -0.3066  0.7454 -0.5919
    24 H(1)   Bbb     0.1320    70.410    25.124    23.486 -0.0884  0.5969  0.7975
              Bcc     0.1525    81.362    29.032    27.140  0.9477  0.2968 -0.1172
 
              Baa    -0.2988  -159.447   -56.895   -53.186  0.8577 -0.3613 -0.3657
    25 H(1)   Bbb     0.1347    71.858    25.641    23.969  0.4565  0.2083  0.8650
              Bcc     0.1642    87.589    31.254    29.216  0.2363  0.9089 -0.3437
 
              Baa    -0.2840  -151.518   -54.065   -50.541  0.6892  0.7235  0.0397
    26 H(1)   Bbb     0.1322    70.513    25.161    23.521 -0.1966  0.1339  0.9713
              Bcc     0.1518    81.005    28.904    27.020  0.6974 -0.6772  0.2345
 
              Baa    -0.2930  -156.340   -55.786   -52.149  0.9427  0.0612 -0.3280
    27 H(1)   Bbb     0.1359    72.526    25.879    24.192  0.0416  0.9538  0.2975
              Bcc     0.1571    83.814    29.907    27.957  0.3311 -0.2941  0.8966
 
              Baa    -0.2945  -157.119   -56.064   -52.409 -0.0353  0.1782  0.9834
    28 H(1)   Bbb     0.1362    72.681    25.934    24.244  0.4191  0.8959 -0.1473
              Bcc     0.1583    84.438    30.130    28.166  0.9072 -0.4070  0.1063
 
              Baa    -0.2967  -158.291   -56.482   -52.800 -0.5922  0.6327 -0.4990
    29 H(1)   Bbb     0.1392    74.245    26.492    24.765  0.5328  0.7720  0.3466
              Bcc     0.1575    84.046    29.990    28.035 -0.6045  0.0606  0.7943
 
              Baa    -0.2820  -150.484   -53.696   -50.196 -0.0504 -0.1687  0.9844
    30 H(1)   Bbb     0.1309    69.847    24.923    23.299  0.9165  0.3837  0.1127
              Bcc     0.1511    80.637    28.773    26.897 -0.3967  0.9079  0.1353
 
              Baa    -0.2798  -149.267   -53.262   -49.790  0.9162  0.2575  0.3069
    31 H(1)   Bbb     0.1339    71.424    25.486    23.825 -0.2171  0.9630 -0.1599
              Bcc     0.1459    77.843    27.776    25.966 -0.3367  0.0798  0.9382
 
              Baa    -0.3762  -200.709   -71.618   -66.949 -0.0072 -0.0027  1.0000
    32 H(1)   Bbb     0.1476    78.747    28.099    26.267  0.9515  0.3076  0.0077
              Bcc     0.2286   121.962    43.519    40.682 -0.3076  0.9515  0.0003
 

 ---------------------------------------------------------------------------------

 No NMR shielding tensors so no spin-rotation constants.
 Leave Link  601 at Sat Feb 17 21:01:30 2018, MaxMem=   33554432 cpu:       0.7
 Merz-Kollman atomic radii used.
 Read replacement radii for each type of atom:
 Atom Element Radius
    1     6    1.50
    2     6    1.50
    3     6    1.50
    4     6    1.50
    5     6    1.50
    6     6    1.50
    7     6    1.50
    8     6    1.50
    9     7    1.50
   10     7    1.50
   11     8    1.40
   12     8    1.40
   13     8    1.40
   14    16    1.75
   15     1    1.20
   16     1    1.20
   17     1    1.20
   18     1    1.20
   19     1    1.20
   20     1    1.20
   21     1    1.20
   22     1    1.20
   23     1    1.20
   24     1    1.20
   25     1    1.20
   26     1    1.20
   27     1    1.20
   28     1    1.20
   29     1    1.20
   30     1    1.20
   31     1    1.20
   32     1    1.20
 Generate VDW surfaces: Layer= 4 Dens= 1 Start= 1.400 Inc= 0.200

 **********************************************************************

            Electrostatic Properties Using The SCF Density

 **********************************************************************

       Atomic Center    1 is at   1.649747 -0.500259 -0.428051
       Atomic Center    2 is at  -0.526847  2.503724  0.792965
       Atomic Center    3 is at   0.353341  2.104643 -1.545132
       Atomic Center    4 is at   3.992005 -1.136471 -0.261415
       Atomic Center    5 is at   2.948547 -0.090204  1.696582
       Atomic Center    6 is at  -2.838531 -2.143138 -0.140195
       Atomic Center    7 is at   0.395557  0.174719  0.165695
       Atomic Center    8 is at   0.480921  1.720994 -0.062755
       Atomic Center    9 is at  -0.733985 -0.513876 -0.467804
       Atomic Center   10 is at   2.787722 -0.565995  0.331427
       Atomic Center   11 is at   1.610255 -0.918607 -1.585445
       Atomic Center   12 is at  -3.149192  0.430206 -0.615852
       Atomic Center   13 is at  -2.130553 -0.269074  1.615797
       Atomic Center   14 is at  -2.278958 -0.457364  0.167843
       Atomic Center   15 is at  -1.554976  2.334807  0.458917
       Atomic Center   16 is at  -0.469650  2.225919  1.850993
       Atomic Center   17 is at  -0.324773  3.578243  0.710643
       Atomic Center   18 is at  -0.661799  1.908269 -1.909626
       Atomic Center   19 is at   1.058234  1.555246 -2.176620
       Atomic Center   20 is at   0.542174  3.176370 -1.671804
       Atomic Center   21 is at   4.795187 -0.388539 -0.290781
       Atomic Center   22 is at   3.759367 -1.463241 -1.273340
       Atomic Center   23 is at   4.337744 -1.991839  0.332935
       Atomic Center   24 is at   3.283595 -0.910502  2.344940
       Atomic Center   25 is at   2.019249  0.304836  2.101308
       Atomic Center   26 is at   3.705380  0.704770  1.738344
       Atomic Center   27 is at  -3.868586 -2.207057  0.218103
       Atomic Center   28 is at  -2.804181 -2.340967 -1.213615
       Atomic Center   29 is at  -2.193044 -2.833018  0.404166
       Atomic Center   30 is at   0.296914 -0.020603  1.234530
       Atomic Center   31 is at   1.489448  2.007811  0.271770
       Atomic Center   32 is at  -0.695635 -0.507827 -1.483865
      ESP Fit Center   33 is at   0.458782 -1.874705  0.621949
      ESP Fit Center   34 is at   1.390925 -2.300401  0.621949
      ESP Fit Center   35 is at   0.905076 -2.463793 -0.428051
      ESP Fit Center   36 is at   1.902874 -2.584947 -0.428051
      ESP Fit Center   37 is at   3.179695  0.482979 -1.478051
      ESP Fit Center   38 is at   1.003102  3.486962  1.842965
      ESP Fit Center   39 is at  -1.717812  3.878170  1.842965
      ESP Fit Center   40 is at  -2.271832  3.016098  1.842965
      ESP Fit Center   41 is at  -2.098720  3.896281  0.792965
      ESP Fit Center   42 is at  -1.717812  3.878170 -0.257035
      ESP Fit Center   43 is at  -1.218531  3.497200 -1.545132
      ESP Fit Center   44 is at  -0.837623  3.479089 -2.595132
      ESP Fit Center   45 is at   0.878341  3.013969 -3.363786
      ESP Fit Center   46 is at  -0.171659  3.013969 -3.363786
      ESP Fit Center   47 is at  -0.171659  1.195316 -3.363786
      ESP Fit Center   48 is at   0.353341  2.104643 -3.645132
      ESP Fit Center   49 is at   3.733184  0.663671 -1.311415
      ESP Fit Center   50 is at   5.521954 -2.119710 -1.311415
      ESP Fit Center   51 is at   2.948547 -0.090204  3.796582
      ESP Fit Center   52 is at   3.473547  0.819123  3.515235
      ESP Fit Center   53 is at   2.689726  1.709938  2.746582
      ESP Fit Center   54 is at   1.376675 -1.482761  1.696582
      ESP Fit Center   55 is at   2.203877 -2.053738  1.696582
      ESP Fit Center   56 is at  -2.838531 -2.143138  1.959805
      ESP Fit Center   57 is at  -3.363531 -3.052465  1.678458
      ESP Fit Center   58 is at  -3.583201 -4.106672 -0.140195
      ESP Fit Center   59 is at  -4.583516 -1.630764 -1.190195
      ESP Fit Center   60 is at  -4.029496 -3.517585 -1.190195
      ESP Fit Center   61 is at  -1.308582 -3.126377 -1.190195
      ESP Fit Center   62 is at   0.021511 -2.168181  0.582196
      ESP Fit Center   63 is at  -0.480858 -2.598564 -0.467804
      ESP Fit Center   64 is at   0.458951 -2.242142 -0.467804
      ESP Fit Center   65 is at  -0.992806 -2.314018 -1.517804
      ESP Fit Center   66 is at   0.021511 -2.168181 -1.517804
      ESP Fit Center   67 is at   1.596757 -1.940442  1.381427
      ESP Fit Center   68 is at   2.528900 -2.366138  1.381427
      ESP Fit Center   69 is at   2.043051 -2.529530  0.331427
      ESP Fit Center   70 is at   3.543217  1.088310 -0.718573
      ESP Fit Center   71 is at   1.085726 -2.532939 -0.605445
      ESP Fit Center   72 is at   0.630255 -2.616016 -1.585445
      ESP Fit Center   73 is at   1.610255 -2.878607 -1.585445
      ESP Fit Center   74 is at   2.983488  0.079106 -2.565445
      ESP Fit Center   75 is at   0.237021 -1.916319 -2.565445
      ESP Fit Center   76 is at   1.085726 -2.532939 -2.565445
      ESP Fit Center   77 is at   2.134783 -2.532939 -2.565445
      ESP Fit Center   78 is at   2.590255 -0.918607 -3.282855
      ESP Fit Center   79 is at   2.100255 -0.069902 -3.282855
      ESP Fit Center   80 is at   1.120255 -0.069902 -3.282855
      ESP Fit Center   81 is at   0.630255 -0.918607 -3.282855
      ESP Fit Center   82 is at   1.120255 -1.767312 -3.282855
      ESP Fit Center   83 is at   2.100255 -1.767312 -3.282855
      ESP Fit Center   84 is at   1.610255 -0.918607 -3.545445
      ESP Fit Center   85 is at  -3.673720  2.044539  0.364148
      ESP Fit Center   86 is at  -4.522425  1.427919  0.364148
      ESP Fit Center   87 is at  -4.846602  0.430206  0.364148
      ESP Fit Center   88 is at  -3.149192  2.390206 -0.615852
      ESP Fit Center   89 is at  -4.129192  2.127616 -0.615852
      ESP Fit Center   90 is at  -4.846602  1.410206 -0.615852
      ESP Fit Center   91 is at  -5.109192  0.430206 -0.615852
      ESP Fit Center   92 is at  -4.846602 -0.549794 -0.615852
      ESP Fit Center   93 is at  -2.624663  2.044539 -1.595852
      ESP Fit Center   94 is at  -3.673720  2.044539 -1.595852
      ESP Fit Center   95 is at  -4.522425  1.427919 -1.595852
      ESP Fit Center   96 is at  -4.846602  0.430206 -1.595852
      ESP Fit Center   97 is at  -4.522425 -0.567506 -1.595852
      ESP Fit Center   98 is at  -2.169192  0.430206 -2.313262
      ESP Fit Center   99 is at  -2.659192  1.278911 -2.313262
      ESP Fit Center  100 is at  -3.639192  1.278911 -2.313262
      ESP Fit Center  101 is at  -4.129192  0.430206 -2.313262
      ESP Fit Center  102 is at  -3.639192 -0.418499 -2.313262
      ESP Fit Center  103 is at  -2.659192 -0.418499 -2.313262
      ESP Fit Center  104 is at  -3.149192  0.430206 -2.575852
      ESP Fit Center  105 is at  -2.130553 -0.269074  3.575797
      ESP Fit Center  106 is at  -1.150553 -0.269074  3.313206
      ESP Fit Center  107 is at  -1.640553  0.579630  3.313206
      ESP Fit Center  108 is at  -2.620553  0.579630  3.313206
      ESP Fit Center  109 is at  -3.110553 -0.269074  3.313206
      ESP Fit Center  110 is at  -2.620553 -1.117779  3.313206
      ESP Fit Center  111 is at  -1.640553 -1.117779  3.313206
      ESP Fit Center  112 is at  -0.757320  0.728638  2.595797
      ESP Fit Center  113 is at  -2.655082  1.345258  2.595797
      ESP Fit Center  114 is at  -3.503786  0.728638  2.595797
      ESP Fit Center  115 is at  -3.827963 -0.269074  2.595797
      ESP Fit Center  116 is at  -3.503786 -1.266787  2.595797
      ESP Fit Center  117 is at  -2.655082 -1.883407  2.595797
      ESP Fit Center  118 is at  -1.606025 -1.883407  2.595797
      ESP Fit Center  119 is at  -0.757320 -1.266787  2.595797
      ESP Fit Center  120 is at  -3.110553  1.428335  1.615797
      ESP Fit Center  121 is at  -4.116854  0.082291  1.695393
      ESP Fit Center  122 is at  -4.116854 -0.997019  1.695393
      ESP Fit Center  123 is at  -4.667531 -0.457364  0.713019
      ESP Fit Center  124 is at  -2.278958 -0.457364 -2.282157
      ESP Fit Center  125 is at  -2.353864  2.915232  1.818065
      ESP Fit Center  126 is at  -2.353864  1.754381  1.818065
      ESP Fit Center  127 is at  -2.353864  3.718520  0.978065
      ESP Fit Center  128 is at  -3.056394  2.881278  0.978065
      ESP Fit Center  129 is at  -3.056394  1.788335  0.978065
      ESP Fit Center  130 is at  -2.353864  3.718520 -0.060232
      ESP Fit Center  131 is at  -3.056394  2.881278 -0.060232
      ESP Fit Center  132 is at  -2.353864  2.915232 -0.900232
      ESP Fit Center  133 is at  -0.469650  2.225919  3.530993
      ESP Fit Center  134 is at   0.517829  2.225919  3.210142
      ESP Fit Center  135 is at  -0.164502  3.165068  3.210142
      ESP Fit Center  136 is at  -1.268538  2.806345  3.210142
      ESP Fit Center  137 is at  -1.268538  1.645494  3.210142
      ESP Fit Center  138 is at  -0.164502  1.286771  3.210142
      ESP Fit Center  139 is at   1.128125  2.225919  2.370142
      ESP Fit Center  140 is at   0.754316  3.252949  2.370142
      ESP Fit Center  141 is at  -1.971067  2.772391  2.370142
      ESP Fit Center  142 is at  -1.971067  1.679448  2.370142
      ESP Fit Center  143 is at  -0.019625  4.517391  2.069792
      ESP Fit Center  144 is at  -1.123660  4.158668  2.069792
      ESP Fit Center  145 is at   1.273002  3.578243  1.229792
      ESP Fit Center  146 is at   0.899194  4.605273  1.229792
      ESP Fit Center  147 is at  -0.047322  5.151744  1.229792
      ESP Fit Center  148 is at  -1.123660  4.961956  1.229792
      ESP Fit Center  149 is at  -1.826190  4.124714  1.229792
      ESP Fit Center  150 is at   0.899194  4.605273  0.191495
      ESP Fit Center  151 is at  -0.047322  5.151744  0.191495
      ESP Fit Center  152 is at  -1.123660  4.961956  0.191495
      ESP Fit Center  153 is at  -1.826190  4.124714  0.191495
      ESP Fit Center  154 is at  -0.019625  4.517391 -0.648505
      ESP Fit Center  155 is at  -1.123660  4.158668 -0.648505
      ESP Fit Center  156 is at  -1.460687  3.291982 -1.390477
      ESP Fit Center  157 is at  -2.163216  2.454740 -1.390477
      ESP Fit Center  158 is at  -1.460687  3.291982 -2.428774
      ESP Fit Center  159 is at  -2.163216  2.454740 -2.428774
      ESP Fit Center  160 is at  -2.163216  1.361797 -2.428774
      ESP Fit Center  161 is at  -1.460687  2.488694 -3.268774
      ESP Fit Center  162 is at  -1.460687  1.327843 -3.268774
      ESP Fit Center  163 is at  -0.356651  0.969120 -3.268774
      ESP Fit Center  164 is at  -0.661799  1.908269 -3.589626
      ESP Fit Center  165 is at   2.656009  1.555246 -1.657472
      ESP Fit Center  166 is at   2.656009  1.555246 -2.695769
      ESP Fit Center  167 is at   2.282201  2.582276 -2.695769
      ESP Fit Center  168 is at   0.259346  0.171533 -2.695769
      ESP Fit Center  169 is at   2.045713  1.555246 -3.535769
      ESP Fit Center  170 is at   1.363382  2.494395 -3.535769
      ESP Fit Center  171 is at   0.259346  0.974821 -3.535769
      ESP Fit Center  172 is at   1.363382  0.616098 -3.535769
      ESP Fit Center  173 is at   1.058234  1.555246 -3.856620
      ESP Fit Center  174 is at   2.139949  3.176370 -1.152655
      ESP Fit Center  175 is at   1.766140  4.203400 -1.152655
      ESP Fit Center  176 is at   0.819624  4.749871 -1.152655
      ESP Fit Center  177 is at  -0.256714  4.560084 -1.152655
      ESP Fit Center  178 is at  -0.959244  3.722841 -1.152655
      ESP Fit Center  179 is at   2.139949  3.176370 -2.190952
      ESP Fit Center  180 is at   1.766140  4.203400 -2.190952
      ESP Fit Center  181 is at   0.819624  4.749871 -2.190952
      ESP Fit Center  182 is at  -0.256714  4.560084 -2.190952
      ESP Fit Center  183 is at  -0.959244  3.722841 -2.190952
      ESP Fit Center  184 is at   1.529653  3.176370 -3.030952
      ESP Fit Center  185 is at   0.847321  4.115518 -3.030952
      ESP Fit Center  186 is at  -0.256714  3.756796 -3.030952
      ESP Fit Center  187 is at   0.542174  3.176370 -3.351804
      ESP Fit Center  188 is at   5.782666 -0.388539  1.068368
      ESP Fit Center  189 is at   6.392962 -0.388539  0.228368
      ESP Fit Center  190 is at   6.019154  0.638491  0.228368
      ESP Fit Center  191 is at   5.072638  1.184962  0.228368
      ESP Fit Center  192 is at   6.019154 -1.415569  0.228368
      ESP Fit Center  193 is at   6.392962 -0.388539 -0.809929
      ESP Fit Center  194 is at   6.019154  0.638491 -0.809929
      ESP Fit Center  195 is at   5.072638  1.184962 -0.809929
      ESP Fit Center  196 is at   3.996300  0.995175 -0.809929
      ESP Fit Center  197 is at   6.019154 -1.415569 -0.809929
      ESP Fit Center  198 is at   5.782666 -0.388539 -1.649929
      ESP Fit Center  199 is at   5.100335  0.550610 -1.649929
      ESP Fit Center  200 is at   2.960480 -2.846955 -1.792488
      ESP Fit Center  201 is at   4.036818 -3.036742 -1.792488
      ESP Fit Center  202 is at   4.983334 -2.490271 -1.792488
      ESP Fit Center  203 is at   4.746846 -1.463241 -2.632488
      ESP Fit Center  204 is at   4.064515 -0.524093 -2.632488
      ESP Fit Center  205 is at   2.960480 -2.043667 -2.632488
      ESP Fit Center  206 is at   4.064515 -2.402390 -2.632488
      ESP Fit Center  207 is at   3.759367 -1.463241 -2.953340
      ESP Fit Center  208 is at   5.325224 -1.991839  1.692084
      ESP Fit Center  209 is at   3.538857 -2.572265  1.692084
      ESP Fit Center  210 is at   4.642892 -2.930988  1.692084
      ESP Fit Center  211 is at   5.935519 -1.991839  0.852084
      ESP Fit Center  212 is at   3.538857 -3.375553  0.852084
      ESP Fit Center  213 is at   4.615195 -3.565340  0.852084
      ESP Fit Center  214 is at   5.561711 -3.018869  0.852084
      ESP Fit Center  215 is at   5.935519 -1.991839 -0.186213
      ESP Fit Center  216 is at   3.538857 -3.375553 -0.186213
      ESP Fit Center  217 is at   4.615195 -3.565340 -0.186213
      ESP Fit Center  218 is at   5.561711 -3.018869 -0.186213
      ESP Fit Center  219 is at   3.283595 -0.910502  4.024940
      ESP Fit Center  220 is at   4.271074 -0.910502  3.704088
      ESP Fit Center  221 is at   3.588743  0.028647  3.704088
      ESP Fit Center  222 is at   2.484708 -1.490928  3.704088
      ESP Fit Center  223 is at   3.588743 -1.849651  3.704088
      ESP Fit Center  224 is at   4.881370 -0.910502  2.864088
      ESP Fit Center  225 is at   1.782178 -1.456973  2.864088
      ESP Fit Center  226 is at   2.484708 -2.294216  2.864088
      ESP Fit Center  227 is at   3.561046 -2.484003  2.864088
      ESP Fit Center  228 is at   4.507562 -1.937532  2.864088
      ESP Fit Center  229 is at   4.881370 -0.910502  1.825791
      ESP Fit Center  230 is at   2.484708 -2.294216  1.825791
      ESP Fit Center  231 is at   3.561046 -2.484003  1.825791
      ESP Fit Center  232 is at   2.019249  0.304836  3.781308
      ESP Fit Center  233 is at   2.324396  1.243984  3.460457
      ESP Fit Center  234 is at   1.220361  0.885261  3.460457
      ESP Fit Center  235 is at   1.220361 -0.275590  3.460457
      ESP Fit Center  236 is at   2.296699  1.878337  2.620457
      ESP Fit Center  237 is at   1.220361  1.688549  2.620457
      ESP Fit Center  238 is at   1.220361 -1.078878  2.620457
      ESP Fit Center  239 is at   4.692859  0.704770  3.097492
      ESP Fit Center  240 is at   4.010528  1.643919  3.097492
      ESP Fit Center  241 is at   5.303155  0.704770  2.257492
      ESP Fit Center  242 is at   4.929347  1.731800  2.257492
      ESP Fit Center  243 is at   3.982831  2.278271  2.257492
      ESP Fit Center  244 is at   2.906493  2.088484  2.257492
      ESP Fit Center  245 is at   5.303155  0.704770  1.219195
      ESP Fit Center  246 is at   4.929347  1.731800  1.219195
      ESP Fit Center  247 is at   3.982831  2.278271  1.219195
      ESP Fit Center  248 is at   2.906493  2.088484  1.219195
      ESP Fit Center  249 is at   4.010528  1.643919  0.379195
      ESP Fit Center  250 is at  -3.868586 -2.207057  1.898103
      ESP Fit Center  251 is at  -4.667473 -1.626631  1.577252
      ESP Fit Center  252 is at  -4.667473 -2.787482  1.577252
      ESP Fit Center  253 is at  -3.563438 -3.146205  1.577252
      ESP Fit Center  254 is at  -4.667473 -0.823343  0.737252
      ESP Fit Center  255 is at  -5.370003 -1.660585  0.737252
      ESP Fit Center  256 is at  -5.370003 -2.753528  0.737252
      ESP Fit Center  257 is at  -4.667473 -3.590770  0.737252
      ESP Fit Center  258 is at  -4.667473 -0.823343 -0.301045
      ESP Fit Center  259 is at  -5.370003 -1.660585 -0.301045
      ESP Fit Center  260 is at  -5.370003 -2.753528 -0.301045
      ESP Fit Center  261 is at  -4.667473 -3.590770 -0.301045
      ESP Fit Center  262 is at  -4.667473 -1.626631 -1.141045
      ESP Fit Center  263 is at  -4.667473 -2.787482 -1.141045
      ESP Fit Center  264 is at  -1.206406 -2.340967 -1.732763
      ESP Fit Center  265 is at  -4.305598 -1.794496 -1.732763
      ESP Fit Center  266 is at  -4.305598 -2.887439 -1.732763
      ESP Fit Center  267 is at  -3.603068 -3.724681 -1.732763
      ESP Fit Center  268 is at  -2.526730 -3.914469 -1.732763
      ESP Fit Center  269 is at  -1.580214 -3.367997 -1.732763
      ESP Fit Center  270 is at  -1.816702 -2.340967 -2.572763
      ESP Fit Center  271 is at  -2.499033 -1.401819 -2.572763
      ESP Fit Center  272 is at  -3.603068 -1.760542 -2.572763
      ESP Fit Center  273 is at  -3.603068 -2.921393 -2.572763
      ESP Fit Center  274 is at  -2.499033 -3.280116 -2.572763
      ESP Fit Center  275 is at  -2.804181 -2.340967 -2.893615
      ESP Fit Center  276 is at  -2.193044 -2.833018  2.084166
      ESP Fit Center  277 is at  -1.205565 -2.833018  1.763314
      ESP Fit Center  278 is at  -2.991932 -3.413444  1.763314
      ESP Fit Center  279 is at  -1.887896 -3.772167  1.763314
      ESP Fit Center  280 is at  -0.595269 -2.833018  0.923314
      ESP Fit Center  281 is at  -2.991932 -4.216732  0.923314
      ESP Fit Center  282 is at  -1.915594 -4.406519  0.923314
      ESP Fit Center  283 is at  -0.969078 -3.860048  0.923314
      ESP Fit Center  284 is at  -0.595269 -2.833018 -0.114983
      ESP Fit Center  285 is at  -1.915594 -4.406519 -0.114983
      ESP Fit Center  286 is at  -0.969078 -3.860048 -0.114983
      ESP Fit Center  287 is at   0.296914 -0.020603  2.914530
      ESP Fit Center  288 is at  -0.501974  0.559823  2.593679
      ESP Fit Center  289 is at   0.602061 -0.959751  2.593679
      ESP Fit Center  290 is at  -0.501974 -1.404316  1.753679
      ESP Fit Center  291 is at   0.574364 -1.594104  1.753679
      ESP Fit Center  292 is at   1.489448  2.007811  1.951770
      ESP Fit Center  293 is at   2.476927  2.007811  1.630918
      ESP Fit Center  294 is at   1.794596  2.946959  1.630918
[...]
  576 Fit       0.015773
  577 Fit       0.017527
  578 Fit      -0.002662
  579 Fit       0.010192
  580 Fit       0.015696
  581 Fit       0.015651
  582 Fit      -0.000514
  583 Fit       0.011535
  584 Fit       0.016825
  585 Fit       0.018482
  586 Fit       0.017608
  587 Fit       0.014244
  588 Fit       0.019374
  589 Fit       0.020657
  590 Fit       0.010601
  591 Fit       0.014106
  592 Fit       0.017861
  593 Fit       0.018045
  594 Fit       0.017495
  595 Fit       0.000973
  596 Fit       0.005709
  597 Fit       0.011744
  598 Fit       0.012608
  599 Fit       0.010935
  600 Fit       0.016849
  601 Fit       0.017328
  602 Fit       0.015584
  603 Fit       0.004336
  604 Fit       0.018891
  605 Fit       0.018296
  606 Fit       0.017084
  607 Fit       0.013166
  608 Fit       0.016903
  609 Fit       0.011251
  610 Fit       0.010934
  611 Fit      -0.005758
  612 Fit      -0.001965
  613 Fit       0.015958
  614 Fit       0.015828
  615 Fit       0.017493
  616 Fit       0.012118
  617 Fit       0.018774
  618 Fit       0.015352
  619 Fit       0.012075
  620 Fit       0.011529
  621 Fit       0.010358
  622 Fit       0.018985
  623 Fit      -0.012856
  624 Fit       0.001621
  625 Fit       0.010367
  626 Fit       0.015717
  627 Fit       0.015943
  628 Fit      -0.005813
  629 Fit       0.008266
  630 Fit       0.003213
  631 Fit      -0.010259
  632 Fit      -0.009130
  633 Fit       0.004009
  634 Fit       0.005521
  635 Fit       0.000388
  636 Fit      -0.003935
  637 Fit      -0.009344
  638 Fit      -0.017220
  639 Fit       0.009684
  640 Fit      -0.009233
  641 Fit      -0.016223
  642 Fit      -0.011191
  643 Fit      -0.009757
  644 Fit      -0.010353
  645 Fit       0.004881
  646 Fit       0.004731
  647 Fit      -0.008685
  648 Fit       0.000390
  649 Fit      -0.002203
  650 Fit      -0.005989
  651 Fit      -0.004183
  652 Fit      -0.005244
  653 Fit      -0.005737
  654 Fit      -0.005704
  655 Fit       0.017615
  656 Fit       0.001121
  657 Fit       0.012930
  658 Fit       0.005292
  659 Fit       0.008869
  660 Fit       0.010473
  661 Fit       0.007905
  662 Fit      -0.004069
  663 Fit       0.007687
  664 Fit       0.017770
  665 Fit       0.018310
  666 Fit       0.018029
  667 Fit       0.019012
  668 Fit       0.018466
  669 Fit       0.018596
  670 Fit       0.013334
  671 Fit       0.003466
  672 Fit       0.015472
  673 Fit       0.015343
  674 Fit       0.016230
  675 Fit       0.015214
  676 Fit       0.015787
  677 Fit       0.015339
  678 Fit       0.011870
  679 Fit       0.000604
  680 Fit       0.000357
  681 Fit       0.006692
  682 Fit      -0.009339
  683 Fit      -0.010861
  684 Fit       0.009282
  685 Fit       0.008217
  686 Fit      -0.016251
  687 Fit      -0.014188
  688 Fit      -0.017039
  689 Fit      -0.022867
  690 Fit      -0.022218
  691 Fit      -0.018654
  692 Fit      -0.020764
  693 Fit      -0.026741
  694 Fit      -0.025826
  695 Fit      -0.026491
  696 Fit      -0.024255
  697 Fit      -0.021641
  698 Fit      -0.021008
  699 Fit      -0.026734
  700 Fit      -0.028457
  701 Fit      -0.027448
  702 Fit      -0.039154
  703 Fit      -0.034910
  704 Fit      -0.034571
  705 Fit      -0.038582
  706 Fit      -0.037230
  707 Fit      -0.030286
  708 Fit      -0.034518
  709 Fit      -0.037106
  710 Fit      -0.036192
  711 Fit      -0.031254
  712 Fit      -0.019298
  713 Fit      -0.031896
  714 Fit      -0.034497
  715 Fit      -0.032943
  716 Fit      -0.026119
  717 Fit      -0.010674
  718 Fit      -0.003467
  719 Fit      -0.021304
  720 Fit      -0.029645
  721 Fit      -0.027264
  722 Fit      -0.014174
  723 Fit      -0.020097
  724 Fit      -0.028898
  725 Fit      -0.021274
  726 Fit      -0.026172
  727 Fit      -0.032794
  728 Fit      -0.032335
  729 Fit      -0.027964
  730 Fit      -0.024098
  731 Fit      -0.032373
  732 Fit      -0.036590
  733 Fit      -0.034479
  734 Fit      -0.028074
  735 Fit      -0.022047
  736 Fit      -0.018699
  737 Fit      -0.016888
  738 Fit      -0.012205
  739 Fit      -0.038686
  740 Fit      -0.035656
  741 Fit      -0.037390
  742 Fit      -0.029399
  743 Fit      -0.014598
  744 Fit       0.004445
  745 Fit      -0.012239
  746 Fit       0.006631
  747 Fit      -0.024664
  748 Fit      -0.017652
  749 Fit      -0.030658
  750 Fit      -0.017100
  751 Fit      -0.001748
  752 Fit       0.007750
  753 Fit       0.001658
  754 Fit      -0.004945
  755 Fit      -0.012914
  756 Fit      -0.013661
  757 Fit       0.003795
  758 Fit       0.016350
  759 Fit       0.006992
  760 Fit       0.000772
  761 Fit      -0.018376
  762 Fit       0.000500
  763 Fit      -0.003921
  764 Fit       0.005450
  765 Fit       0.003065
  766 Fit      -0.000141
  767 Fit      -0.004951
  768 Fit       0.007890
  769 Fit       0.005496
  770 Fit       0.002843
  771 Fit      -0.001018
  772 Fit      -0.006433
  773 Fit       0.005110
  774 Fit       0.000947
  775 Fit      -0.004762
  776 Fit      -0.015042
  777 Fit      -0.009441
  778 Fit      -0.014585
  779 Fit      -0.017291
  780 Fit      -0.000430
  781 Fit      -0.006437
  782 Fit      -0.006895
  783 Fit      -0.002301
  784 Fit      -0.005407
  785 Fit      -0.000771
  786 Fit       0.001658
  787 Fit      -0.005100
  788 Fit      -0.001713
  789 Fit      -0.006385
  790 Fit      -0.003985
  791 Fit      -0.010069
  792 Fit      -0.014403
  793 Fit      -0.006563
  794 Fit       0.008171
  795 Fit       0.007083
  796 Fit       0.004888
  797 Fit       0.005174
  798 Fit       0.004140
  799 Fit       0.001217
  800 Fit      -0.003904
  801 Fit       0.001888
  802 Fit       0.002523
  803 Fit       0.000934
  804 Fit      -0.002876
  805 Fit      -0.000797
  806 Fit      -0.002684
  807 Fit       0.018795
  808 Fit       0.015534
  809 Fit       0.017061
  810 Fit       0.019973
  811 Fit       0.013539
  812 Fit       0.014233
  813 Fit       0.014772
  814 Fit       0.014991
  815 Fit       0.013404
  816 Fit       0.011155
  817 Fit       0.011242
  818 Fit       0.010450
  819 Fit       0.008121
  820 Fit       0.007635
  821 Fit       0.005989
  822 Fit      -0.006213
  823 Fit      -0.005878
  824 Fit       0.002463
  825 Fit       0.006160
  826 Fit       0.000764
  827 Fit      -0.005107
  828 Fit      -0.016785
  829 Fit      -0.002033
  830 Fit      -0.011579
  831 Fit       0.018799
  832 Fit       0.017645
  833 Fit       0.015593
  834 Fit       0.011639
  835 Fit       0.012946
  836 Fit       0.014148
  837 Fit       0.014885
  838 Fit       0.014074
  839 Fit       0.007464
  840 Fit       0.010160
  841 Fit       0.011904
  842 Fit       0.012971
  843 Fit       0.004830
  844 Fit       0.008586
  845 Fit       0.011008
  846 Fit       0.016834
  847 Fit       0.017711
  848 Fit       0.015875
  849 Fit       0.015463
  850 Fit       0.016985
  851 Fit       0.018351
  852 Fit       0.013954
  853 Fit       0.015699
  854 Fit       0.017492
  855 Fit       0.018223
  856 Fit       0.019633
  857 Fit       0.013759
  858 Fit       0.016962
  859 Fit       0.020069
  860 Fit       0.016818
  861 Fit       0.015600
  862 Fit       0.012672
  863 Fit       0.014619
  864 Fit       0.016978
  865 Fit       0.012356
  866 Fit       0.018776
  867 Fit       0.018191
  868 Fit       0.018400
  869 Fit       0.018076
  870 Fit       0.017672
  871 Fit       0.017602
  872 Fit       0.019295
  873 Fit       0.018547
  874 Fit       0.017846
  875 Fit       0.017475
  876 Fit       0.018684
  877 Fit       0.018970
  878 Fit       0.017287
  879 Fit      -0.004104
  880 Fit       0.003703
  881 Fit       0.008025
  882 Fit       0.004154
  883 Fit       0.009744
  884 Fit       0.012347
  885 Fit       0.013983
  886 Fit      -0.007453
  887 Fit       0.004420
  888 Fit       0.010423
  889 Fit       0.013419
  890 Fit       0.015276
  891 Fit       0.002193
  892 Fit       0.010147
  893 Fit       0.014206
  894 Fit       0.003566
  895 Fit       0.011518
  896 Fit       0.014672
  897 Fit       0.015326
  898 Fit       0.013803
  899 Fit       0.009666
  900 Fit       0.014732
  901 Fit       0.016094
  902 Fit       0.006211
  903 Fit       0.010392
  904 Fit       0.014179
  905 Fit       0.014058
  906 Fit       0.013338
  907 Fit      -0.002746
  908 Fit       0.002365
  909 Fit       0.008827
  910 Fit       0.009419
  911 Fit       0.008493
  912 Fit       0.013893
  913 Fit       0.014114
  914 Fit       0.013961
  915 Fit       0.012182
  916 Fit       0.015925
  917 Fit       0.015173
  918 Fit       0.013519
  919 Fit       0.009574
  920 Fit       0.013431
  921 Fit       0.007172
  922 Fit       0.007805
  923 Fit       0.002914
  924 Fit       0.014518
  925 Fit       0.016770
  926 Fit       0.011658
  927 Fit       0.014287
  928 Fit       0.011151
  929 Fit       0.009591
  930 Fit       0.010084
  931 Fit       0.009208
  932 Fit       0.008839
  933 Fit       0.010017
  934 Fit       0.011182
  935 Fit      -0.009278
  936 Fit       0.003455
  937 Fit      -0.001404
  938 Fit      -0.001083
  939 Fit       0.000641
  940 Fit      -0.003561
  941 Fit      -0.008544
  942 Fit      -0.015720
  943 Fit       0.009606
  944 Fit      -0.006881
  945 Fit      -0.012443
  946 Fit      -0.020538
  947 Fit      -0.008477
  948 Fit      -0.014511
  949 Fit      -0.008759
  950 Fit       0.002927
  951 Fit      -0.000311
  952 Fit      -0.002370
  953 Fit      -0.005600
  954 Fit      -0.004046
  955 Fit      -0.004942
  956 Fit      -0.005493
  957 Fit      -0.005806
  958 Fit      -0.005457
  959 Fit       0.017188
  960 Fit       0.014679
  961 Fit       0.012454
  962 Fit      -0.000200
  963 Fit       0.009773
  964 Fit       0.010526
  965 Fit       0.009028
  966 Fit       0.002675
  967 Fit       0.004259
  968 Fit       0.006979
  969 Fit       0.008273
  970 Fit       0.005768
  971 Fit       0.004737
  972 Fit       0.001452
  973 Fit      -0.006073
  974 Fit       0.015247
  975 Fit       0.016385
  976 Fit       0.015801
  977 Fit       0.015072
  978 Fit       0.013827
  979 Fit       0.016890
  980 Fit       0.016814
  981 Fit       0.016401
  982 Fit       0.015705
  983 Fit       0.017174
  984 Fit       0.015895
  985 Fit       0.009773
  986 Fit       0.010689
  987 Fit       0.018106
  988 Fit      -0.000127
  989 Fit       0.011806
  990 Fit       0.013074
  991 Fit       0.013143
  992 Fit       0.012923
  993 Fit       0.013169
  994 Fit       0.013403
  995 Fit      -0.001639
  996 Fit       0.007838
  997 Fit       0.011693
  998 Fit       0.013264
  999 Fit       0.013660
 1000 Fit       0.012499
 1001 Fit       0.008188
 1002 Fit       0.009417
 1003 Fit       0.011195
 1004 Fit       0.004501
 1005 Fit       0.014148
 1006 Fit       0.007425
 1007 Fit      -0.008011
 1008 Fit      -0.014176
 1009 Fit      -0.014466
 1010 Fit      -0.015201
 1011 Fit      -0.019054
 1012 Fit      -0.017924
 1013 Fit      -0.015786
 1014 Fit      -0.010910
 1015 Fit      -0.018721
 1016 Fit      -0.021707
 1017 Fit      -0.020532
 1018 Fit      -0.021294
 1019 Fit      -0.019627
 1020 Fit      -0.017723
 1021 Fit      -0.017202
 1022 Fit      -0.021257
 1023 Fit      -0.022722
 1024 Fit      -0.021844
 1025 Fit      -0.032411
 1026 Fit      -0.032632
 1027 Fit      -0.028630
 1028 Fit      -0.029708
 1029 Fit      -0.032106
 1030 Fit      -0.031684
 1031 Fit      -0.028445
 1032 Fit      -0.021074
 1033 Fit      -0.027182
 1034 Fit      -0.030261
 1035 Fit      -0.030494
 1036 Fit      -0.028061
 1037 Fit      -0.021889
 1038 Fit      -0.010232
 1039 Fit      -0.024300
 1040 Fit      -0.027802
 1041 Fit      -0.027746
 1042 Fit      -0.024354
 1043 Fit      -0.016409
 1044 Fit      -0.016680
 1045 Fit      -0.023514
 1046 Fit      -0.021372
 1047 Fit      -0.010797
 1048 Fit      -0.015421
 1049 Fit      -0.023376
 1050 Fit      -0.017036
 1051 Fit      -0.021143
 1052 Fit      -0.026659
 1053 Fit      -0.026421
 1054 Fit      -0.022750
 1055 Fit      -0.019267
 1056 Fit      -0.004462
 1057 Fit      -0.024462
 1058 Fit      -0.029372
 1059 Fit      -0.029799
 1060 Fit      -0.026575
 1061 Fit      -0.021835
 1062 Fit      -0.017986
 1063 Fit      -0.015531
 1064 Fit      -0.013409
 1065 Fit      -0.009240
 1066 Fit      -0.031478
 1067 Fit      -0.032006
 1068 Fit      -0.027235
 1069 Fit      -0.003980
 1070 Fit      -0.003371
 1071 Fit      -0.032470
 1072 Fit      -0.026623
 1073 Fit      -0.016157
 1074 Fit       0.002169
 1075 Fit      -0.029646
 1076 Fit      -0.018533
 1077 Fit       0.003845
 1078 Fit      -0.023663
 1079 Fit      -0.021929
 1080 Fit      -0.014939
 1081 Fit      -0.025058
 1082 Fit      -0.017087
 1083 Fit      -0.002203
 1084 Fit       0.006037
 1085 Fit       0.001184
 1086 Fit      -0.004735
 1087 Fit      -0.011430
 1088 Fit      -0.011490
 1089 Fit       0.002169
 1090 Fit       0.006639
 1091 Fit       0.001168
 1092 Fit      -0.003420
 1093 Fit      -0.008647
 1094 Fit      -0.016299
 1095 Fit       0.004688
 1096 Fit       0.002080
 1097 Fit      -0.000963
 1098 Fit      -0.005179
 1099 Fit       0.007328
 1100 Fit       0.004731
 1101 Fit       0.002371
 1102 Fit      -0.000643
 1103 Fit      -0.004748
 1104 Fit       0.007974
 1105 Fit       0.005438
 1106 Fit       0.002894
 1107 Fit      -0.000366
 1108 Fit      -0.004760
 1109 Fit       0.000234
 1110 Fit      -0.005075
 1111 Fit      -0.010893
 1112 Fit      -0.018647
 1113 Fit      -0.008580
 1114 Fit      -0.012272
 1115 Fit      -0.012955
 1116 Fit      -0.001675
 1117 Fit      -0.006199
 1118 Fit      -0.006659
 1119 Fit      -0.003505
 1120 Fit      -0.002782
 1121 Fit       0.000258
 1122 Fit      -0.005616
 1123 Fit      -0.002334
 1124 Fit      -0.006499
 1125 Fit      -0.004183
 1126 Fit      -0.009295
 1127 Fit      -0.012384
 1128 Fit      -0.006506
 1129 Fit       0.006198
 1130 Fit       0.005544
 1131 Fit       0.004458
 1132 Fit       0.002264
 1133 Fit      -0.001866
 1134 Fit       0.003170
 1135 Fit       0.003483
 1136 Fit       0.002771
 1137 Fit       0.000742
 1138 Fit      -0.002816
 1139 Fit       0.000728
 1140 Fit       0.001071
 1141 Fit      -0.000322
 1142 Fit      -0.003363
 1143 Fit      -0.001531
 1144 Fit      -0.003080
 1145 Fit       0.015076
 1146 Fit       0.016593
 1147 Fit       0.013029
 1148 Fit       0.013719
 1149 Fit       0.014711
 1150 Fit       0.016168
 1151 Fit       0.011232
 1152 Fit       0.011533
 1153 Fit       0.011664
 1154 Fit       0.011414
 1155 Fit       0.010542
 1156 Fit       0.008995
 1157 Fit       0.008823
 1158 Fit       0.007862
 1159 Fit       0.005403
 1160 Fit       0.004205
 1161 Fit      -0.005165
 1162 Fit       0.001884
 1163 Fit       0.004668
 1164 Fit      -0.007152
 1165 Fit       0.000452
 1166 Fit       0.003826
 1167 Fit      -0.001145
 1168 Fit      -0.006137
 1169 Fit      -0.015789
 1170 Fit      -0.003737
 1171 Fit      -0.011516
 1172 Fit       0.016872
 1173 Fit       0.015084
 1174 Fit       0.012551
 1175 Fit       0.012734
 1176 Fit       0.013408
 1177 Fit       0.014089
 1178 Fit       0.013429
 1179 Fit       0.007098
 1180 Fit       0.008997
 1181 Fit       0.010535
 1182 Fit       0.011634
 1183 Fit       0.012441
 1184 Fit       0.005366
 1185 Fit       0.007982
 1186 Fit       0.009710
 1187 Fit       0.010999
 1188 Fit       0.014895
 1189 Fit       0.015741
 1190 Fit       0.013943
 1191 Fit       0.013662
 1192 Fit       0.014924
 1193 Fit       0.016444
 1194 Fit       0.012351
 1195 Fit       0.013842
 1196 Fit       0.015274
 1197 Fit       0.016034
 1198 Fit       0.017418
 1199 Fit       0.011783
 1200 Fit       0.013213
 1201 Fit       0.015312
 1202 Fit       0.016888
 1203 Fit       0.017241
 1204 Fit       0.012056
 1205 Fit       0.013029
 1206 Fit       0.010297
 1207 Fit       0.014360
 1208 Fit       0.009202
 1209 Fit       0.016470
 1210 Fit       0.016696
 1211 Fit       0.016142
 1212 Fit       0.015771
 1213 Fit       0.015859
 1214 Fit       0.017025
 1215 Fit       0.016421
 1216 Fit       0.015896
 1217 Fit       0.015529
 1218 Fit       0.015837
 1219 Fit       0.016995
 1220 Fit       0.015912
 1221 Fit       0.015533
 1222 Fit       0.015156
 1223 Fit       0.000119
 1224 Fit       0.004631
 1225 Fit       0.000815
 1226 Fit       0.006302
 1227 Fit       0.009075
 1228 Fit      -0.001670
 1229 Fit       0.005290
 1230 Fit       0.009165
 1231 Fit       0.011346
 1232 Fit      -0.003547
 1233 Fit       0.005007
 1234 Fit       0.009473
 1235 Fit       0.012099
 1236 Fit      -0.000156
 1237 Fit       0.007780
 1238 Fit       0.013017
 1239 Fit       0.002224
 1240 Fit       0.008973
 1241 Fit       0.011927
 1242 Fit       0.012561
 1243 Fit       0.011139
 1244 Fit       0.007480
 1245 Fit       0.011073
 1246 Fit       0.011438
 1247 Fit       0.004750
 1248 Fit       0.008029
 1249 Fit       0.011231
 1250 Fit       0.011068
 1251 Fit       0.010193
 1252 Fit      -0.005117
 1253 Fit      -0.000836
 1254 Fit       0.005593
 1255 Fit       0.006090
 1256 Fit       0.006130
 1257 Fit       0.011037
 1258 Fit       0.010923
 1259 Fit       0.009503
 1260 Fit       0.013037
 1261 Fit       0.012576
 1262 Fit       0.011345
 1263 Fit       0.008904
 1264 Fit       0.012583
 1265 Fit       0.009986
 1266 Fit       0.004551
 1267 Fit       0.000972
 1268 Fit       0.013981
 1269 Fit       0.016342
 1270 Fit       0.011004
 1271 Fit       0.015430
 1272 Fit       0.011422
 1273 Fit       0.008985
 1274 Fit       0.011519
 1275 Fit       0.009367
 1276 Fit       0.007090
 1277 Fit       0.005897
 1278 Fit       0.005991
 1279 Fit       0.006615
 1280 Fit       0.000357
 -----------------------------------------------------------------
 Leave Link  602 at Sat Feb 17 21:01:30 2018, MaxMem=   33554432 cpu:       0.7

 Test job not archived.
 1\1\GINC-NODE055\SP\RHF\6-31G(d)\C8H18N2O3S1\WULSDORT\17-Feb-2018\0\\#
 HF/6-31G* Geom=AllCheck Guess=Read Pop=(MK,ReadRadii) Integral=(Grid=U
 ltraFine) iop(6/33=2)\\Optimization for frag25-conf0\\0,1\C,0,0.978848
 5305,-4.3704468444,-1.2542991328\C,0,0.8301135769,-0.5655137574,-0.386
 7098192\C,0,-0.7487456962,-2.3767253451,0.4053820374\C,0,0.3769993292,
 -5.7462198097,-3.1683876447\C,0,1.3892562883,-3.5553316265,-3.60722174
 65\C,0,4.3290209251,-3.6386433766,2.0874606163\C,0,1.5013904987,-3.043
 5248035,-0.664937266\C,0,0.3343784516,-2.0012677241,-0.6177404177\N,0,
 2.0925038202,-3.4153111936,0.6249104822\N,0,0.9421358167,-4.5207153254
 ,-2.6152495082\O,0,0.5634622963,-5.2404414891,-0.4883361169\O,0,2.5434
 295794,-1.7635962971,2.5780969813\O,0,3.860299495,-1.6335084844,0.3973
 159292\S,0,3.1733912472,-2.4233483394,1.4260806916\H,0,1.2225802513,-0
 .4335230479,0.6260682652\H,0,1.6217622011,-0.2866035821,-1.0905374698\
 H,0,-0.0021470835,0.1370564236,-0.5129588002\H,0,-0.3633367542,-2.2860
 671919,1.4277173087\H,0,-1.1142400302,-3.398517557,0.2645222592\H,0,-1
 .5998287567,-1.6924659933,0.3173498721\H,0,-0.4991798559,-5.5173260924
 ,-3.7891009106\H,0,0.0827347907,-6.3950191438,-2.3453694468\H,0,1.1200
 559776,-6.2568518587,-3.7941379324\H,0,2.1476970755,-4.0082322938,-4.2
 592666125\H,0,1.8222517752,-2.6701260808,-3.1463733881\H,0,0.548075998
 9,-3.23641468,-4.2374845133\H,0,5.0748934365,-3.0873602834,2.664727367
 4\H,0,3.7886320556,-4.328620311,2.7389647557\H,0,4.7940546678,-4.17027
 48078,1.2567814506\H,0,2.3206915362,-2.6315228192,-1.2559448934\H,0,-0
 .1238566481,-2.0342693449,-1.6178544295\H,0,1.4546965841,-3.9221903015
 ,1.2333200446\\Version=AM64L-G09RevC.01\State=1-A\HF=-1044.3456876\RMS
 D=4.999e-09\Dipole=0.0059983,-0.9054941,-1.4443836\Quadrupole=1.252291
 6,-7.3734763,6.1211847,-7.3003607,5.0644502,-3.5844953\PG=C01 [X(C8H18
 N2O3S1)]\\@


 I LOVE THOSE WHO LONG FOR THE IMPOSSIBLE.

                                 -- GOETHE
 Job cpu time:  0 days  0 hours  4 minutes  2.9 seconds.
 File lengths (MBytes):  RWF=     37 Int=      0 D2E=      0 Chk=      6 Scr=      1
 Normal termination of Gaussian 09 at Sat Feb 17 21:01:30 2018.
