 Entering Gaussian System, Link 0=g09
 Initial command:
 /home/fb_chem/chemsoft/lx24-amd64/Gaussian_09_C.01_NBO_3.1_64_istanbul-64/g09/l1.exe /local/2426263.1.parallel_long/Gau-23250.inp -scrdir=/local/2426263.1.parallel_long/
 Entering Link 1 = /home/fb_chem/chemsoft/lx24-amd64/Gaussian_09_C.01_NBO_3.1_64_istanbul-64/g09/l1.exe PID=     23251.
  
 Copyright (c) 1988,1990,1992,1993,1995,1998,2003,2009,2011,
            Gaussian, Inc.  All Rights Reserved.
  
 This is part of the Gaussian(R) 09 program.  It is based on
 the Gaussian(R) 03 system (copyright 2003, Gaussian, Inc.),
 the Gaussian(R) 98 system (copyright 1998, Gaussian, Inc.),
 the Gaussian(R) 94 system (copyright 1995, Gaussian, Inc.),
 the Gaussian 92(TM) system (copyright 1992, Gaussian, Inc.),
 the Gaussian 90(TM) system (copyright 1990, Gaussian, Inc.),
 the Gaussian 88(TM) system (copyright 1988, Gaussian, Inc.),
 the Gaussian 86(TM) system (copyright 1986, Carnegie Mellon
 University), and the Gaussian 82(TM) system (copyright 1983,
 Carnegie Mellon University). Gaussian is a federally registered
 trademark of Gaussian, Inc.
  
 This software contains proprietary and confidential information,
 including trade secrets, belonging to Gaussian, Inc.
  
 This software is provided under written license and may be
 used, copied, transmitted, or stored only in accord with that
 written license.
  
 The following legend is applicable only to US Government
 contracts under FAR:
  
                    RESTRICTED RIGHTS LEGEND
  
 Use, reproduction and disclosure by the US Government is
 subject to restrictions as set forth in subparagraphs (a)
 and (c) of the Commercial Computer Software - Restricted
 Rights clause in FAR 52.227-19.
  
 Gaussian, Inc.
 340 Quinnipiac St., Bldg. 40, Wallingford CT 06492
  
  
 ---------------------------------------------------------------
 Warning -- This program may not be used in any manner that
 competes with the business of Gaussian, Inc. or will provide
 assistance to any competitor of Gaussian, Inc.  The licensee
 of this program is prohibited from giving any competitor of
 Gaussian, Inc. access to this program.  By using this program,
 the user acknowledges that Gaussian, Inc. is engaged in the
 business of creating and licensing software in the field of
 computational chemistry and represents and warrants to the
 licensee that it is not a competitor of Gaussian, Inc. and that
 it will not use this program in any manner prohibited above.
 ---------------------------------------------------------------
  

 Cite this work as:
 Gaussian 09, Revision C.01,
 M. J. Frisch, G. W. Trucks, H. B. Schlegel, G. E. Scuseria, 
 M. A. Robb, J. R. Cheeseman, G. Scalmani, V. Barone, B. Mennucci, 
 G. A. Petersson, H. Nakatsuji, M. Caricato, X. Li, H. P. Hratchian, 
 A. F. Izmaylov, J. Bloino, G. Zheng, J. L. Sonnenberg, M. Hada, 
 M. Ehara, K. Toyota, R. Fukuda, J. Hasegawa, M. Ishida, T. Nakajima, 
 Y. Honda, O. Kitao, H. Nakai, T. Vreven, J. A. Montgomery, Jr., 
 J. E. Peralta, F. Ogliaro, M. Bearpark, J. J. Heyd, E. Brothers, 
 K. N. Kudin, V. N. Staroverov, T. Keith, R. Kobayashi, J. Normand, 
 K. Raghavachari, A. Rendell, J. C. Burant, S. S. Iyengar, J. Tomasi, 
 M. Cossi, N. Rega, J. M. Millam, M. Klene, J. E. Knox, J. B. Cross, 
 V. Bakken, C. Adamo, J. Jaramillo, R. Gomperts, R. E. Stratmann, 
 O. Yazyev, A. J. Austin, R. Cammi, C. Pomelli, J. W. Ochterski, 
 R. L. Martin, K. Morokuma, V. G. Zakrzewski, G. A. Voth, 
 P. Salvador, J. J. Dannenberg, S. Dapprich, A. D. Daniels, 
 O. Farkas, J. B. Foresman, J. V. Ortiz, J. Cioslowski, 
 and D. J. Fox, Gaussian, Inc., Wallingford CT, 2010.
 
 ******************************************
 Gaussian 09:  AM64L-G09RevC.01 23-Sep-2011
                26-Feb-2018 
 ******************************************
 %nprocs=4
 Will use up to    4 processors via shared memory.
 %chk=frag1-conf0.chk
 ----------------------------------------------------------------------
 #HF/6-31G* Geom=AllCheck Guess=Read Pop=(MK,ReadRadii) Integral=(Grid=
 UltraFine) iop(6/33=2)
 ----------------------------------------------------------------------
 1/29=7,38=1/1;
 2/12=2,40=1/2;
 3/5=1,6=6,7=1,11=9,14=-4,16=1,25=1,30=1,75=-5,116=-2/1,2,3;
 4/5=1/1;
 5/5=2,38=6/2;
 6/7=2,8=2,9=2,10=2,15=8,20=101,28=1,33=2/1,2;
 99/5=1,9=1/99;
 Structure from the checkpoint file:  frag1-conf0.chk
 ----------------------------
 Optimization for frag1-conf0
 ----------------------------
 Charge =  0 Multiplicity = 1
 Redundant internal coordinates found in file.
 C,0,-1.2952094947,-1.0160782897,-0.5207393904
 C,0,-0.4424472379,-2.7085504511,2.198636668
 C,0,-2.6829296176,-0.9609589162,0.1131931014
 C,0,0.8216880674,-0.5343858745,2.5169596255
 C,0,-1.1076704425,-4.395918273,3.8269855313
 C,0,-1.6609338029,-2.0613245802,4.3215964406
 C,0,1.1140563273,-1.2963888852,-0.2852451598
 C,0,-0.3401087362,-1.2179552408,1.771224167
 N,0,-1.0760242818,-3.0063730194,3.3842892961
 N,0,-0.2034517061,-1.0981425304,0.3218346339
 O,0,-1.1758790812,-0.9724832258,-1.7399403658
 O,0,0.0511533936,-3.5825719295,1.4939957006
 H,0,-2.8317511772,-0.0417095582,0.6929688261
 H,0,-3.4054270268,-0.9745696112,-0.7033024407
 H,0,-2.875274662,-1.8134599731,0.7740555507
 H,0,1.7678854219,-1.0542991958,2.3450021941
 H,0,0.9268266561,0.5027784938,2.1832970574
 H,0,0.6352111229,-0.5306878389,3.5953386773
 H,0,-0.5513316431,-4.5140814508,4.7666647296
 H,0,-0.6544205441,-5.0150067084,3.0548572966
 H,0,-2.1437619046,-4.7153256923,3.9966714573
 H,0,-2.6863733643,-2.366349793,4.5674345112
 H,0,-1.6996725297,-1.0527120841,3.9144974772
 H,0,-1.086590577,-2.0310629314,5.258672791
 H,0,1.7800581885,-0.4516927477,-0.073768176
 H,0,0.9648235644,-1.3640948504,-1.3615969406
 H,0,1.5597236745,-2.2227888691,0.0836346437
 H,0,-1.2555858051,-0.6938340079,2.0452329939
 Recover connectivity data from disk.
                          Input orientation:                          
 ---------------------------------------------------------------------
 Center     Atomic      Atomic             Coordinates (Angstroms)
 Number     Number       Type             X           Y           Z
 ---------------------------------------------------------------------
      1          6           0       -1.295209   -1.016078   -0.520739
      2          6           0       -0.442447   -2.708550    2.198637
      3          6           0       -2.682930   -0.960959    0.113193
      4          6           0        0.821688   -0.534386    2.516960
      5          6           0       -1.107670   -4.395918    3.826986
      6          6           0       -1.660934   -2.061325    4.321596
      7          6           0        1.114056   -1.296389   -0.285245
      8          6           0       -0.340109   -1.217955    1.771224
      9          7           0       -1.076024   -3.006373    3.384289
     10          7           0       -0.203452   -1.098143    0.321835
     11          8           0       -1.175879   -0.972483   -1.739940
     12          8           0        0.051153   -3.582572    1.493996
     13          1           0       -2.831751   -0.041710    0.692969
     14          1           0       -3.405427   -0.974570   -0.703302
     15          1           0       -2.875275   -1.813460    0.774056
     16          1           0        1.767885   -1.054299    2.345002
     17          1           0        0.926827    0.502778    2.183297
     18          1           0        0.635211   -0.530688    3.595339
     19          1           0       -0.551332   -4.514081    4.766665
     20          1           0       -0.654421   -5.015007    3.054857
     21          1           0       -2.143762   -4.715326    3.996671
     22          1           0       -2.686373   -2.366350    4.567435
     23          1           0       -1.699673   -1.052712    3.914497
     24          1           0       -1.086591   -2.031063    5.258673
     25          1           0        1.780058   -0.451693   -0.073768
     26          1           0        0.964824   -1.364095   -1.361597
     27          1           0        1.559724   -2.222789    0.083635
     28          1           0       -1.255586   -0.693834    2.045233
 ---------------------------------------------------------------------
                    Distance matrix (angstroms):
                    1          2          3          4          5
     1  C    0.000000
     2  C    3.314615   0.000000
     3  C    1.526655   3.524615   0.000000
     4  C    3.733751   2.535026   4.271113   0.000000
     5  C    5.510100   2.437468   5.298362   4.511100   0.000000
     6  C    4.967344   2.531910   4.468326   3.428070   2.449708
     7  C    2.436923   3.253701   3.832541   2.918643   5.608350
     8  C    2.491198   1.554036   2.881653   1.540506   3.861963
     9  N    4.388458   1.376913   4.179226   3.234856   1.458704
    10  N    1.381521   2.484536   2.492020   2.487430   4.896838
    11  O    1.225802   4.366262   2.388606   4.722648   6.535688
    12  O    3.529694   1.226407   4.031709   3.306300   2.728964
    13  H    2.187108   3.884308   1.096954   4.113063   5.635038
    14  H    2.118507   4.495241   1.090345   5.332200   6.124445
    15  H    2.192924   2.957916   1.095671   4.282672   4.371944
    16  H    4.194817   2.764695   4.979903   1.093238   4.650969
    17  H    3.815257   3.491100   4.411145   1.094575   5.553208
    18  H    4.572114   2.802715   4.829133   1.094390   4.246328
    19  H    6.383261   3.141109   6.230826   4.773294   1.098395
    20  H    5.402493   2.469370   5.404030   4.748073   1.088526
    21  H    5.900125   3.186620   5.428386   5.335138   1.097406
    22  H    5.445005   3.280779   4.670696   4.457245   2.675765
    23  H    4.453791   2.695662   3.927484   2.928999   3.396344
    24  H    5.871569   3.199645   5.492666   3.660404   2.764546
    25  H    3.158415   3.898302   4.495839   2.763545   6.253940
    26  H    2.436372   4.057491   3.955203   3.968892   6.356774
    27  H    3.157857   2.952607   4.426420   3.052290   5.084305
    28  H    2.586431   2.178029   2.416908   2.136122   4.111198
                    6          7          8          9         10
     6  C    0.000000
     7  C    5.432190   0.000000
     8  C    2.993368   2.519884   0.000000
     9  N    1.453885   4.602823   2.518331   0.000000
    10  N    4.364638   1.464129   1.460740   3.712325   0.000000
    11  O    6.177628   2.732189   3.617602   5.514019   2.283051
    12  O    3.638786   3.085789   2.412748   2.275026   2.758836
    13  H    4.314695   4.254471   2.958795   4.372072   2.856878
    14  H    5.428987   4.550172   3.946986   5.124719   3.364346
    15  H    3.757806   4.159837   2.788555   3.387280   2.802645
    16  H    4.083849   2.721085   2.190809   3.602573   2.825119
    17  H    4.224151   3.060353   2.176202   4.215203   2.702872
    18  H    2.853521   3.984284   2.179674   3.016933   3.426542
    19  H    2.728611   6.216820   4.458893   2.111741   5.616598
    20  H    3.367779   5.302067   4.020461   2.078674   4.797355
    21  H    2.717061   6.374741   4.520772   2.106085   5.509378
    22  H    1.097726   6.255924   3.826560   2.098258   5.079209
    23  H    1.088361   5.061056   2.543490   2.118218   3.892039
    24  H    1.099499   6.009794   3.657961   2.112973   5.101240
    25  H    5.809524   1.096263   2.913119   5.161566   2.123372
    26  H    6.299160   1.088755   3.396877   5.420846   2.066286
    27  H    5.325319   1.092204   2.732583   4.295986   2.104841
    28  H    2.686293   3.377781   1.089900   2.678274   2.059260
                   11         12         13         14         15
    11  O    0.000000
    12  O    4.333188   0.000000
    13  H    3.086632   4.635784   0.000000
    14  H    2.458761   4.855692   1.774516   0.000000
    15  H    3.148867   3.494575   1.774139   1.779715   0.000000
    16  H    5.035792   3.172309   4.991113   6.005138   4.960155
    17  H    4.689303   4.234623   4.079761   5.411417   4.669786
    18  H    5.651587   3.751101   4.547821   5.916258   4.682804
    19  H    7.434305   3.455584   6.465093   7.112984   5.351168
    20  H    6.293171   2.232934   5.920555   6.165787   4.514881
    21  H    6.917686   3.516272   5.764587   6.137981   4.397862
    22  H    6.633810   4.291768   4.520683   5.498614   3.838111
    23  H    5.679213   3.914641   3.561176   4.923391   3.438481
    24  H    7.078782   4.227817   5.277193   6.483697   4.833067
    25  H    3.432917   3.905048   4.693054   5.249664   4.923956
    26  H    2.208871   3.729724   4.514856   4.436685   4.416933
    27  H    3.517416   2.472633   4.940997   5.179772   4.507044
    28  H    3.796253   3.218111   2.176737   3.500725   2.343682
                   16         17         18         19         20
    16  H    0.000000
    17  H    1.777082   0.000000
    18  H    1.766483   1.773966   0.000000
    19  H    4.818019   5.833320   4.318253   0.000000
    20  H    4.696665   5.805679   4.697274   1.786572   0.000000
    21  H    5.606435   6.320241   5.039341   1.780231   1.787445
    22  H    5.147922   5.193383   3.917595   3.034938   3.664984
    23  H    3.806215   3.509288   2.413722   3.745124   4.187041
    24  H    4.194231   4.464542   2.825315   2.587268   3.734634
    25  H    2.492736   2.594872   3.844380   6.735590   6.044735
    26  H    3.805228   4.006611   5.037303   7.055263   5.954509
    27  H    2.553915   3.498265   4.006244   5.624709   4.639728
    28  H    3.059604   2.492763   2.450420   4.743043   4.478088
                   21         22         23         24         25
    21  H    0.000000
    22  H    2.477476   0.000000
    23  H    3.690353   1.767922   0.000000
    24  H    3.148893   1.774692   1.771961   0.000000
    25  H    7.081201   6.719798   5.326914   6.256757   0.000000
    26  H    7.043088   7.034854   5.918925   6.962838   1.776397
    27  H    5.936363   6.176926   5.164131   5.815562   1.791676
    28  H    4.557342   3.347531   1.954522   3.484672   3.709977
                   26         27         28
    26  H    0.000000
    27  H    1.783243   0.000000
    28  H    4.121402   3.756533   0.000000
 Stoichiometry    C8H16N2O2
 Framework group  C1[X(C8H16N2O2)]
 Deg. of freedom    78
 Full point group                 C1      NOp   1
 Largest Abelian subgroup         C1      NOp   1
 Largest concise Abelian subgroup C1      NOp   1
                         Standard orientation:                         
 ---------------------------------------------------------------------
 Center     Atomic      Atomic             Coordinates (Angstroms)
 Number     Number       Type             X           Y           Z
 ---------------------------------------------------------------------
      1          6           0        2.175867   -0.772859    0.016983
      2          6           0       -0.953397    0.229069    0.453462
      3          6           0        1.547299   -2.064842   -0.499114
      4          6           0       -0.185231    1.722697   -1.445315
      5          6           0       -3.202835   -0.397354    1.152660
      6          6           0       -2.634968   -0.664260   -1.215326
      7          6           0        1.992540    1.609771    0.494540
      8          6           0        0.101031    0.421606   -0.671766
      9          7           0       -2.184427   -0.286096    0.114255
     10          7           0        1.456373    0.397635   -0.127494
     11          8           0        3.290657   -0.794131    0.526279
     12          8           0       -0.684440    0.551084    1.605870
     13          1           0        1.431744   -2.056426   -1.589932
     14          1           0        2.224056   -2.876344   -0.230196
     15          1           0        0.564278   -2.258266   -0.055549
     16          1           0       -0.204580    2.588394   -0.777961
     17          1           0        0.582945    1.885941   -2.207779
     18          1           0       -1.157471    1.665527   -1.944485
     19          1           0       -4.058920    0.251864    0.924393
     20          1           0       -2.762201   -0.098939    2.102228
     21          1           0       -3.562501   -1.431932    1.220405
     22          1           0       -3.055471   -1.677986   -1.192117
     23          1           0       -1.823127   -0.654588   -1.940136
     24          1           0       -3.421214    0.016553   -1.571988
     25          1           0        2.223690    2.373249   -0.257433
     26          1           0        2.913146    1.329246    1.003636
     27          1           0        1.277263    2.005667    1.218800
     28          1           0        0.033153   -0.401323   -1.383147
 ---------------------------------------------------------------------
 Rotational constants (GHZ):      1.4422903      0.5854042      0.5523314
 Standard basis: 6-31G(d) (6D, 7F)
 There are   212 symmetry adapted basis functions of A   symmetry.
 Integral buffers will be    131072 words long.
 Raffenetti 1 integral format.
 Two-electron integral symmetry is turned on.
   212 basis functions,   400 primitive gaussians,   212 cartesian basis functions
    47 alpha electrons       47 beta electrons
       nuclear repulsion energy       775.2282592000 Hartrees.
 NAtoms=   28 NActive=   28 NUniq=   28 SFac= 1.00D+00 NAtFMM=   60 NAOKFM=F Big=F
 One-electron integrals computed using PRISM.
 NBasis=   212 RedAO= T  NBF=   212
 NBsUse=   212 1.00D-06 NBFU=   212
 Initial guess read from the checkpoint file:  frag1-conf0.chk
 B after Tr=     0.000000    0.000000    0.000000
         Rot=    1.000000    0.000000    0.000000    0.000000 Ang=   0.00 deg.
 Initial guess orbital symmetries:
       Occupied  (A) (A) (A) (A) (A) (A) (A) (A) (A) (A) (A) (A)
                 (A) (A) (A) (A) (A) (A) (A) (A) (A) (A) (A) (A)
                 (A) (A) (A) (A) (A) (A) (A) (A) (A) (A) (A) (A)
                 (A) (A) (A) (A) (A) (A) (A) (A) (A) (A) (A)
       Virtual   (A) (A) (A) (A) (A) (A) (A) (A) (A) (A) (A) (A)
                 (A) (A) (A) (A) (A) (A) (A) (A) (A) (A) (A) (A)
                 (A) (A) (A) (A) (A) (A) (A) (A) (A) (A) (A) (A)
                 (A) (A) (A) (A) (A) (A) (A) (A) (A) (A) (A) (A)
                 (A) (A) (A) (A) (A) (A) (A) (A) (A) (A) (A) (A)
                 (A) (A) (A) (A) (A) (A) (A) (A) (A) (A) (A) (A)
                 (A) (A) (A) (A) (A) (A) (A) (A) (A) (A) (A) (A)
                 (A) (A) (A) (A) (A) (A) (A) (A) (A) (A) (A) (A)
                 (A) (A) (A) (A) (A) (A) (A) (A) (A) (A) (A) (A)
                 (A) (A) (A) (A) (A) (A) (A) (A) (A) (A) (A) (A)
                 (A) (A) (A) (A) (A) (A) (A) (A) (A) (A) (A) (A)
                 (A) (A) (A) (A) (A) (A) (A) (A) (A) (A) (A) (A)
                 (A) (A) (A) (A) (A) (A) (A) (A) (A) (A) (A) (A)
                 (A) (A) (A) (A) (A) (A) (A) (A) (A)
 Requested convergence on RMS density matrix=1.00D-08 within 128 cycles.
 Requested convergence on MAX density matrix=1.00D-06.
 Requested convergence on             energy=1.00D-06.
 No special actions if energy rises.
 SCF Done:  E(RHF) =  -570.888469102     A.U. after   13 cycles
             Convg  =    0.7660D-08             -V/T =  2.0025

 **********************************************************************

            Population analysis using the SCF density.

 **********************************************************************

 Orbital symmetries:
 BldTbl:  Degeneracy threshold= 1.00D-02
       Occupied  (A) (A) (A) (A) (A) (A) (A) (A) (A) (A) (A) (A)
                 (A) (A) (A) (A) (A) (A) (A) (A) (A) (A) (A) (A)
                 (A) (A) (A) (A) (A) (A) (A) (A) (A) (A) (A) (A)
                 (A) (A) (A) (A) (A) (A) (A) (A) (A) (A) (A)
       Virtual   (A) (A) (A) (A) (A) (A) (A) (A) (A) (A) (A) (A)
                 (A) (A) (A) (A) (A) (A) (A) (A) (A) (A) (A) (A)
                 (A) (A) (A) (A) (A) (A) (A) (A) (A) (A) (A) (A)
                 (A) (A) (A) (A) (A) (A) (A) (A) (A) (A) (A) (A)
                 (A) (A) (A) (A) (A) (A) (A) (A) (A) (A) (A) (A)
                 (A) (A) (A) (A) (A) (A) (A) (A) (A) (A) (A) (A)
                 (A) (A) (A) (A) (A) (A) (A) (A) (A) (A) (A) (A)
                 (A) (A) (A) (A) (A) (A) (A) (A) (A) (A) (A) (A)
                 (A) (A) (A) (A) (A) (A) (A) (A) (A) (A) (A) (A)
                 (A) (A) (A) (A) (A) (A) (A) (A) (A) (A) (A) (A)
                 (A) (A) (A) (A) (A) (A) (A) (A) (A) (A) (A) (A)
                 (A) (A) (A) (A) (A) (A) (A) (A) (A) (A) (A) (A)
                 (A) (A) (A) (A) (A) (A) (A) (A) (A) (A) (A) (A)
                 (A) (A) (A) (A) (A) (A) (A) (A) (A)
 The electronic state is 1-A.
 Alpha  occ. eigenvalues --  -20.53008 -20.51419 -15.60483 -15.58511 -11.36058
 Alpha  occ. eigenvalues --  -11.34758 -11.29799 -11.28605 -11.26259 -11.24529
 Alpha  occ. eigenvalues --  -11.23750 -11.23685  -1.38502  -1.36559  -1.25137
 Alpha  occ. eigenvalues --   -1.23742  -1.05294  -1.01007  -0.98424  -0.95249
 Alpha  occ. eigenvalues --   -0.92541  -0.87190  -0.77016  -0.72396  -0.71621
 Alpha  occ. eigenvalues --   -0.68104  -0.66461  -0.65203  -0.63356  -0.62030
 Alpha  occ. eigenvalues --   -0.60223  -0.58705  -0.57698  -0.57547  -0.56926
 Alpha  occ. eigenvalues --   -0.55876  -0.55562  -0.54410  -0.53971  -0.53058
 Alpha  occ. eigenvalues --   -0.51487  -0.50584  -0.49552  -0.42688  -0.40776
 Alpha  occ. eigenvalues --   -0.37925  -0.35987
 Alpha virt. eigenvalues --    0.17547   0.19785   0.20161   0.23455   0.24916
 Alpha virt. eigenvalues --    0.26560   0.27505   0.28982   0.29462   0.30598
 Alpha virt. eigenvalues --    0.30944   0.31537   0.32011   0.32604   0.32683
 Alpha virt. eigenvalues --    0.34080   0.34247   0.35427   0.36767   0.37667
 Alpha virt. eigenvalues --    0.39118   0.39803   0.42837   0.45577   0.48243
 Alpha virt. eigenvalues --    0.51058   0.53502   0.57471   0.59297   0.69079
 Alpha virt. eigenvalues --    0.69548   0.70405   0.71412   0.74446   0.75122
 Alpha virt. eigenvalues --    0.76627   0.77570   0.78277   0.81322   0.84607
 Alpha virt. eigenvalues --    0.84686   0.87694   0.91601   0.91925   0.92849
 Alpha virt. eigenvalues --    0.93846   0.95127   0.95346   0.98203   0.99457
 Alpha virt. eigenvalues --    0.99764   1.01895   1.03622   1.05952   1.06836
 Alpha virt. eigenvalues --    1.09293   1.11038   1.12322   1.12633   1.13021
 Alpha virt. eigenvalues --    1.13510   1.14766   1.15568   1.16893   1.17749
 Alpha virt. eigenvalues --    1.18177   1.18639   1.20742   1.20978   1.22422
 Alpha virt. eigenvalues --    1.22955   1.24790   1.26409   1.27394   1.29665
 Alpha virt. eigenvalues --    1.31587   1.32715   1.34812   1.37421   1.38602
 Alpha virt. eigenvalues --    1.41635   1.44009   1.49702   1.56955   1.59118
 Alpha virt. eigenvalues --    1.61551   1.62292   1.63841   1.66258   1.69784
 Alpha virt. eigenvalues --    1.70400   1.72643   1.73753   1.82077   1.85964
 Alpha virt. eigenvalues --    1.89154   1.92767   1.94509   2.00161   2.02955
 Alpha virt. eigenvalues --    2.03934   2.07630   2.09638   2.11809   2.13999
 Alpha virt. eigenvalues --    2.14331   2.15751   2.18809   2.21375   2.22560
 Alpha virt. eigenvalues --    2.23697   2.25590   2.27417   2.27995   2.32697
 Alpha virt. eigenvalues --    2.33937   2.36547   2.38158   2.40326   2.42001
 Alpha virt. eigenvalues --    2.42532   2.43380   2.45026   2.51714   2.51901
 Alpha virt. eigenvalues --    2.52879   2.58618   2.59219   2.60933   2.64510
 Alpha virt. eigenvalues --    2.65039   2.65754   2.69245   2.70316   2.71187
 Alpha virt. eigenvalues --    2.74024   2.80892   2.83851   2.86431   2.91554
 Alpha virt. eigenvalues --    2.93835   2.96636   2.97643   3.02219   3.06234
 Alpha virt. eigenvalues --    3.07162   3.12899   3.30065   3.32631   3.38389
 Alpha virt. eigenvalues --    3.39625   3.53182   3.56308   4.36861   4.44381
 Alpha virt. eigenvalues --    4.50897   4.53783   4.62272   4.65119   4.67145
 Alpha virt. eigenvalues --    4.77106   4.77881   4.85588   4.97787   5.08921
          Condensed to atoms (all electrons):
              1          2          3          4          5          6
     1  C    4.131955  -0.000160   0.358137   0.001028  -0.000002  -0.000019
     2  C   -0.000160   4.254322  -0.000020  -0.060299  -0.029066  -0.023017
     3  C    0.358137  -0.000020   5.307753  -0.000046   0.000004   0.000116
     4  C    0.001028  -0.060299  -0.000046   5.146637  -0.000284  -0.002004
     5  C   -0.000002  -0.029066   0.000004  -0.000284   4.975867  -0.051661
     6  C   -0.000019  -0.023017   0.000116  -0.002004  -0.051661   4.944753
     7  C   -0.027334   0.000624   0.003271  -0.009807   0.000002  -0.000006
     8  C   -0.029238   0.333163  -0.005489   0.338379   0.003069  -0.002178
     9  N    0.000101   0.264542  -0.000571   0.005027   0.214380   0.224942
    10  N    0.282386  -0.068919  -0.111925  -0.053829  -0.000091   0.000234
    11  O    0.602075  -0.000051  -0.072442  -0.000041   0.000000   0.000000
    12  O    0.002154   0.588804  -0.000043  -0.000790  -0.007999   0.001747
    13  H   -0.029215   0.000367   0.373236   0.000019   0.000000   0.000026
    14  H   -0.032126  -0.000025   0.384196   0.000000   0.000000  -0.000001
    15  H   -0.029040   0.000974   0.372166   0.000174  -0.000022  -0.000007
    16  H   -0.000114  -0.004037  -0.000012   0.392489   0.000001  -0.000007
    17  H    0.000009   0.004469  -0.000006   0.389661   0.000004   0.000053
    18  H   -0.000011  -0.000307   0.000011   0.388576  -0.000017  -0.000964
    19  H    0.000000   0.001131   0.000000   0.000018   0.398821  -0.001705
    20  H   -0.000001  -0.005083   0.000000  -0.000023   0.395093   0.003136
    21  H    0.000000   0.001343   0.000003  -0.000001   0.399063  -0.002572
    22  H    0.000000   0.000602   0.000020   0.000068  -0.002622   0.400990
    23  H   -0.000001  -0.002856   0.000074  -0.002051   0.003508   0.398430
    24  H    0.000000   0.000567  -0.000001   0.000106  -0.000959   0.398791
    25  H    0.001518  -0.000177  -0.000081   0.001704   0.000000  -0.000001
    26  H   -0.006140  -0.000117   0.000651   0.000092   0.000000   0.000000
    27  H    0.001277   0.001300  -0.000046  -0.002948   0.000006  -0.000002
    28  H   -0.003696  -0.050703  -0.003598  -0.035809  -0.000142  -0.005228
              7          8          9         10         11         12
     1  C   -0.027334  -0.029238   0.000101   0.282386   0.602075   0.002154
     2  C    0.000624   0.333163   0.264542  -0.068919  -0.000051   0.588804
     3  C    0.003271  -0.005489  -0.000571  -0.111925  -0.072442  -0.000043
     4  C   -0.009807   0.338379   0.005027  -0.053829  -0.000041  -0.000790
     5  C    0.000002   0.003069   0.214380  -0.000091   0.000000  -0.007999
     6  C   -0.000006  -0.002178   0.224942   0.000234   0.000000   0.001747
     7  C    4.998504  -0.036522  -0.000036   0.203582  -0.010083  -0.005231
     8  C   -0.036522   5.075275  -0.099225   0.255238   0.001812  -0.075092
     9  N   -0.000036  -0.099225   7.410466   0.002466   0.000000  -0.096507
    10  N    0.203582   0.255238   0.002466   7.395348  -0.093340  -0.001190
    11  O   -0.010083   0.001812   0.000000  -0.093340   8.173612  -0.000013
    12  O   -0.005231  -0.075092  -0.096507  -0.001190  -0.000013   8.194072
    13  H   -0.000099  -0.004966  -0.000025   0.003626   0.000932   0.000004
    14  H   -0.000075   0.000329   0.000002   0.003463   0.004745   0.000001
    15  H   -0.000143  -0.002206   0.001185   0.002768   0.001415  -0.000054
    16  H   -0.000111  -0.032914   0.000237  -0.002540   0.000001   0.001397
    17  H   -0.001176  -0.035460  -0.000122   0.001090  -0.000008  -0.000063
    18  H    0.000223  -0.035824   0.000096   0.003600   0.000000   0.000039
    19  H    0.000000  -0.000033  -0.049414   0.000000   0.000000   0.000503
    20  H    0.000001   0.000531  -0.030201  -0.000015   0.000000   0.012058
    21  H    0.000000  -0.000055  -0.047596   0.000003   0.000000   0.000379
    22  H    0.000000  -0.000076  -0.047148   0.000007   0.000000  -0.000028
    23  H    0.000000  -0.000070  -0.034865   0.000152   0.000000   0.000026
    24  H    0.000000  -0.000300  -0.050922  -0.000011   0.000000   0.000000
    25  H    0.396240  -0.004322   0.000008  -0.046535   0.000347   0.000212
    26  H    0.395470   0.003170   0.000001  -0.030970   0.012581   0.000089
    27  H    0.397847   0.000394   0.000027  -0.044533   0.000556   0.006342
    28  H    0.002818   0.419982   0.005463  -0.043745   0.000082   0.001878
             13         14         15         16         17         18
     1  C   -0.029215  -0.032126  -0.029040  -0.000114   0.000009  -0.000011
     2  C    0.000367  -0.000025   0.000974  -0.004037   0.004469  -0.000307
     3  C    0.373236   0.384196   0.372166  -0.000012  -0.000006   0.000011
     4  C    0.000019   0.000000   0.000174   0.392489   0.389661   0.388576
     5  C    0.000000   0.000000  -0.000022   0.000001   0.000004  -0.000017
     6  C    0.000026  -0.000001  -0.000007  -0.000007   0.000053  -0.000964
     7  C   -0.000099  -0.000075  -0.000143  -0.000111  -0.001176   0.000223
     8  C   -0.004966   0.000329  -0.002206  -0.032914  -0.035460  -0.035824
     9  N   -0.000025   0.000002   0.001185   0.000237  -0.000122   0.000096
    10  N    0.003626   0.003463   0.002768  -0.002540   0.001090   0.003600
    11  O    0.000932   0.004745   0.001415   0.000001  -0.000008   0.000000
    12  O    0.000004   0.000001  -0.000054   0.001397  -0.000063   0.000039
    13  H    0.519114  -0.018505  -0.027554  -0.000003   0.000016   0.000000
    14  H   -0.018505   0.449728  -0.017867   0.000000   0.000000   0.000000
    15  H   -0.027554  -0.017867   0.515401  -0.000002  -0.000003   0.000000
    16  H   -0.000003   0.000000  -0.000002   0.495087  -0.023370  -0.025337
    17  H    0.000016   0.000000  -0.000003  -0.023370   0.499564  -0.022887
    18  H    0.000000   0.000000   0.000000  -0.025337  -0.022887   0.521715
    19  H    0.000000   0.000000   0.000001   0.000001   0.000000  -0.000003
    20  H    0.000000   0.000000  -0.000001  -0.000004   0.000000   0.000000
    21  H    0.000000   0.000000  -0.000015   0.000000   0.000000   0.000001
    22  H    0.000003   0.000000  -0.000061  -0.000002   0.000000   0.000103
    23  H    0.000008  -0.000002  -0.000001   0.000009   0.000102  -0.000609
    24  H    0.000000   0.000000   0.000008   0.000032  -0.000023  -0.000064
    25  H    0.000010   0.000002  -0.000004  -0.001616  -0.000987   0.000069
    26  H   -0.000015  -0.000012  -0.000023   0.000074  -0.000028   0.000000
    27  H   -0.000004   0.000002   0.000010   0.000230   0.000249   0.000009
    28  H    0.000136   0.000281  -0.003324   0.003817  -0.003126  -0.003473
             19         20         21         22         23         24
     1  C    0.000000  -0.000001   0.000000   0.000000  -0.000001   0.000000
     2  C    0.001131  -0.005083   0.001343   0.000602  -0.002856   0.000567
     3  C    0.000000   0.000000   0.000003   0.000020   0.000074  -0.000001
     4  C    0.000018  -0.000023  -0.000001   0.000068  -0.002051   0.000106
     5  C    0.398821   0.395093   0.399063  -0.002622   0.003508  -0.000959
     6  C   -0.001705   0.003136  -0.002572   0.400990   0.398430   0.398791
     7  C    0.000000   0.000001   0.000000   0.000000   0.000000   0.000000
     8  C   -0.000033   0.000531  -0.000055  -0.000076  -0.000070  -0.000300
     9  N   -0.049414  -0.030201  -0.047596  -0.047148  -0.034865  -0.050922
    10  N    0.000000  -0.000015   0.000003   0.000007   0.000152  -0.000011
    11  O    0.000000   0.000000   0.000000   0.000000   0.000000   0.000000
    12  O    0.000503   0.012058   0.000379  -0.000028   0.000026   0.000000
    13  H    0.000000   0.000000   0.000000   0.000003   0.000008   0.000000
    14  H    0.000000   0.000000   0.000000   0.000000  -0.000002   0.000000
    15  H    0.000001  -0.000001  -0.000015  -0.000061  -0.000001   0.000008
    16  H    0.000001  -0.000004   0.000000  -0.000002   0.000009   0.000032
    17  H    0.000000   0.000000   0.000000   0.000000   0.000102  -0.000023
    18  H   -0.000003   0.000000   0.000001   0.000103  -0.000609  -0.000064
    19  H    0.546084  -0.021681  -0.040220  -0.001199  -0.000069   0.004062
    20  H   -0.021681   0.423541  -0.020725  -0.000002  -0.000089  -0.000082
    21  H   -0.040220  -0.020725   0.541380   0.004217   0.000001  -0.000934
    22  H   -0.001199  -0.000002   0.004217   0.527495  -0.024285  -0.040205
    23  H   -0.000069  -0.000089   0.000001  -0.024285   0.511227  -0.028078
    24  H    0.004062  -0.000082  -0.000934  -0.040205  -0.028078   0.541449
    25  H    0.000000   0.000000   0.000000   0.000000   0.000000   0.000000
    26  H    0.000000   0.000000   0.000000   0.000000   0.000000   0.000000
    27  H    0.000000   0.000002   0.000000   0.000000  -0.000001   0.000000
    28  H   -0.000001  -0.000022  -0.000003  -0.000017  -0.001181   0.000262
             25         26         27         28
     1  C    0.001518  -0.006140   0.001277  -0.003696
     2  C   -0.000177  -0.000117   0.001300  -0.050703
     3  C   -0.000081   0.000651  -0.000046  -0.003598
     4  C    0.001704   0.000092  -0.002948  -0.035809
     5  C    0.000000   0.000000   0.000006  -0.000142
     6  C   -0.000001   0.000000  -0.000002  -0.005228
     7  C    0.396240   0.395470   0.397847   0.002818
     8  C   -0.004322   0.003170   0.000394   0.419982
     9  N    0.000008   0.000001   0.000027   0.005463
    10  N   -0.046535  -0.030970  -0.044533  -0.043745
    11  O    0.000347   0.012581   0.000556   0.000082
    12  O    0.000212   0.000089   0.006342   0.001878
    13  H    0.000010  -0.000015  -0.000004   0.000136
    14  H    0.000002  -0.000012   0.000002   0.000281
    15  H   -0.000004  -0.000023   0.000010  -0.003324
    16  H   -0.001616   0.000074   0.000230   0.003817
    17  H   -0.000987  -0.000028   0.000249  -0.003126
    18  H    0.000069   0.000000   0.000009  -0.003473
    19  H    0.000000   0.000000   0.000000  -0.000001
    20  H    0.000000   0.000000   0.000002  -0.000022
    21  H    0.000000   0.000000   0.000000  -0.000003
    22  H    0.000000   0.000000   0.000000  -0.000017
    23  H    0.000000   0.000000  -0.000001  -0.001181
    24  H    0.000000   0.000000   0.000000   0.000262
    25  H    0.562463  -0.025358  -0.036795  -0.000040
    26  H   -0.025358   0.430491  -0.017092  -0.000064
    27  H   -0.036795  -0.017092   0.489560  -0.000028
    28  H   -0.000040  -0.000064  -0.000028   0.522552
 Mulliken atomic charges:
              1
     1  C    0.776457
     2  C    0.792631
     3  C   -0.605358
     4  C   -0.496049
     5  C   -0.296951
     6  C   -0.283845
     7  C   -0.307959
     8  C   -0.067369
     9  N   -0.672312
    10  N   -0.656319
    11  O   -0.622178
    12  O   -0.622697
    13  H    0.182888
    14  H    0.225864
    15  H    0.186228
    16  H    0.196694
    17  H    0.192043
    18  H    0.175054
    19  H    0.163706
    20  H    0.243567
    21  H    0.165732
    22  H    0.182141
    23  H    0.180620
    24  H    0.176301
    25  H    0.153343
    26  H    0.237200
    27  H    0.203638
    28  H    0.196932
 Sum of Mulliken atomic charges =   0.00000
 Mulliken charges with hydrogens summed into heavy atoms:
              1
     1  C    0.776457
     2  C    0.792631
     3  C   -0.010378
     4  C    0.067742
     5  C    0.276054
     6  C    0.255216
     7  C    0.286221
     8  C    0.129563
     9  N   -0.672312
    10  N   -0.656319
    11  O   -0.622178
    12  O   -0.622697
 Sum of Mulliken charges with hydrogens summed into heavy atoms =   0.00000
 DipInt: DoE/N= T F RetVal/Mat= T F Init=T NMatP=  1 IDeriv=0 Min/MaxMlt=  0  4
 Entering OneElI...
 OneElI was handed    33436508 working-precision words.
 Multipole integrals L=0 to 4 MinM= 0 MaxM= 0.
 Requested accuracy = 0.1000D-12
 PrsmSu:  NPrtUS=   1 ThrOK=F IAlg=1 NPAlg=1 LenDen=           0.
 Prism:   IPart=     0 DynPar=F LinDyn=F Incr=          29.
 PRISM was handed    33192663 working-precision words and  2968 shell-pairs
 IPart=  0 NShTot=        2968 NBatch=          59 AvBLen=        50.3
 PrSmSu:  NxtVal=             30.
 Electronic moments (au):
        -94.00000000         -2.14531545         -0.08672125         -1.77412397
      -1487.67601780       -495.67075606       -378.35756639          4.23781336
         -1.37857648          0.10341165        600.11314392         20.77049526
         61.69526207       -740.56895843       1072.18865006       -640.34524589
        586.16003713       -214.57567287        343.81493352        -73.43909748
     -46062.34787836      -7462.00492926      -3882.09772165       -561.08675095
       -365.91997558        688.44285940        138.84543123        241.81428172
        298.27755732      -6104.03967647      -5288.80514314      -2052.30898202
       -252.37279389       -134.90669016       -309.52365826
 Electronic spatial extent (au):  <R**2>=           2361.7043
 DipInt: DoE/N= F T RetVal/Mat= T F Init=T NMatP=  1 IDeriv=0 Min/MaxMlt=  0  4
 Nuclear    moments (au):
         94.00000000          0.00000000          0.00000000          0.00000000
       1426.30168498        443.64666318        321.61168738          0.00000000
          0.00000000          0.00000000       -720.09796243        -23.21476137
        -68.33091478        747.88064297      -1055.89992085        629.50796779
       -588.78138819        209.93272359       -343.79410710         82.54580498
      40494.68386679       5750.77964967       2580.62999100        744.67350806
        247.68679154       -707.76960427       -129.23145233       -240.79891249
       -300.15971412       4979.68224741       4253.31370601       1543.08936757
        296.74932459        132.94452653        325.78839914
 Total      moments (au):
          0.00000000         -2.14531545         -0.08672125         -1.77412397
        -61.37433282        -52.02409288        -56.74587902          4.23781336
         -1.37857648          0.10341165       -119.98481851         -2.44426611
         -6.63565271          7.31168454         16.28872921        -10.83727810
         -2.62135106         -4.64294929          0.02082641          9.10670750
      -5567.66401157      -1711.22527959      -1301.46773065        183.58675712
       -118.23318404        -19.32674487          9.61397890          1.01536923
         -1.88215680      -1124.35742907      -1035.49143713       -509.21961446
         44.37653069         -1.96216364         16.26474088
 Traceless Quadrup. (au):
         -4.65956458          4.69067536         -0.03111078          4.23781336
         -1.37857648          0.10341165
 Charge=              0.0000 electrons
 Dipole moment (field-independent basis, Debye):
    X=             -5.4528    Y=             -0.2204    Z=             -4.5094  Tot=              7.0793
 Quadrupole moment (field-independent basis, Debye-Ang):
   XX=            -82.5506   YY=            -69.9742   ZZ=            -76.3251
   XY=              5.7000   XZ=             -1.8542   YZ=              0.1391
 Traceless Quadrupole moment (field-independent basis, Debye-Ang):
   XX=             -6.2673   YY=              6.3091   ZZ=             -0.0418
   XY=              5.7000   XZ=             -1.8542   YZ=              0.1391
 Octapole moment (field-independent basis, Debye-Ang**2):
  XXX=            -85.4006  YYY=             -1.7397  ZZZ=             -4.7230  XYY=              5.2042
  XXY=             11.5937  XXZ=             -7.7136  XZZ=             -1.8658  YZZ=             -3.3047
  YYZ=              0.0148  XYZ=              6.4818
 Hexadecapole moment (field-independent basis, Debye-Ang**3):
 XXXX=          -2097.0491 YYYY=           -644.5295 ZZZZ=           -490.1951 XXXY=             69.1476
 XXXZ=            -44.5323 YYYX=             -7.2794 YYYZ=              3.6211 ZZZX=              0.3824
 ZZZY=             -0.7089 XXYY=           -423.4869 XXZZ=           -390.0157 YYZZ=           -191.7965
 XXYZ=             16.7143 YYXZ=             -0.7390 ZZXY=              6.1261
 N-N= 7.752282592000D+02 E-N=-2.886202727554D+03  KE= 5.694427001145D+02
 Entering OneElI...
 OneElI was handed    33345708 working-precision words.
 Calculate electrostatic properties
    NBasis =   212  MinDer = 0  MaxDer = 0
    NGrid  =    28  NMatD  =   1
 Requested accuracy = 0.1000D-12
 PrsmSu:  NPrtUS=   4 ThrOK=T IAlg=1 NPAlg=1 LenDen=           0.
 Prism:   IPart=     0 DynPar=F LinDyn=F Incr=         194.
 PRISM was handed     8217846 working-precision words and  2780 shell-pairs
 PRISM was handed     8217846 working-precision words and  2780 shell-pairs
 PRISM was handed     8217846 working-precision words and  2780 shell-pairs
 PRISM was handed     8217846 working-precision words and  2780 shell-pairs
 IPart=  2 NShTot=       19292 NBatch=         689 AvBLen=        28.0
 IPart=  0 NShTot=       19796 NBatch=         707 AvBLen=        28.0
 IPart=  3 NShTot=       19152 NBatch=         684 AvBLen=        28.0
 IPart=  1 NShTot=       19600 NBatch=         700 AvBLen=        28.0
 PrSmSu:  NxtVal=            777.
 --------------------------------------------------------
       Center         ----      EFG at Nuclei      ----
                      3XX-RR        3YY-RR        3ZZ-RR
 --------------------------------------------------------
     1   Atom        0.183293      0.182178     -0.365471
     2   Atom        0.101997     -0.452730      0.350733
     3   Atom        0.039989     -0.035991     -0.003998
     4   Atom        0.030804     -0.037154      0.006350
     5   Atom       -0.078013      0.102505     -0.024492
     6   Atom        0.088960      0.098688     -0.187648
     7   Atom        0.135973     -0.180530      0.044556
     8   Atom       -0.186528      0.140651      0.045877
     9   Atom       -0.363191      0.851505     -0.488314
    10   Atom       -0.341502     -0.434955      0.776457
    11   Atom       -0.929523      1.664031     -0.734508
    12   Atom        1.277407     -0.555665     -0.721742
    13   Atom        0.145935      0.142268     -0.288203
    14   Atom       -0.019339     -0.105655      0.124994
    15   Atom       -0.209206      0.128781      0.080425
    16   Atom        0.151743     -0.132547     -0.019196
    17   Atom       -0.069322      0.135692     -0.066369
    18   Atom       -0.201008      0.141706      0.059302
    19   Atom       -0.118888     -0.000535      0.119423
    20   Atom        0.079502      0.120664     -0.200166
    21   Atom        0.098961     -0.239532      0.140571
    22   Atom        0.087790     -0.219899      0.132109
    23   Atom       -0.108222      0.160984     -0.052762
    24   Atom       -0.070915     -0.019346      0.090261
    25   Atom        0.133982     -0.069480     -0.064502
    26   Atom       -0.165106      0.114500      0.050606
    27   Atom       -0.040070      0.081328     -0.041257
    28   Atom        0.131882     -0.097777     -0.034104
 --------------------------------------------------------
                        XY            XZ            YZ
 --------------------------------------------------------
     1   Atom        0.021967      0.331579      0.151090
     2   Atom        0.208706     -0.105669      0.136610
     3   Atom       -0.044320      0.015239     -0.026911
     4   Atom        0.011378     -0.015746      0.064666
     5   Atom       -0.007009      0.244280      0.052449
     6   Atom       -0.029572     -0.113736     -0.096201
     7   Atom       -0.174265     -0.058157     -0.156193
     8   Atom       -0.011857     -0.071146      0.024417
     9   Atom       -0.479208      0.069548     -0.275891
    10   Atom        0.144848     -0.617875     -0.287974
    11   Atom       -0.050429     -0.086293      0.386254
    12   Atom        0.545675     -0.715466     -0.257508
    13   Atom       -0.000541     -0.049279      0.005445
    14   Atom        0.205951     -0.068904      0.080328
    15   Atom       -0.068011      0.160835      0.027529
    16   Atom        0.007123      0.003061     -0.210887
    17   Atom       -0.043255      0.217696      0.048035
    18   Atom       -0.025095     -0.181925     -0.006315
    19   Atom        0.200106     -0.063397      0.059305
    20   Atom       -0.045530     -0.139956     -0.103360
    21   Atom       -0.134491      0.018979      0.021153
    22   Atom       -0.155045      0.001488      0.007891
    23   Atom       -0.009432      0.217634     -0.002725
    24   Atom        0.191396     -0.100749      0.080081
    25   Atom       -0.069514      0.057641      0.205442
    26   Atom        0.079726     -0.181431      0.043343
    27   Atom        0.102600      0.183422     -0.115926
    28   Atom       -0.019823     -0.025770     -0.217177
 --------------------------------------------------------


 ---------------------------------------------------------------------------------
              Nuclear Quadrupole in Principal Axis System
 ---------------------------------------------------------------------------------

       Atom             a.u.   MegaHertz   Gauss  10(-4) cm-1        Axes

              Baa    -0.5441   -73.007   -26.051   -24.353 -0.4041 -0.1746  0.8979
     1 C(13)  Bbb     0.1651    22.155     7.906     7.390 -0.4585  0.8880 -0.0337
              Bcc     0.3790    50.852    18.145    16.962  0.7915  0.4253  0.4389
 
              Baa    -0.5521   -74.084   -26.435   -24.712 -0.3252  0.9286 -0.1786
     2 C(13)  Bbb     0.1578    21.173     7.555     7.063  0.9016  0.3614  0.2379
              Bcc     0.3943    52.910    18.880    17.649 -0.2854  0.0837  0.9547
 
              Baa    -0.0625    -8.387    -2.993    -2.798  0.3355  0.8860  0.3201
     3 C(13)  Bbb    -0.0068    -0.910    -0.325    -0.303 -0.4360 -0.1552  0.8865
              Bcc     0.0693     9.297     3.317     3.101  0.8351 -0.4370  0.3342
 
              Baa    -0.0865   -11.611    -4.143    -3.873 -0.1555  0.7981 -0.5821
     4 C(13)  Bbb     0.0319     4.285     1.529     1.429  0.9483  0.2856  0.1383
              Bcc     0.0546     7.326     2.614     2.444 -0.2766  0.5305  0.8013
 
              Baa    -0.3010   -40.395   -14.414   -13.474  0.7363  0.0998 -0.6693
     5 C(13)  Bbb     0.0948    12.719     4.538     4.243 -0.2885  0.9410 -0.1771
              Bcc     0.2062    27.676     9.875     9.232  0.6121  0.3235  0.7216
 
              Baa    -0.2568   -34.466   -12.298   -11.497  0.3216  0.2721  0.9069
     6 C(13)  Bbb     0.1238    16.612     5.927     5.541 -0.6384  0.7697 -0.0046
              Bcc     0.1331    17.854     6.371     5.956  0.6993  0.5775 -0.4212
 
              Baa    -0.3313   -44.463   -15.865   -14.831  0.3633  0.8391  0.4049
     7 C(13)  Bbb     0.1173    15.742     5.617     5.251 -0.2507 -0.3305  0.9099
              Bcc     0.2140    28.721    10.248     9.580  0.8973 -0.4321  0.0903
 
              Baa    -0.2066   -27.730    -9.895    -9.250  0.9628  0.0139  0.2699
     8 C(13)  Bbb     0.0574     7.698     2.747     2.568 -0.2530 -0.3052  0.9181
              Bcc     0.1493    20.032     7.148     6.682 -0.0951  0.9522  0.2903
 
              Baa    -0.5596   -21.582    -7.701    -7.199  0.5491  0.3361  0.7652
     9 N(14)  Bbb    -0.5098   -19.662    -7.016    -6.559  0.7721  0.1465 -0.6184
              Bcc     1.0694    41.244    14.717    13.757 -0.3199  0.9304 -0.1791
 
              Baa    -0.6177   -23.825    -8.501    -7.947  0.9162 -0.1280  0.3796
    10 N(14)  Bbb    -0.4997   -19.273    -6.877    -6.429  0.0374  0.9708  0.2371
              Bcc     1.1175    43.098    15.378    14.376 -0.3989 -0.2031  0.8942
 
              Baa    -0.9661    69.905    24.944    23.318  0.9107 -0.0429  0.4109
    11 O(17)  Bbb    -0.7601    55.002    19.626    18.347 -0.4124 -0.1517  0.8983
              Bcc     1.7262  -124.907   -44.570   -41.664 -0.0238  0.9875  0.1558
 
              Baa    -0.9739    70.467    25.144    23.505  0.2302  0.2746  0.9336
    12 O(17)  Bbb    -0.6943    50.242    17.928    16.759 -0.3258  0.9257 -0.1919
              Bcc     1.6682  -120.709   -43.072   -40.264  0.9170  0.2600 -0.3025
 
              Baa    -0.2938  -156.753   -55.934   -52.287  0.1113 -0.0123  0.9937
    13 H(1)   Bbb     0.1422    75.867    27.071    25.307  0.1231  0.9924 -0.0015
              Bcc     0.1516    80.886    28.862    26.981  0.9861 -0.1225 -0.1120
 
              Baa    -0.2993  -159.693   -56.982   -53.268 -0.6129  0.7522 -0.2419
    14 H(1)   Bbb     0.1464    78.111    27.872    26.055  0.6040  0.6434  0.4704
              Bcc     0.1529    81.582    29.111    27.213 -0.5095 -0.1422  0.8486
 
              Baa    -0.2935  -156.623   -55.887   -52.244  0.9005  0.1711 -0.3999
    15 H(1)   Bbb     0.1410    75.209    26.836    25.087 -0.0639  0.9615  0.2674
              Bcc     0.1526    81.414    29.050    27.157  0.4302 -0.2152  0.8767
 
              Baa    -0.2944  -157.061   -56.043   -52.390 -0.0168  0.7935  0.6083
    16 H(1)   Bbb     0.1421    75.832    27.059    25.295  0.1918 -0.5945  0.7809
              Bcc     0.1522    81.229    28.985    27.095  0.9813  0.1298 -0.1422
 
              Baa    -0.2952  -157.512   -56.204   -52.540  0.7008  0.1481 -0.6978
    17 H(1)   Bbb     0.1434    76.510    27.301    25.521 -0.4326  0.8661 -0.2506
              Bcc     0.1518    81.003    28.904    27.020  0.5672  0.4775  0.6710
 
              Baa    -0.2960  -157.929   -56.353   -52.679  0.8882  0.0575  0.4558
    18 H(1)   Bbb     0.1404    74.914    26.731    24.989  0.1481  0.9033 -0.4025
              Bcc     0.1556    83.015    29.622    27.691 -0.4349  0.4251  0.7938
 
              Baa    -0.2867  -152.982   -54.588   -51.029  0.7809 -0.5891  0.2079
    19 H(1)   Bbb     0.1325    70.670    25.217    23.573 -0.4417 -0.2853  0.8506
              Bcc     0.1543    82.312    29.371    27.456  0.4418  0.7560  0.4830
 
              Baa    -0.2893  -154.345   -55.074   -51.484  0.3706  0.2656  0.8900
    20 H(1)   Bbb     0.1371    73.160    26.105    24.404  0.8947  0.1553 -0.4188
              Bcc     0.1522    81.184    28.969    27.080 -0.2494  0.9515 -0.1801
 
              Baa    -0.2881  -153.699   -54.844   -51.268  0.3303  0.9419 -0.0611
    21 H(1)   Bbb     0.1329    70.934    25.311    23.661 -0.5934  0.2576  0.7626
              Bcc     0.1551    82.765    29.533    27.607  0.7340 -0.2156  0.6440
 
              Baa    -0.2846  -151.861   -54.188   -50.655  0.3843  0.9230 -0.0188
    22 H(1)   Bbb     0.1321    70.494    25.154    23.514  0.0827 -0.0141  0.9965
              Bcc     0.1525    81.367    29.034    27.141  0.9195 -0.3845 -0.0817
 
              Baa    -0.2999  -160.037   -57.105   -53.383  0.7506  0.0115 -0.6607
    23 H(1)   Bbb     0.1361    72.642    25.921    24.231  0.6243  0.3155  0.7147
              Bcc     0.1638    87.395    31.185    29.152 -0.2166  0.9489 -0.2297
 
              Baa    -0.2826  -150.777   -53.801   -50.294  0.7147 -0.6188  0.3260
    24 H(1)   Bbb     0.1325    70.693    25.225    23.581 -0.0045  0.4620  0.8869
              Bcc     0.1501    80.084    28.576    26.713  0.6994  0.6353 -0.3274
 
              Baa    -0.2915  -155.518   -55.493   -51.875  0.2069  0.6986 -0.6849
    25 H(1)   Bbb     0.1352    72.118    25.733    24.056  0.3862  0.5849  0.7133
              Bcc     0.1563    83.400    29.759    27.819  0.8989 -0.4121 -0.1488
 
              Baa    -0.2887  -154.055   -54.971   -51.387  0.8484 -0.2195  0.4817
    26 H(1)   Bbb     0.1348    71.903    25.657    23.984  0.1460  0.9717  0.1857
              Bcc     0.1540    82.152    29.314    27.403 -0.5088 -0.0872  0.8565
 
              Baa    -0.2887  -154.019   -54.958   -51.375 -0.6455  0.3856  0.6592
    27 H(1)   Bbb     0.1357    72.419    25.841    24.156  0.7223  0.5885  0.3631
              Bcc     0.1529    81.600    29.117    27.219 -0.2480  0.7106 -0.6584
 
              Baa    -0.2879  -153.586   -54.803   -51.231  0.0757  0.7537  0.6528
    28 H(1)   Bbb     0.1323    70.588    25.188    23.546  0.9533 -0.2467  0.1743
              Bcc     0.1556    82.998    29.616    27.685 -0.2924 -0.6091  0.7372
 

 ---------------------------------------------------------------------------------

 No NMR shielding tensors so no spin-rotation constants.
 Leave Link  601 at Mon Feb 26 23:17:38 2018, MaxMem=   33554432 cpu:       1.2
 Merz-Kollman atomic radii used.
 Read replacement radii for each type of atom:
 Atom Element Radius
    1     6    1.50
    2     6    1.50
    3     6    1.50
    4     6    1.50
    5     6    1.50
    6     6    1.50
    7     6    1.50
    8     6    1.50
    9     7    1.50
   10     7    1.50
   11     8    1.40
   12     8    1.40
   13     1    1.20
   14     1    1.20
   15     1    1.20
   16     1    1.20
   17     1    1.20
   18     1    1.20
   19     1    1.20
   20     1    1.20
   21     1    1.20
   22     1    1.20
   23     1    1.20
   24     1    1.20
   25     1    1.20
   26     1    1.20
   27     1    1.20
   28     1    1.20
 Generate VDW surfaces: Layer= 4 Dens= 1 Start= 1.400 Inc= 0.200

 **********************************************************************

            Electrostatic Properties Using The SCF Density

 **********************************************************************

       Atomic Center    1 is at   2.175867 -0.772859  0.016983
       Atomic Center    2 is at  -0.953397  0.229069  0.453462
       Atomic Center    3 is at   1.547299 -2.064842 -0.499114
       Atomic Center    4 is at  -0.185231  1.722697 -1.445315
       Atomic Center    5 is at  -3.202835 -0.397354  1.152660
       Atomic Center    6 is at  -2.634968 -0.664260 -1.215326
       Atomic Center    7 is at   1.992540  1.609771  0.494540
       Atomic Center    8 is at   0.101031  0.421606 -0.671766
       Atomic Center    9 is at  -2.184427 -0.286096  0.114255
       Atomic Center   10 is at   1.456373  0.397635 -0.127494
       Atomic Center   11 is at   3.290657 -0.794131  0.526279
       Atomic Center   12 is at  -0.684440  0.551084  1.605870
       Atomic Center   13 is at   1.431744 -2.056426 -1.589932
       Atomic Center   14 is at   2.224056 -2.876344 -0.230196
       Atomic Center   15 is at   0.564278 -2.258266 -0.055549
       Atomic Center   16 is at  -0.204580  2.588394 -0.777961
       Atomic Center   17 is at   0.582945  1.885941 -2.207779
       Atomic Center   18 is at  -1.157471  1.665527 -1.944485
       Atomic Center   19 is at  -4.058920  0.251864  0.924393
       Atomic Center   20 is at  -2.762201 -0.098939  2.102228
       Atomic Center   21 is at  -3.562501 -1.431932  1.220405
       Atomic Center   22 is at  -3.055471 -1.677986 -1.192117
       Atomic Center   23 is at  -1.823127 -0.654588 -1.940136
       Atomic Center   24 is at  -3.421214  0.016553 -1.571988
       Atomic Center   25 is at   2.223690  2.373249 -0.257433
       Atomic Center   26 is at   2.913146  1.329246  1.003636
       Atomic Center   27 is at   1.277263  2.005667  1.218800
       Atomic Center   28 is at   0.033153 -0.401323 -1.383147
      ESP Fit Center   29 is at   1.125867 -0.772859  1.835636
      ESP Fit Center   30 is at   1.650867 -1.682185  1.835636
      ESP Fit Center   31 is at   3.225867 -0.772859 -1.801670
      ESP Fit Center   32 is at   2.700867  0.136468 -1.801670
      ESP Fit Center   33 is at  -1.212219 -1.571073  1.503462
      ESP Fit Center   34 is at  -0.197901 -1.425236  1.503462
      ESP Fit Center   35 is at  -1.698068  2.192604  0.453462
      ESP Fit Center   36 is at   1.547299 -2.064842  1.600886
      ESP Fit Center   37 is at   0.802628 -4.028376 -0.499114
      ESP Fit Center   38 is at   3.365952 -2.064842 -1.549114
      ESP Fit Center   39 is at  -0.197686 -2.577216 -1.549114
      ESP Fit Center   40 is at   0.356334 -3.439288 -1.549114
      ESP Fit Center   41 is at   1.288477 -3.864984 -1.549114
      ESP Fit Center   42 is at  -1.930216  2.235070 -0.395315
      ESP Fit Center   43 is at  -0.444052  3.522839 -2.495315
      ESP Fit Center   44 is at  -0.710231  2.632023 -3.263969
      ESP Fit Center   45 is at  -4.252835 -0.397354  2.971313
      ESP Fit Center   46 is at  -3.727835 -1.306681  2.971313
      ESP Fit Center   47 is at  -4.947820 -0.909728  2.202660
      ESP Fit Center   48 is at  -1.672886 -1.380592  2.202660
      ESP Fit Center   49 is at  -2.949708  1.687335  1.152660
      ESP Fit Center   50 is at  -2.009899 -2.125620  1.152660
      ESP Fit Center   51 is at  -4.673945 -1.166823 -1.215326
      ESP Fit Center   52 is at  -1.442032 -2.392526 -1.215326
      ESP Fit Center   53 is at  -4.379953 -1.176634 -2.265326
      ESP Fit Center   54 is at  -1.879472 -2.318565 -2.265326
      ESP Fit Center   55 is at  -3.159968 -1.573587 -3.033979
      ESP Fit Center   56 is at   2.517540  2.519097  2.313193
      ESP Fit Center   57 is at   1.467540  0.700444  2.313193
      ESP Fit Center   58 is at   2.748036  3.264076  1.544540
      ESP Fit Center   59 is at   1.247870  3.573305  0.494540
      ESP Fit Center   60 is at   3.811194  1.609771 -0.555460
      ESP Fit Center   61 is at  -1.428931 -1.940401  1.164255
      ESP Fit Center   62 is at  -2.929097  1.677438  0.114255
      ESP Fit Center   63 is at  -1.931300 -2.370785  0.114255
      ESP Fit Center   64 is at   2.506373  0.397635 -1.946147
      ESP Fit Center   65 is at   3.290657 -0.794131  2.486279
      ESP Fit Center   66 is at   4.270657 -0.794131  2.223688
      ESP Fit Center   67 is at   3.780657  0.054574  2.223688
      ESP Fit Center   68 is at   2.800657  0.054574  2.223688
      ESP Fit Center   69 is at   2.310657 -0.794131  2.223688
      ESP Fit Center   70 is at   2.800657 -1.642836  2.223688
      ESP Fit Center   71 is at   3.780657 -1.642836  2.223688
      ESP Fit Center   72 is at   4.988067 -0.794131  1.506279
      ESP Fit Center   73 is at   4.663891  0.203582  1.506279
      ESP Fit Center   74 is at   2.766129 -2.408463  1.506279
      ESP Fit Center   75 is at   3.815186 -2.408463  1.506279
      ESP Fit Center   76 is at   4.663891 -1.791843  1.506279
      ESP Fit Center   77 is at   5.250657 -0.794131  0.526279
      ESP Fit Center   78 is at   4.988067  0.185869  0.526279
      ESP Fit Center   79 is at   4.270657 -2.491540  0.526279
      ESP Fit Center   80 is at   4.988067 -1.774131  0.526279
      ESP Fit Center   81 is at   4.988067 -0.794131 -0.453721
      ESP Fit Center   82 is at   4.663891  0.203582 -0.453721
      ESP Fit Center   83 is at   3.815186  0.820202 -0.453721
      ESP Fit Center   84 is at   4.663891 -1.791843 -0.453721
      ESP Fit Center   85 is at   4.270657 -0.794131 -1.171131
      ESP Fit Center   86 is at   3.780657  0.054574 -1.171131
      ESP Fit Center   87 is at   3.780657 -1.642836 -1.171131
      ESP Fit Center   88 is at  -0.684440  0.551084  3.565870
      ESP Fit Center   89 is at   0.295560  0.551084  3.303279
      ESP Fit Center   90 is at  -0.194440  1.399789  3.303279
      ESP Fit Center   91 is at  -1.174440  1.399789  3.303279
      ESP Fit Center   92 is at  -1.664440  0.551084  3.303279
      ESP Fit Center   93 is at  -1.174440 -0.297621  3.303279
      ESP Fit Center   94 is at  -0.194440 -0.297621  3.303279
      ESP Fit Center   95 is at   1.012970  0.551084  2.585870
      ESP Fit Center   96 is at  -0.159911  2.165416  2.585870
      ESP Fit Center   97 is at  -1.208968  2.165416  2.585870
      ESP Fit Center   98 is at  -2.057673  1.548796  2.585870
      ESP Fit Center   99 is at  -1.208968 -1.063249  2.585870
      ESP Fit Center  100 is at  -0.159911 -1.063249  2.585870
      ESP Fit Center  101 is at   0.688794 -0.446629  2.585870
      ESP Fit Center  102 is at  -0.684440  2.511084  1.605870
      ESP Fit Center  103 is at  -1.664440  2.248493  1.605870
      ESP Fit Center  104 is at  -2.381849  1.531084  1.605870
      ESP Fit Center  105 is at   0.295560 -1.146326  1.605870
      ESP Fit Center  106 is at   3.029519 -2.056426 -2.109081
      ESP Fit Center  107 is at   2.655710 -1.029396 -2.109081
      ESP Fit Center  108 is at   1.709194 -0.482925 -2.109081
      ESP Fit Center  109 is at  -0.069674 -2.602898 -2.109081
      ESP Fit Center  110 is at   0.632856 -3.440140 -2.109081
      ESP Fit Center  111 is at   1.709194 -3.629928 -2.109081
      ESP Fit Center  112 is at   2.655710 -3.083456 -2.109081
      ESP Fit Center  113 is at   2.419223 -2.056426 -2.949081
      ESP Fit Center  114 is at   1.736891 -1.117278 -2.949081
      ESP Fit Center  115 is at   0.632856 -1.476001 -2.949081
      ESP Fit Center  116 is at   0.632856 -2.636852 -2.949081
      ESP Fit Center  117 is at   1.736891 -2.995575 -2.949081
      ESP Fit Center  118 is at   1.431744 -2.056426 -3.269932
      ESP Fit Center  119 is at   2.224056 -2.876344  1.449804
      ESP Fit Center  120 is at   3.211535 -2.876344  1.128952
      ESP Fit Center  121 is at   1.425168 -3.456770  1.128952
      ESP Fit Center  122 is at   2.529204 -3.815493  1.128952
      ESP Fit Center  123 is at   3.821831 -2.876344  0.288952
      ESP Fit Center  124 is at   1.425168 -4.260058  0.288952
      ESP Fit Center  125 is at   2.501506 -4.449845  0.288952
      ESP Fit Center  126 is at   3.448022 -3.903374  0.288952
      ESP Fit Center  127 is at   3.821831 -2.876344 -0.749345
      ESP Fit Center  128 is at   1.425168 -4.260058 -0.749345
      ESP Fit Center  129 is at   2.501506 -4.449845 -0.749345
      ESP Fit Center  130 is at   3.448022 -3.903374 -0.749345
      ESP Fit Center  131 is at   3.211535 -2.876344 -1.589345
      ESP Fit Center  132 is at   2.529204 -3.815493 -1.589345
      ESP Fit Center  133 is at   0.564278 -2.258266  1.624451
      ESP Fit Center  134 is at  -0.234610 -1.677840  1.303600
      ESP Fit Center  135 is at  -0.234610 -2.838692  1.303600
      ESP Fit Center  136 is at   0.869425 -3.197415  1.303600
      ESP Fit Center  137 is at  -0.937140 -2.804737  0.463600
      ESP Fit Center  138 is at  -0.234610 -3.641980  0.463600
      ESP Fit Center  139 is at   0.841728 -3.831767  0.463600
      ESP Fit Center  140 is at  -0.937140 -2.804737 -0.574697
      ESP Fit Center  141 is at  -0.234610 -3.641980 -0.574697
      ESP Fit Center  142 is at  -0.234610 -2.838692 -1.414697
      ESP Fit Center  143 is at   0.100567  3.527542  0.581188
      ESP Fit Center  144 is at  -1.003468  3.168819  0.581188
      ESP Fit Center  145 is at   1.019386  3.615424 -0.258812
      ESP Fit Center  146 is at   0.072870  4.161895 -0.258812
      ESP Fit Center  147 is at  -1.003468  3.972107 -0.258812
      ESP Fit Center  148 is at  -1.705998  3.134865 -0.258812
      ESP Fit Center  149 is at   1.019386  3.615424 -1.297109
      ESP Fit Center  150 is at   0.072870  4.161895 -1.297109
      ESP Fit Center  151 is at  -1.003468  3.972107 -1.297109
      ESP Fit Center  152 is at   2.180720  1.885941 -2.726928
      ESP Fit Center  153 is at   1.806912  2.912971 -2.726928
      ESP Fit Center  154 is at   0.860396  3.459442 -2.726928
      ESP Fit Center  155 is at   0.860396  0.312440 -2.726928
      ESP Fit Center  156 is at   1.806912  0.858911 -2.726928
      ESP Fit Center  157 is at   1.570425  1.885941 -3.566928
      ESP Fit Center  158 is at   0.888093  2.825089 -3.566928
      ESP Fit Center  159 is at  -0.215942  2.466367 -3.566928
      ESP Fit Center  160 is at  -0.215942  1.305515 -3.566928
      ESP Fit Center  161 is at   0.888093  0.946792 -3.566928
      ESP Fit Center  162 is at   0.582945  1.885941 -3.887779
      ESP Fit Center  163 is at  -1.956358  3.049241 -1.425337
      ESP Fit Center  164 is at  -2.658888  2.211999 -1.425337
      ESP Fit Center  165 is at  -1.956358  3.049241 -2.463634
      ESP Fit Center  166 is at  -2.658888  2.211999 -2.463634
      ESP Fit Center  167 is at  -0.852323  2.604676 -3.303634
      ESP Fit Center  168 is at  -1.956358  2.245953 -3.303634
      ESP Fit Center  169 is at  -1.956358  1.085102 -3.303634
      ESP Fit Center  170 is at  -0.852323  0.726379 -3.303634
      ESP Fit Center  171 is at  -1.157471  1.665527 -3.624485
      ESP Fit Center  172 is at  -4.857807  0.832290  2.283541
      ESP Fit Center  173 is at  -3.781469  1.825365  1.443541
      ESP Fit Center  174 is at  -4.857807  1.635578  1.443541
      ESP Fit Center  175 is at  -5.560337  0.798335  1.443541
      ESP Fit Center  176 is at  -5.560337 -0.294607  1.443541
      ESP Fit Center  177 is at  -3.781469  1.825365  0.405244
      ESP Fit Center  178 is at  -4.857807  1.635578  0.405244
      ESP Fit Center  179 is at  -5.560337  0.798335  0.405244
      ESP Fit Center  180 is at  -5.560337 -0.294607  0.405244
      ESP Fit Center  181 is at  -4.857807  0.832290 -0.434756
      ESP Fit Center  182 is at  -4.857807 -0.328562 -0.434756
      ESP Fit Center  183 is at  -2.762201 -0.098939  3.782228
      ESP Fit Center  184 is at  -1.774722 -0.098939  3.461376
      ESP Fit Center  185 is at  -2.457053  0.840209  3.461376
      ESP Fit Center  186 is at  -3.561088  0.481487  3.461376
      ESP Fit Center  187 is at  -3.561088 -0.679365  3.461376
      ESP Fit Center  188 is at  -2.457053 -1.038088  3.461376
      ESP Fit Center  189 is at  -2.484750  1.474562  2.621376
      ESP Fit Center  190 is at  -3.561088  1.284775  2.621376
      ESP Fit Center  191 is at  -1.538234 -1.125969  2.621376
      ESP Fit Center  192 is at  -4.361389 -2.012357  2.579553
      ESP Fit Center  193 is at  -3.257353 -2.371080  2.579553
      ESP Fit Center  194 is at  -5.063918 -1.978403  1.739553
      ESP Fit Center  195 is at  -4.361389 -2.815645  1.739553
      ESP Fit Center  196 is at  -3.285050 -3.005433  1.739553
      ESP Fit Center  197 is at  -2.338534 -2.458962  1.739553
      ESP Fit Center  198 is at  -5.063918 -1.978403  0.701256
      ESP Fit Center  199 is at  -4.361389 -2.815645  0.701256
      ESP Fit Center  200 is at  -3.285050 -3.005433  0.701256
      ESP Fit Center  201 is at  -2.338534 -2.458962  0.701256
      ESP Fit Center  202 is at  -4.361389 -2.012357 -0.138744
      ESP Fit Center  203 is at  -2.750323 -2.617135  0.167031
      ESP Fit Center  204 is at  -4.556889 -2.224458 -0.672969
      ESP Fit Center  205 is at  -3.854359 -3.061700 -0.672969
      ESP Fit Center  206 is at  -2.778021 -3.251488 -0.672969
      ESP Fit Center  207 is at  -1.831505 -2.705016 -0.672969
      ESP Fit Center  208 is at  -4.556889 -2.224458 -1.711266
      ESP Fit Center  209 is at  -3.854359 -3.061700 -1.711266
      ESP Fit Center  210 is at  -2.778021 -3.251488 -1.711266
      ESP Fit Center  211 is at  -1.831505 -2.705016 -1.711266
      ESP Fit Center  212 is at  -3.854359 -2.258412 -2.551266
      ESP Fit Center  213 is at  -2.750323 -2.617135 -2.551266
      ESP Fit Center  214 is at  -1.545676 -2.228089 -2.459285
      ESP Fit Center  215 is at  -0.599160 -1.681618 -2.459285
      ESP Fit Center  216 is at  -0.835648 -0.654588 -3.299285
      ESP Fit Center  217 is at  -1.517979  0.284560 -3.299285
      ESP Fit Center  218 is at  -2.622014 -0.074162 -3.299285
      ESP Fit Center  219 is at  -2.622014 -1.235014 -3.299285
      ESP Fit Center  220 is at  -1.517979 -1.593737 -3.299285
      ESP Fit Center  221 is at  -1.823127 -0.654588 -3.620136
      ESP Fit Center  222 is at  -3.143764  1.590054 -1.052839
      ESP Fit Center  223 is at  -4.220102  1.400267 -1.052839
      ESP Fit Center  224 is at  -4.922632  0.563024 -1.052839
      ESP Fit Center  225 is at  -4.922632 -0.529918 -1.052839
      ESP Fit Center  226 is at  -3.143764  1.590054 -2.091136
      ESP Fit Center  227 is at  -4.220102  1.400267 -2.091136
      ESP Fit Center  228 is at  -4.922632  0.563024 -2.091136
      ESP Fit Center  229 is at  -4.922632 -0.529918 -2.091136
      ESP Fit Center  230 is at  -3.116066  0.955701 -2.931136
      ESP Fit Center  231 is at  -4.220102  0.596979 -2.931136
      ESP Fit Center  232 is at  -4.220102 -0.563873 -2.931136
      ESP Fit Center  233 is at  -3.421214  0.016553 -3.251988
      ESP Fit Center  234 is at   3.447656  3.400279  0.261716
      ESP Fit Center  235 is at   2.501141  3.946750  0.261716
      ESP Fit Center  236 is at   1.424802  3.756963  0.261716
      ESP Fit Center  237 is at   3.821465  2.373249 -0.776581
      ESP Fit Center  238 is at   3.447656  3.400279 -0.776581
      ESP Fit Center  239 is at   2.501141  3.946750 -0.776581
      ESP Fit Center  240 is at   1.424802  3.756963 -0.776581
      ESP Fit Center  241 is at   3.211169  2.373249 -1.616581
      ESP Fit Center  242 is at   2.528838  3.312398 -1.616581
      ESP Fit Center  243 is at   2.528838  1.434100 -1.616581
      ESP Fit Center  244 is at   2.223690  2.373249 -1.937433
      ESP Fit Center  245 is at   2.913146  1.329246  2.683636
      ESP Fit Center  246 is at   3.900625  1.329246  2.362785
      ESP Fit Center  247 is at   3.218294  2.268394  2.362785
      ESP Fit Center  248 is at   3.218294  0.390097  2.362785
      ESP Fit Center  249 is at   4.510921  1.329246  1.522785
      ESP Fit Center  250 is at   4.137113  2.356275  1.522785
      ESP Fit Center  251 is at   4.510921  1.329246  0.484487
      ESP Fit Center  252 is at   4.137113  2.356275  0.484487
      ESP Fit Center  253 is at   3.900625  1.329246 -0.355513
      ESP Fit Center  254 is at   1.277263  2.005667  2.898800
      ESP Fit Center  255 is at   2.264742  2.005667  2.577949
      ESP Fit Center  256 is at   1.582411  2.944816  2.577949
      ESP Fit Center  257 is at   0.478375  2.586093  2.577949
      ESP Fit Center  258 is at   1.582411  1.066519  2.577949
      ESP Fit Center  259 is at   1.554713  3.579168  1.737949
      ESP Fit Center  260 is at   0.478375  3.389381  1.737949
      ESP Fit Center  261 is at  -0.224155  2.552139  1.737949
      ESP Fit Center  262 is at   0.478375  3.389381  0.699652
      ESP Fit Center  263 is at   1.020632 -0.401323 -2.742295
      ESP Fit Center  264 is at   0.338301 -1.340472 -2.742295
      ESP Fit Center  265 is at   0.033153 -0.401323 -3.063147
      ESP Fit Center  266 is at   1.134546 -0.772859  2.179308
      ESP Fit Center  267 is at   1.655207 -1.674669  2.179308
      ESP Fit Center  268 is at   3.754392  0.241597 -1.479392
      ESP Fit Center  269 is at   3.754392 -1.787315 -1.479392
      ESP Fit Center  270 is at   3.217188 -0.772859 -2.145342
      ESP Fit Center  271 is at  -1.220436 -1.628227  1.949838
      ESP Fit Center  272 is at  -2.412256  2.058420  0.987513
      ESP Fit Center  273 is at   0.088440 -3.894192 -1.033165
      ESP Fit Center  274 is at   1.026638 -4.346005 -1.033165
      ESP Fit Center  275 is at   3.423694 -2.064842 -1.995490
      ESP Fit Center  276 is at   2.326782 -3.771671 -1.995490
      ESP Fit Center  277 is at   3.125823 -3.079298 -1.995490
      ESP Fit Center  278 is at   0.335430  4.003859 -1.979366
      ESP Fit Center  279 is at  -0.705891  4.003859 -1.979366
      ESP Fit Center  280 is at  -1.644089  3.552047 -1.979366
      ESP Fit Center  281 is at  -0.452270  3.579993 -2.941691
      ESP Fit Center  282 is at  -0.705891  2.624507 -3.607641
      ESP Fit Center  283 is at  -4.244156 -0.397354  3.314985
      ESP Fit Center  284 is at  -3.723495 -1.299164  3.314985
      ESP Fit Center  285 is at  -4.431612  1.020731  2.649036
      ESP Fit Center  286 is at  -5.003223  0.131288  2.649036
      ESP Fit Center  287 is at  -5.003223 -0.925996  2.649036
      ESP Fit Center  288 is at  -2.423352 -2.104183  2.649036
      ESP Fit Center  289 is at  -2.682174  1.883809  1.686710
      ESP Fit Center  290 is at  -1.743976 -2.226704  1.686710
      ESP Fit Center  291 is at  -5.003223 -0.925996 -0.343715
      ESP Fit Center  292 is at  -1.176109 -2.493610 -1.749376
      ESP Fit Center  293 is at  -4.435356 -1.192902 -2.711701
      ESP Fit Center  294 is at  -3.676288 -0.664260 -3.377651
      ESP Fit Center  295 is at  -3.155628 -1.566070 -3.377651
      ESP Fit Center  296 is at   2.513201  2.511581  2.656865
      ESP Fit Center  297 is at   1.471880  0.707960  2.656865
      ESP Fit Center  298 is at   2.772023  3.316600  1.990916
      ESP Fit Center  299 is at   3.451399  3.439121  1.028590
      ESP Fit Center  300 is at   2.513201  3.890933  1.028590
      ESP Fit Center  301 is at   3.868936  1.609771 -1.001835
      ESP Fit Center  302 is at  -1.404944 -1.992926  1.610631
      ESP Fit Center  303 is at  -2.705087  1.995067  0.648306
      ESP Fit Center  304 is at  -1.663766 -2.567259  0.648306
      ESP Fit Center  305 is at  -2.705087  1.995067 -0.419795
      ESP Fit Center  306 is at   2.497694  0.397635 -2.289819
      ESP Fit Center  307 is at   3.290657 -0.794131  2.766279
      ESP Fit Center  308 is at   4.262557 -0.794131  2.544449
      ESP Fit Center  309 is at   3.776607  0.047559  2.544449
      ESP Fit Center  310 is at   2.804708  0.047559  2.544449
      ESP Fit Center  311 is at   2.318758 -0.794131  2.544449
      ESP Fit Center  312 is at   2.804708 -1.635820  2.544449
      ESP Fit Center  313 is at   3.776607 -1.635820  2.544449
      ESP Fit Center  314 is at   5.041960 -0.794131  1.922896
      ESP Fit Center  315 is at   4.707491  0.235259  1.922896
      ESP Fit Center  316 is at   2.749475 -2.459718  1.922896
      ESP Fit Center  317 is at   3.831840 -2.459718  1.922896
      ESP Fit Center  318 is at   4.707491 -1.823520  1.922896
      ESP Fit Center  319 is at   5.474496 -0.794131  1.024726
      ESP Fit Center  320 is at   5.224350  0.220750  1.024726
      ESP Fit Center  321 is at   4.531219 -2.591394  1.024726
      ESP Fit Center  322 is at   5.224350 -1.809011  1.024726
      ESP Fit Center  323 is at   5.474496 -0.794131  0.027832
      ESP Fit Center  324 is at   5.224350  0.220750  0.027832
      ESP Fit Center  325 is at   4.531219 -2.591394  0.027832
      ESP Fit Center  326 is at   5.224350 -1.809011  0.027832
      ESP Fit Center  327 is at   5.041960 -0.794131 -0.870339
      ESP Fit Center  328 is at   4.707491  0.235259 -0.870339
      ESP Fit Center  329 is at   3.831840  0.871457 -0.870339
      ESP Fit Center  330 is at   4.707491 -1.823520 -0.870339
      ESP Fit Center  331 is at   4.262557 -0.794131 -1.491892
      ESP Fit Center  332 is at  -0.684440  0.551084  3.845870
      ESP Fit Center  333 is at   0.287460  0.551084  3.624040
      ESP Fit Center  334 is at  -0.198490  1.392773  3.624040
      ESP Fit Center  335 is at  -1.170389  1.392773  3.624040
      ESP Fit Center  336 is at  -1.656339  0.551084  3.624040
      ESP Fit Center  337 is at  -1.170389 -0.290606  3.624040
      ESP Fit Center  338 is at  -0.198490 -0.290606  3.624040
      ESP Fit Center  339 is at   1.066863  0.551084  3.002487
      ESP Fit Center  340 is at  -0.143257  2.216671  3.002487
      ESP Fit Center  341 is at  -1.225622  2.216671  3.002487
      ESP Fit Center  342 is at  -2.101273  1.580473  3.002487
      ESP Fit Center  343 is at  -1.225622 -1.114504  3.002487
      ESP Fit Center  344 is at  -0.143257 -1.114504  3.002487
      ESP Fit Center  345 is at   0.732394 -0.478306  3.002487
      ESP Fit Center  346 is at  -0.421207  2.719000  2.104317
      ESP Fit Center  347 is at  -1.458839  2.593008  2.104317
      ESP Fit Center  348 is at  -2.319066  1.999236  2.104317
      ESP Fit Center  349 is at  -0.421207 -1.616832  2.104317
      ESP Fit Center  350 is at   0.556122 -1.246180  2.104317
      ESP Fit Center  351 is at  -1.458839  2.593008  1.107423
      ESP Fit Center  352 is at   3.094512 -2.056426 -2.549932
      ESP Fit Center  353 is at   2.776952 -1.079075 -2.549932
      ESP Fit Center  354 is at   1.945567 -0.475039 -2.549932
      ESP Fit Center  355 is at  -0.231025 -2.056426 -2.549932
      ESP Fit Center  356 is at   0.086535 -3.033777 -2.549932
      ESP Fit Center  357 is at   0.917920 -3.637813 -2.549932
      ESP Fit Center  358 is at   1.945567 -3.637813 -2.549932
      ESP Fit Center  359 is at   2.776952 -3.033777 -2.549932
      ESP Fit Center  360 is at   2.391744 -2.056426 -3.252701
      ESP Fit Center  361 is at   1.911744 -1.225042 -3.252701
      ESP Fit Center  362 is at   0.951744 -1.225042 -3.252701
      ESP Fit Center  363 is at   0.471744 -2.056426 -3.252701
      ESP Fit Center  364 is at   0.951744 -2.887811 -3.252701
      ESP Fit Center  365 is at   1.911744 -2.887811 -3.252701
      ESP Fit Center  366 is at   1.431744 -2.056426 -3.509932
      ESP Fit Center  367 is at   2.224056 -2.876344  1.689804
      ESP Fit Center  368 is at   3.184056 -2.876344  1.432573
      ESP Fit Center  369 is at   1.744056 -3.707729  1.432573
      ESP Fit Center  370 is at   2.704056 -3.707729  1.432573
      ESP Fit Center  371 is at   1.710232 -4.457731  0.729804
      ESP Fit Center  372 is at   2.737879 -4.457731  0.729804
      ESP Fit Center  373 is at   3.569264 -3.853695  0.729804
      ESP Fit Center  374 is at   4.144056 -2.876344 -0.230196
      ESP Fit Center  375 is at   1.264056 -4.539113 -0.230196
      ESP Fit Center  376 is at   2.224056 -4.796344 -0.230196
      ESP Fit Center  377 is at   3.184056 -4.539113 -0.230196
      ESP Fit Center  378 is at   3.886824 -3.836344 -0.230196
      ESP Fit Center  379 is at   3.886824 -2.876344 -1.190196
      ESP Fit Center  380 is at   1.710232 -4.457731 -1.190196
      ESP Fit Center  381 is at   2.737879 -4.457731 -1.190196
      ESP Fit Center  382 is at   3.569264 -3.853695 -1.190196
      ESP Fit Center  383 is at   2.704056 -3.707729 -1.892965
      ESP Fit Center  384 is at   0.564278 -2.258266  1.864451
      ESP Fit Center  385 is at  -0.395722 -2.258266  1.607220
      ESP Fit Center  386 is at   0.084278 -3.089651  1.607220
      ESP Fit Center  387 is at  -0.780931 -3.235617  0.904451
      ESP Fit Center  388 is at   0.050454 -3.839653  0.904451
      ESP Fit Center  389 is at  -1.098491 -3.218266 -0.055549
      ESP Fit Center  390 is at  -0.395722 -3.921035 -0.055549
      ESP Fit Center  391 is at  -0.780931 -3.235617 -1.015549
      ESP Fit Center  392 is at  -0.684580  3.419778  0.884808
      ESP Fit Center  393 is at   0.309243  4.169781  0.182039
      ESP Fit Center  394 is at  -0.718404  4.169781  0.182039
      ESP Fit Center  395 is at  -1.549789  3.565745  0.182039
      ESP Fit Center  396 is at  -1.867349  2.588394  0.182039
      ESP Fit Center  397 is at   0.755420  4.251163 -0.777961
      ESP Fit Center  398 is at  -0.204580  4.508394 -0.777961
      ESP Fit Center  399 is at  -1.164580  4.251163 -0.777961
      ESP Fit Center  400 is at  -1.867349  3.548394 -0.777961
      ESP Fit Center  401 is at   0.309243  4.169781 -1.737961
      ESP Fit Center  402 is at  -0.718404  4.169781 -1.737961
      ESP Fit Center  403 is at   2.502945  1.885941 -2.207779
      ESP Fit Center  404 is at   2.245714  2.845941 -2.207779
      ESP Fit Center  405 is at   1.542945  3.548710 -2.207779
      ESP Fit Center  406 is at   2.245714  1.885941 -3.167779
      ESP Fit Center  407 is at   1.928154  2.863292 -3.167779
      ESP Fit Center  408 is at   1.096769  3.467328 -3.167779
      ESP Fit Center  409 is at   0.069122  3.467328 -3.167779
      ESP Fit Center  410 is at   1.096769  0.304554 -3.167779
      ESP Fit Center  411 is at   1.928154  0.908590 -3.167779
      ESP Fit Center  412 is at   1.542945  1.885941 -3.870548
      ESP Fit Center  413 is at   1.062945  2.717325 -3.870548
      ESP Fit Center  414 is at   0.102945  2.717325 -3.870548
      ESP Fit Center  415 is at  -0.377055  1.885941 -3.870548
      ESP Fit Center  416 is at   0.102945  1.054556 -3.870548
      ESP Fit Center  417 is at   1.062945  1.054556 -3.870548
      ESP Fit Center  418 is at   0.582945  1.885941 -4.127779
      ESP Fit Center  419 is at  -2.502679  2.642878 -0.984485
      ESP Fit Center  420 is at  -2.117471  3.328296 -1.944485
      ESP Fit Center  421 is at  -2.820239  2.625527 -1.944485
      ESP Fit Center  422 is at  -1.671294  3.246915 -2.904485
[...]
  418 Fit       0.017533
  419 Fit       0.016478
  420 Fit       0.016026
  421 Fit       0.020783
  422 Fit       0.016742
  423 Fit       0.021298
  424 Fit       0.027511
  425 Fit       0.019565
  426 Fit       0.024762
  427 Fit       0.028895
  428 Fit       0.021381
  429 Fit       0.007112
  430 Fit       0.010966
  431 Fit       0.007847
  432 Fit       0.011799
  433 Fit       0.013374
  434 Fit       0.009341
  435 Fit       0.013407
  436 Fit       0.015502
  437 Fit       0.016019
  438 Fit       0.016042
  439 Fit       0.013871
  440 Fit       0.017070
  441 Fit       0.018748
  442 Fit       0.019065
  443 Fit       0.019324
  444 Fit      -0.004072
  445 Fit      -0.021768
  446 Fit      -0.016062
  447 Fit      -0.001807
  448 Fit       0.003999
  449 Fit       0.002254
  450 Fit      -0.007138
  451 Fit      -0.024993
  452 Fit      -0.004133
  453 Fit       0.004795
  454 Fit      -0.003961
  455 Fit      -0.024415
  456 Fit      -0.012060
  457 Fit       0.010904
  458 Fit       0.009504
  459 Fit       0.004975
  460 Fit       0.013766
  461 Fit       0.013826
  462 Fit       0.013029
  463 Fit       0.009627
  464 Fit       0.002955
  465 Fit       0.015819
  466 Fit       0.016630
  467 Fit       0.017197
  468 Fit       0.016185
  469 Fit       0.012995
  470 Fit       0.018823
  471 Fit       0.020366
  472 Fit       0.022015
  473 Fit       0.021785
  474 Fit       0.024090
  475 Fit       0.023043
  476 Fit       0.020945
  477 Fit       0.019670
  478 Fit       0.022850
  479 Fit       0.023144
  480 Fit       0.023369
  481 Fit       0.022887
  482 Fit       0.022799
  483 Fit       0.023950
  484 Fit       0.023672
  485 Fit       0.023851
  486 Fit       0.024129
  487 Fit       0.025175
  488 Fit       0.026822
  489 Fit       0.032617
  490 Fit       0.030486
  491 Fit       0.038152
  492 Fit       0.034337
  493 Fit       0.032520
  494 Fit       0.030161
  495 Fit       0.029251
  496 Fit       0.031448
  497 Fit       0.030460
  498 Fit       0.020618
  499 Fit       0.023286
  500 Fit       0.022695
  501 Fit       0.023036
  502 Fit       0.022735
  503 Fit       0.022952
  504 Fit       0.024515
  505 Fit       0.023770
  506 Fit       0.023408
  507 Fit       0.024137
  508 Fit       0.028331
  509 Fit       0.025162
  510 Fit       0.024631
  511 Fit       0.027079
  512 Fit      -0.000234
  513 Fit      -0.012000
  514 Fit      -0.003716
  515 Fit       0.001411
  516 Fit       0.004498
  517 Fit       0.007767
  518 Fit      -0.006753
  519 Fit       0.000742
  520 Fit       0.005724
  521 Fit       0.009269
  522 Fit       0.001050
  523 Fit       0.007069
  524 Fit      -0.001643
  525 Fit      -0.022889
  526 Fit      -0.022011
  527 Fit      -0.014041
  528 Fit      -0.034561
  529 Fit      -0.036161
  530 Fit      -0.024720
  531 Fit      -0.012431
  532 Fit      -0.007816
  533 Fit      -0.028780
  534 Fit      -0.013745
  535 Fit      -0.030024
  536 Fit      -0.013428
  537 Fit      -0.025336
  538 Fit      -0.019073
  539 Fit      -0.012880
  540 Fit      -0.017112
  541 Fit      -0.032004
  542 Fit      -0.005395
  543 Fit      -0.006630
  544 Fit      -0.018418
  545 Fit      -0.000009
  546 Fit       0.000108
  547 Fit      -0.007637
  548 Fit       0.038004
  549 Fit       0.027881
  550 Fit       0.033663
  551 Fit      -0.025730
  552 Fit      -0.018696
  553 Fit      -0.015022
  554 Fit       0.000913
  555 Fit       0.004539
  556 Fit      -0.006772
  557 Fit      -0.015980
  558 Fit      -0.001311
  559 Fit       0.004428
  560 Fit       0.008875
  561 Fit      -0.019402
  562 Fit       0.014732
  563 Fit       0.009667
  564 Fit      -0.001080
  565 Fit       0.002443
  566 Fit       0.012076
  567 Fit       0.013157
  568 Fit       0.010713
  569 Fit       0.011603
  570 Fit       0.012881
  571 Fit       0.015848
  572 Fit       0.023540
  573 Fit       0.004316
  574 Fit       0.004652
  575 Fit       0.008106
  576 Fit       0.009227
  577 Fit      -0.001119
  578 Fit       0.000452
  579 Fit       0.012014
  580 Fit      -0.001664
  581 Fit       0.001680
  582 Fit       0.017940
  583 Fit       0.023032
  584 Fit       0.025701
  585 Fit       0.024417
  586 Fit       0.024820
  587 Fit      -0.014637
  588 Fit      -0.039781
  589 Fit      -0.008109
  590 Fit      -0.005852
  591 Fit      -0.003159
  592 Fit      -0.004990
  593 Fit       0.004275
  594 Fit      -0.021468
  595 Fit      -0.012623
  596 Fit       0.007951
  597 Fit       0.010032
  598 Fit      -0.003989
  599 Fit       0.004619
  600 Fit      -0.042444
  601 Fit      -0.045277
  602 Fit      -0.040649
  603 Fit      -0.038160
  604 Fit      -0.037589
  605 Fit      -0.043564
  606 Fit      -0.046511
  607 Fit      -0.042611
  608 Fit      -0.032270
  609 Fit      -0.041724
  610 Fit      -0.046279
  611 Fit      -0.045981
  612 Fit      -0.043130
  613 Fit      -0.042108
  614 Fit      -0.045914
  615 Fit      -0.043100
  616 Fit      -0.040627
  617 Fit      -0.033565
  618 Fit      -0.036925
  619 Fit      -0.042448
  620 Fit      -0.036572
  621 Fit      -0.033631
  622 Fit      -0.033987
  623 Fit      -0.024245
  624 Fit      -0.035791
  625 Fit      -0.039987
  626 Fit      -0.037099
  627 Fit      -0.032808
  628 Fit      -0.028908
  629 Fit      -0.036643
  630 Fit      -0.041612
  631 Fit      -0.031665
  632 Fit      -0.030305
  633 Fit      -0.025976
  634 Fit      -0.024070
  635 Fit      -0.031978
  636 Fit      -0.039905
  637 Fit      -0.021462
  638 Fit      -0.018321
  639 Fit      -0.015053
  640 Fit       0.002200
  641 Fit       0.005381
  642 Fit       0.013029
  643 Fit       0.027652
  644 Fit       0.018785
  645 Fit       0.013112
  646 Fit       0.008699
  647 Fit       0.004564
  648 Fit       0.011440
  649 Fit       0.016769
  650 Fit       0.026234
  651 Fit       0.026015
  652 Fit       0.018542
  653 Fit       0.013089
  654 Fit       0.018787
  655 Fit      -0.005077
  656 Fit      -0.012145
  657 Fit       0.000506
  658 Fit      -0.004207
  659 Fit      -0.015260
  660 Fit       0.005479
  661 Fit       0.002759
  662 Fit      -0.002051
  663 Fit      -0.011631
  664 Fit      -0.014438
  665 Fit       0.006289
  666 Fit       0.002441
  667 Fit      -0.003997
  668 Fit      -0.009389
  669 Fit      -0.002747
  670 Fit       0.000656
  671 Fit       0.009609
  672 Fit       0.008969
  673 Fit       0.005016
  674 Fit       0.015574
  675 Fit       0.010966
  676 Fit       0.018060
  677 Fit      -0.001389
  678 Fit       0.006231
  679 Fit       0.006861
  680 Fit       0.006582
  681 Fit       0.006219
  682 Fit       0.008644
  683 Fit       0.009245
  684 Fit       0.009917
  685 Fit       0.010731
  686 Fit       0.010177
  687 Fit       0.010899
  688 Fit       0.010033
  689 Fit       0.009580
  690 Fit       0.010771
  691 Fit       0.011530
  692 Fit       0.012206
  693 Fit       0.019815
  694 Fit       0.011328
  695 Fit       0.013733
  696 Fit       0.013485
  697 Fit       0.014515
  698 Fit       0.020366
  699 Fit       0.017100
  700 Fit       0.015891
  701 Fit       0.017481
  702 Fit       0.016877
  703 Fit       0.022651
  704 Fit       0.017496
  705 Fit       0.022367
  706 Fit       0.017837
  707 Fit       0.022666
  708 Fit       0.027069
  709 Fit       0.019922
  710 Fit       0.004766
  711 Fit       0.009018
  712 Fit       0.011127
  713 Fit       0.012241
  714 Fit       0.006863
  715 Fit       0.010721
  716 Fit       0.013005
  717 Fit       0.014072
  718 Fit       0.014490
  719 Fit       0.015127
  720 Fit       0.016602
  721 Fit       0.017335
  722 Fit       0.017742
  723 Fit      -0.005552
  724 Fit      -0.022434
  725 Fit      -0.016932
  726 Fit      -0.003171
  727 Fit       0.002558
  728 Fit       0.000983
  729 Fit      -0.008248
  730 Fit      -0.008600
  731 Fit       0.001403
  732 Fit      -0.006749
  733 Fit       0.007841
  734 Fit       0.003433
  735 Fit       0.012043
  736 Fit       0.011836
  737 Fit       0.010474
  738 Fit       0.007021
  739 Fit       0.014621
  740 Fit       0.015095
  741 Fit       0.015066
  742 Fit       0.013840
  743 Fit       0.011079
  744 Fit       0.018173
  745 Fit       0.019466
  746 Fit       0.020629
  747 Fit       0.021382
  748 Fit       0.019886
  749 Fit       0.018355
  750 Fit       0.020713
  751 Fit       0.020710
  752 Fit       0.020521
  753 Fit       0.020197
  754 Fit       0.021068
  755 Fit       0.021416
  756 Fit       0.021223
  757 Fit       0.021321
  758 Fit       0.022271
  759 Fit       0.022881
  760 Fit       0.028460
  761 Fit       0.030522
  762 Fit       0.029036
  763 Fit       0.027431
  764 Fit       0.026391
  765 Fit       0.028121
  766 Fit       0.027285
  767 Fit       0.020148
  768 Fit       0.020408
  769 Fit       0.020556
  770 Fit       0.020616
  771 Fit       0.022790
  772 Fit       0.021322
  773 Fit       0.021035
  774 Fit       0.021243
  775 Fit       0.026507
  776 Fit       0.022819
  777 Fit       0.022297
  778 Fit       0.024981
  779 Fit      -0.004981
  780 Fit      -0.000183
  781 Fit       0.002912
  782 Fit       0.005779
  783 Fit      -0.007419
  784 Fit      -0.000755
  785 Fit       0.003844
  786 Fit       0.007335
  787 Fit       0.000579
  788 Fit       0.006212
  789 Fit      -0.023087
  790 Fit      -0.022366
  791 Fit      -0.014465
  792 Fit      -0.035729
  793 Fit      -0.024952
  794 Fit      -0.013721
  795 Fit      -0.008820
  796 Fit      -0.028453
  797 Fit      -0.014676
  798 Fit      -0.028911
  799 Fit      -0.025180
  800 Fit      -0.013226
  801 Fit      -0.017393
  802 Fit      -0.006179
  803 Fit      -0.006275
  804 Fit      -0.012279
  805 Fit       0.000203
  806 Fit      -0.002686
  807 Fit       0.024566
  808 Fit       0.030145
  809 Fit      -0.026530
  810 Fit      -0.012164
  811 Fit      -0.009759
  812 Fit       0.002308
  813 Fit       0.000095
  814 Fit      -0.009372
  815 Fit      -0.017321
  816 Fit      -0.003662
  817 Fit       0.005895
  818 Fit       0.012375
  819 Fit       0.008158
  820 Fit      -0.012579
  821 Fit       0.019049
  822 Fit       0.012949
  823 Fit       0.008761
  824 Fit       0.005369
  825 Fit      -0.005623
  826 Fit       0.012625
  827 Fit       0.008808
  828 Fit       0.009440
  829 Fit       0.010376
  830 Fit       0.011978
  831 Fit       0.010193
  832 Fit       0.010671
  833 Fit       0.012474
  834 Fit       0.012329
  835 Fit       0.023328
  836 Fit       0.014989
  837 Fit       0.021348
  838 Fit       0.002559
  839 Fit       0.003024
  840 Fit       0.006077
  841 Fit       0.007092
  842 Fit       0.006639
  843 Fit      -0.002361
  844 Fit      -0.003719
  845 Fit       0.009241
  846 Fit       0.009829
  847 Fit      -0.005778
  848 Fit      -0.004606
  849 Fit       0.012200
  850 Fit       0.017795
  851 Fit       0.019064
  852 Fit       0.019452
  853 Fit       0.021966
  854 Fit       0.020190
  855 Fit       0.022589
  856 Fit       0.020962
  857 Fit       0.021304
  858 Fit       0.022131
  859 Fit       0.023287
  860 Fit       0.022124
  861 Fit       0.022484
  862 Fit       0.024129
  863 Fit      -0.024032
  864 Fit      -0.015419
  865 Fit      -0.029167
  866 Fit      -0.009485
  867 Fit      -0.007544
  868 Fit      -0.005145
  869 Fit      -0.006608
  870 Fit      -0.003097
  871 Fit      -0.000919
  872 Fit       0.000611
  873 Fit      -0.011542
  874 Fit      -0.017944
  875 Fit      -0.009440
  876 Fit       0.003928
  877 Fit       0.004603
  878 Fit       0.013061
  879 Fit       0.012563
  880 Fit      -0.000680
  881 Fit       0.006935
  882 Fit      -0.036793
  883 Fit      -0.038556
  884 Fit      -0.035467
  885 Fit      -0.035002
  886 Fit      -0.035181
  887 Fit      -0.033396
  888 Fit      -0.037194
  889 Fit      -0.039584
  890 Fit      -0.036863
  891 Fit      -0.024849
  892 Fit      -0.030827
  893 Fit      -0.036486
  894 Fit      -0.039421
  895 Fit      -0.039521
  896 Fit      -0.037153
  897 Fit      -0.030353
  898 Fit      -0.036842
  899 Fit      -0.039478
  900 Fit      -0.038020
  901 Fit      -0.036198
  902 Fit      -0.031428
  903 Fit      -0.028219
  904 Fit      -0.035172
  905 Fit      -0.037831
  906 Fit      -0.034509
  907 Fit      -0.032661
  908 Fit      -0.027735
  909 Fit      -0.028923
  910 Fit      -0.033626
  911 Fit      -0.028085
  912 Fit      -0.026079
  913 Fit      -0.020340
  914 Fit      -0.025894
  915 Fit      -0.017503
  916 Fit      -0.029818
  917 Fit      -0.033735
  918 Fit      -0.031257
  919 Fit      -0.027323
  920 Fit      -0.022134
  921 Fit      -0.024461
  922 Fit      -0.030900
  923 Fit      -0.036033
  924 Fit      -0.031871
  925 Fit      -0.028312
  926 Fit      -0.026495
  927 Fit      -0.023636
  928 Fit      -0.023070
  929 Fit      -0.029519
  930 Fit      -0.035257
  931 Fit      -0.020162
  932 Fit      -0.018131
  933 Fit      -0.012928
  934 Fit      -0.018884
  935 Fit      -0.010402
  936 Fit      -0.008543
  937 Fit       0.003401
  938 Fit       0.005838
  939 Fit       0.012803
  940 Fit       0.025597
  941 Fit       0.017866
  942 Fit       0.012661
  943 Fit       0.008652
  944 Fit       0.005192
  945 Fit       0.010760
  946 Fit       0.015274
  947 Fit       0.022998
  948 Fit       0.023116
  949 Fit       0.016965
  950 Fit       0.012175
  951 Fit       0.016875
  952 Fit      -0.013898
  953 Fit      -0.001948
  954 Fit      -0.006865
  955 Fit      -0.017492
  956 Fit       0.002628
  957 Fit      -0.000508
  958 Fit      -0.005907
  959 Fit      -0.016167
  960 Fit       0.005102
  961 Fit       0.002040
  962 Fit      -0.002536
  963 Fit      -0.010347
  964 Fit       0.002322
  965 Fit      -0.003055
  966 Fit      -0.012283
  967 Fit      -0.007022
  968 Fit      -0.002323
  969 Fit       0.005586
  970 Fit       0.002444
  971 Fit       0.013746
  972 Fit       0.010778
  973 Fit       0.007134
  974 Fit       0.014637
  975 Fit      -0.005648
  976 Fit       0.003360
  977 Fit       0.003666
  978 Fit       0.003010
  979 Fit       0.001397
  980 Fit       0.006716
  981 Fit       0.007313
  982 Fit       0.007839
  983 Fit       0.008907
  984 Fit       0.008227
  985 Fit       0.008429
  986 Fit       0.009185
  987 Fit       0.010329
  988 Fit       0.004002
  989 Fit       0.007032
  990 Fit       0.008781
  991 Fit       0.009653
  992 Fit       0.009145
  993 Fit       0.009780
  994 Fit       0.010611
  995 Fit       0.011573
  996 Fit       0.017973
  997 Fit       0.011198
  998 Fit       0.012465
  999 Fit       0.012284
 1000 Fit       0.013642
 1001 Fit       0.018635
 1002 Fit       0.015574
 1003 Fit       0.014613
 1004 Fit       0.013333
 1005 Fit       0.017149
 1006 Fit       0.014920
 1007 Fit       0.018859
 1008 Fit       0.016342
 1009 Fit       0.020387
 1010 Fit       0.016697
 1011 Fit       0.020618
 1012 Fit       0.024206
 1013 Fit       0.018661
 1014 Fit       0.002894
 1015 Fit       0.006916
 1016 Fit       0.009052
 1017 Fit       0.006675
 1018 Fit       0.009453
 1019 Fit       0.011023
 1020 Fit       0.011875
 1021 Fit       0.012678
 1022 Fit       0.008463
 1023 Fit       0.010913
 1024 Fit       0.012633
 1025 Fit       0.013666
 1026 Fit       0.014243
 1027 Fit       0.014933
 1028 Fit       0.016423
 1029 Fit       0.016894
 1030 Fit       0.017352
 1031 Fit       0.018041
 1032 Fit      -0.006326
 1033 Fit      -0.019068
 1034 Fit      -0.015059
 1035 Fit      -0.004228
 1036 Fit       0.000727
 1037 Fit      -0.000605
 1038 Fit      -0.008434
 1039 Fit      -0.008559
 1040 Fit       0.000003
 1041 Fit      -0.007360
 1042 Fit       0.006073
 1043 Fit       0.009949
 1044 Fit       0.009444
 1045 Fit       0.007950
 1046 Fit       0.004629
 1047 Fit       0.012288
 1048 Fit       0.012225
 1049 Fit       0.011541
 1050 Fit       0.009820
 1051 Fit       0.006753
 1052 Fit       0.014924
 1053 Fit       0.015336
 1054 Fit       0.015403
 1055 Fit       0.014731
 1056 Fit       0.013242
 1057 Fit       0.018775
 1058 Fit       0.015838
 1059 Fit       0.018912
 1060 Fit       0.018588
 1061 Fit       0.018009
 1062 Fit       0.017594
 1063 Fit       0.018874
 1064 Fit       0.018932
 1065 Fit       0.018751
 1066 Fit       0.018631
 1067 Fit       0.018890
 1068 Fit       0.020829
 1069 Fit       0.020056
 1070 Fit       0.019564
 1071 Fit       0.019740
 1072 Fit       0.021117
 1073 Fit       0.021431
 1074 Fit       0.025709
 1075 Fit       0.030097
 1076 Fit       0.026829
 1077 Fit       0.025947
 1078 Fit       0.024941
 1079 Fit       0.024060
 1080 Fit       0.025254
 1081 Fit       0.024698
 1082 Fit       0.017182
 1083 Fit       0.018061
 1084 Fit       0.018855
 1085 Fit       0.019028
 1086 Fit       0.019374
 1087 Fit       0.018660
 1088 Fit       0.018669
 1089 Fit       0.018791
 1090 Fit       0.019515
 1091 Fit       0.021216
 1092 Fit       0.019619
 1093 Fit       0.019324
 1094 Fit       0.019744
 1095 Fit       0.021139
 1096 Fit       0.020680
 1097 Fit      -0.002426
 1098 Fit       0.000372
 1099 Fit       0.002573
 1100 Fit      -0.004614
 1101 Fit      -0.000209
 1102 Fit       0.002876
 1103 Fit       0.005665
 1104 Fit      -0.005597
 1105 Fit      -0.000227
 1106 Fit       0.003869
 1107 Fit       0.007346
 1108 Fit       0.001685
 1109 Fit       0.006259
 1110 Fit      -0.022776
 1111 Fit      -0.021928
 1112 Fit      -0.015419
 1113 Fit      -0.031962
 1114 Fit      -0.023588
 1115 Fit      -0.014384
 1116 Fit      -0.026273
 1117 Fit      -0.015061
 1118 Fit      -0.009168
 1119 Fit      -0.028003
 1120 Fit      -0.015154
 1121 Fit      -0.024438
 1122 Fit      -0.014387
 1123 Fit      -0.018155
 1124 Fit      -0.008023
 1125 Fit      -0.008424
 1126 Fit      -0.014398
 1127 Fit      -0.002879
 1128 Fit      -0.005707
 1129 Fit       0.022534
 1130 Fit       0.027206
 -----------------------------------------------------------------
 Leave Link  602 at Mon Feb 26 23:17:38 2018, MaxMem=   33554432 cpu:       0.7

 Test job not archived.
 1\1\GINC-NODE058\SP\RHF\6-31G(d)\C8H16N2O2\WULSDORT\26-Feb-2018\0\\#HF
 /6-31G* Geom=AllCheck Guess=Read Pop=(MK,ReadRadii) Integral=(Grid=Ult
 raFine) iop(6/33=2)\\Optimization for frag1-conf0\\0,1\C,0,-1.29520949
 47,-1.0160782897,-0.5207393904\C,0,-0.4424472379,-2.7085504511,2.19863
 6668\C,0,-2.6829296176,-0.9609589162,0.1131931014\C,0,0.8216880674,-0.
 5343858745,2.5169596255\C,0,-1.1076704425,-4.395918273,3.8269855313\C,
 0,-1.6609338029,-2.0613245802,4.3215964406\C,0,1.1140563273,-1.2963888
 852,-0.2852451598\C,0,-0.3401087362,-1.2179552408,1.771224167\N,0,-1.0
 760242818,-3.0063730194,3.3842892961\N,0,-0.2034517061,-1.0981425304,0
 .3218346339\O,0,-1.1758790812,-0.9724832258,-1.7399403658\O,0,0.051153
 3936,-3.5825719295,1.4939957006\H,0,-2.8317511772,-0.0417095582,0.6929
 688261\H,0,-3.4054270268,-0.9745696112,-0.7033024407\H,0,-2.875274662,
 -1.8134599731,0.7740555507\H,0,1.7678854219,-1.0542991958,2.3450021941
 \H,0,0.9268266561,0.5027784938,2.1832970574\H,0,0.6352111229,-0.530687
 8389,3.5953386773\H,0,-0.5513316431,-4.5140814508,4.7666647296\H,0,-0.
 6544205441,-5.0150067084,3.0548572966\H,0,-2.1437619046,-4.7153256923,
 3.9966714573\H,0,-2.6863733643,-2.366349793,4.5674345112\H,0,-1.699672
 5297,-1.0527120841,3.9144974772\H,0,-1.086590577,-2.0310629314,5.25867
 2791\H,0,1.7800581885,-0.4516927477,-0.073768176\H,0,0.9648235644,-1.3
 640948504,-1.3615969406\H,0,1.5597236745,-2.2227888691,0.0836346437\H,
 0,-1.2555858051,-0.6938340079,2.0452329939\\Version=AM64L-G09RevC.01\S
 tate=1-A\HF=-570.8884691\RMSD=7.660e-09\Dipole=-0.4649046,0.6101526,2.
 6774974\Quadrupole=5.0975246,0.5251199,-5.6226445,2.1148636,-2.7323408
 ,0.9230644\PG=C01 [X(C8H16N2O2)]\\@


 BOOKS ARE LIGHTHOUSES ERECTED IN THE GREAT SEA OF TIME.
     -- E.P.WHIPPLE
 Job cpu time:  0 days  0 hours  3 minutes 23.8 seconds.
 File lengths (MBytes):  RWF=     29 Int=      0 D2E=      0 Chk=      5 Scr=      1
 Normal termination of Gaussian 09 at Mon Feb 26 23:17:38 2018.
