 Entering Gaussian System, Link 0=g09
 Initial command:
 /home/fb_chem/chemsoft/lx24-amd64/Gaussian_09_C.01_NBO_3.1_64_istanbul-64/g09/l1.exe /local/2426249.1.parallel/Gau-7527.inp -scrdir=/local/2426249.1.parallel/
 Entering Link 1 = /home/fb_chem/chemsoft/lx24-amd64/Gaussian_09_C.01_NBO_3.1_64_istanbul-64/g09/l1.exe PID=      7530.
  
 Copyright (c) 1988,1990,1992,1993,1995,1998,2003,2009,2011,
            Gaussian, Inc.  All Rights Reserved.
  
 This is part of the Gaussian(R) 09 program.  It is based on
 the Gaussian(R) 03 system (copyright 2003, Gaussian, Inc.),
 the Gaussian(R) 98 system (copyright 1998, Gaussian, Inc.),
 the Gaussian(R) 94 system (copyright 1995, Gaussian, Inc.),
 the Gaussian 92(TM) system (copyright 1992, Gaussian, Inc.),
 the Gaussian 90(TM) system (copyright 1990, Gaussian, Inc.),
 the Gaussian 88(TM) system (copyright 1988, Gaussian, Inc.),
 the Gaussian 86(TM) system (copyright 1986, Carnegie Mellon
 University), and the Gaussian 82(TM) system (copyright 1983,
 Carnegie Mellon University). Gaussian is a federally registered
 trademark of Gaussian, Inc.
  
 This software contains proprietary and confidential information,
 including trade secrets, belonging to Gaussian, Inc.
  
 This software is provided under written license and may be
 used, copied, transmitted, or stored only in accord with that
 written license.
  
 The following legend is applicable only to US Government
 contracts under FAR:
  
                    RESTRICTED RIGHTS LEGEND
  
 Use, reproduction and disclosure by the US Government is
 subject to restrictions as set forth in subparagraphs (a)
 and (c) of the Commercial Computer Software - Restricted
 Rights clause in FAR 52.227-19.
  
 Gaussian, Inc.
 340 Quinnipiac St., Bldg. 40, Wallingford CT 06492
  
  
 ---------------------------------------------------------------
 Warning -- This program may not be used in any manner that
 competes with the business of Gaussian, Inc. or will provide
 assistance to any competitor of Gaussian, Inc.  The licensee
 of this program is prohibited from giving any competitor of
 Gaussian, Inc. access to this program.  By using this program,
 the user acknowledges that Gaussian, Inc. is engaged in the
 business of creating and licensing software in the field of
 computational chemistry and represents and warrants to the
 licensee that it is not a competitor of Gaussian, Inc. and that
 it will not use this program in any manner prohibited above.
 ---------------------------------------------------------------
  

 Cite this work as:
 Gaussian 09, Revision C.01,
 M. J. Frisch, G. W. Trucks, H. B. Schlegel, G. E. Scuseria, 
 M. A. Robb, J. R. Cheeseman, G. Scalmani, V. Barone, B. Mennucci, 
 G. A. Petersson, H. Nakatsuji, M. Caricato, X. Li, H. P. Hratchian, 
 A. F. Izmaylov, J. Bloino, G. Zheng, J. L. Sonnenberg, M. Hada, 
 M. Ehara, K. Toyota, R. Fukuda, J. Hasegawa, M. Ishida, T. Nakajima, 
 Y. Honda, O. Kitao, H. Nakai, T. Vreven, J. A. Montgomery, Jr., 
 J. E. Peralta, F. Ogliaro, M. Bearpark, J. J. Heyd, E. Brothers, 
 K. N. Kudin, V. N. Staroverov, T. Keith, R. Kobayashi, J. Normand, 
 K. Raghavachari, A. Rendell, J. C. Burant, S. S. Iyengar, J. Tomasi, 
 M. Cossi, N. Rega, J. M. Millam, M. Klene, J. E. Knox, J. B. Cross, 
 V. Bakken, C. Adamo, J. Jaramillo, R. Gomperts, R. E. Stratmann, 
 O. Yazyev, A. J. Austin, R. Cammi, C. Pomelli, J. W. Ochterski, 
 R. L. Martin, K. Morokuma, V. G. Zakrzewski, G. A. Voth, 
 P. Salvador, J. J. Dannenberg, S. Dapprich, A. D. Daniels, 
 O. Farkas, J. B. Foresman, J. V. Ortiz, J. Cioslowski, 
 and D. J. Fox, Gaussian, Inc., Wallingford CT, 2010.
 
 ******************************************
 Gaussian 09:  AM64L-G09RevC.01 23-Sep-2011
                26-Feb-2018 
 ******************************************
 %nprocs=4
 Will use up to    4 processors via shared memory.
 %chk=frag1-conf0.chk
 ---------------------------------------------------------
 #B3LYP/6-31G* Integral=(Grid=UltraFine) freq Opt pop=none
 ---------------------------------------------------------
 1/14=-1,18=20,19=15,26=3,38=1/1,3;
 2/9=110,12=2,17=6,18=5,40=1/2;
 3/5=1,6=6,7=1,11=2,16=1,25=1,30=1,71=1,74=-5,75=-5/1,2,3;
 4//1;
 5/5=2,38=5/2;
 7//1,2,3,16;
 1/14=-1,18=20,19=15/3(2);
 2/9=110/2;
 99//99;
 2/9=110/2;
 3/5=1,6=6,7=1,11=2,16=1,25=1,30=1,71=1,74=-5,75=-5/1,2,3;
 4/5=5,16=3/1;
 5/5=2,38=5/2;
 7//1,2,3,16;
 1/14=-1,18=20,19=15/3(-5);
 2/9=110/2;
 99/9=1/99;
 ----------------------------
 Optimization for frag1-conf0
 ----------------------------
 Charge =  0 Multiplicity = 1
 Symbolic Z-Matrix:
 C                    -1.33015  -1.04468  -0.53865 
 C                    -0.44899  -2.69512   2.2072 
 C                    -2.69451  -1.04902   0.10657 
 C                     0.87291  -0.56594   2.50768 
 C                    -1.16482  -4.39291   3.84004 
 C                    -1.63778  -2.03341   4.35298 
 C                     1.10726  -1.20018  -0.32262 
 C                    -0.3111   -1.2064    1.77992 
 N                    -1.04721  -2.99813   3.42869 
 N                    -0.21566  -1.10847   0.29163 
 O                    -1.23591  -0.97291  -1.76797 
 O                    -0.00641  -3.5973    1.48193 
 H                    -2.85341  -0.11511   0.65171 
 H                    -3.46104  -1.128    -0.6706 
 H                    -2.80583  -1.90541   0.77552 
 H                     1.8067   -1.10517   2.31457 
 H                     1.00697   0.47407   2.19229 
 H                     0.72772  -0.57123   3.59225 
 H                    -0.68557  -4.51324   4.81621 
 H                    -0.69448  -5.07943   3.13214 
 H                    -2.2264   -4.6449    3.92176 
 H                    -2.71108  -2.23471   4.42207 
 H                    -1.49885  -0.99763   4.0505 
 H                    -1.18095  -2.16978   5.33791 
 H                     1.67323  -0.29633  -0.08081 
 H                     1.05033  -1.28575  -1.41083 
 H                     1.6301   -2.07941   0.06299 
 H                    -1.2185   -0.67353   2.06736 
 

 GradGradGradGradGradGradGradGradGradGradGradGradGradGradGradGradGradGrad
 Berny optimization.
 Initialization pass.
                           ----------------------------
                           !    Initial Parameters    !
                           ! (Angstroms and Degrees)  !
 --------------------------                            --------------------------
 ! Name  Definition              Value          Derivative Info.                !
 --------------------------------------------------------------------------------
 ! R1    R(1,3)                  1.5092         estimate D2E/DX2                !
 ! R2    R(1,10)                 1.3912         estimate D2E/DX2                !
 ! R3    R(1,11)                 1.235          estimate D2E/DX2                !
 ! R4    R(2,8)                  1.5549         estimate D2E/DX2                !
 ! R5    R(2,9)                  1.3935         estimate D2E/DX2                !
 ! R6    R(2,12)                 1.2393         estimate D2E/DX2                !
 ! R7    R(3,13)                 1.093          estimate D2E/DX2                !
 ! R8    R(3,14)                 1.0944         estimate D2E/DX2                !
 ! R9    R(3,15)                 1.0924         estimate D2E/DX2                !
 ! R10   R(4,8)                  1.5303         estimate D2E/DX2                !
 ! R11   R(4,16)                 1.0955         estimate D2E/DX2                !
 ! R12   R(4,17)                 1.095          estimate D2E/DX2                !
 ! R13   R(4,18)                 1.0943         estimate D2E/DX2                !
 ! R14   R(5,9)                  1.4589         estimate D2E/DX2                !
 ! R15   R(5,19)                 1.0941         estimate D2E/DX2                !
 ! R16   R(5,20)                 1.0925         estimate D2E/DX2                !
 ! R17   R(5,21)                 1.0941         estimate D2E/DX2                !
 ! R18   R(6,9)                  1.4607         estimate D2E/DX2                !
 ! R19   R(6,22)                 1.0942         estimate D2E/DX2                !
 ! R20   R(6,23)                 1.088          estimate D2E/DX2                !
 ! R21   R(6,24)                 1.0943         estimate D2E/DX2                !
 ! R22   R(7,10)                 1.4614         estimate D2E/DX2                !
 ! R23   R(7,25)                 1.0935         estimate D2E/DX2                !
 ! R24   R(7,26)                 1.0931         estimate D2E/DX2                !
 ! R25   R(7,27)                 1.0932         estimate D2E/DX2                !
 ! R26   R(8,10)                 1.4946         estimate D2E/DX2                !
 ! R27   R(8,28)                 1.0909         estimate D2E/DX2                !
 ! A1    A(3,1,10)             117.9641         estimate D2E/DX2                !
 ! A2    A(3,1,11)             119.6491         estimate D2E/DX2                !
 ! A3    A(10,1,11)            122.3832         estimate D2E/DX2                !
 ! A4    A(8,2,9)              119.1526         estimate D2E/DX2                !
 ! A5    A(8,2,12)             120.298          estimate D2E/DX2                !
 ! A6    A(9,2,12)             120.5321         estimate D2E/DX2                !
 ! A7    A(1,3,13)             110.0106         estimate D2E/DX2                !
 ! A8    A(1,3,14)             109.2553         estimate D2E/DX2                !
 ! A9    A(1,3,15)             110.8655         estimate D2E/DX2                !
 ! A10   A(13,3,14)            108.3012         estimate D2E/DX2                !
 ! A11   A(13,3,15)            110.4645         estimate D2E/DX2                !
 ! A12   A(14,3,15)            107.8732         estimate D2E/DX2                !
 ! A13   A(8,4,16)             111.697          estimate D2E/DX2                !
 ! A14   A(8,4,17)             110.8086         estimate D2E/DX2                !
 ! A15   A(8,4,18)             111.5113         estimate D2E/DX2                !
 ! A16   A(16,4,17)            108.203          estimate D2E/DX2                !
 ! A17   A(16,4,18)            106.5855         estimate D2E/DX2                !
 ! A18   A(17,4,18)            107.8365         estimate D2E/DX2                !
 ! A19   A(9,5,19)             108.7474         estimate D2E/DX2                !
 ! A20   A(9,5,20)             112.5415         estimate D2E/DX2                !
 ! A21   A(9,5,21)             108.6304         estimate D2E/DX2                !
 ! A22   A(19,5,20)            108.6881         estimate D2E/DX2                !
 ! A23   A(19,5,21)            109.4522         estimate D2E/DX2                !
 ! A24   A(20,5,21)            108.7454         estimate D2E/DX2                !
 ! A25   A(9,6,22)             108.3629         estimate D2E/DX2                !
 ! A26   A(9,6,23)             113.6543         estimate D2E/DX2                !
 ! A27   A(9,6,24)             108.5693         estimate D2E/DX2                !
 ! A28   A(22,6,23)            108.5393         estimate D2E/DX2                !
 ! A29   A(22,6,24)            109.253          estimate D2E/DX2                !
 ! A30   A(23,6,24)            108.3962         estimate D2E/DX2                !
 ! A31   A(10,7,25)            108.8867         estimate D2E/DX2                !
 ! A32   A(10,7,26)            112.0988         estimate D2E/DX2                !
 ! A33   A(10,7,27)            109.5812         estimate D2E/DX2                !
 ! A34   A(25,7,26)            108.1688         estimate D2E/DX2                !
 ! A35   A(25,7,27)            109.8311         estimate D2E/DX2                !
 ! A36   A(26,7,27)            108.2475         estimate D2E/DX2                !
 ! A37   A(2,8,4)              109.7933         estimate D2E/DX2                !
 ! A38   A(2,8,10)             110.0006         estimate D2E/DX2                !
 ! A39   A(2,8,28)             108.7544         estimate D2E/DX2                !
 ! A40   A(4,8,10)             113.3751         estimate D2E/DX2                !
 ! A41   A(4,8,28)             108.2915         estimate D2E/DX2                !
 ! A42   A(10,8,28)            106.4701         estimate D2E/DX2                !
 ! A43   A(2,9,5)              119.3181         estimate D2E/DX2                !
 ! A44   A(2,9,6)              125.7761         estimate D2E/DX2                !
 ! A45   A(5,9,6)              114.8596         estimate D2E/DX2                !
 ! A46   A(1,10,7)             118.5024         estimate D2E/DX2                !
 ! A47   A(1,10,8)             123.1023         estimate D2E/DX2                !
 ! A48   A(7,10,8)             118.1794         estimate D2E/DX2                !
 ! D1    D(10,1,3,13)           68.6251         estimate D2E/DX2                !
 ! D2    D(10,1,3,14)         -172.6108         estimate D2E/DX2                !
 ! D3    D(10,1,3,15)          -53.8559         estimate D2E/DX2                !
 ! D4    D(11,1,3,13)         -110.6979         estimate D2E/DX2                !
 ! D5    D(11,1,3,14)            8.0662         estimate D2E/DX2                !
 ! D6    D(11,1,3,15)          126.8211         estimate D2E/DX2                !
 ! D7    D(3,1,10,7)           175.748          estimate D2E/DX2                !
 ! D8    D(3,1,10,8)             1.1899         estimate D2E/DX2                !
 ! D9    D(11,1,10,7)           -4.9487         estimate D2E/DX2                !
 ! D10   D(11,1,10,8)         -179.5068         estimate D2E/DX2                !
 ! D11   D(9,2,8,4)             78.8665         estimate D2E/DX2                !
 ! D12   D(9,2,8,10)          -155.7028         estimate D2E/DX2                !
 ! D13   D(9,2,8,28)           -39.4575         estimate D2E/DX2                !
 ! D14   D(12,2,8,4)           -99.626          estimate D2E/DX2                !
 ! D15   D(12,2,8,10)           25.8046         estimate D2E/DX2                !
 ! D16   D(12,2,8,28)          142.0499         estimate D2E/DX2                !
 ! D17   D(8,2,9,5)           -179.3118         estimate D2E/DX2                !
 ! D18   D(8,2,9,6)              3.2938         estimate D2E/DX2                !
 ! D19   D(12,2,9,5)            -0.8229         estimate D2E/DX2                !
 ! D20   D(12,2,9,6)          -178.2172         estimate D2E/DX2                !
 ! D21   D(16,4,8,2)            57.2902         estimate D2E/DX2                !
 ! D22   D(16,4,8,10)          -66.1839         estimate D2E/DX2                !
 ! D23   D(16,4,8,28)          175.9003         estimate D2E/DX2                !
 ! D24   D(17,4,8,2)           178.0123         estimate D2E/DX2                !
 ! D25   D(17,4,8,10)           54.5382         estimate D2E/DX2                !
 ! D26   D(17,4,8,28)          -63.3775         estimate D2E/DX2                !
 ! D27   D(18,4,8,2)           -61.8556         estimate D2E/DX2                !
 ! D28   D(18,4,8,10)          174.6703         estimate D2E/DX2                !
 ! D29   D(18,4,8,28)           56.7545         estimate D2E/DX2                !
 ! D30   D(19,5,9,2)           123.9079         estimate D2E/DX2                !
 ! D31   D(19,5,9,6)           -58.4218         estimate D2E/DX2                !
 ! D32   D(20,5,9,2)             3.4283         estimate D2E/DX2                !
 ! D33   D(20,5,9,6)          -178.9014         estimate D2E/DX2                !
 ! D34   D(21,5,9,2)          -117.0437         estimate D2E/DX2                !
 ! D35   D(21,5,9,6)            60.6267         estimate D2E/DX2                !
 ! D36   D(22,6,9,2)           115.5653         estimate D2E/DX2                !
 ! D37   D(22,6,9,5)           -61.9309         estimate D2E/DX2                !
 ! D38   D(23,6,9,2)            -5.1743         estimate D2E/DX2                !
 ! D39   D(23,6,9,5)           177.3295         estimate D2E/DX2                !
 ! D40   D(24,6,9,2)          -125.8783         estimate D2E/DX2                !
 ! D41   D(24,6,9,5)            56.6256         estimate D2E/DX2                !
 ! D42   D(25,7,10,1)          115.215          estimate D2E/DX2                !
 ! D43   D(25,7,10,8)          -69.9559         estimate D2E/DX2                !
 ! D44   D(26,7,10,1)           -4.4285         estimate D2E/DX2                !
 ! D45   D(26,7,10,8)          170.4006         estimate D2E/DX2                !
 ! D46   D(27,7,10,1)         -124.6355         estimate D2E/DX2                !
 ! D47   D(27,7,10,8)           50.1936         estimate D2E/DX2                !
 ! D48   D(2,8,10,1)            86.3622         estimate D2E/DX2                !
 ! D49   D(2,8,10,7)           -88.2125         estimate D2E/DX2                !
 ! D50   D(4,8,10,1)          -150.2774         estimate D2E/DX2                !
 ! D51   D(4,8,10,7)            35.1479         estimate D2E/DX2                !
 ! D52   D(28,8,10,1)          -31.3091         estimate D2E/DX2                !
 ! D53   D(28,8,10,7)          154.1162         estimate D2E/DX2                !
 --------------------------------------------------------------------------------
 Trust Radius=3.00D-01 FncErr=1.00D-07 GrdErr=1.00D-06
 Number of steps in this run=    138 maximum allowed number of steps=    168.
 GradGradGradGradGradGradGradGradGradGradGradGradGradGradGradGradGradGrad

                          Input orientation:                          
 ---------------------------------------------------------------------
 Center     Atomic      Atomic             Coordinates (Angstroms)
 Number     Number       Type             X           Y           Z
 ---------------------------------------------------------------------
      1          6           0       -1.330146   -1.044681   -0.538646
      2          6           0       -0.448990   -2.695116    2.207197
      3          6           0       -2.694510   -1.049021    0.106572
      4          6           0        0.872915   -0.565944    2.507679
      5          6           0       -1.164818   -4.392910    3.840039
      6          6           0       -1.637778   -2.033413    4.352977
      7          6           0        1.107261   -1.200183   -0.322621
      8          6           0       -0.311101   -1.206397    1.779917
      9          7           0       -1.047205   -2.998128    3.428693
     10          7           0       -0.215657   -1.108468    0.291627
     11          8           0       -1.235908   -0.972910   -1.767968
     12          8           0       -0.006410   -3.597301    1.481928
     13          1           0       -2.853408   -0.115111    0.651711
     14          1           0       -3.461038   -1.127996   -0.670603
     15          1           0       -2.805829   -1.905410    0.775515
     16          1           0        1.806704   -1.105172    2.314573
     17          1           0        1.006973    0.474074    2.192287
     18          1           0        0.727724   -0.571227    3.592251
     19          1           0       -0.685570   -4.513245    4.816214
     20          1           0       -0.694484   -5.079430    3.132143
     21          1           0       -2.226400   -4.644901    3.921765
     22          1           0       -2.711084   -2.234709    4.422070
     23          1           0       -1.498853   -0.997628    4.050504
     24          1           0       -1.180955   -2.169782    5.337915
     25          1           0        1.673228   -0.296326   -0.080811
     26          1           0        1.050331   -1.285752   -1.410832
     27          1           0        1.630096   -2.079414    0.062994
     28          1           0       -1.218505   -0.673526    2.067363
 ---------------------------------------------------------------------
                    Distance matrix (angstroms):
                    1          2          3          4          5
     1  C    0.000000
     2  C    3.322653   0.000000
     3  C    1.509243   3.487781   0.000000
     4  C    3.789823   2.524102   4.327262   0.000000
     5  C    5.514604   2.461928   5.240260   4.535770   0.000000
     6  C    5.000021   2.540756   4.485273   3.444150   2.460492
     7  C    2.451897   3.325164   3.828906   2.909944   5.716956
     8  C    2.537783   1.554948   2.916417   1.530265   3.889318
     9  N    4.431229   1.393460   4.189167   3.232746   1.458923
    10  N    1.391225   2.498260   2.486462   2.527886   4.927443
    11  O    1.235015   4.403086   2.376386   4.784758   6.568957
    12  O    3.514380   1.239287   3.951104   3.318810   2.745104
    13  H    2.145082   3.854502   1.092984   4.187284   5.596100
    14  H    2.136599   4.450846   1.094441   5.403751   6.023137
    15  H    2.155346   2.868455   1.092373   4.281088   4.274562
    16  H    4.240795   2.761812   5.013916   1.095453   4.686813
    17  H    3.902145   3.487666   4.513425   1.095025   5.578467
    18  H    4.639320   2.795341   4.908149   1.094260   4.271811
    19  H    6.412561   3.188813   6.182023   4.831086   1.094110
    20  H    5.491625   2.569192   5.422027   4.818532   1.092539
    21  H    5.801734   3.146521   5.263571   5.314441   1.094136
    22  H    5.285060   3.199172   4.475450   4.392575   2.718001
    23  H    4.592491   2.716883   4.121509   2.862157   3.418159
    24  H    5.985155   3.257782   5.560028   3.847196   2.680707
    25  H    3.128882   3.936112   4.436079   2.722770   6.341102
    26  H    2.546663   4.162260   4.047516   3.988023   6.490991
    27  H    3.193066   3.049475   4.445877   2.973281   5.237354
    28  H    2.634674   2.167610   2.482799   2.139974   4.120568
                    6          7          8          9         10
     6  C    0.000000
     7  C    5.485501   0.000000
     8  C    3.010758   2.536229   0.000000
     9  N    1.460736   4.684729   2.543739   0.000000
    10  N    4.401423   1.461445   1.494560   3.755459   0.000000
    11  O    6.225121   2.762448   3.673863   5.580537   2.302437
    12  O    3.653770   3.200443   2.428591   2.287392   2.766748
    13  H    4.342466   4.220616   2.987822   4.391559   2.841505
    14  H    5.420370   4.582102   3.991653   5.111576   3.385080
    15  H    3.765496   4.124987   2.778688   3.365433   2.752863
    16  H    4.108671   2.730025   2.186596   3.601298   2.860466
    17  H    4.236836   3.022905   2.175167   4.219542   2.758944
    18  H    2.883104   3.983196   2.183380   3.011141   3.474581
    19  H    2.696452   6.371675   4.504948   2.086042   5.682007
    20  H    3.414448   5.498202   4.120179   2.131706   4.905746
    21  H    2.711511   6.402670   4.480980   2.084582   5.452279
    22  H    1.094203   6.177547   3.714607   2.082810   4.955415
    23  H    1.087952   5.094809   2.570973   2.143043   3.973416
    24  H    1.094251   6.182048   3.787361   2.085467   5.246257
    25  H    5.799889   1.093502   2.868467   5.197799   2.089538
    26  H    6.403626   1.093054   3.469968   5.545529   2.128972
    27  H    5.393058   1.093207   2.734636   4.397717   2.098049
    28  H    2.692418   3.376178   1.090852   2.699322   2.085214
                   11         12         13         14         15
    11  O    0.000000
    12  O    4.354413   0.000000
    13  H    3.034299   4.573873   0.000000
    14  H    2.485853   4.760810   1.773038   0.000000
    15  H    3.131056   3.346380   1.795206   1.767747   0.000000
    16  H    5.093340   3.192395   5.045986   6.054824   4.927934
    17  H    4.775761   4.255308   4.197982   5.543094   4.712393
    18  H    5.722686   3.761587   4.656106   6.002302   4.711691
    19  H    7.495884   3.523872   6.433210   7.019137   5.255810
    20  H    6.416208   2.322361   5.954658   6.142354   4.481726
    21  H    6.843803   3.461015   5.621867   5.914625   4.211821
    22  H    6.487283   4.220943   4.327650   5.265221   3.662618
    23  H    5.824462   3.947565   3.763702   5.114295   3.641127
    24  H    7.206184   4.276214   5.383241   6.510482   4.850320
    25  H    3.430354   4.019922   4.589102   5.234521   4.835741
    26  H    2.335017   3.850717   4.567675   4.574415   4.475942
    27  H    3.576415   2.644902   4.930201   5.230965   4.496153
    28  H    3.847037   3.218753   2.233564   3.568186   2.388725
                   16         17         18         19         20
    16  H    0.000000
    17  H    1.774412   0.000000
    18  H    1.755493   1.769331   0.000000
    19  H    4.907606   5.884134   4.362910   0.000000
    20  H    4.766455   5.883850   4.749554   1.776722   0.000000
    21  H    5.601667   6.296801   5.042841   1.786485   1.777381
    22  H    5.111537   5.112082   3.909114   3.074050   3.717932
    23  H    3.735201   3.449354   2.312890   3.688807   4.260457
    24  H    4.381791   4.655317   3.040686   2.451407   3.683495
    25  H    2.531780   2.490861   3.802753   6.879475   6.229544
    26  H    3.805700   4.010154   5.064135   7.225383   6.170494
    27  H    2.459664   3.382673   3.942659   5.820562   4.880926
    28  H    3.065831   2.507058   2.474581   4.752225   4.562932
                   21         22         23         24         25
    21  H    0.000000
    22  H    2.508835   0.000000
    23  H    3.721357   1.771421   0.000000
    24  H    3.037211   1.784456   1.769868   0.000000
    25  H    7.080806   6.576888   5.255634   6.404591   0.000000
    26  H    7.103340   7.005106   6.033866   7.162802   1.770853
    27  H    6.028631   6.153983   5.182742   5.977873   1.789397
    28  H    4.497386   3.195267   2.028912   3.596763   3.622023
                   26         27         28
    26  H    0.000000
    27  H    1.771494   0.000000
    28  H    4.197651   3.756134   0.000000
 Stoichiometry    C8H16N2O2
 Framework group  C1[X(C8H16N2O2)]
 Deg. of freedom    78
 Full point group                 C1      NOp   1
 Largest Abelian subgroup         C1      NOp   1
 Largest concise Abelian subgroup C1      NOp   1
                         Standard orientation:                         
 ---------------------------------------------------------------------
 Center     Atomic      Atomic             Coordinates (Angstroms)
 Number     Number       Type             X           Y           Z
 ---------------------------------------------------------------------
      1          6           0        2.175094   -0.803070   -0.067867
      2          6           0       -0.953074    0.180479    0.468062
      3          6           0        1.506550   -2.012505   -0.674603
      4          6           0       -0.198570    1.931664   -1.185772
      5          6           0       -3.209425   -0.574351    1.100677
      6          6           0       -2.660646   -0.474216   -1.295744
      7          6           0        2.071912    1.555279    0.594964
      8          6           0        0.094022    0.538519   -0.624302
      9          7           0       -2.219278   -0.251932    0.078860
     10          7           0        1.476094    0.399795   -0.072630
     11          8           0        3.313668   -0.904605    0.399685
     12          8           0       -0.672026    0.305843    1.668532
     13          1           0        1.419249   -1.887990   -1.756956
     14          1           0        2.117803   -2.898987   -0.478844
     15          1           0        0.523199   -2.178169   -0.228672
     16          1           0       -0.202262    2.693123   -0.398254
     17          1           0        0.550517    2.215371   -1.932404
     18          1           0       -1.181566    1.972914   -1.664752
     19          1           0       -4.105345    0.028541    0.924826
     20          1           0       -2.847167   -0.376273    2.112198
     21          1           0       -3.462696   -1.635665    1.019432
     22          1           0       -2.881046   -1.538866   -1.419126
     23          1           0       -1.924674   -0.184481   -2.042765
     24          1           0       -3.572933    0.105305   -1.466835
     25          1           0        2.290210    2.322535   -0.152974
     26          1           0        3.005001    1.300180    1.103920
     27          1           0        1.373518    1.949589    1.337841
     28          1           0        0.012155   -0.182864   -1.438466
 ---------------------------------------------------------------------
 Rotational constants (GHZ):      1.4312092      0.5806006      0.5421419
 Standard basis: 6-31G(d) (6D, 7F)
 There are   212 symmetry adapted basis functions of A   symmetry.
 Integral buffers will be    131072 words long.
 Raffenetti 2 integral format.
 Two-electron integral symmetry is turned on.
   212 basis functions,   400 primitive gaussians,   212 cartesian basis functions
    47 alpha electrons       47 beta electrons
       nuclear repulsion energy       771.1478238885 Hartrees.
 NAtoms=   28 NActive=   28 NUniq=   28 SFac= 1.00D+00 NAtFMM=   60 NAOKFM=F Big=F
 One-electron integrals computed using PRISM.
 NBasis=   212 RedAO= T  NBF=   212
 NBsUse=   212 1.00D-06 NBFU=   212
 Harris functional with IExCor=  402 diagonalized for initial guess.
 ExpMin= 1.61D-01 ExpMax= 5.48D+03 ExpMxC= 8.25D+02 IAcc=3 IRadAn=         5 AccDes= 0.00D+00
 HarFok:  IExCor=  402 AccDes= 0.00D+00 IRadAn=         5 IDoV= 1
 ScaDFX=  1.000000  1.000000  1.000000  1.000000
 FoFCou: FMM=F IPFlag=           0 FMFlag=      100000 FMFlg1=           0
         NFxFlg=           0 DoJE=T BraDBF=F KetDBF=T FulRan=T
         Omega=  0.000000  0.000000  1.000000  0.000000  0.000000 ICntrl=     500 IOpCl=  0
         NMat0=    1 NMatS0=    1 NMatT0=    0 NMatD0=    1 NMtDS0=    0 NMtDT0=    0
         I1Cent=           4 NGrid=           0.
 Petite list used in FoFCou.
 Initial guess orbital symmetries:
       Occupied  (A) (A) (A) (A) (A) (A) (A) (A) (A) (A) (A) (A)
                 (A) (A) (A) (A) (A) (A) (A) (A) (A) (A) (A) (A)
                 (A) (A) (A) (A) (A) (A) (A) (A) (A) (A) (A) (A)
                 (A) (A) (A) (A) (A) (A) (A) (A) (A) (A) (A)
       Virtual   (A) (A) (A) (A) (A) (A) (A) (A) (A) (A) (A) (A)
                 (A) (A) (A) (A) (A) (A) (A) (A) (A) (A) (A) (A)
                 (A) (A) (A) (A) (A) (A) (A) (A) (A) (A) (A) (A)
                 (A) (A) (A) (A) (A) (A) (A) (A) (A) (A) (A) (A)
                 (A) (A) (A) (A) (A) (A) (A) (A) (A) (A) (A) (A)
                 (A) (A) (A) (A) (A) (A) (A) (A) (A) (A) (A) (A)
                 (A) (A) (A) (A) (A) (A) (A) (A) (A) (A) (A) (A)
                 (A) (A) (A) (A) (A) (A) (A) (A) (A) (A) (A) (A)
                 (A) (A) (A) (A) (A) (A) (A) (A) (A) (A) (A) (A)
                 (A) (A) (A) (A) (A) (A) (A) (A) (A) (A) (A) (A)
                 (A) (A) (A) (A) (A) (A) (A) (A) (A) (A) (A) (A)
                 (A) (A) (A) (A) (A) (A) (A) (A) (A) (A) (A) (A)
                 (A) (A) (A) (A) (A) (A) (A) (A) (A) (A) (A) (A)
                 (A) (A) (A) (A) (A) (A) (A) (A) (A)
 The electronic state of the initial guess is 1-A.
 Requested convergence on RMS density matrix=1.00D-08 within 128 cycles.
 Requested convergence on MAX density matrix=1.00D-06.
 Requested convergence on             energy=1.00D-06.
 No special actions if energy rises.
 Integral accuracy reduced to 1.0D-05 until final iterations.
 Initial convergence to 1.0D-05 achieved.  Increase integral accuracy.
 SCF Done:  E(RB3LYP) =  -574.447872032     A.U. after   14 cycles
             Convg  =    0.9061D-08             -V/T =  2.0098
 Calling FoFJK, ICntrl=      2127 FMM=F ISym2X=0 I1Cent= 0 IOpClX= 0 NMat=1 NMatS=1 NMatT=0.
 ***** Axes restored to original set *****
 -------------------------------------------------------------------
 Center     Atomic                   Forces (Hartrees/Bohr)
 Number     Number              X              Y              Z
 -------------------------------------------------------------------
      1        6           0.009266496   -0.000407882   -0.014363310
      2        6           0.002845972   -0.023997386   -0.000867965
      3        6          -0.004232137   -0.002417563    0.000968725
      4        6           0.007134889    0.003129396   -0.001323728
      5        6          -0.000640340    0.001954189    0.001138349
      6        6           0.000823771   -0.009384936   -0.003411654
      7        6           0.004117422   -0.000325059    0.003027588
      8        6          -0.007533087   -0.006664122   -0.013529486
      9        7           0.010844939    0.011556471   -0.019045950
     10        7          -0.006934375    0.001340962    0.005054971
     11        8           0.004049469   -0.000922965    0.013665322
     12        8          -0.006091804    0.016551802    0.010057118
     13        1          -0.002771312    0.000095376    0.004306128
     14        1           0.004358433    0.001279305   -0.000404281
     15        1          -0.002049204    0.001026492    0.004649188
     16        1          -0.001393813    0.000352330   -0.000763688
     17        1          -0.000346784   -0.000026558   -0.000134023
     18        1          -0.002577500   -0.000531824   -0.000407213
     19        1          -0.001017690   -0.002337378    0.003077469
     20        1           0.000283067    0.007635793   -0.002225938
     21        1          -0.002006594   -0.003181681    0.002647984
     22        1          -0.003217315    0.002150697    0.004234199
     23        1           0.001451048   -0.001029032   -0.002127064
     24        1          -0.001594438    0.001742587    0.003553828
     25        1           0.004607782    0.000178754   -0.001372013
     26        1          -0.008206133    0.000929401    0.003714645
     27        1           0.000452217   -0.000030447    0.000458013
     28        1           0.000377021    0.001333278   -0.000577216
 -------------------------------------------------------------------
 Cartesian Forces:  Max     0.023997386 RMS     0.006012872

 GradGradGradGradGradGradGradGradGradGradGradGradGradGradGradGradGradGrad
 Berny optimization.
 Internal  Forces:  Max     0.020110576 RMS     0.004449757
 Search for a local minimum.
 Step number   1 out of a maximum of  138
 All quantities printed in internal units (Hartrees-Bohrs-Radians)
 Mixed Optimization -- RFO/linear search
 Second derivative matrix not updated -- first step.
 ITU=  0
     Eigenvalues ---    0.00230   0.00366   0.00441   0.00644   0.00853
     Eigenvalues ---    0.00879   0.00888   0.00912   0.00964   0.01126
     Eigenvalues ---    0.01147   0.01778   0.01808   0.04195   0.05114
     Eigenvalues ---    0.05441   0.05480   0.06357   0.07160   0.07212
     Eigenvalues ---    0.07304   0.07321   0.07491   0.07592   0.07721
     Eigenvalues ---    0.07737   0.16000   0.16000   0.16000   0.16000
     Eigenvalues ---    0.16000   0.16000   0.16000   0.16000   0.16000
     Eigenvalues ---    0.16000   0.16000   0.16000   0.16000   0.16000
     Eigenvalues ---    0.16000   0.17621   0.18515   0.24887   0.24928
     Eigenvalues ---    0.24973   0.24986   0.24993   0.24999   0.25000
     Eigenvalues ---    0.25000   0.27235   0.29399   0.31427   0.32955
     Eigenvalues ---    0.34190   0.34238   0.34304   0.34325   0.34326
     Eigenvalues ---    0.34331   0.34339   0.34342   0.34411   0.34445
     Eigenvalues ---    0.34462   0.34470   0.34521   0.34540   0.34714
     Eigenvalues ---    0.35050   0.36784   0.36872   0.37099   0.46722
     Eigenvalues ---    0.47106   0.87324   0.89028
 RFO step:  Lambda=-9.71203281D-03 EMin= 2.30000000D-03
 Linear search not attempted -- first point.
 Iteration  1 RMS(Cart)=  0.08693443 RMS(Int)=  0.00256501
 Iteration  2 RMS(Cart)=  0.00329474 RMS(Int)=  0.00029887
 Iteration  3 RMS(Cart)=  0.00000806 RMS(Int)=  0.00029878
 Iteration  4 RMS(Cart)=  0.00000000 RMS(Int)=  0.00029878
 Variable       Old X    -DE/DX   Delta X   Delta X   Delta X     New X
                                 (Linear)    (Quad)   (Total)
    R1        2.85206   0.00831   0.00000   0.02567   0.02567   2.87772
    R2        2.62903  -0.01223   0.00000  -0.02544  -0.02544   2.60359
    R3        2.33384  -0.01335   0.00000  -0.01483  -0.01483   2.31901
    R4        2.93843  -0.00255   0.00000  -0.00905  -0.00905   2.92938
    R5        2.63326  -0.01476   0.00000  -0.03094  -0.03094   2.60232
    R6        2.34191  -0.02011   0.00000  -0.02278  -0.02278   2.31914
    R7        2.06544   0.00263   0.00000   0.00743   0.00743   2.07287
    R8        2.06819  -0.00286   0.00000  -0.00810  -0.00810   2.06009
    R9        2.06429   0.00225   0.00000   0.00634   0.00634   2.07063
   R10        2.89178   0.00215   0.00000   0.00709   0.00709   2.89887
   R11        2.07011  -0.00123   0.00000  -0.00349  -0.00349   2.06662
   R12        2.06930  -0.00003   0.00000  -0.00008  -0.00008   2.06922
   R13        2.06785  -0.00006   0.00000  -0.00017  -0.00017   2.06768
   R14        2.75696  -0.00231   0.00000  -0.00607  -0.00607   2.75090
   R15        2.06757   0.00256   0.00000   0.00724   0.00724   2.07481
   R16        2.06460  -0.00323   0.00000  -0.00911  -0.00911   2.05549
   R17        2.06762   0.00288   0.00000   0.00815   0.00815   2.07577
   R18        2.76039  -0.00186   0.00000  -0.00491  -0.00491   2.75548
   R19        2.06774   0.00303   0.00000   0.00858   0.00858   2.07632
   R20        2.05593  -0.00020   0.00000  -0.00057  -0.00057   2.05537
   R21        2.06784   0.00232   0.00000   0.00656   0.00656   2.07440
   R22        2.76173  -0.00162   0.00000  -0.00429  -0.00429   2.75744
   R23        2.06642   0.00223   0.00000   0.00630   0.00630   2.07272
   R24        2.06557  -0.00334   0.00000  -0.00944  -0.00944   2.05614
   R25        2.06586   0.00040   0.00000   0.00113   0.00113   2.06700
   R26        2.82431  -0.01941   0.00000  -0.05720  -0.05720   2.76711
   R27        2.06141   0.00019   0.00000   0.00052   0.00052   2.06193
    A1        2.05886  -0.00183   0.00000  -0.00704  -0.00704   2.05182
    A2        2.08827   0.00685   0.00000   0.02635   0.02634   2.11462
    A3        2.13599  -0.00502   0.00000  -0.01934  -0.01935   2.11664
    A4        2.07960  -0.00395   0.00000  -0.01524  -0.01525   2.06436
    A5        2.09960  -0.00129   0.00000  -0.00502  -0.00502   2.09457
    A6        2.10368   0.00524   0.00000   0.02012   0.02011   2.12379
    A7        1.92005   0.00476   0.00000   0.02604   0.02600   1.94605
    A8        1.90686  -0.00601   0.00000  -0.03428  -0.03404   1.87282
    A9        1.93497   0.00460   0.00000   0.02798   0.02795   1.96292
   A10        1.89021   0.00026   0.00000  -0.00032  -0.00010   1.89011
   A11        1.92797  -0.00544   0.00000  -0.03410  -0.03435   1.89362
   A12        1.88274   0.00161   0.00000   0.01345   0.01369   1.89643
   A13        1.94948  -0.00047   0.00000  -0.00117  -0.00118   1.94830
   A14        1.93397   0.00020   0.00000   0.00080   0.00077   1.93475
   A15        1.94624  -0.00345   0.00000  -0.02157  -0.02162   1.92462
   A16        1.88850   0.00045   0.00000   0.00492   0.00492   1.89342
   A17        1.86027   0.00219   0.00000   0.01366   0.01363   1.87390
   A18        1.88210   0.00131   0.00000   0.00464   0.00458   1.88668
   A19        1.89800   0.00494   0.00000   0.03066   0.03038   1.92838
   A20        1.96422  -0.01239   0.00000  -0.07628  -0.07587   1.88835
   A21        1.89596   0.00605   0.00000   0.03725   0.03705   1.93301
   A22        1.89697   0.00289   0.00000   0.01375   0.01407   1.91103
   A23        1.91030  -0.00374   0.00000  -0.01507  -0.01590   1.89440
   A24        1.89797   0.00227   0.00000   0.01014   0.01062   1.90859
   A25        1.89129   0.00710   0.00000   0.04412   0.04390   1.93519
   A26        1.98364  -0.00629   0.00000  -0.03930  -0.03899   1.94465
   A27        1.89489   0.00483   0.00000   0.02827   0.02794   1.92283
   A28        1.89437  -0.00078   0.00000  -0.00453  -0.00414   1.89023
   A29        1.90683  -0.00458   0.00000  -0.02214  -0.02297   1.88385
   A30        1.89187  -0.00042   0.00000  -0.00687  -0.00668   1.88519
   A31        1.90043   0.00868   0.00000   0.05651   0.05647   1.95691
   A32        1.95649  -0.01416   0.00000  -0.08994  -0.08975   1.86674
   A33        1.91255   0.00142   0.00000   0.00936   0.00846   1.92101
   A34        1.88790   0.00194   0.00000   0.00903   0.01011   1.89801
   A35        1.91692  -0.00222   0.00000   0.00010  -0.00089   1.91602
   A36        1.88927   0.00434   0.00000   0.01529   0.01453   1.90380
   A37        1.91625   0.00190   0.00000   0.00826   0.00813   1.92439
   A38        1.91987   0.00004   0.00000  -0.00274  -0.00273   1.91714
   A39        1.89812   0.00064   0.00000   0.02135   0.02132   1.91944
   A40        1.97877  -0.00293   0.00000  -0.02279  -0.02283   1.95594
   A41        1.89004  -0.00015   0.00000  -0.00136  -0.00159   1.88846
   A42        1.85825   0.00057   0.00000  -0.00112  -0.00122   1.85704
   A43        2.08249  -0.00250   0.00000  -0.00968  -0.00968   2.07282
   A44        2.19521   0.00431   0.00000   0.01657   0.01657   2.21178
   A45        2.00468  -0.00182   0.00000  -0.00704  -0.00704   1.99764
   A46        2.06826  -0.00095   0.00000  -0.00487  -0.00517   2.06309
   A47        2.14854  -0.00267   0.00000  -0.01148  -0.01175   2.13679
   A48        2.06262   0.00355   0.00000   0.01263   0.01229   2.07491
    D1        1.19773  -0.00015   0.00000  -0.00704  -0.00688   1.19086
    D2       -3.01263  -0.00063   0.00000  -0.01266  -0.01267  -3.02530
    D3       -0.93996   0.00038   0.00000  -0.00058  -0.00080  -0.94076
    D4       -1.93204  -0.00004   0.00000  -0.00337  -0.00316  -1.93521
    D5        0.14078  -0.00052   0.00000  -0.00898  -0.00896   0.13183
    D6        2.21345   0.00049   0.00000   0.00309   0.00292   2.21636
    D7        3.06738  -0.00034   0.00000  -0.02138  -0.02120   3.04618
    D8        0.02077   0.00036   0.00000   0.02458   0.02435   0.04511
    D9       -0.08637  -0.00036   0.00000  -0.02483  -0.02459  -0.11096
   D10       -3.13298   0.00033   0.00000   0.02114   0.02096  -3.11203
   D11        1.37648   0.00161   0.00000   0.04592   0.04603   1.42251
   D12       -2.71753  -0.00076   0.00000   0.02077   0.02077  -2.69676
   D13       -0.68866   0.00032   0.00000   0.03014   0.03010  -0.65857
   D14       -1.73880   0.00168   0.00000   0.05181   0.05188  -1.68693
   D15        0.45038  -0.00069   0.00000   0.02666   0.02661   0.47699
   D16        2.47924   0.00039   0.00000   0.03603   0.03595   2.51518
   D17       -3.12958   0.00047   0.00000   0.01759   0.01761  -3.11198
   D18        0.05749   0.00061   0.00000   0.02175   0.02179   0.07928
   D19       -0.01436   0.00030   0.00000   0.01129   0.01125  -0.00311
   D20       -3.11048   0.00044   0.00000   0.01546   0.01544  -3.09504
   D21        0.99990  -0.00089   0.00000  -0.01621  -0.01620   0.98370
   D22       -1.15513  -0.00027   0.00000  -0.00254  -0.00250  -1.15763
   D23        3.07004   0.00088   0.00000   0.01350   0.01347   3.08351
   D24        3.10690  -0.00050   0.00000  -0.01019  -0.01020   3.09670
   D25        0.95187   0.00012   0.00000   0.00348   0.00350   0.95537
   D26       -1.10615   0.00127   0.00000   0.01952   0.01947  -1.08667
   D27       -1.07958  -0.00102   0.00000  -0.01819  -0.01818  -1.09776
   D28        3.04857  -0.00040   0.00000  -0.00452  -0.00447   3.04410
   D29        0.99055   0.00075   0.00000   0.01152   0.01150   1.00205
   D30        2.16260  -0.00097   0.00000  -0.01117  -0.01165   2.15095
   D31       -1.01965  -0.00093   0.00000  -0.01427  -0.01472  -1.03437
   D32        0.05984  -0.00006   0.00000  -0.00066  -0.00074   0.05909
   D33       -3.12242  -0.00002   0.00000  -0.00376  -0.00381  -3.12622
   D34       -2.04280   0.00085   0.00000   0.00976   0.01027  -2.03253
   D35        1.05813   0.00089   0.00000   0.00665   0.00721   1.06534
   D36        2.01699  -0.00037   0.00000   0.00026  -0.00024   2.01675
   D37       -1.08090  -0.00022   0.00000   0.00436   0.00388  -1.07701
   D38       -0.09031  -0.00033   0.00000   0.00023   0.00030  -0.09001
   D39        3.09498  -0.00018   0.00000   0.00433   0.00442   3.09940
   D40       -2.19699   0.00087   0.00000   0.01450   0.01489  -2.18210
   D41        0.98830   0.00102   0.00000   0.01859   0.01901   1.00732
   D42        2.01088  -0.00079   0.00000   0.01148   0.01077   2.02165
   D43       -1.22096  -0.00178   0.00000  -0.03347  -0.03441  -1.25537
   D44       -0.07729  -0.00010   0.00000   0.01901   0.01988  -0.05741
   D45        2.97405  -0.00109   0.00000  -0.02594  -0.02530   2.94875
   D46       -2.17530   0.00265   0.00000   0.05172   0.05190  -2.12340
   D47        0.87604   0.00166   0.00000   0.00677   0.00672   0.88277
   D48        1.50730   0.00067   0.00000   0.05042   0.05035   1.55765
   D49       -1.53960   0.00159   0.00000   0.09713   0.09709  -1.44250
   D50       -2.62284   0.00107   0.00000   0.04272   0.04273  -2.58010
   D51        0.61345   0.00199   0.00000   0.08943   0.08948   0.70292
   D52       -0.54645  -0.00043   0.00000   0.02715   0.02716  -0.51929
   D53        2.68984   0.00049   0.00000   0.07387   0.07390   2.76374
         Item               Value     Threshold  Converged?
 Maximum Force            0.020111     0.000450     NO 
 RMS     Force            0.004450     0.000300     NO 
 Maximum Displacement     0.263020     0.001800     NO 
 RMS     Displacement     0.087514     0.001200     NO 
 Predicted change in Energy=-5.289172D-03
 GradGradGradGradGradGradGradGradGradGradGradGradGradGradGradGradGradGrad

                          Input orientation:                          
 ---------------------------------------------------------------------
 Center     Atomic      Atomic             Coordinates (Angstroms)
 Number     Number       Type             X           Y           Z
 ---------------------------------------------------------------------
      1          6           0       -1.314622   -1.030513   -0.493284
      2          6           0       -0.414081   -2.698264    2.206864
      3          6           0       -2.682707   -0.977328    0.173430
      4          6           0        0.860749   -0.531201    2.492672
      5          6           0       -1.099696   -4.387618    3.825736
      6          6           0       -1.710350   -2.060630    4.289437
      7          6           0        1.098396   -1.289454   -0.298001
      8          6           0       -0.317030   -1.210526    1.782347
      9          7           0       -1.035658   -2.997420    3.398719
     10          7           0       -0.209521   -1.115427    0.325108
     11          8           0       -1.201007   -0.982557   -1.714239
     12          8           0        0.086037   -3.571050    1.503849
     13          1           0       -2.827871   -0.036722    0.718783
     14          1           0       -3.431147   -1.033515   -0.617213
     15          1           0       -2.842897   -1.809881    0.867558
     16          1           0        1.802595   -1.052597    2.300195
     17          1           0        0.966235    0.508369    2.165332
     18          1           0        0.702202   -0.532243    3.575295
     19          1           0       -0.644732   -4.506214    4.817914
     20          1           0       -0.555300   -4.990523    3.102362
     21          1           0       -2.141624   -4.731802    3.875851
     22          1           0       -2.783919   -2.285460    4.353724
     23          1           0       -1.596161   -1.034595    3.947091
     24          1           0       -1.289293   -2.129878    5.300830
     25          1           0        1.759598   -0.433345   -0.116504
     26          1           0        0.930035   -1.380386   -1.369105
     27          1           0        1.569954   -2.205669    0.068872
     28          1           0       -1.231603   -0.683580    2.058829
 ---------------------------------------------------------------------
                    Distance matrix (angstroms):
                    1          2          3          4          5
     1  C    0.000000
     2  C    3.298964   0.000000
     3  C    1.522824   3.499021   0.000000
     4  C    3.727933   2.530423   4.258403   0.000000
     5  C    5.474512   2.438182   5.241693   4.526848   0.000000
     6  C    4.908377   2.534561   4.365838   3.489709   2.450059
     7  C    2.434716   3.247566   3.823142   2.901600   5.606732
     8  C    2.491203   1.550161   2.870440   1.534017   3.857709
     9  N    4.369695   1.377088   4.146810   3.240296   1.455711
    10  N    1.377760   2.467433   2.481679   2.486992   4.873812
    11  O    1.227167   4.351776   2.399741   4.706661   6.503540
    12  O    3.522032   1.227234   4.020368   3.289169   2.732015
    13  H    2.178681   3.889032   1.096915   4.122754   5.618722
    14  H    2.120153   4.455277   1.090154   5.323915   6.035351
    15  H    2.189733   2.912407   1.095728   4.241817   4.293518
    16  H    4.185816   2.762351   4.964548   1.093607   4.676851
    17  H    3.826056   3.491346   4.414720   1.094982   5.567379
    18  H    4.568281   2.794698   4.819585   1.094171   4.263036
    19  H    6.382638   3.184252   6.178804   4.844992   1.097941
    20  H    5.402491   2.465017   5.404650   4.718312   1.087718
    21  H    5.785569   3.147252   5.300638   5.345323   1.098448
    22  H    5.217970   3.224212   4.381360   4.452476   2.744894
    23  H    4.449293   2.682070   3.927389   2.899163   3.391750
    24  H    5.897541   3.265223   5.436929   3.881262   2.703561
    25  H    3.154267   3.905480   4.484870   2.761395   6.273204
    26  H    2.434739   4.041163   3.948895   3.954647   6.336372
    27  H    3.165089   2.958049   4.427741   3.030120   5.099212
    28  H    2.576924   2.179268   2.397232   2.142283   4.106003
                    6          7          8          9         10
     6  C    0.000000
     7  C    5.434001   0.000000
     8  C    2.991575   2.517441   0.000000
     9  N    1.458136   4.597508   2.514374   0.000000
    10  N    4.343018   1.459177   1.464291   3.697498   0.000000
    11  O    6.120932   2.717935   3.613793   5.498123   2.271483
    12  O    3.642509   3.078509   2.410829   2.275475   2.739867
    13  H    4.253778   4.244851   2.968721   4.377192   2.859081
    14  H    5.300125   4.547985   3.935346   5.071785   3.357612
    15  H    3.613142   4.142845   2.752466   3.329135   2.776903
    16  H    4.161009   2.702336   2.187674   3.611755   2.820200
    17  H    4.275008   3.052482   2.179002   4.221301   2.721312
    18  H    2.943871   3.966455   2.171074   3.021330   3.425647
    19  H    2.719505   6.289565   4.492617   2.107936   5.645543
    20  H    3.365643   5.291039   4.010933   2.071480   4.780070
    21  H    2.737190   6.306230   4.484560   2.111610   5.423925
    22  H    1.098741   6.140272   3.721962   2.115499   4.922017
    23  H    1.087653   5.034521   2.520564   2.113660   3.879184
    24  H    1.097724   6.144451   3.764335   2.105940   5.191611
    25  H    5.839599   1.096837   2.919252   5.171531   2.130184
    26  H    6.281199   1.088061   3.393475   5.404710   2.058919
    27  H    5.347392   1.093807   2.736242   4.301624   2.102574
    28  H    2.664785   3.369070   1.091127   2.680962   2.058381
                   11         12         13         14         15
    11  O    0.000000
    12  O    4.325837   0.000000
    13  H    3.075856   4.647436   0.000000
    14  H    2.485878   4.827895   1.772689   0.000000
    15  H    3.169534   3.476382   1.779453   1.775761   0.000000
    16  H    5.014201   3.150134   4.997407   5.991969   4.920013
    17  H    4.687310   4.225396   4.096934   5.427424   4.644135
    18  H    5.639518   3.728927   4.567999   5.908720   4.640251
    19  H    7.442756   3.520168   6.445566   7.025977   5.263787
    20  H    6.299236   2.231918   5.948627   6.145213   4.510424
    21  H    6.796374   3.454882   5.699279   5.960521   4.251968
    22  H    6.404947   4.243957   4.274523   5.166864   3.518950
    23  H    5.675343   3.902925   3.596502   4.919354   3.411590
    24  H    7.108820   4.287840   5.267226   6.388488   4.708501
    25  H    3.408750   3.907882   4.679731   5.249262   4.903692
    26  H    2.195159   3.710148   4.504061   4.439096   4.407055
    27  H    3.514785   2.474961   4.946472   5.182246   4.501978
    28  H    3.785019   3.222059   2.182250   3.481616   2.298684
                   16         17         18         19         20
    16  H    0.000000
    17  H    1.776035   0.000000
    18  H    1.762814   1.772169   0.000000
    19  H    4.925016   5.897241   4.376160   0.000000
    20  H    4.659442   5.781947   4.656311   1.784845   0.000000
    21  H    5.619262   6.328037   5.080745   1.782992   1.783717
    22  H    5.174267   5.163158   3.979040   3.118227   3.721560
    23  H    3.776789   3.481562   2.381819   3.703470   4.176880
    24  H    4.441184   4.677510   3.081552   2.509112   3.681752
    25  H    2.495146   2.592880   3.841516   6.835023   6.040506
    26  H    3.785838   4.007611   5.021787   7.108437   5.935766
    27  H    2.522400   3.482187   3.980999   5.722826   4.634024
    28  H    3.066071   2.502515   2.462149   4.750737   4.482868
                   21         22         23         24         25
    21  H    0.000000
    22  H    2.574003   0.000000
    23  H    3.737907   1.772226   0.000000
    24  H    3.086591   1.776266   1.768169   0.000000
    25  H    7.045222   6.637531   5.304284   6.443715   0.000000
    26  H    6.940939   6.882105   5.896030   7.069312   1.775971
    27  H    5.886446   6.109217   5.141623   5.962753   1.792055
    28  H    4.529659   3.200351   1.954903   3.550447   3.707017
                   26         27         28
    26  H    0.000000
    27  H    1.777179   0.000000
    28  H    4.112049   3.758379   0.000000
 Stoichiometry    C8H16N2O2
 Framework group  C1[X(C8H16N2O2)]
 Deg. of freedom    78
 Full point group                 C1      NOp   1
 Largest Abelian subgroup         C1      NOp   1
 Largest concise Abelian subgroup C1      NOp   1
                         Standard orientation:                         
 ---------------------------------------------------------------------
 Center     Atomic      Atomic             Coordinates (Angstroms)
 Number     Number       Type             X           Y           Z
 ---------------------------------------------------------------------
      1          6           0        2.145643   -0.801684    0.039350
      2          6           0       -0.949138    0.268784    0.438846
      3          6           0        1.484310   -2.080345   -0.457295
      4          6           0       -0.146174    1.720458   -1.471895
      5          6           0       -3.195702   -0.354007    1.152858
      6          6           0       -2.605019   -0.740146   -1.193368
      7          6           0        2.016065    1.593116    0.458854
      8          6           0        0.103437    0.425496   -0.688329
      9          7           0       -2.186882   -0.237336    0.109899
     10          7           0        1.451838    0.378005   -0.119375
     11          8           0        3.262734   -0.820432    0.546987
     12          8           0       -0.681158    0.623894    1.582606
     13          1           0        1.410901   -2.096119   -1.551637
     14          1           0        2.113798   -2.913611   -0.144488
     15          1           0        0.481381   -2.222577   -0.039534
     16          1           0       -0.145990    2.595180   -0.815512
     17          1           0        0.619193    1.863914   -2.241713
     18          1           0       -1.121929    1.682778   -1.965546
     19          1           0       -4.102778    0.197988    0.873594
     20          1           0       -2.785486    0.062227    2.070247
     21          1           0       -3.464237   -1.406138    1.318684
     22          1           0       -2.834712   -1.813461   -1.143688
     23          1           0       -1.831776   -0.590698   -1.943535
     24          1           0       -3.509323   -0.216079   -1.528905
     25          1           0        2.282653    2.330379   -0.308235
     26          1           0        2.918501    1.301379    0.992122
     27          1           0        1.309265    2.034932    1.167126
     28          1           0        0.032704   -0.412514   -1.383524
 ---------------------------------------------------------------------
 Rotational constants (GHZ):      1.4337479      0.5930033      0.5559431
 Standard basis: 6-31G(d) (6D, 7F)
 There are   212 symmetry adapted basis functions of A   symmetry.
 Integral buffers will be    131072 words long.
 Raffenetti 2 integral format.
 Two-electron integral symmetry is turned on.
   212 basis functions,   400 primitive gaussians,   212 cartesian basis functions
    47 alpha electrons       47 beta electrons
       nuclear repulsion energy       776.5802013483 Hartrees.
 NAtoms=   28 NActive=   28 NUniq=   28 SFac= 1.00D+00 NAtFMM=   60 NAOKFM=F Big=F
 One-electron integrals computed using PRISM.
 NBasis=   212 RedAO= T  NBF=   212
 NBsUse=   212 1.00D-06 NBFU=   212
 Initial guess read from the read-write file.
 B after Tr=     0.000000    0.000000    0.000000
         Rot=    1.000000    0.000000    0.000000    0.000000 Ang=   0.00 deg.
 Initial guess orbital symmetries:
       Occupied  (A) (A) (A) (A) (A) (A) (A) (A) (A) (A) (A) (A)
                 (A) (A) (A) (A) (A) (A) (A) (A) (A) (A) (A) (A)
                 (A) (A) (A) (A) (A) (A) (A) (A) (A) (A) (A) (A)
                 (A) (A) (A) (A) (A) (A) (A) (A) (A) (A) (A)
       Virtual   (A) (A) (A) (A) (A) (A) (A) (A) (A) (A) (A) (A)
                 (A) (A) (A) (A) (A) (A) (A) (A) (A) (A) (A) (A)
                 (A) (A) (A) (A) (A) (A) (A) (A) (A) (A) (A) (A)
                 (A) (A) (A) (A) (A) (A) (A) (A) (A) (A) (A) (A)
                 (A) (A) (A) (A) (A) (A) (A) (A) (A) (A) (A) (A)
                 (A) (A) (A) (A) (A) (A) (A) (A) (A) (A) (A) (A)
                 (A) (A) (A) (A) (A) (A) (A) (A) (A) (A) (A) (A)
                 (A) (A) (A) (A) (A) (A) (A) (A) (A) (A) (A) (A)
                 (A) (A) (A) (A) (A) (A) (A) (A) (A) (A) (A) (A)
                 (A) (A) (A) (A) (A) (A) (A) (A) (A) (A) (A) (A)
                 (A) (A) (A) (A) (A) (A) (A) (A) (A) (A) (A) (A)
                 (A) (A) (A) (A) (A) (A) (A) (A) (A) (A) (A) (A)
                 (A) (A) (A) (A) (A) (A) (A) (A) (A) (A) (A) (A)
                 (A) (A) (A) (A) (A) (A) (A) (A) (A)
 Harris functional with IExCor=  402 diagonalized for initial guess.
 ExpMin= 1.61D-01 ExpMax= 5.48D+03 ExpMxC= 8.25D+02 IAcc=3 IRadAn=         5 AccDes= 0.00D+00
 HarFok:  IExCor=  402 AccDes= 0.00D+00 IRadAn=         5 IDoV= 1
 ScaDFX=  1.000000  1.000000  1.000000  1.000000
 FoFCou: FMM=F IPFlag=           0 FMFlag=      100000 FMFlg1=           0
         NFxFlg=           0 DoJE=T BraDBF=F KetDBF=T FulRan=T
         Omega=  0.000000  0.000000  1.000000  0.000000  0.000000 ICntrl=     500 IOpCl=  0
         NMat0=    1 NMatS0=    1 NMatT0=    0 NMatD0=    1 NMtDS0=    0 NMtDT0=    0
         I1Cent=           4 NGrid=           0.
 Petite list used in FoFCou.
 Requested convergence on RMS density matrix=1.00D-08 within 128 cycles.
 Requested convergence on MAX density matrix=1.00D-06.
 Requested convergence on             energy=1.00D-06.
 No special actions if energy rises.
 Integral accuracy reduced to 1.0D-05 until final iterations.
 Initial convergence to 1.0D-05 achieved.  Increase integral accuracy.
 SCF Done:  E(RB3LYP) =  -574.452386787     A.U. after   14 cycles
             Convg  =    0.7439D-08             -V/T =  2.0095
 Calling FoFJK, ICntrl=      2127 FMM=F ISym2X=0 I1Cent= 0 IOpClX= 0 NMat=1 NMatS=1 NMatT=0.
 ***** Axes restored to original set *****
 -------------------------------------------------------------------
 Center     Atomic                   Forces (Hartrees/Bohr)
 Number     Number              X              Y              Z
 -------------------------------------------------------------------
      1        6           0.004696618    0.000265795   -0.003451867
      2        6           0.000312709   -0.002708843    0.002334547
      3        6          -0.001963394   -0.000659058   -0.001415048
      4        6           0.001991474    0.001293660    0.002474767
      5        6           0.000668800   -0.001620292   -0.000413339
      6        6           0.001865037   -0.000458251   -0.002342329
      7        6           0.002224235   -0.003120493   -0.002137794
      8        6          -0.002280580   -0.001058650   -0.005710158
      9        7          -0.002110778    0.002238454    0.001968296
     10        7           0.001200745    0.002990888    0.005422178
     11        8          -0.004680098    0.000030284    0.000658607
     12        8          -0.000519762    0.001030394    0.000962565
     13        1          -0.000220636   -0.000331894    0.000428967
     14        1           0.000049840    0.000310713   -0.000619848
     15        1          -0.000080613    0.000601028    0.000201395
     16        1          -0.000499911   -0.000149784   -0.000274223
     17        1          -0.000591352   -0.000340762   -0.000454333
     18        1          -0.000135293    0.000118818    0.000499753
     19        1          -0.000451916    0.000412224    0.000068425
     20        1           0.000154016   -0.000868970   -0.000441085
     21        1           0.000113804    0.000362217    0.000294895
     22        1           0.000126794   -0.000488895   -0.000122019
     23        1          -0.000392588    0.000575078    0.000881336
     24        1           0.000051554   -0.000145578    0.000122042
     25        1          -0.001056277    0.000318298    0.000445500
     26        1           0.000259278    0.000548803   -0.000663041
     27        1          -0.000407077    0.000978298    0.000381046
     28        1           0.001675370   -0.000123482    0.000900765
 -------------------------------------------------------------------
 Cartesian Forces:  Max     0.005710158 RMS     0.001640722

 GradGradGradGradGradGradGradGradGradGradGradGradGradGradGradGradGradGrad
 Berny optimization.
 Using GEDIIS/GDIIS optimizer.
 Internal  Forces:  Max     0.006043362 RMS     0.001078319
 Search for a local minimum.
 Step number   2 out of a maximum of  138
 All quantities printed in internal units (Hartrees-Bohrs-Radians)
 Mixed Optimization -- RFO/linear search
 Update second derivatives using D2CorX and points    1    2
 DE= -4.51D-03 DEPred=-5.29D-03 R= 8.54D-01
 SS=  1.41D+00  RLast= 2.96D-01 DXNew= 5.0454D-01 8.8869D-01
 Trust test= 8.54D-01 RLast= 2.96D-01 DXMaxT set to 5.05D-01
 ITU=  1  0
 Use linear search instead of GDIIS.
     Eigenvalues ---    0.00234   0.00366   0.00459   0.00643   0.00865
     Eigenvalues ---    0.00879   0.00889   0.00912   0.00987   0.01111
     Eigenvalues ---    0.01150   0.01787   0.01808   0.04364   0.05158
     Eigenvalues ---    0.05462   0.05613   0.06209   0.06970   0.07261
     Eigenvalues ---    0.07294   0.07420   0.07523   0.07555   0.07670
     Eigenvalues ---    0.07876   0.15046   0.16000   0.16000   0.16000
     Eigenvalues ---    0.16000   0.16000   0.16000   0.16000   0.16000
     Eigenvalues ---    0.16000   0.16000   0.16000   0.16000   0.16000
     Eigenvalues ---    0.16617   0.17750   0.18456   0.24621   0.24765
     Eigenvalues ---    0.24881   0.24982   0.24984   0.24997   0.25000
     Eigenvalues ---    0.26583   0.27715   0.29289   0.31169   0.33102
     Eigenvalues ---    0.34182   0.34238   0.34294   0.34312   0.34327
     Eigenvalues ---    0.34333   0.34341   0.34348   0.34412   0.34444
     Eigenvalues ---    0.34467   0.34486   0.34536   0.34603   0.34888
     Eigenvalues ---    0.35057   0.36819   0.36934   0.37344   0.46405
     Eigenvalues ---    0.48490   0.85979   0.88740
 RFO step:  Lambda=-6.13974168D-04 EMin= 2.34028760D-03
 Quartic linear search produced a step of -0.07786.
 Iteration  1 RMS(Cart)=  0.04078907 RMS(Int)=  0.00032606
 Iteration  2 RMS(Cart)=  0.00060849 RMS(Int)=  0.00003484
 Iteration  3 RMS(Cart)=  0.00000014 RMS(Int)=  0.00003484
 Variable       Old X    -DE/DX   Delta X   Delta X   Delta X     New X
                                 (Linear)    (Quad)   (Total)
    R1        2.87772   0.00137  -0.00200   0.00765   0.00565   2.88337
    R2        2.60359   0.00427   0.00198   0.00477   0.00675   2.61034
    R3        2.31901  -0.00109   0.00115  -0.00319  -0.00204   2.31697
    R4        2.92938   0.00252   0.00070   0.00722   0.00792   2.93730
    R5        2.60232   0.00000   0.00241  -0.00434  -0.00193   2.60038
    R6        2.31914  -0.00150   0.00177  -0.00475  -0.00298   2.31615
    R7        2.07287  -0.00004  -0.00058   0.00094   0.00036   2.07323
    R8        2.06009   0.00040   0.00063  -0.00007   0.00056   2.06065
    R9        2.07063  -0.00032  -0.00049   0.00005  -0.00044   2.07018
   R10        2.89887   0.00204  -0.00055   0.00737   0.00682   2.90569
   R11        2.06662  -0.00031   0.00027  -0.00133  -0.00106   2.06556
   R12        2.06922  -0.00024   0.00001  -0.00067  -0.00066   2.06855
   R13        2.06768   0.00051   0.00001   0.00135   0.00137   2.06905
   R14        2.75090   0.00147   0.00047   0.00279   0.00326   2.75416
   R15        2.07481  -0.00017  -0.00056   0.00057   0.00001   2.07481
   R16        2.05549   0.00085   0.00071   0.00098   0.00169   2.05718
   R17        2.07577  -0.00021  -0.00063   0.00060  -0.00004   2.07573
   R18        2.75548  -0.00199   0.00038  -0.00565  -0.00527   2.75021
   R19        2.07632  -0.00003  -0.00067   0.00113   0.00046   2.07678
   R20        2.05537   0.00022   0.00004   0.00051   0.00055   2.05592
   R21        2.07440   0.00014  -0.00051   0.00131   0.00080   2.07519
   R22        2.75744   0.00191   0.00033   0.00417   0.00451   2.76195
   R23        2.07272  -0.00031  -0.00049   0.00005  -0.00044   2.07228
   R24        2.05614   0.00057   0.00073   0.00018   0.00091   2.05705
   R25        2.06700  -0.00087  -0.00009  -0.00215  -0.00224   2.06475
   R26        2.76711   0.00088   0.00445  -0.00566  -0.00120   2.76591
   R27        2.06193  -0.00124  -0.00004  -0.00320  -0.00324   2.05869
    A1        2.05182   0.00144   0.00055   0.00434   0.00487   2.05669
    A2        2.11462  -0.00604  -0.00205  -0.01841  -0.02049   2.09413
    A3        2.11664   0.00461   0.00151   0.01423   0.01572   2.13236
    A4        2.06436   0.00096   0.00119   0.00127   0.00245   2.06681
    A5        2.09457  -0.00039   0.00039  -0.00222  -0.00184   2.09274
    A6        2.12379  -0.00056  -0.00157   0.00072  -0.00085   2.12294
    A7        1.94605   0.00051  -0.00202   0.00613   0.00411   1.95016
    A8        1.87282  -0.00071   0.00265  -0.00863  -0.00599   1.86683
    A9        1.96292   0.00047  -0.00218   0.00697   0.00480   1.96772
   A10        1.89011   0.00004   0.00001  -0.00023  -0.00023   1.88988
   A11        1.89362  -0.00067   0.00267  -0.00946  -0.00677   1.88685
   A12        1.89643   0.00035  -0.00107   0.00517   0.00409   1.90052
   A13        1.94830  -0.00053   0.00009  -0.00322  -0.00314   1.94516
   A14        1.93475  -0.00106  -0.00006  -0.00687  -0.00694   1.92781
   A15        1.92462   0.00035   0.00168  -0.00026   0.00143   1.92605
   A16        1.89342   0.00066  -0.00038   0.00286   0.00246   1.89588
   A17        1.87390   0.00028  -0.00106   0.00528   0.00422   1.87812
   A18        1.88668   0.00037  -0.00036   0.00281   0.00246   1.88914
   A19        1.92838  -0.00059  -0.00237   0.00048  -0.00187   1.92651
   A20        1.88835   0.00099   0.00591  -0.00378   0.00210   1.89044
   A21        1.93301  -0.00048  -0.00288   0.00164  -0.00123   1.93178
   A22        1.91103   0.00019  -0.00110   0.00512   0.00399   1.91503
   A23        1.89440  -0.00005   0.00124  -0.00558  -0.00429   1.89011
   A24        1.90859  -0.00006  -0.00083   0.00228   0.00141   1.91000
   A25        1.93519  -0.00098  -0.00342   0.00015  -0.00326   1.93194
   A26        1.94465   0.00187   0.00304   0.00651   0.00951   1.95417
   A27        1.92283  -0.00040  -0.00218   0.00095  -0.00121   1.92163
   A28        1.89023  -0.00016   0.00032   0.00003   0.00032   1.89055
   A29        1.88385   0.00015   0.00179  -0.00533  -0.00349   1.88037
   A30        1.88519  -0.00051   0.00052  -0.00277  -0.00227   1.88292
   A31        1.95691  -0.00197  -0.00440  -0.00516  -0.00957   1.94733
   A32        1.86674   0.00093   0.00699  -0.00638   0.00058   1.86732
   A33        1.92101  -0.00018  -0.00066   0.00090   0.00029   1.92130
   A34        1.89801   0.00013  -0.00079   0.00060  -0.00029   1.89772
   A35        1.91602   0.00062   0.00007   0.00089   0.00102   1.91704
   A36        1.90380   0.00053  -0.00113   0.00945   0.00837   1.91217
   A37        1.92439  -0.00132  -0.00063  -0.00415  -0.00485   1.91954
   A38        1.91714   0.00234   0.00021   0.01923   0.01943   1.93657
   A39        1.91944  -0.00016  -0.00166  -0.00031  -0.00213   1.91731
   A40        1.95594  -0.00044   0.00178  -0.00236  -0.00059   1.95535
   A41        1.88846  -0.00040   0.00012  -0.01655  -0.01644   1.87201
   A42        1.85704   0.00000   0.00009   0.00382   0.00387   1.86091
   A43        2.07282  -0.00088   0.00075  -0.00452  -0.00377   2.06905
   A44        2.21178   0.00070  -0.00129   0.00504   0.00375   2.21552
   A45        1.99764   0.00018   0.00055  -0.00026   0.00028   1.99792
   A46        2.06309  -0.00119   0.00040  -0.00570  -0.00530   2.05779
   A47        2.13679   0.00104   0.00092   0.00167   0.00257   2.13936
   A48        2.07491   0.00014  -0.00096   0.00179   0.00082   2.07574
    D1        1.19086  -0.00002   0.00054  -0.00930  -0.00883   1.18203
    D2       -3.02530  -0.00012   0.00099  -0.01142  -0.01049  -3.03578
    D3       -0.94076   0.00013   0.00006  -0.00654  -0.00652  -0.94728
    D4       -1.93521  -0.00022   0.00025  -0.02133  -0.02104  -1.95625
    D5        0.13183  -0.00032   0.00070  -0.02345  -0.02270   0.10913
    D6        2.21636  -0.00007  -0.00023  -0.01857  -0.01873   2.19763
    D7        3.04618  -0.00025   0.00165  -0.02336  -0.02179   3.02439
    D8        0.04511  -0.00018  -0.00190  -0.00482  -0.00678   0.03833
    D9       -0.11096  -0.00015   0.00191  -0.01162  -0.00964  -0.12060
   D10       -3.11203  -0.00008  -0.00163   0.00692   0.00537  -3.10666
   D11        1.42251  -0.00071  -0.00358  -0.04296  -0.04655   1.37596
   D12       -2.69676  -0.00056  -0.00162  -0.03554  -0.03716  -2.73392
   D13       -0.65857   0.00072  -0.00234  -0.01974  -0.02208  -0.68065
   D14       -1.68693  -0.00064  -0.00404  -0.03501  -0.03905  -1.72598
   D15        0.47699  -0.00049  -0.00207  -0.02759  -0.02966   0.44733
   D16        2.51518   0.00078  -0.00280  -0.01179  -0.01458   2.50060
   D17       -3.11198  -0.00017  -0.00137  -0.00216  -0.00354  -3.11551
   D18        0.07928  -0.00028  -0.00170  -0.00902  -0.01072   0.06856
   D19       -0.00311  -0.00024  -0.00088  -0.01031  -0.01118  -0.01429
   D20       -3.09504  -0.00034  -0.00120  -0.01717  -0.01837  -3.11341
   D21        0.98370   0.00113   0.00126   0.00653   0.00774   0.99144
   D22       -1.15763  -0.00062   0.00019  -0.01357  -0.01336  -1.17099
   D23        3.08351  -0.00011  -0.00105  -0.00658  -0.00762   3.07590
   D24        3.09670   0.00088   0.00079   0.00322   0.00398   3.10068
   D25        0.95537  -0.00087  -0.00027  -0.01688  -0.01712   0.93825
   D26       -1.08667  -0.00036  -0.00152  -0.00989  -0.01138  -1.09805
   D27       -1.09776   0.00088   0.00142   0.00215   0.00353  -1.09424
   D28        3.04410  -0.00086   0.00035  -0.01794  -0.01757   3.02652
   D29        1.00205  -0.00035  -0.00090  -0.01096  -0.01183   0.99022
   D30        2.15095   0.00033   0.00091  -0.00324  -0.00229   2.14866
   D31       -1.03437   0.00045   0.00115   0.00297   0.00414  -1.03023
   D32        0.05909  -0.00016   0.00006  -0.00744  -0.00736   0.05173
   D33       -3.12622  -0.00005   0.00030  -0.00123  -0.00094  -3.12716
   D34       -2.03253  -0.00043  -0.00080  -0.00884  -0.00967  -2.04220
   D35        1.06534  -0.00032  -0.00056  -0.00263  -0.00324   1.06210
   D36        2.01675   0.00038   0.00002   0.00646   0.00652   2.02327
   D37       -1.07701   0.00030  -0.00030  -0.00003  -0.00031  -1.07732
   D38       -0.09001  -0.00001  -0.00002   0.00191   0.00189  -0.08812
   D39        3.09940  -0.00009  -0.00034  -0.00458  -0.00494   3.09447
   D40       -2.18210  -0.00032  -0.00116   0.00054  -0.00064  -2.18274
   D41        1.00732  -0.00039  -0.00148  -0.00595  -0.00747   0.99984
   D42        2.02165   0.00006  -0.00084   0.00545   0.00465   2.02630
   D43       -1.25537   0.00007   0.00268  -0.01240  -0.00963  -1.26500
   D44       -0.05741   0.00045  -0.00155   0.01174   0.01010  -0.04731
   D45        2.94875   0.00046   0.00197  -0.00611  -0.00418   2.94457
   D46       -2.12340  -0.00063  -0.00404   0.00365  -0.00041  -2.12381
   D47        0.88277  -0.00062  -0.00052  -0.01419  -0.01470   0.86807
   D48        1.55765   0.00039  -0.00392   0.01804   0.01412   1.57177
   D49       -1.44250   0.00056  -0.00756   0.03728   0.02975  -1.41276
   D50       -2.58010   0.00007  -0.00333   0.02487   0.02156  -2.55855
   D51        0.70292   0.00024  -0.00697   0.04411   0.03719   0.74011
   D52       -0.51929  -0.00067  -0.00211   0.00589   0.00372  -0.51557
   D53        2.76374  -0.00049  -0.00575   0.02513   0.01935   2.78309
         Item               Value     Threshold  Converged?
 Maximum Force            0.006043     0.000450     NO 
 RMS     Force            0.001078     0.000300     NO 
 Maximum Displacement     0.142147     0.001800     NO 
 RMS     Displacement     0.040614     0.001200     NO 
 Predicted change in Energy=-3.438122D-04
 GradGradGradGradGradGradGradGradGradGradGradGradGradGradGradGradGradGrad

                          Input orientation:                          
 ---------------------------------------------------------------------
 Center     Atomic      Atomic             Coordinates (Angstroms)
 Number     Number       Type             X           Y           Z
 ---------------------------------------------------------------------
      1          6           0       -1.304144   -1.005196   -0.519756
      2          6           0       -0.431519   -2.709726    2.206833
      3          6           0       -2.688339   -0.958619    0.120512
      4          6           0        0.824003   -0.530740    2.505846
      5          6           0       -1.087425   -4.394145    3.839940
      6          6           0       -1.666296   -2.063601    4.322616
      7          6           0        1.102996   -1.303987   -0.295662
      8          6           0       -0.336645   -1.220915    1.770421
      9          7           0       -1.026497   -3.002071    3.412688
     10          7           0       -0.209674   -1.108604    0.316616
     11          8           0       -1.190829   -0.947599   -1.739239
     12          8           0        0.055381   -3.585585    1.501117
     13          1           0       -2.842649   -0.032299    0.687749
     14          1           0       -3.415579   -0.987668   -0.691495
     15          1           0       -2.872855   -1.804026    0.792337
     16          1           0        1.771558   -1.046515    2.330165
     17          1           0        0.924141    0.507371    2.173406
     18          1           0        0.643175   -0.528843    3.585703
     19          1           0       -0.607013   -4.514758    4.819807
     20          1           0       -0.570053   -5.002090    3.099801
     21          1           0       -2.130217   -4.728996    3.923618
     22          1           0       -2.738966   -2.283537    4.416306
     23          1           0       -1.556184   -1.033951    3.988965
     24          1           0       -1.219790   -2.143590    5.322695
     25          1           0        1.770373   -0.456641   -0.097788
     26          1           0        0.944649   -1.380816   -1.369882
     27          1           0        1.555894   -2.226951    0.074258
     28          1           0       -1.250914   -0.695932    2.044874
 ---------------------------------------------------------------------
                    Distance matrix (angstroms):
                    1          2          3          4          5
     1  C    0.000000
     2  C    3.331844   0.000000
     3  C    1.525815   3.537279   0.000000
     4  C    3.729395   2.532533   4.267252   0.000000
     5  C    5.526201   2.436087   5.310359   4.512124   0.000000
     6  C    4.969904   2.533514   4.463545   3.442659   2.449389
     7  C    2.435943   3.254738   3.829713   2.919622   5.608050
     8  C    2.495496   1.554354   2.884695   1.537626   3.862120
     9  N    4.419131   1.376064   4.216140   3.217793   1.457438
    10  N    1.381331   2.487112   2.490930   2.489005   4.896840
    11  O    1.226089   4.387838   2.387746   4.717421   6.558704
    12  O    3.548330   1.225656   4.041661   3.306408   2.725778
    13  H    2.184398   3.910215   1.097104   4.122894   5.660638
    14  H    2.118480   4.502266   1.090448   5.329711   6.128482
    15  H    2.195581   2.963311   1.095495   4.268973   4.379996
    16  H    4.193292   2.763156   4.978049   1.093046   4.654012
    17  H    3.808706   3.491224   4.406077   1.094632   5.554151
    18  H    4.568781   2.795085   4.826100   1.094895   4.242661
    19  H    6.427593   3.180656   6.249913   4.824378   1.097945
    20  H    5.441989   2.464045   5.450959   4.721138   1.088612
    21  H    5.855993   3.148075   5.384315   5.325678   1.098427
    22  H    5.296940   3.222998   4.495755   4.406461   2.741249
    23  H    4.515852   2.692413   4.031423   2.849237   3.396005
    24  H    5.952923   3.263507   5.533850   3.835755   2.698348
    25  H    3.151448   3.903331   4.492188   2.771284   6.259125
    26  H    2.433285   4.056197   3.949447   3.969692   6.352301
    27  H    3.166284   2.954786   4.429935   3.053755   5.085689
    28  H    2.583759   2.180138   2.416271   2.131915   4.114094
                    6          7          8          9         10
     6  C    0.000000
     7  C    5.438242   0.000000
     8  C    2.998632   2.519556   0.000000
     9  N    1.455348   4.601097   2.519019   0.000000
    10  N    4.368272   1.461561   1.463655   3.719957   0.000000
    11  O    6.182039   2.733598   3.622436   5.548892   2.283664
    12  O    3.638882   3.087329   2.412027   2.272675   2.758393
    13  H    4.326922   4.260564   2.977423   4.420775   2.868576
    14  H    5.418389   4.546895   3.949085   5.158474   3.362846
    15  H    3.739791   4.152249   2.780113   3.422074   2.793287
    16  H    4.101605   2.721807   2.188207   3.581225   2.825512
    17  H    4.235489   3.067459   2.176913   4.202023   2.710090
    18  H    2.869177   3.984630   2.175835   2.989080   3.427887
    19  H    2.716146   6.277038   4.496805   2.108120   5.660256
    20  H    3.366265   5.291902   4.014849   2.075166   4.799502
    21  H    2.734731   6.323502   4.489966   2.112230   5.459504
    22  H    1.098986   6.158151   3.728407   2.110944   4.958350
    23  H    1.087946   5.049969   2.538537   2.118056   3.912136
    24  H    1.098145   6.137280   3.774907   2.102969   5.210792
    25  H    5.825203   1.096604   2.917849   5.159955   2.125412
    26  H    6.299823   1.088543   3.395407   5.420966   2.061756
    27  H    5.334580   1.092621   2.733273   4.291232   2.103965
    28  H    2.689083   3.374719   1.089412   2.690642   2.059455
                   11         12         13         14         15
    11  O    0.000000
    12  O    4.360265   0.000000
    13  H    3.075151   4.656821   0.000000
    14  H    2.459448   4.858424   1.772933   0.000000
    15  H    3.157777   3.500127   1.775069   1.778412   0.000000
[...]
 41,0.00001757,0.00002913,0.00000437,-0.00000888,-0.00001123,0.00004022
 ,0.00002732,0.00001441,-0.00002759,-0.00000279,-0.00001047,-0.02798057
 ,-0.00777583,0.00488321,0.02194648,0.00786114,-0.00067611,-0.03920295,
 -0.01658978,0.05595806,-0.00048994,0.00007772,-0.00032170,-0.00034540,
 0.00165432,-0.00540949,0.00007587,-0.00000527,-0.00001130,0.00015127,-
 0.00003707,-0.00004760,0.00073721,-0.00182181,-0.00000085,-0.27182591,
 -0.07329210,0.04560034,0.00004902,0.00003154,0.00000528,-0.00001222,0.
 00016536,-0.00024573,-0.01030530,0.00264328,0.01466303,0.00029459,-0.0
 0015759,0.00029320,0.00013600,-0.00002651,0.00023025,-0.00057702,0.000
 98173,0.00198280,-0.00000958,-0.00002401,0.00000908,0.00001070,-0.0000
 0208,0.00001359,-0.00005843,0.00002669,-0.00003073,0.00002818,0.000031
 23,-0.00001385,-0.00004305,-0.00005597,0.00002913,-0.00004444,0.000050
 88,0.00002517,-0.00043345,0.00006235,-0.00029662,0.00036861,0.00003854
 ,0.00012740,0.00013093,0.00126138,-0.00005864,0.29592542,-0.00027047,-
 0.00001607,-0.00009882,0.00152240,-0.00276940,0.00286850,0.00006577,-0
 .00003223,-0.00000530,-0.00013352,0.00012209,-0.00043190,0.00255811,0.
 00248658,-0.00084034,-0.07596594,-0.07600960,0.01862614,0.00006445,-0.
 00004559,0.00014017,0.00007523,-0.00061284,0.00002422,0.02529694,0.004
 38557,-0.01234761,-0.00004402,0.00024325,0.00013219,0.00009805,-0.0000
 0956,0.00007159,0.00018252,-0.00055439,-0.00257362,-0.00002708,-0.0000
 1958,0.00001303,0.00000731,0.00001489,0.00000338,0.00000377,0.00004517
 ,0.00000629,-0.00006132,-0.00002548,0.00014666,0.00000611,0.00003227,0
 .00014041,0.00021085,0.00004407,0.00038807,-0.00023428,-0.00037272,0.0
 0004195,-0.00005023,0.00029885,-0.00002854,-0.00108205,0.00019993,0.00
 019346,0.07600158,0.07836929,0.00060128,-0.00008322,0.00029312,0.00227
 654,-0.00314187,0.00418984,-0.00010729,0.00008421,-0.00000411,-0.00009
 885,-0.00006356,-0.00028006,-0.00035811,0.00200296,-0.00003908,0.04308
 400,0.01606320,-0.05958922,-0.00005797,-0.00005652,-0.00005033,-0.0002
 2543,-0.00000083,0.00011299,0.02744363,0.00300690,-0.01430764,-0.00015
 328,0.00015470,-0.00023270,-0.00018062,0.00002896,-0.00015703,0.000116
 24,-0.00058479,-0.00278450,0.00001425,0.00003087,-0.00001901,-0.000016
 19,-0.00001916,0.00000084,0.00005696,-0.00008285,-0.00004241,-0.000016
 05,-0.00002705,0.00001255,0.00004661,0.00005303,0.00008168,-0.00000590
 ,0.00006309,0.00000313,-0.00027499,-0.00037016,0.00007779,-0.00011833,
 0.00019906,-0.00023060,-0.00044886,-0.00065314,0.00038521,-0.05774540,
 -0.01166410,0.06828208,0.00067449,-0.00004437,0.00024864,0.00120587,0.
 00063811,-0.00111275,-0.00012195,0.00002310,0.00000839,-0.00046836,-0.
 00047984,0.00090527,-0.00133709,0.00050014,0.00216281,-0.04992825,0.00
 415728,-0.00032212,-0.00008035,0.00004299,-0.00011729,-0.00047774,0.00
 014730,0.00117734,-0.00191316,0.01458598,-0.00651417,-0.00029964,-0.00
 012035,-0.00033983,-0.00022484,0.00002676,-0.00018856,-0.00019381,-0.0
 0016123,0.00016148,0.00001622,0.00007032,-0.00005239,-0.00001388,-0.00
 000671,0.00000774,-0.00000398,-0.00008556,-0.00005686,0.00009454,0.000
 01107,-0.00027108,-0.00008553,-0.00003110,-0.00005434,-0.00113290,-0.0
 0022933,-0.00006579,0.00007301,-0.00033755,0.00015989,0.00052452,0.000
 82436,-0.00010830,0.00046275,0.00028948,-0.00002808,0.00353271,-0.0286
 2208,0.01241908,0.04899954,-0.00006976,-0.00006426,-0.00026453,-0.0014
 9885,-0.00154608,0.00288407,-0.00002493,0.00003928,0.00003647,-0.00021
 541,0.00010905,0.00004930,0.00280769,-0.00065871,-0.00452687,0.0092451
 3,-0.28506127,0.09579940,0.00021944,-0.00002557,0.00022850,0.00002655,
 -0.00047485,0.00137940,0.00056080,-0.02170287,0.00655230,-0.00068060,0
 .00048033,0.00015529,-0.00002593,0.00000982,0.00025079,0.00043140,0.00
 037118,-0.00079951,-0.00001557,0.00009638,-0.00004554,-0.00000113,-0.0
 0001521,0.00004482,-0.00000801,-0.00012639,-0.00007998,-0.00009746,-0.
 00007347,0.00002547,-0.00007960,-0.00004470,0.00024302,-0.00018055,0.0
 0010333,0.00047012,0.00001719,0.00018956,0.00020483,-0.00007202,-0.001
 25303,0.00075997,-0.00003364,0.00037533,0.00004118,-0.00008597,-0.0067
 6044,0.00379494,-0.00859158,0.31235789,-0.00002173,-0.00002842,-0.0002
 3992,-0.00025545,0.00010981,0.00137319,0.00009367,0.00001886,0.0000495
 8,0.00004065,0.00032672,0.00026838,0.00196462,-0.00171862,-0.00337028,
 -0.00243139,0.10618915,-0.09552929,0.00019684,0.00001153,0.00002017,0.
 00257315,-0.00009618,-0.00272438,-0.00097165,-0.02550689,0.01104978,-0
 .00030726,-0.00008753,0.00007374,-0.00002763,0.00000157,0.00017729,-0.
 00020449,0.00025154,0.00003514,-0.00003934,0.00008497,-0.00004125,-0.0
 0001526,0.00000205,0.00005876,-0.00004296,-0.00009809,-0.00002454,-0.0
 0017157,-0.00011624,-0.00011530,0.00004848,-0.00002087,-0.00015140,-0.
 00004771,-0.00001899,-0.00023280,0.00029097,-0.00017487,0.00023466,0.0
 0014974,-0.00135018,0.00056975,-0.00014907,0.00009078,-0.00008349,-0.0
 0108267,0.00441855,-0.00243715,-0.00193921,-0.10887151,0.10421991,-0.0
 0021538,0.00003910,-0.00002690,0.00181792,0.00160190,0.00081770,0.0000
 6117,-0.00003400,-0.00001029,0.00012034,0.00014822,0.00008748,0.000424
 28,-0.00086530,0.00065650,-0.12865142,-0.00049675,-0.11749045,-0.00001
 484,0.00001669,0.00001661,-0.00010360,0.00014012,0.00012316,0.01212233
 ,0.00110100,0.01899527,0.00007465,-0.00003353,0.00005136,0.00008600,-0
 .00001147,-0.00001969,-0.00162888,0.00007661,0.00039207,-0.00000598,-0
 .00003665,0.00001860,0.00000701,0.00000647,-0.00000857,-0.00003545,0.0
 0005330,0.00001245,0.00000299,0.00000645,0.00003327,0.00000975,-0.0000
 0419,-0.00011968,-0.00004829,-0.00017128,-0.00008805,-0.00007096,-0.00
 050311,-0.00057578,0.00007717,-0.00019230,0.00013590,-0.00043748,0.000
 32349,-0.00023245,-0.01731444,0.00100310,-0.02646019,0.00001921,-0.000
 20539,0.00122849,0.13365603,0.00021532,-0.00006224,0.00003223,-0.00403
 417,-0.00295347,0.00212921,-0.00003053,-0.00000842,0.00001644,0.000044
 82,0.00015119,0.00015495,-0.00132750,0.00269430,-0.00234153,-0.0009903
 7,-0.05151760,0.00348567,0.00012612,-0.00001754,0.00005501,0.00071394,
 -0.00016663,0.00046430,-0.00488282,-0.00398090,-0.02710487,-0.00051500
 ,0.00025337,-0.00000785,-0.00008609,0.00001504,-0.00000126,0.00222628,
 -0.00049768,-0.00138588,-0.00001088,0.00007497,-0.00003336,-0.00001121
 ,0.00000507,0.00002035,0.00001953,-0.00007545,-0.00002996,-0.00006678,
 -0.00005484,-0.00008017,0.00006012,0.00001831,-0.00005769,-0.00007622,
 -0.00005875,-0.00005930,0.00048931,0.00015921,0.00110966,0.00021181,0.
 00021444,0.00009959,-0.00000999,-0.00021107,0.00019447,-0.00736318,0.0
 0065817,-0.00886495,0.01763027,0.00244252,0.02527196,-0.00190981,0.052
 44816,0.00024597,-0.00004189,0.00035373,-0.00612407,-0.00339095,0.0032
 5323,-0.00004571,-0.00002849,0.00001943,-0.00014246,0.00010606,-0.0007
 7326,0.00013050,0.00232396,0.00020301,-0.11577794,0.00234664,-0.222052
 02,-0.00011094,-0.00011502,0.00000879,-0.00021599,-0.00034463,0.000230
 71,0.00108849,-0.00724423,-0.02846602,0.00010135,0.00025122,-0.0001860
 1,-0.00002827,0.00001464,-0.00023906,0.00278526,-0.00103644,-0.0019876
 7,0.00000767,0.00000170,0.00000609,-0.00000242,0.00001469,-0.00002675,
 0.00007402,0.00000379,0.00000953,0.00000997,-0.00002412,0.00009066,0.0
 0012359,0.00010204,0.00022291,0.00009461,0.00020321,0.00013834,0.00011
 525,-0.00125727,0.00050846,0.00033600,0.00008711,0.00003634,-0.0002306
 4,-0.00032163,0.00010609,0.00224490,0.00073769,0.00684329,-0.00719258,
 0.00042713,-0.00927180,0.12250378,0.00714111,0.25088490,0.00041524,-0.
 00310560,0.00726008,-0.00003184,0.00066716,0.00077770,-0.00068197,0.00
 113875,-0.00069095,0.00038707,-0.00049540,-0.00000669,-0.00009853,0.00
 002974,0.00002273,0.00004858,-0.00004399,-0.00006809,-0.13223222,-0.11
 490663,-0.03186767,-0.00033730,-0.00053317,-0.00301620,0.00006519,-0.0
 0035068,0.00003192,-0.03343685,-0.01724284,-0.00322957,0.00058542,-0.0
 0000254,-0.00224695,0.00048315,-0.00016868,-0.00041599,-0.00032488,0.0
 0004222,0.00006263,-0.00034760,0.00016402,0.00012695,0.00016561,-0.000
 03189,-0.00004400,0.00037303,-0.00009861,0.00013899,-0.00005355,0.0005
 9486,0.00023157,0.00035300,0.00026434,-0.00006847,0.00000351,-0.000011
 39,0.00002218,-0.00000557,0.00000427,-0.00001214,0.00000174,-0.0000330
 8,0.00000702,0.00000162,0.00001835,-0.00000276,-0.00001846,-0.00000209
 ,-0.00004897,0.00000241,-0.00002110,0.00003179,0.15687966,0.00189097,-
 0.00010104,-0.00003994,0.00081399,-0.00088980,-0.00104355,0.00010980,-
 0.00046315,0.00015537,-0.00057611,0.00026130,-0.00095450,-0.00002779,0
 .00008601,-0.00001970,0.00006088,-0.00015376,-0.00005046,-0.11724351,-
 0.21342295,-0.04262319,-0.00048674,-0.00000152,-0.00037976,-0.00032473
 ,0.00005536,0.00062205,0.00353533,0.01195099,0.00379478,-0.00043238,0.
 00008343,-0.00008810,-0.00105228,0.00012734,0.00121653,0.00008300,0.00
 000692,-0.00000723,0.00005699,-0.00003299,-0.00000085,-0.00007436,-0.0
 0000222,0.00000784,0.00038634,-0.00067879,0.00014091,-0.00019744,0.000
 27671,-0.00033378,0.00062406,-0.00000638,-0.00003187,0.00000395,-0.000
 01462,0.00003482,0.00000881,0.00004347,-0.00004317,-0.00001327,-0.0000
 1861,0.00001489,-0.00002215,0.00003909,0.00003686,-0.00002742,0.000018
 57,-0.00002156,-0.00001242,0.00001203,0.00007873,0.12886649,0.22385972
 ,-0.00033929,0.00033321,-0.00386403,-0.00037147,0.00048239,0.00012187,
 0.00019807,-0.00100105,0.00015017,-0.00004856,0.00008374,-0.00090936,0
 .00002231,0.00003228,-0.00000112,0.00000715,0.00003291,-0.00000174,-0.
 03498653,-0.04363199,-0.06240734,0.00030119,0.00087577,0.00110348,0.00
 004754,-0.00009944,-0.00012138,0.01495186,0.01150764,0.00359826,-0.001
 11105,0.00150847,0.00183231,0.00041195,0.00001360,-0.00042115,0.000231
 74,-0.00000668,-0.00003078,0.00008496,-0.00006519,-0.00001818,-0.00014
 696,0.00005034,0.00007689,0.00003738,0.00007107,-0.00119226,0.00005381
 ,-0.00035931,-0.00054752,0.00009640,-0.00003238,0.00024855,0.00000103,
 -0.00000784,0.00000133,0.00000203,-0.00000970,0.00000646,-0.00000517,-
 0.00000424,0.00000228,-0.00000764,-0.00002650,-0.00000144,0.00002999,-
 0.00001838,0.00000456,0.00000061,0.00000114,-0.00001725,0.03151411,0.0
 4806508,0.06214405,-0.00005531,0.00028332,0.00886610,-0.00009953,0.000
 72880,-0.00003272,0.00024768,0.00004904,-0.00070691,-0.00058527,0.0000
 5666,-0.00094561,0.00001026,0.00001080,0.00000991,-0.00001423,0.000048
 16,0.00004389,-0.05321778,-0.00404154,-0.04832782,-0.00593339,0.001774
 80,0.00031777,-0.00001595,-0.00008299,0.00000975,-0.00009189,0.0014011
 2,0.03567605,-0.00173546,-0.00026714,-0.00517608,0.00016379,-0.0002589
 6,-0.00017962,0.00021408,-0.00012856,-0.00018191,-0.00011358,-0.000015
 71,0.00000889,0.00027137,0.00008639,-0.00022000,0.00036222,-0.00028982
 ,-0.00005280,-0.00001643,0.00011679,0.00007684,0.00021193,-0.00001814,
 -0.00003273,-0.00000630,-0.00001187,0.00000033,0.00000760,-0.00000549,
 -0.00000079,-0.00000250,-0.00000817,0.00001114,-0.00000309,-0.00003260
 ,0.00002953,0.00003028,-0.00007073,-0.00003837,-0.00000643,-0.00003534
 ,0.00001666,-0.00187677,0.00040625,-0.01816640,0.06400151,-0.00003405,
 0.00193578,-0.00167357,0.00044464,-0.00033575,-0.00041575,-0.00008639,
 0.00023637,0.00020554,0.00016775,0.00005193,-0.00010174,-0.00001136,0.
 00002886,0.00001141,0.00004180,-0.00005004,-0.00001192,-0.00296662,-0.
 05373672,-0.01585366,0.00060941,-0.00049584,-0.00012841,-0.00005195,-0
 .00001864,0.00017569,0.00010721,-0.00095722,-0.00464358,-0.00026812,-0
 .00187029,0.00109129,-0.00076691,-0.00021796,0.00021046,-0.00007764,0.
 00001025,0.00006247,0.00002753,-0.00000462,-0.00000004,-0.00002791,-0.
 00001337,0.00003945,-0.00006193,-0.00025199,-0.00002319,-0.00014820,0.
 00027963,0.00013094,0.00013761,0.00010324,-0.00004805,0.00000169,-0.00
 000775,0.00000284,0.00000718,0.00001759,-0.00001061,-0.00000848,-0.000
 00334,0.00000835,-0.00000224,0.00001420,0.00000105,-0.00001317,0.00002
 719,-0.00000825,-0.00000485,0.00001212,0.00001264,-0.00335517,-0.00087
 658,-0.02748101,0.00304166,0.05086389,-0.00133042,0.00040353,-0.002903
 11,0.00007152,-0.00061348,-0.00004133,0.00011239,-0.00005198,-0.000366
 11,0.00022643,0.00019863,0.00032220,0.00001359,-0.00005034,-0.00000742
 ,-0.00000703,-0.00003417,0.00001847,-0.03468425,-0.01816823,-0.3232940
 9,0.00189572,-0.00126761,0.00057064,-0.00003199,0.00016621,-0.00003808
 ,0.00469756,-0.00071543,-0.01709833,-0.00559281,0.00076108,0.00014481,
 -0.00003060,0.00040731,0.00017108,0.00003258,0.00001118,-0.00005284,-0
 .00002817,0.00000045,0.00011362,0.00003049,-0.00002174,-0.00001895,-0.
 00005455,0.00003383,-0.00001473,0.00000799,-0.00006367,0.00000412,-0.0
 0010947,-0.00000208,0.00004790,0.00000098,0.00001410,-0.00001145,-0.00
 000290,-0.00000203,0.00000736,0.00000388,0.00001264,-0.00000896,0.0000
 0310,0.00001514,-0.00000577,-0.00000732,0.00005069,0.00001160,-0.00000
 297,0.00001696,-0.00001168,-0.00167138,-0.00022453,-0.00294980,0.03808
 862,0.01965790,0.35254607,0.00098708,0.00316812,0.00663575,-0.00210043
 ,0.00317451,0.00351461,-0.00064741,-0.00096844,-0.00071540,0.00011306,
 -0.00048320,0.00047141,-0.00006918,-0.00023365,0.00004839,-0.00012360,
 0.00033637,0.00003932,-0.08619547,0.08433248,-0.03683081,0.00073366,-0
 .00002684,-0.00207296,0.00077187,-0.00053499,-0.00126266,-0.02786081,0
 .02685779,-0.00955269,0.00017723,0.00001439,-0.00202855,0.00197807,-0.
 00170955,-0.00211686,0.00016826,0.00004929,0.00002416,-0.00033740,-0.0
 0012376,0.00017474,-0.00032843,-0.00002953,0.00007158,0.00018722,0.000
 14800,0.00004932,-0.00004680,-0.00003907,-0.00013474,0.00008635,0.0000
 7522,0.00008231,-0.00000617,0.00003961,-0.00006203,-0.00003253,-0.0001
 1847,0.00008773,0.00005075,0.00000647,-0.00004746,0.00006784,-0.000046
 03,-0.00007755,0.00000713,-0.00006217,-0.00001497,0.00003460,-0.000088
 77,-0.00011323,0.00972170,-0.01637247,0.00732919,-0.00141398,0.0032115
 7,-0.00167602,0.10415174,-0.00165783,-0.00053532,-0.00174209,-0.000098
 26,0.00105031,-0.00018825,0.00002499,-0.00001502,-0.00003066,0.0006624
 0,-0.00044340,0.00031957,0.00006510,-0.00004318,0.00005453,-0.00006111
 ,0.00006493,0.00002243,0.09107398,-0.24878632,0.08028948,0.00066432,0.
 00008634,0.00105493,0.00007777,-0.00008137,0.00002833,0.00663012,0.001
 33191,-0.00186607,-0.00047086,-0.00017715,0.00048865,-0.00163228,-0.00
 227658,0.00099651,-0.00000280,-0.00000963,0.00003283,0.00000101,0.0000
 0959,-0.00001565,0.00002129,-0.00000821,0.00002443,-0.00057499,0.00002
 728,-0.00046826,-0.00013247,0.00019704,0.00002642,-0.00026997,0.000229
 22,0.00007621,-0.00000611,0.00000802,-0.00002248,-0.00000072,-0.000009
 46,-0.00000864,0.00000874,0.00002224,-0.00001966,0.00000963,-0.0000213
 5,-0.00001660,0.00002759,-0.00000431,0.00001075,0.00000478,-0.00000574
 ,-0.00004726,0.00866023,-0.02020230,0.00978346,-0.00261772,0.00517260,
 -0.00068859,-0.10035585,0.26450915,-0.00045967,-0.00060798,-0.00532828
 ,0.00115811,-0.00065153,-0.00120565,0.00017385,0.00099448,0.00022546,0
 .00008392,-0.00053814,-0.00038883,-0.00004942,0.00019665,-0.00002678,0
 .00016152,-0.00014436,-0.00005239,-0.04197074,0.08285146,-0.08608928,-
 0.00033764,-0.00097766,0.00046753,-0.00037015,-0.00014300,0.00045069,0
 .01400862,-0.01383707,0.00699616,-0.00273416,-0.00084550,0.00205684,-0
 .00007365,0.00140108,-0.00042044,-0.00012178,-0.00005866,0.00005240,0.
 00012985,0.00006127,-0.00004352,0.00026713,0.00002452,-0.00003822,-0.0
 0001612,-0.00050860,-0.00056710,0.00003695,0.00007467,-0.00004669,-0.0
 0009985,0.00001730,-0.00001824,0.00001056,-0.00003979,0.00003500,0.000
 02508,0.00005658,-0.00001920,-0.00004561,-0.00004372,0.00005081,-0.000
 04712,-0.00000221,0.00003643,0.00001807,-0.00000237,-0.00000740,-0.000
 01620,0.00004592,0.00006817,0.00323608,-0.00853449,0.00297299,-0.01094
 700,0.02904757,-0.00645926,0.03808154,-0.08801833,0.08722149,-0.001222
 54,-0.00016030,-0.00124472,0.00322161,-0.00055847,0.00047954,-0.002388
 13,-0.00090872,-0.00293364,-0.02385799,0.01099982,0.00324868,0.0000138
 7,-0.00007105,-0.00040213,-0.00037189,0.00053275,0.00188924,0.00155430
 ,0.00044914,0.00055316,-0.23534809,0.11242848,0.05751129,0.00003141,0.
 00084158,-0.00055990,-0.00319354,0.00022844,0.00557341,0.00043427,-0.0
 0015949,0.00044709,0.00013900,-0.00167995,-0.00114033,-0.00111540,0.00
 005899,-0.00120469,0.00008258,0.00008131,-0.00068162,-0.00101503,0.000
 35086,-0.00114559,-0.00253181,-0.00300046,-0.00248082,0.00108658,-0.00
 001862,0.00075711,0.00099937,0.00027271,0.00000174,-0.00003989,0.00004
 677,-0.00003001,-0.00003640,-0.00007780,0.00008691,-0.00001402,0.00000
 328,0.00000972,-0.00004770,-0.00054492,0.00025965,0.00065970,-0.001286
 82,0.00122310,0.00001728,-0.00027774,0.00007444,-0.00004135,0.00001618
 ,-0.00013822,-0.00033284,0.00008695,0.00004505,-0.00007438,-0.00005097
 ,-0.00010216,0.26339102,0.00154426,0.00046433,0.00001576,0.02982866,-0
 .01158785,-0.01106377,0.00047648,0.00079045,0.00092250,-0.01529517,0.0
 0817365,0.00303116,-0.00056890,-0.00001333,-0.00001059,0.00007014,-0.0
 0084151,0.00001312,-0.00035383,0.00024696,0.00097994,0.11345624,-0.114
 17911,-0.02965390,-0.00193712,-0.00026534,0.00076691,-0.00433811,0.003
 07445,0.00124824,-0.00050409,-0.00004674,0.00006041,-0.00232162,-0.008
 55106,0.00101165,0.00081585,0.00031089,0.00032971,-0.00014400,-0.00022
 244,0.00049002,-0.00067337,-0.00094687,-0.00056695,-0.00290228,-0.0009
 3374,-0.00169496,0.00040593,0.00093567,0.00066540,0.00078907,0.0005535
 8,0.00042152,0.00001021,0.00016325,0.00006940,0.00007979,0.00028867,-0
 .00028549,-0.00004364,-0.00019462,0.00004156,-0.00014027,0.00029582,0.
 00010896,-0.00022447,0.00119072,0.00132995,-0.00004019,0.00045139,-0.0
 0000042,-0.00004756,0.00004379,-0.00009740,-0.00011903,0.00008645,0.00
 015423,-0.00022103,-0.00008928,0.00018190,-0.11760195,0.12080182,0.004
 62494,-0.00034027,0.00098912,-0.00744222,-0.00029546,0.00378441,-0.001
 25300,-0.00093663,-0.00068863,-0.01559711,0.00755997,0.00344584,0.0001
 2408,0.00006005,-0.00005037,0.00038296,0.00184433,-0.00243764,-0.00339
 135,-0.00125615,-0.00532095,0.04961948,-0.02677542,-0.06119311,0.00072
 238,-0.00037643,-0.00038643,0.03341148,-0.01378723,-0.02004496,-0.0009
 7200,0.00019719,-0.00058772,0.00067073,0.00203200,0.00044922,-0.001557
 90,0.00084086,-0.00030725,0.00001903,0.00041459,0.00013751,-0.00080817
 ,-0.00019672,-0.00024942,-0.00277607,-0.00190069,-0.00121059,0.0009008
 0,0.00003870,0.00037907,0.00032119,0.00055285,0.00045958,0.00000834,0.
 00000844,0.00002155,0.00002385,-0.00011977,-0.00000780,0.00004766,0.00
 001932,-0.00000061,0.00009208,0.00005151,-0.00013789,0.00107195,0.0012
 1100,-0.00391751,-0.00002205,-0.00027213,0.00004784,-0.00007394,0.0002
 2881,0.00022015,0.00185329,-0.00025785,-0.00067594,0.00009589,-0.00007
 601,0.00007731,-0.06009632,0.03153113,0.08720524\\-0.00000312,-0.00000
 144,-0.00000073,0.00000168,0.00000437,0.00000415,0.00000997,0.00001414
 ,0.00000059,-0.00000326,-0.00000135,-0.00000507,-0.00000002,-0.0000010
 3,0.00000378,0.00000387,0.00000393,0.00001022,0.00001102,0.00000233,-0
 .00000189,0.00000342,-0.00001150,0.00000941,-0.00000434,-0.00000291,-0
 .00001342,-0.00001113,0.00001160,-0.00000649,0.00000018,-0.00000797,-0
 .00000388,0.00000232,0.00000067,0.00000094,-0.00000052,-0.00000504,0.0
 0000211,-0.00000049,-0.00000110,-0.00000004,0.00000178,-0.00000608,-0.
 00000154,-0.00000210,0.00000120,0.00000148,0.00000022,0.00000056,0.000
 00238,-0.00000248,0.00000054,0.00000188,-0.00000338,0.00000214,0.00000
 180,0.00000229,0.00000047,0.00000120,-0.00000019,-0.00000374,-0.000003
 01,0.00000027,0.00000053,-0.00000049,-0.00000062,0.00000188,-0.0000026
 5,-0.00000062,-0.00000027,-0.00000116,-0.00000139,-0.00000128,0.000000
 27,-0.00000062,-0.00000232,0.00000214,0.00000016,-0.00000075,-0.000001
 07,-0.00000294,0.00000241,-0.00000092\\\@


 IF NO USE IS MADE OF THE LABOR OF PAST AGES,
 THE WORLD MUST REMAIN ALWAYS IN THE INFANCY OF KNOWLEDGE.

                          -- CICERO
 Job cpu time:  0 days  1 hours 21 minutes 59.3 seconds.
 File lengths (MBytes):  RWF=    163 Int=      0 D2E=      0 Chk=      5 Scr=      1
 Normal termination of Gaussian 09 at Mon Feb 26 22:51:24 2018.
