 Entering Gaussian System, Link 0=g09
 Initial command:
 /home/fb_chem/chemsoft/lx24-amd64/Gaussian_09_C.01_NBO_3.1_64_istanbul-64/g09/l1.exe /local/2426262.1.parallel_long/Gau-26649.inp -scrdir=/local/2426262.1.parallel_long/
 Entering Link 1 = /home/fb_chem/chemsoft/lx24-amd64/Gaussian_09_C.01_NBO_3.1_64_istanbul-64/g09/l1.exe PID=     26650.
  
 Copyright (c) 1988,1990,1992,1993,1995,1998,2003,2009,2011,
            Gaussian, Inc.  All Rights Reserved.
  
 This is part of the Gaussian(R) 09 program.  It is based on
 the Gaussian(R) 03 system (copyright 2003, Gaussian, Inc.),
 the Gaussian(R) 98 system (copyright 1998, Gaussian, Inc.),
 the Gaussian(R) 94 system (copyright 1995, Gaussian, Inc.),
 the Gaussian 92(TM) system (copyright 1992, Gaussian, Inc.),
 the Gaussian 90(TM) system (copyright 1990, Gaussian, Inc.),
 the Gaussian 88(TM) system (copyright 1988, Gaussian, Inc.),
 the Gaussian 86(TM) system (copyright 1986, Carnegie Mellon
 University), and the Gaussian 82(TM) system (copyright 1983,
 Carnegie Mellon University). Gaussian is a federally registered
 trademark of Gaussian, Inc.
  
 This software contains proprietary and confidential information,
 including trade secrets, belonging to Gaussian, Inc.
  
 This software is provided under written license and may be
 used, copied, transmitted, or stored only in accord with that
 written license.
  
 The following legend is applicable only to US Government
 contracts under FAR:
  
                    RESTRICTED RIGHTS LEGEND
  
 Use, reproduction and disclosure by the US Government is
 subject to restrictions as set forth in subparagraphs (a)
 and (c) of the Commercial Computer Software - Restricted
 Rights clause in FAR 52.227-19.
  
 Gaussian, Inc.
 340 Quinnipiac St., Bldg. 40, Wallingford CT 06492
  
  
 ---------------------------------------------------------------
 Warning -- This program may not be used in any manner that
 competes with the business of Gaussian, Inc. or will provide
 assistance to any competitor of Gaussian, Inc.  The licensee
 of this program is prohibited from giving any competitor of
 Gaussian, Inc. access to this program.  By using this program,
 the user acknowledges that Gaussian, Inc. is engaged in the
 business of creating and licensing software in the field of
 computational chemistry and represents and warrants to the
 licensee that it is not a competitor of Gaussian, Inc. and that
 it will not use this program in any manner prohibited above.
 ---------------------------------------------------------------
  

 Cite this work as:
 Gaussian 09, Revision C.01,
 M. J. Frisch, G. W. Trucks, H. B. Schlegel, G. E. Scuseria, 
 M. A. Robb, J. R. Cheeseman, G. Scalmani, V. Barone, B. Mennucci, 
 G. A. Petersson, H. Nakatsuji, M. Caricato, X. Li, H. P. Hratchian, 
 A. F. Izmaylov, J. Bloino, G. Zheng, J. L. Sonnenberg, M. Hada, 
 M. Ehara, K. Toyota, R. Fukuda, J. Hasegawa, M. Ishida, T. Nakajima, 
 Y. Honda, O. Kitao, H. Nakai, T. Vreven, J. A. Montgomery, Jr., 
 J. E. Peralta, F. Ogliaro, M. Bearpark, J. J. Heyd, E. Brothers, 
 K. N. Kudin, V. N. Staroverov, T. Keith, R. Kobayashi, J. Normand, 
 K. Raghavachari, A. Rendell, J. C. Burant, S. S. Iyengar, J. Tomasi, 
 M. Cossi, N. Rega, J. M. Millam, M. Klene, J. E. Knox, J. B. Cross, 
 V. Bakken, C. Adamo, J. Jaramillo, R. Gomperts, R. E. Stratmann, 
 O. Yazyev, A. J. Austin, R. Cammi, C. Pomelli, J. W. Ochterski, 
 R. L. Martin, K. Morokuma, V. G. Zakrzewski, G. A. Voth, 
 P. Salvador, J. J. Dannenberg, S. Dapprich, A. D. Daniels, 
 O. Farkas, J. B. Foresman, J. V. Ortiz, J. Cioslowski, 
 and D. J. Fox, Gaussian, Inc., Wallingford CT, 2010.
 
 ******************************************
 Gaussian 09:  AM64L-G09RevC.01 23-Sep-2011
                26-Feb-2018 
 ******************************************
 %nprocs=4
 Will use up to    4 processors via shared memory.
 %chk=frag0-conf2.chk
 ----------------------------------------------------------------------
 #HF/6-31G* Geom=AllCheck Guess=Read Pop=(MK,ReadRadii) Integral=(Grid=
 UltraFine) iop(6/33=2)
 ----------------------------------------------------------------------
 1/29=7,38=1/1;
 2/12=2,40=1/2;
 3/5=1,6=6,7=1,11=9,14=-4,16=1,25=1,30=1,75=-5,116=-2/1,2,3;
 4/5=1/1;
 5/5=2,38=6/2;
 6/7=2,8=2,9=2,10=2,15=8,20=101,28=1,33=2/1,2;
 99/5=1,9=1/99;
 Structure from the checkpoint file:  frag0-conf2.chk
 ----------------------------
 Optimization for frag0-conf2
 ----------------------------
 Charge =  0 Multiplicity = 1
 Redundant internal coordinates found in file.
 C,0,-1.2634843613,0.0111265662,-1.2504358822
 C,0,-2.1026115963,0.5461811416,1.7650410766
 C,0,-0.3467675079,-0.1822229097,-2.4508305322
 C,0,-3.0062464277,-1.6000880801,0.7528709476
 C,0,-1.4075498182,2.866856108,2.1825703263
 C,0,-1.7452061335,-0.7884275183,1.066641288
 N,0,-1.1791314578,1.5391065864,1.6415048831
 N,0,-0.8557899469,-0.6171918635,-0.0933696476
 O,0,-2.2819460581,0.6848641098,-1.3048221547
 O,0,-3.1030942034,0.6300433296,2.4657871787
 H,0,0.675462535,-0.4635397204,-2.1770670811
 H,0,-0.7603058713,-0.9667181441,-3.0954582198
 H,0,-0.3259024261,0.7439118995,-3.0294515586
 H,0,-3.6012855816,-1.0959786187,-0.0114640221
 H,0,-2.7336359923,-2.5994988936,0.3963837548
 H,0,-3.6119482442,-1.6924702449,1.6563295109
 H,0,-1.7798840723,3.5597289847,1.4168631175
 H,0,-0.4810843132,3.2688104696,2.6061276072
 H,0,-2.1584196527,2.7804449745,2.9690690846
 H,0,-1.1468690997,-1.3393012816,1.8041037832
 H,0,-0.4721137438,1.4194492404,0.9307515103
 H,0,-0.0918105836,-1.2748225789,-0.1746286419
 Recover connectivity data from disk.
                          Input orientation:                          
 ---------------------------------------------------------------------
 Center     Atomic      Atomic             Coordinates (Angstroms)
 Number     Number       Type             X           Y           Z
 ---------------------------------------------------------------------
      1          6           0       -1.263484    0.011127   -1.250436
      2          6           0       -2.102612    0.546181    1.765041
      3          6           0       -0.346768   -0.182223   -2.450831
      4          6           0       -3.006246   -1.600088    0.752871
      5          6           0       -1.407550    2.866856    2.182570
      6          6           0       -1.745206   -0.788428    1.066641
      7          7           0       -1.179131    1.539107    1.641505
      8          7           0       -0.855790   -0.617192   -0.093370
      9          8           0       -2.281946    0.684864   -1.304822
     10          8           0       -3.103094    0.630043    2.465787
     11          1           0        0.675463   -0.463540   -2.177067
     12          1           0       -0.760306   -0.966718   -3.095458
     13          1           0       -0.325902    0.743912   -3.029452
     14          1           0       -3.601286   -1.095979   -0.011464
     15          1           0       -2.733636   -2.599499    0.396384
     16          1           0       -3.611948   -1.692470    1.656330
     17          1           0       -1.779884    3.559729    1.416863
     18          1           0       -0.481084    3.268810    2.606128
     19          1           0       -2.158420    2.780445    2.969069
     20          1           0       -1.146869   -1.339301    1.804104
     21          1           0       -0.472114    1.419449    0.930752
     22          1           0       -0.091811   -1.274823   -0.174629
 ---------------------------------------------------------------------
                    Distance matrix (angstroms):
                    1          2          3          4          5
     1  C    0.000000
     2  C    3.175456   0.000000
     3  C    1.522728   4.624623   0.000000
     4  C    3.105877   2.539196   4.398508   0.000000
     5  C    4.467827   2.458246   5.647171   4.955145   0.000000
     6  C    2.498037   1.548122   3.833500   1.532145   3.836718
     7  N    3.271874   1.361608   4.516970   3.739326   1.451842
     8  N    1.378333   2.522239   2.450699   2.511309   4.197968
     9  O    1.222352   3.078223   2.410413   3.159069   4.205659
    10  O    4.192557   1.224354   5.694756   2.813707   2.821066
    11  H    2.200788   4.927215   1.095007   4.840585   5.868297
    12  H    2.147900   5.264513   1.096354   4.500560   6.555364
    13  H    2.140311   5.116928   1.092229   5.194665   5.730796
    14  H    2.868109   2.845818   4.168614   1.091973   5.032924
    15  H    3.418878   3.488082   4.432493   1.095546   5.901695
    16  H    4.106922   2.702124   5.459947   1.091626   5.091538
    17  H    4.469198   3.050713   5.569119   5.344957   1.097731
    18  H    5.108594   3.278641   6.123765   5.789402   1.095128
    19  H    5.125842   2.538648   6.436987   4.981909   1.090804
    20  H    3.341776   2.114241   4.481457   2.151833   4.231188
    21  H    2.714262   2.029078   3.743817   3.946020   2.130042
    22  H    2.045445   3.334920   2.537690   3.075710   4.943790
                    6          7          8          9         10
     6  C    0.000000
     7  N    2.463397   0.000000
     8  N    1.471736   2.786389   0.000000
     9  O    2.842977   3.259873   2.279668   0.000000
    10  O    2.411126   2.281988   3.627017   3.859376   0.000000
    11  H    4.060398   4.693783   2.590393   3.290275   6.085188
    12  H    4.280758   5.375257   3.023875   2.872193   6.242256
    13  H    4.597876   4.814371   3.279323   2.608436   6.158199
    14  H    2.168393   3.942437   2.788134   2.566093   3.060085
    15  H    2.169382   4.592915   2.774113   3.726280   3.853424
    16  H    2.156328   4.044985   3.437162   4.023561   2.511618
    17  H    4.362376   2.119972   4.536675   3.990549   3.381447
    18  H    4.519867   2.099915   4.746441   5.021495   3.722596
    19  H    4.065320   2.064547   4.755976   4.761603   2.402068
    20  H    1.097871   2.883177   2.050994   3.879570   2.853587
    21  H    2.552244   1.009635   2.311696   2.968653   3.146674
    22  H    2.123923   3.521194   1.011309   3.148714   4.434878
                   11         12         13         14         15
    11  H    0.000000
    12  H    1.777094   0.000000
    13  H    1.785282   1.766159   0.000000
    14  H    4.835327   4.195104   4.818878   0.000000
    15  H    4.775659   4.330469   5.358351   1.783179   0.000000
    16  H    5.881079   5.589103   6.220177   1.771285   1.783703
    17  H    5.927204   6.472195   5.460092   5.199349   6.315624
    18  H    6.176325   7.108147   6.177293   5.969826   6.662883
    19  H    6.710964   7.264602   6.594531   5.098245   5.991108
    20  H    4.465151   4.928890   5.327009   3.062622   2.467307
    21  H    3.810658   4.689053   4.020067   4.123938   4.642411
    22  H    2.292738   3.012152   3.504298   3.517815   3.009994
                   16         17         18         19         20
    16  H    0.000000
    17  H    5.567710   0.000000
    18  H    5.942956   1.784899   0.000000
    19  H    4.882930   1.777615   1.784287   0.000000
    20  H    2.494630   4.954913   4.724532   4.399169   0.000000
    21  H    4.479851   2.554871   2.495416   2.975008   2.971320
    22  H    3.989763   5.362399   5.341230   5.531628   2.243365
                   21         22
    21  H    0.000000
    22  H    2.936937   0.000000
 Stoichiometry    C6H12N2O2
 Framework group  C1[X(C6H12N2O2)]
 Deg. of freedom    60
 Full point group                 C1      NOp   1
 Largest Abelian subgroup         C1      NOp   1
 Largest concise Abelian subgroup C1      NOp   1
                         Standard orientation:                         
 ---------------------------------------------------------------------
 Center     Atomic      Atomic             Coordinates (Angstroms)
 Number     Number       Type             X           Y           Z
 ---------------------------------------------------------------------
      1          6           0        1.726633   -0.427684    0.212669
      2          6           0       -1.333605    0.355033   -0.112622
      3          6           0        3.071768   -1.051877   -0.133304
      4          6           0        0.254793    2.307280    0.223890
      5          6           0       -2.524417   -1.790628    0.032565
      6          6           0       -0.072104    1.083005   -0.637362
      7          7           0       -1.433411   -0.961201   -0.446604
      8          7           0        1.076316    0.184542   -0.837125
      9          8           0        1.251236   -0.475906    1.337754
     10          8           0       -2.214542    0.979986    0.463944
     11          1           0        3.189245   -1.269405   -1.200038
     12          1           0        3.873296   -0.368279    0.170403
     13          1           0        3.188913   -1.973914    0.440357
     14          1           0        0.570886    1.995623    1.221568
     15          1           0        1.054957    2.893740   -0.240892
     16          1           0       -0.636867    2.929172    0.323086
     17          1           0       -2.235697   -2.370678    0.918678
     18          1           0       -2.850789   -2.479952   -0.753323
     19          1           0       -3.350004   -1.130562    0.301955
     20          1           0       -0.344036    1.424232   -1.644803
     21          1           0       -0.596629   -1.410116   -0.789579
     22          1           0        1.604442    0.313337   -1.689909
 ---------------------------------------------------------------------
 Rotational constants (GHZ):      1.8598862      0.9654511      0.7530835
 Standard basis: 6-31G(d) (6D, 7F)
 There are   174 symmetry adapted basis functions of A   symmetry.
 Integral buffers will be    131072 words long.
 Raffenetti 1 integral format.
 Two-electron integral symmetry is turned on.
   174 basis functions,   328 primitive gaussians,   174 cartesian basis functions
    39 alpha electrons       39 beta electrons
       nuclear repulsion energy       564.9122008429 Hartrees.
 NAtoms=   22 NActive=   22 NUniq=   22 SFac= 1.00D+00 NAtFMM=   60 NAOKFM=F Big=F
 One-electron integrals computed using PRISM.
 NBasis=   174 RedAO= T  NBF=   174
 NBsUse=   174 1.00D-06 NBFU=   174
 Initial guess read from the checkpoint file:  frag0-conf2.chk
 B after Tr=     0.000000    0.000000    0.000000
         Rot=    1.000000    0.000000    0.000000    0.000000 Ang=   0.00 deg.
 Initial guess orbital symmetries:
       Occupied  (A) (A) (A) (A) (A) (A) (A) (A) (A) (A) (A) (A)
                 (A) (A) (A) (A) (A) (A) (A) (A) (A) (A) (A) (A)
                 (A) (A) (A) (A) (A) (A) (A) (A) (A) (A) (A) (A)
                 (A) (A) (A)
       Virtual   (A) (A) (A) (A) (A) (A) (A) (A) (A) (A) (A) (A)
                 (A) (A) (A) (A) (A) (A) (A) (A) (A) (A) (A) (A)
                 (A) (A) (A) (A) (A) (A) (A) (A) (A) (A) (A) (A)
                 (A) (A) (A) (A) (A) (A) (A) (A) (A) (A) (A) (A)
                 (A) (A) (A) (A) (A) (A) (A) (A) (A) (A) (A) (A)
                 (A) (A) (A) (A) (A) (A) (A) (A) (A) (A) (A) (A)
                 (A) (A) (A) (A) (A) (A) (A) (A) (A) (A) (A) (A)
                 (A) (A) (A) (A) (A) (A) (A) (A) (A) (A) (A) (A)
                 (A) (A) (A) (A) (A) (A) (A) (A) (A) (A) (A) (A)
                 (A) (A) (A) (A) (A) (A) (A) (A) (A) (A) (A) (A)
                 (A) (A) (A) (A) (A) (A) (A) (A) (A) (A) (A) (A)
                 (A) (A) (A)
 Requested convergence on RMS density matrix=1.00D-08 within 128 cycles.
 Requested convergence on MAX density matrix=1.00D-06.
 Requested convergence on             energy=1.00D-06.
 No special actions if energy rises.
 SCF Done:  E(RHF) =  -492.848984716     A.U. after   14 cycles
             Convg  =    0.3562D-08             -V/T =  2.0027

 **********************************************************************

            Population analysis using the SCF density.

 **********************************************************************

 Orbital symmetries:
 BldTbl:  Degeneracy threshold= 1.00D-02
       Occupied  (A) (A) (A) (A) (A) (A) (A) (A) (A) (A) (A) (A)
                 (A) (A) (A) (A) (A) (A) (A) (A) (A) (A) (A) (A)
                 (A) (A) (A) (A) (A) (A) (A) (A) (A) (A) (A) (A)
                 (A) (A) (A)
       Virtual   (A) (A) (A) (A) (A) (A) (A) (A) (A) (A) (A) (A)
                 (A) (A) (A) (A) (A) (A) (A) (A) (A) (A) (A) (A)
                 (A) (A) (A) (A) (A) (A) (A) (A) (A) (A) (A) (A)
                 (A) (A) (A) (A) (A) (A) (A) (A) (A) (A) (A) (A)
                 (A) (A) (A) (A) (A) (A) (A) (A) (A) (A) (A) (A)
                 (A) (A) (A) (A) (A) (A) (A) (A) (A) (A) (A) (A)
                 (A) (A) (A) (A) (A) (A) (A) (A) (A) (A) (A) (A)
                 (A) (A) (A) (A) (A) (A) (A) (A) (A) (A) (A) (A)
                 (A) (A) (A) (A) (A) (A) (A) (A) (A) (A) (A) (A)
                 (A) (A) (A) (A) (A) (A) (A) (A) (A) (A) (A) (A)
                 (A) (A) (A) (A) (A) (A) (A) (A) (A) (A) (A) (A)
                 (A) (A) (A)
 The electronic state is 1-A.
 Alpha  occ. eigenvalues --  -20.53895 -20.51541 -15.60597 -15.57855 -11.36852
 Alpha  occ. eigenvalues --  -11.34579 -11.29053 -11.25202 -11.25162 -11.21449
 Alpha  occ. eigenvalues --   -1.39077  -1.36699  -1.24552  -1.21311  -1.05155
 Alpha  occ. eigenvalues --   -0.99521  -0.94951  -0.87253  -0.80341  -0.76638
 Alpha  occ. eigenvalues --   -0.71385  -0.69692  -0.64940  -0.63432  -0.61931
 Alpha  occ. eigenvalues --   -0.60939  -0.59737  -0.58699  -0.57536  -0.55741
 Alpha  occ. eigenvalues --   -0.53835  -0.53131  -0.51812  -0.51240  -0.49703
 Alpha  occ. eigenvalues --   -0.43210  -0.42381  -0.39227  -0.37761
 Alpha virt. eigenvalues --    0.17736   0.18220   0.21707   0.25130   0.25587
 Alpha virt. eigenvalues --    0.28159   0.28752   0.29413   0.30503   0.31916
 Alpha virt. eigenvalues --    0.32934   0.33112   0.33618   0.34132   0.36407
 Alpha virt. eigenvalues --    0.38613   0.42060   0.43539   0.46522   0.50360
 Alpha virt. eigenvalues --    0.52283   0.57192   0.62676   0.70290   0.72917
 Alpha virt. eigenvalues --    0.73549   0.74543   0.75161   0.76133   0.77491
 Alpha virt. eigenvalues --    0.80550   0.83122   0.84034   0.89975   0.90391
 Alpha virt. eigenvalues --    0.91872   0.93332   0.97117   0.97438   0.98598
 Alpha virt. eigenvalues --    0.99535   1.01469   1.05049   1.06924   1.09254
 Alpha virt. eigenvalues --    1.09724   1.11001   1.12806   1.12967   1.15345
 Alpha virt. eigenvalues --    1.16386   1.17167   1.17640   1.18934   1.19894
 Alpha virt. eigenvalues --    1.20674   1.22186   1.23310   1.25922   1.26751
 Alpha virt. eigenvalues --    1.28779   1.34219   1.38569   1.39640   1.43649
 Alpha virt. eigenvalues --    1.45399   1.49405   1.53383   1.57877   1.59567
 Alpha virt. eigenvalues --    1.60130   1.62264   1.67041   1.69273   1.73121
 Alpha virt. eigenvalues --    1.75077   1.81776   1.90955   1.96331   1.98584
 Alpha virt. eigenvalues --    2.01963   2.03639   2.08311   2.11266   2.12470
 Alpha virt. eigenvalues --    2.12941   2.13534   2.16267   2.17860   2.18642
 Alpha virt. eigenvalues --    2.21783   2.24399   2.27256   2.29319   2.34734
 Alpha virt. eigenvalues --    2.36698   2.38600   2.41501   2.43758   2.50629
 Alpha virt. eigenvalues --    2.52561   2.55186   2.56405   2.59665   2.63090
 Alpha virt. eigenvalues --    2.66786   2.67897   2.69931   2.72785   2.73883
 Alpha virt. eigenvalues --    2.74849   2.81128   2.85223   2.90827   2.94936
 Alpha virt. eigenvalues --    2.98417   3.03981   3.06531   3.06844   3.20658
 Alpha virt. eigenvalues --    3.30245   3.35478   3.38116   3.48744   3.53889
 Alpha virt. eigenvalues --    4.36186   4.41941   4.45715   4.55039   4.60960
 Alpha virt. eigenvalues --    4.67194   4.68450   4.84015   4.90461   5.06772
          Condensed to atoms (all electrons):
              1          2          3          4          5          6
     1  C    4.196564  -0.003593   0.359562  -0.002717  -0.000136  -0.031210
     2  C   -0.003593   4.117054   0.000000  -0.054205  -0.028535   0.371920
     3  C    0.359562   0.000000   5.263482  -0.000406  -0.000001   0.003627
     4  C   -0.002717  -0.054205  -0.000406   5.135873  -0.000069   0.345001
     5  C   -0.000136  -0.028535  -0.000001  -0.000069   4.936785   0.003998
     6  C   -0.031210   0.371920   0.003627   0.345001   0.003998   5.094241
     7  N    0.002761   0.304574  -0.000054   0.002689   0.201520  -0.114765
     8  N    0.254741  -0.043917  -0.108299  -0.060828  -0.000032   0.153947
     9  O    0.583241   0.005818  -0.067147  -0.005991  -0.000094   0.008840
    10  O   -0.000082   0.585187  -0.000001   0.001381  -0.002588  -0.073528
    11  H   -0.037739  -0.000023   0.375125   0.000011   0.000000   0.000186
    12  H   -0.026042  -0.000001   0.376932   0.000078   0.000000  -0.000166
    13  H   -0.029797   0.000007   0.382110  -0.000003   0.000000  -0.000084
    14  H    0.003303  -0.004263   0.000145   0.391191  -0.000007  -0.030229
    15  H   -0.000520   0.005135  -0.000025   0.385167   0.000001  -0.042635
    16  H    0.000135  -0.003449   0.000005   0.386448  -0.000004  -0.032073
    17  H   -0.000012  -0.001163   0.000001   0.000010   0.401968  -0.000046
    18  H    0.000007   0.002612   0.000000  -0.000001   0.398395  -0.000068
    19  H   -0.000002  -0.002416   0.000000  -0.000018   0.397973   0.000479
    20  H    0.003814  -0.033453  -0.000043  -0.036440  -0.000158   0.407465
    21  H    0.001185  -0.020015  -0.000109   0.000159  -0.022602  -0.003339
    22  H   -0.018499   0.002724   0.000871   0.001291   0.000011  -0.024863
              7          8          9         10         11         12
     1  C    0.002761   0.254741   0.583241  -0.000082  -0.037739  -0.026042
     2  C    0.304574  -0.043917   0.005818   0.585187  -0.000023  -0.000001
     3  C   -0.000054  -0.108299  -0.067147  -0.000001   0.375125   0.376932
     4  C    0.002689  -0.060828  -0.005991   0.001381   0.000011   0.000078
     5  C    0.201520  -0.000032  -0.000094  -0.002588   0.000000   0.000000
     6  C   -0.114765   0.153947   0.008840  -0.073528   0.000186  -0.000166
     7  N    7.294080  -0.003488  -0.002460  -0.090785   0.000004  -0.000001
     8  N   -0.003488   7.441730  -0.099016   0.001695   0.005184   0.000549
     9  O   -0.002460  -0.099016   8.166684  -0.000201   0.002184   0.000042
    10  O   -0.090785   0.001695  -0.000201   8.197995   0.000000   0.000000
    11  H    0.000004   0.005184   0.002184   0.000000   0.526422  -0.023266
    12  H   -0.000001   0.000549   0.000042   0.000000  -0.023266   0.480986
    13  H    0.000010   0.003211   0.002005   0.000000  -0.022196  -0.017953
    14  H    0.000050  -0.004616   0.005132   0.000647  -0.000005  -0.000014
    15  H   -0.000039   0.000184   0.000055   0.000204  -0.000004  -0.000001
    16  H    0.000181   0.003866   0.000064   0.005423   0.000000  -0.000001
    17  H   -0.046732  -0.000017   0.000153   0.000462   0.000000   0.000000
    18  H   -0.043613  -0.000002  -0.000002   0.000240   0.000000   0.000000
    19  H   -0.036052  -0.000033   0.000000   0.009660   0.000000   0.000000
    20  H    0.000538  -0.042240   0.000112   0.000356  -0.000018   0.000002
    21  H    0.320682   0.008442  -0.000578   0.002270   0.000037   0.000003
    22  H   -0.000219   0.324078   0.002454  -0.000033   0.000560  -0.000086
             13         14         15         16         17         18
     1  C   -0.029797   0.003303  -0.000520   0.000135  -0.000012   0.000007
     2  C    0.000007  -0.004263   0.005135  -0.003449  -0.001163   0.002612
     3  C    0.382110   0.000145  -0.000025   0.000005   0.000001   0.000000
     4  C   -0.000003   0.391191   0.385167   0.386448   0.000010  -0.000001
     5  C    0.000000  -0.000007   0.000001  -0.000004   0.401968   0.398395
     6  C   -0.000084  -0.030229  -0.042635  -0.032073  -0.000046  -0.000068
     7  N    0.000010   0.000050  -0.000039   0.000181  -0.046732  -0.043613
     8  N    0.003211  -0.004616   0.000184   0.003866  -0.000017  -0.000002
     9  O    0.002005   0.005132   0.000055   0.000064   0.000153  -0.000002
    10  O    0.000000   0.000647   0.000204   0.005423   0.000462   0.000240
    11  H   -0.022196  -0.000005  -0.000004   0.000000   0.000000   0.000000
    12  H   -0.017953  -0.000014  -0.000001  -0.000001   0.000000   0.000000
    13  H    0.465287   0.000001   0.000001   0.000000   0.000000   0.000000
    14  H    0.000001   0.466883  -0.024875  -0.018744  -0.000001   0.000000
    15  H    0.000001  -0.024875   0.557434  -0.024847   0.000000   0.000000
    16  H    0.000000  -0.018744  -0.024847   0.477813   0.000000   0.000000
    17  H    0.000000  -0.000001   0.000000   0.000000   0.534078  -0.037374
    18  H    0.000000   0.000000   0.000000   0.000000  -0.037374   0.540946
    19  H    0.000000  -0.000001   0.000000   0.000000  -0.025357  -0.022589
    20  H    0.000001   0.003242  -0.003284  -0.000966  -0.000004   0.000011
    21  H   -0.000013  -0.000008  -0.000007  -0.000022  -0.000147  -0.001930
    22  H    0.000063  -0.000131   0.000569  -0.000084   0.000000   0.000000
             19         20         21         22
     1  C   -0.000002   0.003814   0.001185  -0.018499
     2  C   -0.002416  -0.033453  -0.020015   0.002724
     3  C    0.000000  -0.000043  -0.000109   0.000871
     4  C   -0.000018  -0.036440   0.000159   0.001291
     5  C    0.397973  -0.000158  -0.022602   0.000011
     6  C    0.000479   0.407465  -0.003339  -0.024863
     7  N   -0.036052   0.000538   0.320682  -0.000219
     8  N   -0.000033  -0.042240   0.008442   0.324078
     9  O    0.000000   0.000112  -0.000578   0.002454
    10  O    0.009660   0.000356   0.002270  -0.000033
    11  H    0.000000  -0.000018   0.000037   0.000560
    12  H    0.000000   0.000002   0.000003  -0.000086
    13  H    0.000000   0.000001  -0.000013   0.000063
    14  H   -0.000001   0.003242  -0.000008  -0.000131
    15  H    0.000000  -0.003284  -0.000007   0.000569
    16  H    0.000000  -0.000966  -0.000022  -0.000084
    17  H   -0.025357  -0.000004  -0.000147   0.000000
    18  H   -0.022589   0.000011  -0.001930   0.000000
    19  H    0.452721  -0.000011   0.002511   0.000001
    20  H   -0.000011   0.499725   0.000150  -0.004703
    21  H    0.002511   0.000150   0.317239  -0.000087
    22  H    0.000001  -0.004703  -0.000087   0.328618
 Mulliken atomic charges:
              1
     1  C    0.745035
     2  C    0.800004
     3  C   -0.585775
     4  C   -0.488622
     5  C   -0.286425
     6  C   -0.036698
     7  N   -0.788881
     8  N   -0.835139
     9  O   -0.601296
    10  O   -0.638302
    11  H    0.173539
    12  H    0.208939
    13  H    0.217349
    14  H    0.212297
    15  H    0.147487
    16  H    0.206257
    17  H    0.174181
    18  H    0.163369
    19  H    0.223134
    20  H    0.205903
    21  H    0.396178
    22  H    0.387466
 Sum of Mulliken atomic charges =   0.00000
 Mulliken charges with hydrogens summed into heavy atoms:
              1
     1  C    0.745035
     2  C    0.800004
     3  C    0.014051
     4  C    0.077418
     5  C    0.274260
     6  C    0.169205
     7  N   -0.392703
     8  N   -0.447673
     9  O   -0.601296
    10  O   -0.638302
 Sum of Mulliken charges with hydrogens summed into heavy atoms =   0.00000
 DipInt: DoE/N= T F RetVal/Mat= T F Init=T NMatP=  1 IDeriv=0 Min/MaxMlt=  0  4
 Entering OneElI...
 OneElI was handed    33474183 working-precision words.
 Multipole integrals L=0 to 4 MinM= 0 MaxM= 0.
 Requested accuracy = 0.1000D-12
 PrsmSu:  NPrtUS=   1 ThrOK=F IAlg=1 NPAlg=1 LenDen=           0.
 Prism:   IPart=     0 DynPar=F LinDyn=F Incr=          19.
 PRISM was handed    33308295 working-precision words and  1935 shell-pairs
 IPart=  0 NShTot=        1935 NBatch=          51 AvBLen=        37.9
 PrSmSu:  NxtVal=             20.
 Electronic moments (au):
        -78.00000000          1.56399362         -0.67176452         -1.88057264
       -981.87714001       -494.92249851       -177.10620983          4.04375859
         -2.09146282         -0.62164117       -407.30738795       -401.91898901
        -45.07032191        377.62921125       1242.06148643        -81.46926112
       -158.47931220         11.08399521        -48.29602017        101.31147733
     -25691.77847650      -8322.67292517      -1215.73720512       1283.72667639
        792.14343134      -1730.96187757       -305.16882902       -156.26849365
        152.11099440      -6089.16195746      -1648.81122850       -846.10232494
       -329.58312430         38.87512941         84.27666718
 Electronic spatial extent (au):  <R**2>=           1653.9058
 DipInt: DoE/N= F T RetVal/Mat= T F Init=T NMatP=  1 IDeriv=0 Min/MaxMlt=  0  4
 Nuclear    moments (au):
         78.00000000          0.00000000          0.00000000          0.00000000
        937.98952366        452.28590376        130.50027786          0.00000000
          0.00000000          0.00000000        452.47167448        390.06291791
         30.92157184       -376.48794613      -1271.76983836         69.07112796
        159.24412049         -5.76278688         45.38128158        -95.08017242
      22423.43096671       6604.62193707        662.96818827      -1210.09859268
       -782.61911682       1727.51126094        301.91284991        103.59746962
       -156.54487307       5251.60059927        979.76443803        468.94585252
        305.52787638        -26.84855021        -74.91354368
 Total      moments (au):
          0.00000000          1.56399362         -0.67176452         -1.88057264
        -43.88761635        -42.63659475        -46.60593197          4.04375859
         -2.09146282         -0.62164117         45.16428653        -11.85607110
        -14.14875007          1.14126512        -29.70835192        -12.39813316
          0.76480828          5.32120833         -2.91473859          6.23130491
      -3268.34750979      -1718.05098810       -552.76901685         73.62808371
          9.52431452         -3.45061664         -3.25597911        -52.67102404
         -4.43387867       -837.56135818       -669.04679046       -377.15647242
        -24.05524792         12.02657920          9.36312350
 Traceless Quadrup. (au):
          0.48909801          1.74011961         -2.22921762          4.04375859
         -2.09146282         -0.62164117
 Charge=              0.0000 electrons
 Dipole moment (field-independent basis, Debye):
    X=              3.9753    Y=             -1.7075    Z=             -4.7799  Tot=              6.4472
 Quadrupole moment (field-independent basis, Debye-Ang):
   XX=            -59.0303   YY=            -57.3477   ZZ=            -62.6866
   XY=              5.4390   XZ=             -2.8131   YZ=             -0.8361
 Traceless Quadrupole moment (field-independent basis, Debye-Ang):
   XX=              0.6579   YY=              2.3405   ZZ=             -2.9984
   XY=              5.4390   XZ=             -2.8131   YZ=             -0.8361
 Octapole moment (field-independent basis, Debye-Ang**2):
  XXX=             32.1462  YYY=             -8.4387  ZZZ=            -10.0705  XYY=              0.8123
  XXY=            -21.1453  XXZ=             -8.8245  XZZ=              0.5444  YZZ=              3.7874
  YYZ=             -2.0746  XYZ=              4.4352
 Hexadecapole moment (field-independent basis, Debye-Ang**3):
 XXXX=          -1231.0163 YYYY=           -647.1003 ZZZZ=           -208.1993 XXXY=             27.7319
 XXXZ=              3.5873 YYYX=             -1.2997 YYYZ=             -1.2264 ZZZX=            -19.8384
 ZZZY=             -1.6700 XXYY=           -315.4657 XXZZ=           -251.9951 YYZZ=           -142.0552
 XXYZ=             -9.0604 YYXZ=              4.5298 ZZXY=              3.5266
 N-N= 5.649122008429D+02 E-N=-2.284873290177D+03  KE= 4.915112461251D+02
 Entering OneElI...
 OneElI was handed    33412907 working-precision words.
 Calculate electrostatic properties
    NBasis =   174  MinDer = 0  MaxDer = 0
    NGrid  =    22  NMatD  =   1
 Requested accuracy = 0.1000D-12
 PrsmSu:  NPrtUS=   4 ThrOK=T IAlg=1 NPAlg=1 LenDen=           0.
 Prism:   IPart=     0 DynPar=F LinDyn=F Incr=         100.
 PRISM was handed     8271140 working-precision words and  1828 shell-pairs
 PRISM was handed     8271140 working-precision words and  1828 shell-pairs
 PRISM was handed     8271140 working-precision words and  1828 shell-pairs
 PRISM was handed     8271140 working-precision words and  1828 shell-pairs
 IPart=  2 NShTot=        9878 NBatch=         449 AvBLen=        22.0
 IPart=  0 NShTot=       10384 NBatch=         472 AvBLen=        22.0
 IPart=  1 NShTot=       10274 NBatch=         467 AvBLen=        22.0
 IPart=  3 NShTot=        9680 NBatch=         440 AvBLen=        22.0
 PrSmSu:  NxtVal=            401.
 --------------------------------------------------------
       Center         ----      EFG at Nuclei      ----
                      3XX-RR        3YY-RR        3ZZ-RR
 --------------------------------------------------------
     1   Atom        0.114903     -0.333096      0.218193
     2   Atom        0.192277      0.163140     -0.355416
     3   Atom       -0.041434      0.021698      0.019735
     4   Atom        0.036150     -0.056181      0.020031
     5   Atom       -0.089125      0.015465      0.073660
     6   Atom       -0.158931     -0.006703      0.165634
     7   Atom       -0.240931     -0.473344      0.714275
     8   Atom       -0.114277      0.452190     -0.337913
     9   Atom        0.744899     -0.071453     -0.673447
    10   Atom       -0.098094      0.834080     -0.735985
    11   Atom        0.139326      0.134678     -0.274005
    12   Atom       -0.091476     -0.026878      0.118354
    13   Atom        0.139914     -0.170493      0.030580
    14   Atom        0.112611      0.110207     -0.222817
    15   Atom       -0.086183      0.021329      0.064854
    16   Atom       -0.141358     -0.003455      0.144813
    17   Atom        0.107384      0.024644     -0.132028
    18   Atom        0.105795     -0.025564     -0.080231
    19   Atom       -0.118448     -0.006735      0.125184
    20   Atom        0.109738      0.104426     -0.214163
    21   Atom       -0.206678      0.043414      0.163265
    22   Atom        0.024420      0.200143     -0.224563
 --------------------------------------------------------
                        XY            XZ            YZ
 --------------------------------------------------------
     1   Atom       -0.326619     -0.197064     -0.122536
     2   Atom        0.045544     -0.350762      0.140084
     3   Atom        0.038371      0.020473     -0.030013
     4   Atom       -0.063183     -0.001660     -0.063147
     5   Atom       -0.214153      0.086432      0.081289
     6   Atom        0.197143      0.037047      0.006781
     7   Atom       -0.141903      0.528098     -0.212240
     8   Atom        0.612348      0.238225      0.371626
     9   Atom       -1.062397      0.636479     -0.394106
    10   Atom        1.170301      0.021947     -0.196140
    11   Atom        0.016434      0.041759     -0.082978
    12   Atom       -0.198241     -0.086701     -0.078865
    13   Atom        0.043459     -0.022777      0.198234
    14   Atom        0.033867     -0.120324      0.108799
    15   Atom       -0.176014      0.141828      0.096387
    16   Atom        0.209957      0.026763     -0.028579
    17   Atom        0.054502     -0.091466      0.189222
    18   Atom       -0.090163     -0.086907     -0.198795
    19   Atom        0.192504      0.088487     -0.058083
    20   Atom        0.039108     -0.090986      0.121059
    21   Atom        0.204890      0.178283     -0.095989
    22   Atom       -0.004865      0.257347      0.084425
 --------------------------------------------------------


 ---------------------------------------------------------------------------------
              Nuclear Quadrupole in Principal Axis System
 ---------------------------------------------------------------------------------

       Atom             a.u.   MegaHertz   Gauss  10(-4) cm-1        Axes

              Baa    -0.5579   -74.868   -26.715   -24.973  0.4817  0.8385  0.2547
     1 C(13)  Bbb     0.1652    22.163     7.908     7.393  0.5018 -0.5021  0.7043
              Bcc     0.3928    52.705    18.807    17.581  0.7185 -0.2114 -0.6626
 
              Baa    -0.5562   -74.633   -26.631   -24.895  0.4258 -0.1989  0.8827
     2 C(13)  Bbb     0.1904    25.548     9.116     8.522  0.1905  0.9734  0.1274
              Bcc     0.3658    49.084    17.515    16.373  0.8845 -0.1139 -0.4523
 
              Baa    -0.0708    -9.498    -3.389    -3.168  0.8260 -0.4520 -0.3367
     3 C(13)  Bbb     0.0174     2.334     0.833     0.779  0.5298  0.4189  0.7374
              Bcc     0.0534     7.163     2.556     2.389  0.1923  0.7875 -0.5855
 
              Baa    -0.1134   -15.220    -5.431    -5.077  0.3600  0.8416  0.4027
     4 C(13)  Bbb     0.0290     3.896     1.390     1.300 -0.6391 -0.0921  0.7636
              Bcc     0.0844    11.324     4.041     3.777  0.6797 -0.5322  0.5047
 
              Baa    -0.2952   -39.609   -14.133   -13.212  0.7448  0.5934 -0.3053
     5 C(13)  Bbb     0.1102    14.782     5.274     4.931  0.3223  0.0807  0.9432
              Bcc     0.1850    24.827     8.859     8.281 -0.5843  0.8009  0.1311
 
              Baa    -0.2957   -39.680   -14.159   -13.236  0.8253 -0.5617 -0.0580
     6 C(13)  Bbb     0.1150    15.438     5.509     5.149  0.4799  0.7518 -0.4522
              Bcc     0.1807    24.242     8.650     8.086  0.2976  0.3454  0.8900
 
              Baa    -0.5436   -20.965    -7.481    -6.993  0.5442  0.8344 -0.0877
     7 N(14)  Bbb    -0.4483   -17.291    -6.170    -5.768  0.7350 -0.5246 -0.4296
              Bcc     0.9919    38.257    13.651    12.761  0.4045 -0.1693  0.8987
 
              Baa    -0.5057   -19.505    -6.960    -6.506  0.8465 -0.5319 -0.0238
     8 N(14)  Bbb    -0.4846   -18.690    -6.669    -6.234 -0.1487 -0.2791  0.9487
              Bcc     0.9903    38.195    13.629    12.741  0.5112  0.7995  0.3154
 
              Baa    -0.9180    66.426    23.702    22.157 -0.3945 -0.0684  0.9164
     9 O(17)  Bbb    -0.7915    57.275    20.437    19.105  0.4714  0.8409  0.2657
              Bcc     1.7095  -123.700   -44.139   -41.262  0.7888 -0.5368  0.2995
 
              Baa    -0.9660    69.900    24.942    23.316  0.6996 -0.5094 -0.5011
    10 O(17)  Bbb    -0.6712    48.567    17.330    16.200  0.4470 -0.2351  0.8631
              Bcc     1.6372  -118.467   -42.272   -39.516  0.5575  0.8278 -0.0633
 
              Baa    -0.2947  -157.237   -56.106   -52.449 -0.1012  0.1925  0.9761
    11 H(1)   Bbb     0.1385    73.911    26.373    24.654  0.8325 -0.5208  0.1890
              Bcc     0.1562    83.326    29.733    27.795  0.5447  0.8317 -0.1075
 
              Baa    -0.2934  -156.524   -55.852   -52.211  0.7312  0.6249  0.2737
    12 H(1)   Bbb     0.1404    74.920    26.733    24.991  0.6822 -0.6647 -0.3047
              Bcc     0.1529    81.604    29.118    27.220  0.0085 -0.4095  0.9123
 
              Baa    -0.2977  -158.841   -56.678   -52.984 -0.1112  0.8473 -0.5194
    13 H(1)   Bbb     0.1441    76.864    27.427    25.639  0.9223 -0.1067 -0.3715
              Bcc     0.1536    81.977    29.251    27.345  0.3702  0.5203  0.7696
 
              Baa    -0.2937  -156.684   -55.909   -52.264  0.2940 -0.2715  0.9164
    14 H(1)   Bbb     0.1422    75.891    27.080    25.314  0.1900  0.9563  0.2224
              Bcc     0.1514    80.794    28.829    26.950  0.9367 -0.1088 -0.3328
 
              Baa    -0.2975  -158.737   -56.641   -52.949  0.7305  0.5325 -0.4276
    15 H(1)   Bbb     0.1419    75.700    27.012    25.251 -0.0287  0.6495  0.7598
              Bcc     0.1556    83.037    29.630    27.698  0.6823 -0.5428  0.4897
 
              Baa    -0.2967  -158.328   -56.495   -52.812  0.8060 -0.5855 -0.0867
    16 H(1)   Bbb     0.1409    75.202    26.834    25.085  0.4600  0.5274  0.7143
              Bcc     0.1558    83.126    29.661    27.728 -0.3725 -0.6157  0.6944
 
              Baa    -0.2872  -153.210   -54.669   -51.105  0.2603 -0.5338  0.8046
    17 H(1)   Bbb     0.1344    71.684    25.579    23.911  0.9200  0.3899 -0.0389
              Bcc     0.1528    81.526    29.090    27.194 -0.2930  0.7504  0.5926
 
              Baa    -0.2927  -156.145   -55.717   -52.084  0.2990  0.6327  0.7144
    18 H(1)   Bbb     0.1359    72.496    25.868    24.182  0.7191  0.3428 -0.6045
              Bcc     0.1568    83.649    29.848    27.902 -0.6273  0.6944 -0.3524
 
              Baa    -0.2899  -154.690   -55.197   -51.599  0.7772 -0.5789 -0.2467
    19 H(1)   Bbb     0.1353    72.210    25.766    24.087  0.4857  0.8011 -0.3498
              Bcc     0.1546    82.480    29.431    27.512  0.4001  0.1520  0.9038
 
              Baa    -0.2800  -149.372   -53.299   -49.825  0.2456 -0.3138  0.9172
    20 H(1)   Bbb     0.1306    69.686    24.866    23.245  0.8553 -0.3751 -0.3574
              Bcc     0.1493    79.685    28.434    26.580  0.4562  0.8722  0.1763
 
              Baa    -0.3951  -210.794   -75.217   -70.313  0.8209 -0.4582 -0.3409
    21 H(1)   Bbb     0.1583    84.441    30.131    28.167  0.4746  0.8794 -0.0392
              Bcc     0.2368   126.352    45.086    42.147  0.3177 -0.1296  0.9393
 
              Baa    -0.3952  -210.870   -75.243   -70.339 -0.5198 -0.1241  0.8452
    22 H(1)   Bbb     0.1555    82.975    29.608    27.678  0.7208 -0.5948  0.3559
              Bcc     0.2397   127.894    45.636    42.661  0.4585  0.7943  0.3986
 

 ---------------------------------------------------------------------------------

 No NMR shielding tensors so no spin-rotation constants.
 Leave Link  601 at Mon Feb 26 23:17:09 2018, MaxMem=   33554432 cpu:       1.0
 Merz-Kollman atomic radii used.
 Read replacement radii for each type of atom:
 Atom Element Radius
    1     6    1.50
    2     6    1.50
    3     6    1.50
    4     6    1.50
    5     6    1.50
    6     6    1.50
    7     7    1.50
    8     7    1.50
    9     8    1.40
   10     8    1.40
   11     1    1.20
   12     1    1.20
   13     1    1.20
   14     1    1.20
   15     1    1.20
   16     1    1.20
   17     1    1.20
   18     1    1.20
   19     1    1.20
   20     1    1.20
   21     1    1.20
   22     1    1.20
 Generate VDW surfaces: Layer= 4 Dens= 1 Start= 1.400 Inc= 0.200

 **********************************************************************

            Electrostatic Properties Using The SCF Density

 **********************************************************************

       Atomic Center    1 is at   1.726633 -0.427684  0.212669
       Atomic Center    2 is at  -1.333605  0.355033 -0.112622
       Atomic Center    3 is at   3.071768 -1.051877 -0.133304
       Atomic Center    4 is at   0.254793  2.307280  0.223890
       Atomic Center    5 is at  -2.524417 -1.790628  0.032565
       Atomic Center    6 is at  -0.072104  1.083005 -0.637362
       Atomic Center    7 is at  -1.433411 -0.961201 -0.446604
       Atomic Center    8 is at   1.076316  0.184542 -0.837125
       Atomic Center    9 is at   1.251236 -0.475906  1.337754
       Atomic Center   10 is at  -2.214542  0.979986  0.463944
       Atomic Center   11 is at   3.189245 -1.269405 -1.200038
       Atomic Center   12 is at   3.873296 -0.368279  0.170403
       Atomic Center   13 is at   3.188913 -1.973914  0.440357
       Atomic Center   14 is at   0.570886  1.995623  1.221568
       Atomic Center   15 is at   1.054957  2.893740 -0.240892
       Atomic Center   16 is at  -0.636867  2.929172  0.323086
       Atomic Center   17 is at  -2.235697 -2.370678  0.918678
       Atomic Center   18 is at  -2.850789 -2.479952 -0.753323
       Atomic Center   19 is at  -3.350004 -1.130562  0.301955
       Atomic Center   20 is at  -0.344036  1.424232 -1.644803
       Atomic Center   21 is at  -0.596629 -1.410116 -0.789579
       Atomic Center   22 is at   1.604442  0.313337 -1.689909
      ESP Fit Center   23 is at   2.482129  1.226621  1.262669
      ESP Fit Center   24 is at   2.919569  1.300582  0.212669
      ESP Fit Center   25 is at   0.981963 -2.391218  0.212669
      ESP Fit Center   26 is at   1.467812 -2.227826 -0.837331
      ESP Fit Center   27 is at  -1.858605 -0.554293  1.706032
      ESP Fit Center   28 is at  -0.808605 -0.554293  1.706032
      ESP Fit Center   29 is at  -2.383605  0.355033 -1.931275
      ESP Fit Center   30 is at   3.071768 -1.051877  1.966696
      ESP Fit Center   31 is at   4.121768 -1.051877  1.685349
      ESP Fit Center   32 is at   4.931225 -2.027796 -0.133304
      ESP Fit Center   33 is at   4.890421 -1.051877 -1.183304
      ESP Fit Center   34 is at   1.880803 -2.426323 -1.183304
      ESP Fit Center   35 is at  -0.270207  3.216607  2.042544
      ESP Fit Center   36 is at   1.784741  3.290518  1.273890
      ESP Fit Center   37 is at   1.010288  3.961585  1.273890
      ESP Fit Center   38 is at  -0.004029  4.107422 -0.826110
      ESP Fit Center   39 is at  -0.270207  3.216607 -1.594763
      ESP Fit Center   40 is at  -1.999417 -0.881301  1.851218
      ESP Fit Center   41 is at  -3.574417 -1.790628  1.851218
      ESP Fit Center   42 is at  -4.269402 -2.303002  1.082565
      ESP Fit Center   43 is at  -3.715381 -3.165075  1.082565
      ESP Fit Center   44 is at  -4.563395 -2.293191  0.032565
      ESP Fit Center   45 is at  -2.271290 -3.875317  0.032565
      ESP Fit Center   46 is at  -1.331481 -3.518894  0.032565
      ESP Fit Center   47 is at  -3.049417 -0.881301 -1.786088
      ESP Fit Center   48 is at  -1.433411 -0.961201  1.653396
      ESP Fit Center   49 is at  -3.178396 -0.448827 -1.496604
      ESP Fit Center   50 is at  -0.908411 -0.051874 -2.265257
      ESP Fit Center   51 is at  -1.958411 -0.051874 -2.265257
      ESP Fit Center   52 is at  -2.483411 -0.961201 -2.265257
      ESP Fit Center   53 is at  -1.958411 -1.870528 -2.265257
      ESP Fit Center   54 is at  -1.433411 -0.961201 -2.546604
      ESP Fit Center   55 is at   2.935773  1.160461 -0.837125
      ESP Fit Center   56 is at   0.817494 -1.615600 -1.887125
      ESP Fit Center   57 is at   0.551316 -0.724785 -2.655778
      ESP Fit Center   58 is at   1.251236 -0.475906  3.297754
      ESP Fit Center   59 is at   2.231236 -0.475906  3.035164
      ESP Fit Center   60 is at   1.741236  0.372799  3.035164
      ESP Fit Center   61 is at   0.761236  0.372799  3.035164
      ESP Fit Center   62 is at   0.271236 -0.475906  3.035164
      ESP Fit Center   63 is at   0.761236 -1.324611  3.035164
      ESP Fit Center   64 is at   1.741236 -1.324611  3.035164
      ESP Fit Center   65 is at   2.948646 -0.475906  2.317754
      ESP Fit Center   66 is at   2.624469  0.521806  2.317754
      ESP Fit Center   67 is at   1.775764  1.138426  2.317754
      ESP Fit Center   68 is at  -0.121998  0.521806  2.317754
      ESP Fit Center   69 is at  -0.446174 -0.475906  2.317754
      ESP Fit Center   70 is at  -0.121998 -1.473619  2.317754
      ESP Fit Center   71 is at   0.726707 -2.090239  2.317754
      ESP Fit Center   72 is at   1.775764 -2.090239  2.317754
      ESP Fit Center   73 is at   2.624469 -1.473619  2.317754
      ESP Fit Center   74 is at   0.271236 -2.173316  1.337754
      ESP Fit Center   75 is at   1.251236 -2.435906  1.337754
      ESP Fit Center   76 is at  -2.214542  0.979986  2.423944
      ESP Fit Center   77 is at  -1.234542  0.979986  2.161353
      ESP Fit Center   78 is at  -1.724542  1.828691  2.161353
      ESP Fit Center   79 is at  -2.704542  1.828691  2.161353
      ESP Fit Center   80 is at  -3.194542  0.979986  2.161353
      ESP Fit Center   81 is at  -2.704542  0.131281  2.161353
      ESP Fit Center   82 is at  -1.724542  0.131281  2.161353
      ESP Fit Center   83 is at  -2.739071  2.594319  1.443944
      ESP Fit Center   84 is at  -3.587775  1.977699  1.443944
      ESP Fit Center   85 is at  -3.911952  0.979986  1.443944
      ESP Fit Center   86 is at  -3.194542  2.677396  0.463944
      ESP Fit Center   87 is at  -3.911952  1.959986  0.463944
      ESP Fit Center   88 is at  -4.174542  0.979986  0.463944
      ESP Fit Center   89 is at  -2.739071  2.594319 -0.516056
      ESP Fit Center   90 is at  -3.587775  1.977699 -0.516056
      ESP Fit Center   91 is at  -3.911952  0.979986 -0.516056
      ESP Fit Center   92 is at  -2.704542  1.828691 -1.233466
      ESP Fit Center   93 is at  -3.194542  0.979986 -1.233466
      ESP Fit Center   94 is at   4.787020 -1.269405 -1.719187
      ESP Fit Center   95 is at   4.413212 -0.242375 -1.719187
      ESP Fit Center   96 is at   3.466696  0.304096 -1.719187
      ESP Fit Center   97 is at   1.687828 -1.815876 -1.719187
      ESP Fit Center   98 is at   2.390358 -2.653119 -1.719187
      ESP Fit Center   99 is at   3.466696 -2.842906 -1.719187
      ESP Fit Center  100 is at   4.413212 -2.296435 -1.719187
      ESP Fit Center  101 is at   4.176724 -1.269405 -2.559187
      ESP Fit Center  102 is at   3.494393 -0.330256 -2.559187
      ESP Fit Center  103 is at   2.390358 -1.849831 -2.559187
      ESP Fit Center  104 is at   3.494393 -2.208554 -2.559187
      ESP Fit Center  105 is at   3.189245 -1.269405 -2.880038
      ESP Fit Center  106 is at   3.873296 -0.368279  1.850403
      ESP Fit Center  107 is at   4.860775 -0.368279  1.529552
      ESP Fit Center  108 is at   4.178444  0.570869  1.529552
      ESP Fit Center  109 is at   5.471071 -0.368279  0.689552
      ESP Fit Center  110 is at   5.097262  0.658751  0.689552
      ESP Fit Center  111 is at   4.150746  1.205222  0.689552
      ESP Fit Center  112 is at   5.097262 -1.395309  0.689552
      ESP Fit Center  113 is at   5.471071 -0.368279 -0.348746
      ESP Fit Center  114 is at   5.097262  0.658751 -0.348746
      ESP Fit Center  115 is at   4.150746  1.205222 -0.348746
      ESP Fit Center  116 is at   4.860775 -0.368279 -1.188746
      ESP Fit Center  117 is at   4.178444  0.570869 -1.188746
      ESP Fit Center  118 is at   3.188913 -1.973914  2.120357
      ESP Fit Center  119 is at   4.176392 -1.973914  1.799506
      ESP Fit Center  120 is at   2.390025 -2.554340  1.799506
      ESP Fit Center  121 is at   3.494061 -2.913063  1.799506
      ESP Fit Center  122 is at   4.786688 -1.973914  0.959506
      ESP Fit Center  123 is at   1.687496 -2.520385  0.959506
      ESP Fit Center  124 is at   2.390025 -3.357628  0.959506
      ESP Fit Center  125 is at   3.466364 -3.547415  0.959506
      ESP Fit Center  126 is at   4.412880 -3.000944  0.959506
      ESP Fit Center  127 is at   2.390025 -3.357628 -0.078791
      ESP Fit Center  128 is at   3.466364 -3.547415 -0.078791
      ESP Fit Center  129 is at   4.412880 -3.000944 -0.078791
      ESP Fit Center  130 is at   0.570886  1.995623  2.901568
      ESP Fit Center  131 is at   1.558365  1.995623  2.580717
      ESP Fit Center  132 is at   0.876033  2.934772  2.580717
      ESP Fit Center  133 is at  -0.228002  2.576049  2.580717
      ESP Fit Center  134 is at  -0.228002  1.415197  2.580717
      ESP Fit Center  135 is at   0.876033  1.056474  2.580717
      ESP Fit Center  136 is at   2.168661  1.995623  1.740717
      ESP Fit Center  137 is at   1.794852  3.022653  1.740717
      ESP Fit Center  138 is at   2.652732  2.893740  0.278257
      ESP Fit Center  139 is at   2.278924  3.920770  0.278257
      ESP Fit Center  140 is at   1.332408  4.467241  0.278257
      ESP Fit Center  141 is at   2.652732  2.893740 -0.760040
      ESP Fit Center  142 is at   2.278924  3.920770 -0.760040
      ESP Fit Center  143 is at   1.332408  4.467241 -0.760040
      ESP Fit Center  144 is at   0.256070  4.277454 -0.760040
      ESP Fit Center  145 is at   2.042437  2.893740 -1.600040
      ESP Fit Center  146 is at   1.360105  3.832889 -1.600040
      ESP Fit Center  147 is at   0.256070  3.474166 -1.600040
      ESP Fit Center  148 is at   1.054957  2.893740 -1.920892
      ESP Fit Center  149 is at  -0.331719  3.868321  1.682235
      ESP Fit Center  150 is at  -1.435755  3.509598  1.682235
      ESP Fit Center  151 is at  -1.435755  2.348746  1.682235
      ESP Fit Center  152 is at  -0.359417  4.502673  0.842235
      ESP Fit Center  153 is at  -1.435755  4.312886  0.842235
      ESP Fit Center  154 is at  -2.138285  3.475643  0.842235
      ESP Fit Center  155 is at  -0.359417  4.502673 -0.196063
      ESP Fit Center  156 is at  -1.435755  4.312886 -0.196063
      ESP Fit Center  157 is at  -2.138285  3.475643 -0.196063
      ESP Fit Center  158 is at  -1.435755  3.509598 -1.036063
      ESP Fit Center  159 is at  -2.235697 -2.370678  2.598678
      ESP Fit Center  160 is at  -1.248218 -2.370678  2.277826
      ESP Fit Center  161 is at  -1.930549 -1.431530  2.277826
      ESP Fit Center  162 is at  -3.034584 -1.790253  2.277826
      ESP Fit Center  163 is at  -3.034584 -2.951104  2.277826
      ESP Fit Center  164 is at  -1.930549 -3.309827  2.277826
      ESP Fit Center  165 is at  -0.637922 -2.370678  1.437826
      ESP Fit Center  166 is at  -3.737114 -2.917150  1.437826
      ESP Fit Center  167 is at  -3.034584 -3.754392  1.437826
      ESP Fit Center  168 is at  -1.958246 -3.944180  1.437826
      ESP Fit Center  169 is at  -1.011730 -3.397708  1.437826
      ESP Fit Center  170 is at  -1.958246 -3.944180  0.399529
      ESP Fit Center  171 is at  -1.011730 -3.397708  0.399529
      ESP Fit Center  172 is at  -4.352206 -3.026424 -0.234174
      ESP Fit Center  173 is at  -3.649676 -3.863666 -0.234174
      ESP Fit Center  174 is at  -2.573338 -4.053453 -0.234174
      ESP Fit Center  175 is at  -4.352206 -1.933481 -1.272471
      ESP Fit Center  176 is at  -4.352206 -3.026424 -1.272471
      ESP Fit Center  177 is at  -3.649676 -3.863666 -1.272471
      ESP Fit Center  178 is at  -2.573338 -4.053453 -1.272471
      ESP Fit Center  179 is at  -1.626822 -3.506982 -1.272471
      ESP Fit Center  180 is at  -1.863310 -2.479952 -2.112471
      ESP Fit Center  181 is at  -3.649676 -1.899527 -2.112471
      ESP Fit Center  182 is at  -3.649676 -3.060378 -2.112471
      ESP Fit Center  183 is at  -2.545641 -3.419101 -2.112471
      ESP Fit Center  184 is at  -2.850789 -2.479952 -2.433323
      ESP Fit Center  185 is at  -3.350004 -1.130562  1.981955
      ESP Fit Center  186 is at  -4.148892 -0.550136  1.661104
      ESP Fit Center  187 is at  -4.148892 -1.710988  1.661104
      ESP Fit Center  188 is at  -4.148892  0.253152  0.821104
      ESP Fit Center  189 is at  -4.851422 -0.584091  0.821104
      ESP Fit Center  190 is at  -4.851422 -1.677033  0.821104
      ESP Fit Center  191 is at  -4.148892  0.253152 -0.217193
      ESP Fit Center  192 is at  -4.851422 -0.584091 -0.217193
      ESP Fit Center  193 is at  -4.851422 -1.677033 -0.217193
      ESP Fit Center  194 is at  -4.148892 -0.550136 -1.057193
      ESP Fit Center  195 is at   0.879931  2.451262 -2.163952
      ESP Fit Center  196 is at  -0.066585  2.997734 -2.163952
      ESP Fit Center  197 is at  -1.142923  2.807946 -2.163952
      ESP Fit Center  198 is at  -1.845453  1.970704 -2.163952
      ESP Fit Center  199 is at  -1.845453  0.877761 -2.163952
      ESP Fit Center  200 is at   0.643443  1.424232 -3.003952
      ESP Fit Center  201 is at  -0.038888  2.363381 -3.003952
      ESP Fit Center  202 is at  -1.142923  2.004658 -3.003952
      ESP Fit Center  203 is at  -1.142923  0.843807 -3.003952
      ESP Fit Center  204 is at  -0.038888  0.485084 -3.003952
      ESP Fit Center  205 is at  -0.344036  1.424232 -3.324803
      ESP Fit Center  206 is at  -0.319178 -2.983618 -0.270431
      ESP Fit Center  207 is at   0.627338 -2.437146 -0.270431
      ESP Fit Center  208 is at  -0.319178 -2.983618 -1.308728
      ESP Fit Center  209 is at   0.627338 -2.437146 -1.308728
      ESP Fit Center  210 is at   0.390851 -1.410116 -2.148728
      ESP Fit Center  211 is at  -0.291481 -2.349265 -2.148728
      ESP Fit Center  212 is at  -0.596629 -1.410116 -2.469579
      ESP Fit Center  213 is at   2.828408  1.340367 -1.170760
      ESP Fit Center  214 is at   3.202217  0.313337 -2.209057
      ESP Fit Center  215 is at   2.828408  1.340367 -2.209057
      ESP Fit Center  216 is at   1.881892  1.886838 -2.209057
      ESP Fit Center  217 is at   2.591921  0.313337 -3.049057
      ESP Fit Center  218 is at   1.909590  1.252486 -3.049057
      ESP Fit Center  219 is at   0.805554  0.893763 -3.049057
      ESP Fit Center  220 is at   0.805554 -0.267089 -3.049057
      ESP Fit Center  221 is at   1.909590 -0.625811 -3.049057
      ESP Fit Center  222 is at   1.604442  0.313337 -3.369909
      ESP Fit Center  223 is at   3.185491  1.401666  0.746719
      ESP Fit Center  224 is at   1.205973 -2.708847  0.746719
      ESP Fit Center  225 is at   3.185491  1.401666 -0.321381
      ESP Fit Center  226 is at   1.205973 -2.708847 -0.321381
      ESP Fit Center  227 is at  -2.562383  1.773118 -1.608997
      ESP Fit Center  228 is at  -3.133994  0.883675 -1.608997
      ESP Fit Center  229 is at  -2.374926  0.355033 -2.274947
      ESP Fit Center  230 is at   4.113089 -1.051877  2.029021
      ESP Fit Center  231 is at   5.179879 -2.067090  0.400746
      ESP Fit Center  232 is at   1.612909 -2.881227 -0.667355
      ESP Fit Center  233 is at   4.530626 -2.881227 -0.667355
      ESP Fit Center  234 is at   5.179879 -2.067090 -0.667355
      ESP Fit Center  235 is at   4.650292 -0.037421 -1.629680
      ESP Fit Center  236 is at   3.851250  0.654952 -1.629680
      ESP Fit Center  237 is at   1.034275  4.014110  1.720266
      ESP Fit Center  238 is at  -0.012246  4.164577  1.720266
      ESP Fit Center  239 is at   2.594620  2.307280  0.757941
      ESP Fit Center  240 is at   0.775453  4.588443  0.757941
      ESP Fit Center  241 is at  -0.012246  4.164577 -1.272485
      ESP Fit Center  242 is at  -2.003756 -0.888818  2.194890
      ESP Fit Center  243 is at  -3.045077 -0.888818  2.194890
      ESP Fit Center  244 is at  -3.565738 -1.790628  2.194890
      ESP Fit Center  245 is at  -4.324805 -2.319270  1.528941
      ESP Fit Center  246 is at  -4.632528 -2.805841  0.566615
      ESP Fit Center  247 is at  -3.983275 -3.619978  0.566615
      ESP Fit Center  248 is at  -1.065559 -3.619978 -0.501485
      ESP Fit Center  249 is at  -3.753195 -0.372543 -1.463810
      ESP Fit Center  250 is at  -4.324805 -1.261986 -1.463810
      ESP Fit Center  251 is at  -3.233800 -0.432559 -1.942979
      ESP Fit Center  252 is at  -1.954072 -0.059390 -2.608929
      ESP Fit Center  253 is at  -2.474732 -0.961201 -2.608929
      ESP Fit Center  254 is at  -1.954072 -1.863011 -2.608929
      ESP Fit Center  255 is at  -1.433411 -0.961201 -2.846604
      ESP Fit Center  256 is at   2.535174  2.013892 -1.371175
      ESP Fit Center  257 is at   0.809277 -1.672755 -2.333501
      ESP Fit Center  258 is at   0.555655 -0.717268 -2.999450
      ESP Fit Center  259 is at   1.251236 -0.475906  3.577754
      ESP Fit Center  260 is at   2.223135 -0.475906  3.355924
      ESP Fit Center  261 is at   1.737186  0.365783  3.355924
      ESP Fit Center  262 is at   0.765286  0.365783  3.355924
      ESP Fit Center  263 is at   0.279336 -0.475906  3.355924
      ESP Fit Center  264 is at   0.765286 -1.317596  3.355924
      ESP Fit Center  265 is at   1.737186 -1.317596  3.355924
      ESP Fit Center  266 is at   3.002538 -0.475906  2.734371
      ESP Fit Center  267 is at   2.668069  0.553483  2.734371
      ESP Fit Center  268 is at   1.792418  1.189681  2.734371
      ESP Fit Center  269 is at  -0.165598  0.553483  2.734371
      ESP Fit Center  270 is at  -0.500067 -0.475906  2.734371
      ESP Fit Center  271 is at  -0.165598 -1.505296  2.734371
      ESP Fit Center  272 is at   0.710054 -2.141494  2.734371
      ESP Fit Center  273 is at   1.792418 -2.141494  2.734371
      ESP Fit Center  274 is at   2.668069 -1.505296  2.734371
      ESP Fit Center  275 is at   2.491797  1.321357  1.836201
      ESP Fit Center  276 is at  -0.383391 -1.924059  1.836201
      ESP Fit Center  277 is at   0.476836 -2.517831  1.836201
      ESP Fit Center  278 is at   1.514468 -2.643822  1.836201
      ESP Fit Center  279 is at   0.476836 -2.517831  0.839307
      ESP Fit Center  280 is at  -2.214542  0.979986  2.703944
      ESP Fit Center  281 is at  -1.242642  0.979986  2.482114
      ESP Fit Center  282 is at  -1.728592  1.821676  2.482114
      ESP Fit Center  283 is at  -2.700492  1.821676  2.482114
      ESP Fit Center  284 is at  -3.186442  0.979986  2.482114
      ESP Fit Center  285 is at  -2.700492  0.138297  2.482114
      ESP Fit Center  286 is at  -1.728592  0.138297  2.482114
      ESP Fit Center  287 is at  -2.755724  2.645574  1.860561
      ESP Fit Center  288 is at  -3.631376  2.009376  1.860561
      ESP Fit Center  289 is at  -3.965845  0.979986  1.860561
      ESP Fit Center  290 is at  -2.988942  3.021911  0.962391
      ESP Fit Center  291 is at  -3.849169  2.428139  0.962391
      ESP Fit Center  292 is at  -4.334922  1.502613  0.962391
      ESP Fit Center  293 is at  -4.334922  0.457360  0.962391
      ESP Fit Center  294 is at  -2.988942  3.021911 -0.034503
      ESP Fit Center  295 is at  -3.849169  2.428139 -0.034503
      ESP Fit Center  296 is at  -4.334922  1.502613 -0.034503
      ESP Fit Center  297 is at  -2.755724  2.645574 -0.932673
      ESP Fit Center  298 is at  -3.631376  2.009376 -0.932673
      ESP Fit Center  299 is at  -3.965845  0.979986 -0.932673
      ESP Fit Center  300 is at  -2.700492  1.821676 -1.554227
      ESP Fit Center  301 is at  -3.186442  0.979986 -1.554227
      ESP Fit Center  302 is at   4.149245 -2.932174 -1.200038
      ESP Fit Center  303 is at   4.852014 -1.269405 -2.160038
      ESP Fit Center  304 is at   4.534453 -0.292054 -2.160038
      ESP Fit Center  305 is at   3.703069  0.311982 -2.160038
      ESP Fit Center  306 is at   1.844037 -2.246756 -2.160038
      ESP Fit Center  307 is at   2.675421 -2.850792 -2.160038
      ESP Fit Center  308 is at   3.703069 -2.850792 -2.160038
      ESP Fit Center  309 is at   4.534453 -2.246756 -2.160038
      ESP Fit Center  310 is at   4.149245 -1.269405 -2.862807
      ESP Fit Center  311 is at   3.669245 -0.438021 -2.862807
      ESP Fit Center  312 is at   2.229245 -1.269405 -2.862807
      ESP Fit Center  313 is at   2.709245 -2.100789 -2.862807
      ESP Fit Center  314 is at   3.669245 -2.100789 -2.862807
      ESP Fit Center  315 is at   3.189245 -1.269405 -3.120038
      ESP Fit Center  316 is at   3.873296 -0.368279  2.090403
      ESP Fit Center  317 is at   4.833296 -0.368279  1.833172
      ESP Fit Center  318 is at   4.353296  0.463105  1.833172
      ESP Fit Center  319 is at   3.393296  0.463105  1.833172
      ESP Fit Center  320 is at   5.536065 -0.368279  1.130403
      ESP Fit Center  321 is at   5.218504  0.609072  1.130403
      ESP Fit Center  322 is at   4.387120  1.213108  1.130403
      ESP Fit Center  323 is at   3.359472  1.213108  1.130403
      ESP Fit Center  324 is at   5.218504 -1.345630  1.130403
      ESP Fit Center  325 is at   5.793296 -0.368279  0.170403
      ESP Fit Center  326 is at   5.536065  0.591721  0.170403
      ESP Fit Center  327 is at   4.833296  1.294490  0.170403
      ESP Fit Center  328 is at   3.873296  1.551721  0.170403
      ESP Fit Center  329 is at   5.536065 -1.328279  0.170403
      ESP Fit Center  330 is at   5.536065 -0.368279 -0.789597
      ESP Fit Center  331 is at   5.218504  0.609072 -0.789597
      ESP Fit Center  332 is at   4.387120  1.213108 -0.789597
      ESP Fit Center  333 is at   4.353296  0.463105 -1.492366
      ESP Fit Center  334 is at   3.188913 -1.973914  2.360357
      ESP Fit Center  335 is at   4.148913 -1.973914  2.103126
      ESP Fit Center  336 is at   2.708913 -2.805298  2.103126
      ESP Fit Center  337 is at   3.668913 -2.805298  2.103126
      ESP Fit Center  338 is at   4.851682 -1.973914  1.400357
      ESP Fit Center  339 is at   1.843705 -2.951265  1.400357
      ESP Fit Center  340 is at   2.675089 -3.555301  1.400357
      ESP Fit Center  341 is at   3.702737 -3.555301  1.400357
      ESP Fit Center  342 is at   4.534121 -2.951265  1.400357
      ESP Fit Center  343 is at   1.526144 -2.933914  0.440357
      ESP Fit Center  344 is at   2.228913 -3.636683  0.440357
      ESP Fit Center  345 is at   3.188913 -3.893914  0.440357
      ESP Fit Center  346 is at   4.148913 -3.636683  0.440357
      ESP Fit Center  347 is at   4.851682 -2.933914  0.440357
      ESP Fit Center  348 is at   2.675089 -3.555301 -0.519643
      ESP Fit Center  349 is at   3.702737 -3.555301 -0.519643
      ESP Fit Center  350 is at   4.534121 -2.951265 -0.519643
      ESP Fit Center  351 is at   0.570886  1.995623  3.141568
      ESP Fit Center  352 is at   1.530886  1.995623  2.884337
      ESP Fit Center  353 is at   1.050886  2.827007  2.884337
      ESP Fit Center  354 is at   0.090886  2.827007  2.884337
      ESP Fit Center  355 is at  -0.389114  1.995623  2.884337
      ESP Fit Center  356 is at   0.090886  1.164239  2.884337
      ESP Fit Center  357 is at   1.050886  1.164239  2.884337
      ESP Fit Center  358 is at   2.233654  1.995623  2.181568
      ESP Fit Center  359 is at   1.916094  2.972974  2.181568
      ESP Fit Center  360 is at   1.084709  3.577010  2.181568
      ESP Fit Center  361 is at  -0.774323  1.018272  2.181568
      ESP Fit Center  362 is at   2.490886  1.995623  1.221568
      ESP Fit Center  363 is at   2.717726  2.893740  0.719108
      ESP Fit Center  364 is at   2.400166  3.871091  0.719108
      ESP Fit Center  365 is at   1.568781  4.475127  0.719108
      ESP Fit Center  366 is at   2.974957  2.893740 -0.240892
      ESP Fit Center  367 is at   2.717726  3.853740 -0.240892
      ESP Fit Center  368 is at   2.014957  4.556509 -0.240892
      ESP Fit Center  369 is at   1.054957  4.813740 -0.240892
      ESP Fit Center  370 is at   2.717726  1.933740 -0.240892
      ESP Fit Center  371 is at   2.717726  2.893740 -1.200892
      ESP Fit Center  372 is at   2.400166  3.871091 -1.200892
      ESP Fit Center  373 is at   1.568781  4.475127 -1.200892
      ESP Fit Center  374 is at   0.541134  4.475127 -1.200892
      ESP Fit Center  375 is at   2.014957  2.893740 -1.903660
      ESP Fit Center  376 is at   1.534957  3.725125 -1.903660
      ESP Fit Center  377 is at   0.574957  3.725125 -1.903660
      ESP Fit Center  378 is at   1.054957  2.893740 -2.160892
      ESP Fit Center  379 is at  -1.116867  3.760556  1.985855
      ESP Fit Center  380 is at  -1.596867  2.929172  1.985855
      ESP Fit Center  381 is at  -0.123043  4.510559  1.283086
      ESP Fit Center  382 is at  -1.150691  4.510559  1.283086
      ESP Fit Center  383 is at  -1.982075  3.906523  1.283086
      ESP Fit Center  384 is at  -0.636867  4.849172  0.323086
      ESP Fit Center  385 is at  -1.596867  4.591941  0.323086
      ESP Fit Center  386 is at  -2.299636  3.889172  0.323086
      ESP Fit Center  387 is at  -1.150691  4.510559 -0.636914
      ESP Fit Center  388 is at  -1.982075  3.906523 -0.636914
      ESP Fit Center  389 is at  -2.299636  2.929172 -0.636914
      ESP Fit Center  390 is at  -1.116867  3.760556 -1.339683
      ESP Fit Center  391 is at  -1.596867  2.929172 -1.339683
      ESP Fit Center  392 is at  -2.235697 -2.370678  2.838678
      ESP Fit Center  393 is at  -1.275697 -2.370678  2.581446
      ESP Fit Center  394 is at  -1.755697 -1.539294  2.581446
      ESP Fit Center  395 is at  -2.715697 -1.539294  2.581446
      ESP Fit Center  396 is at  -3.195697 -2.370678  2.581446
      ESP Fit Center  397 is at  -2.715697 -3.202063  2.581446
      ESP Fit Center  398 is at  -1.755697 -3.202063  2.581446
      ESP Fit Center  399 is at  -0.572928 -2.370678  1.878678
      ESP Fit Center  400 is at  -0.890489 -1.393327  1.878678
      ESP Fit Center  401 is at  -3.580905 -3.348029  1.878678
      ESP Fit Center  402 is at  -2.749521 -3.952065  1.878678
      ESP Fit Center  403 is at  -1.721873 -3.952065  1.878678
      ESP Fit Center  404 is at  -0.890489 -3.348029  1.878678
      ESP Fit Center  405 is at  -3.195697 -4.033447  0.918678
      ESP Fit Center  406 is at  -2.235697 -4.290678  0.918678
      ESP Fit Center  407 is at  -1.275697 -4.033447  0.918678
      ESP Fit Center  408 is at  -0.572928 -3.330678  0.918678
      ESP Fit Center  409 is at  -3.364613 -4.061339  0.206677
      ESP Fit Center  410 is at  -4.770789 -2.479952 -0.753323
      ESP Fit Center  411 is at  -4.513558 -3.439952 -0.753323
      ESP Fit Center  412 is at  -3.810789 -4.142721 -0.753323
      ESP Fit Center  413 is at  -2.850789 -4.399952 -0.753323
      ESP Fit Center  414 is at  -1.890789 -4.142721 -0.753323
      ESP Fit Center  415 is at  -4.195997 -1.502601 -1.713323
      ESP Fit Center  416 is at  -4.513558 -2.479952 -1.713323
      ESP Fit Center  417 is at  -4.195997 -3.457303 -1.713323
      ESP Fit Center  418 is at  -3.364613 -4.061339 -1.713323
      ESP Fit Center  419 is at  -2.336965 -4.061339 -1.713323
      ESP Fit Center  420 is at  -1.505581 -3.457303 -1.713323
      ESP Fit Center  421 is at  -1.890789 -2.479952 -2.416092
      ESP Fit Center  422 is at  -3.330789 -1.648568 -2.416092
      ESP Fit Center  423 is at  -3.810789 -2.479952 -2.416092
      ESP Fit Center  424 is at  -3.330789 -3.311337 -2.416092
      ESP Fit Center  425 is at  -2.370789 -3.311337 -2.416092
      ESP Fit Center  426 is at  -2.850789 -2.479952 -2.673323
      ESP Fit Center  427 is at  -3.350004 -1.130562  2.221955
      ESP Fit Center  428 is at  -3.830004 -0.299178  1.964724
      ESP Fit Center  429 is at  -4.310004 -1.130562  1.964724
      ESP Fit Center  430 is at  -4.695213 -0.153211  1.261955
      ESP Fit Center  431 is at  -5.012773 -1.130562  1.261955
      ESP Fit Center  432 is at  -4.695213 -2.107913  1.261955
      ESP Fit Center  433 is at  -5.012773 -0.170562  0.301955
      ESP Fit Center  434 is at  -5.270004 -1.130562  0.301955
      ESP Fit Center  435 is at  -5.012773 -2.090562  0.301955
      ESP Fit Center  436 is at  -4.695213 -0.153211 -0.658045
      ESP Fit Center  437 is at  -5.012773 -1.130562 -0.658045
      ESP Fit Center  438 is at  -3.830004 -0.299178 -1.360814
      ESP Fit Center  439 is at  -1.304036  3.087001 -1.644803
      ESP Fit Center  440 is at  -2.006805  2.384232 -1.644803
      ESP Fit Center  441 is at   1.001172  2.401583 -2.604803
      ESP Fit Center  442 is at   0.169788  3.005619 -2.604803
      ESP Fit Center  443 is at  -0.857860  3.005619 -2.604803
      ESP Fit Center  444 is at  -1.689244  2.401583 -2.604803
      ESP Fit Center  445 is at  -2.006805  1.424232 -2.604803
      ESP Fit Center  446 is at  -1.689244  0.446881 -2.604803
      ESP Fit Center  447 is at   0.615964  1.424232 -3.307572
      ESP Fit Center  448 is at   0.135964  2.255617 -3.307572
      ESP Fit Center  449 is at  -0.824036  2.255617 -3.307572
      ESP Fit Center  450 is at  -1.304036  1.424232 -3.307572
      ESP Fit Center  451 is at  -0.824036  0.592848 -3.307572
      ESP Fit Center  452 is at   0.135964  0.592848 -3.307572
      ESP Fit Center  453 is at  -0.344036  1.424232 -3.564803
      ESP Fit Center  454 is at  -0.082805 -2.991503  0.170421
      ESP Fit Center  455 is at  -0.596629 -3.330116 -0.789579
      ESP Fit Center  456 is at   0.363371 -3.072885 -0.789579
      ESP Fit Center  457 is at  -1.110452 -2.991503 -1.749579
      ESP Fit Center  458 is at  -0.082805 -2.991503 -1.749579
      ESP Fit Center  459 is at   0.748580 -2.387467 -1.749579
      ESP Fit Center  460 is at  -1.076629 -2.241501 -2.452348
      ESP Fit Center  461 is at  -0.116629 -2.241501 -2.452348
      ESP Fit Center  462 is at  -0.596629 -1.410116 -2.709579
      ESP Fit Center  463 is at   3.267210  1.273337 -1.689909
      ESP Fit Center  464 is at   2.564442  1.976106 -1.689909
      ESP Fit Center  465 is at   3.267210  0.313337 -2.649909
      ESP Fit Center  466 is at   2.949650  1.290688 -2.649909
      ESP Fit Center  467 is at   2.118266  1.894724 -2.649909
      ESP Fit Center  468 is at   2.564442  0.313337 -3.352678
      ESP Fit Center  469 is at   2.084442  1.144722 -3.352678
      ESP Fit Center  470 is at   1.124442  1.144722 -3.352678
      ESP Fit Center  471 is at   0.644442  0.313337 -3.352678
      ESP Fit Center  472 is at   1.124442 -0.518047 -3.352678
      ESP Fit Center  473 is at   2.084442 -0.518047 -3.352678
      ESP Fit Center  474 is at   1.604442  0.313337 -3.609909
      ESP Fit Center  475 is at   3.281913  1.522575  1.245914
      ESP Fit Center  476 is at   0.693388 -2.922159  0.212669
      ESP Fit Center  477 is at   1.171560 -2.859617 -0.820576
      ESP Fit Center  478 is at  -2.583858  1.797902 -2.021810
      ESP Fit Center  479 is at  -3.165458  0.892914 -2.021810
      ESP Fit Center  480 is at   4.105013 -1.051877  2.361170
      ESP Fit Center  481 is at   3.588390 -0.157060  2.361170
      ESP Fit Center  482 is at   5.319212 -2.134189  0.899941
      ESP Fit Center  483 is at   5.566242 -2.085122 -0.133304
      ESP Fit Center  484 is at   5.566242 -1.051877 -1.166550
      ESP Fit Center  485 is at   3.626840  1.380056 -1.166550
      ESP Fit Center  486 is at   1.516488 -3.002136 -1.166550
      ESP Fit Center  487 is at   2.516695 -3.483810 -1.166550
      ESP Fit Center  488 is at   3.626840 -3.483810 -1.166550
      ESP Fit Center  489 is at   4.627047 -3.002136 -1.166550
      ESP Fit Center  490 is at   5.319212 -2.134189 -1.166550
      ESP Fit Center  491 is at   3.864873  0.684782 -2.042493
      ESP Fit Center  492 is at   1.047898  4.043939  2.133079
      ESP Fit Center  493 is at  -0.016913  4.197036  2.133079
      ESP Fit Center  494 is at   2.749267  2.307280  1.257136
      ESP Fit Center  495 is at   1.810072  4.257539  1.257136
      ESP Fit Center  496 is at   0.809865  4.739213  1.257136
      ESP Fit Center  497 is at   0.254793  5.007280  0.223890
      ESP Fit Center  498 is at  -0.300280  4.739213 -0.809355
      ESP Fit Center  499 is at  -0.016913  4.197036 -1.685298
      ESP Fit Center  500 is at  -0.995460  3.750148 -1.685298
      ESP Fit Center  501 is at  -2.007794 -0.895811  2.527040
      ESP Fit Center  502 is at  -3.041039 -0.895811  2.527040
      ESP Fit Center  503 is at  -3.557662 -1.790628  2.527040
      ESP Fit Center  504 is at  -4.356270 -2.328509  1.941753
      ESP Fit Center  505 is at  -4.771861 -2.872940  1.065810
      ESP Fit Center  506 is at  -4.079696 -3.740887  1.065810
      ESP Fit Center  507 is at  -5.018892 -2.823873  0.032565
      ESP Fit Center  508 is at  -2.524417 -4.490628  0.032565
      ESP Fit Center  509 is at  -1.491172 -4.285103  0.032565
      ESP Fit Center  510 is at  -0.615229 -3.699816  0.032565
      ESP Fit Center  511 is at  -5.018892 -1.790628 -1.000680
      ESP Fit Center  512 is at  -0.969137 -3.740887 -1.000680
      ESP Fit Center  513 is at  -3.774669 -0.347760 -1.876623
      ESP Fit Center  514 is at  -4.356270 -1.252748 -1.876623
      ESP Fit Center  515 is at  -3.265264 -0.423320 -2.355792
      ESP Fit Center  516 is at  -0.400166 -0.961201 -2.941079
      ESP Fit Center  517 is at  -1.950034 -0.066384 -2.941079
      ESP Fit Center  518 is at  -2.466656 -0.961201 -2.941079
      ESP Fit Center  519 is at  -1.950034 -1.856018 -2.941079
      ESP Fit Center  520 is at  -0.916789 -1.856018 -2.941079
      ESP Fit Center  521 is at  -1.433411 -0.961201 -3.146604
      ESP Fit Center  522 is at   2.985504  2.093730 -0.837125
      ESP Fit Center  523 is at   0.804610 -1.705213 -2.746313
      ESP Fit Center  524 is at   0.559693 -0.710275 -3.331600
      ESP Fit Center  525 is at   1.251236 -0.475906  3.857754
      ESP Fit Center  526 is at   2.344623 -0.475906  3.608196
      ESP Fit Center  527 is at   1.797929  0.470995  3.608196
      ESP Fit Center  528 is at   0.704542  0.470995  3.608196
      ESP Fit Center  529 is at   0.157849 -0.475906  3.608196
      ESP Fit Center  530 is at   0.704542 -1.422807  3.608196
      ESP Fit Center  531 is at   1.797929 -1.422807  3.608196
      ESP Fit Center  532 is at   3.221451 -0.475906  2.908948
      ESP Fit Center  533 is at   2.908686  0.589272  2.908948
      ESP Fit Center  534 is at   2.069693  1.316265  2.908948
      ESP Fit Center  535 is at  -0.639172  0.079167  2.908948
      ESP Fit Center  536 is at  -0.639172 -1.030980  2.908948
      ESP Fit Center  537 is at  -0.038981 -1.964896  2.908948
      ESP Fit Center  538 is at   0.970845 -2.426068  2.908948
      ESP Fit Center  539 is at   2.069693 -2.268077  2.908948
      ESP Fit Center  540 is at   2.908686 -1.541085  2.908948
      ESP Fit Center  541 is at   2.783037  1.444912  1.898507
      ESP Fit Center  542 is at  -0.280565 -2.396724  1.898507
      ESP Fit Center  543 is at   0.704542 -2.871127  1.898507
      ESP Fit Center  544 is at   1.797929 -2.871127  1.898507
      ESP Fit Center  545 is at   0.704542 -2.871127  0.777001
      ESP Fit Center  546 is at  -2.214542  0.979986  2.983944
      ESP Fit Center  547 is at  -1.121155  0.979986  2.734385
      ESP Fit Center  548 is at  -1.667849  1.926887  2.734385
      ESP Fit Center  549 is at  -2.761236  1.926887  2.734385
      ESP Fit Center  550 is at  -3.307929  0.979986  2.734385
      ESP Fit Center  551 is at  -2.761236  0.033085  2.734385
      ESP Fit Center  552 is at  -1.667849  0.033085  2.734385
      ESP Fit Center  553 is at  -2.494933  2.930148  2.035138
      ESP Fit Center  554 is at  -3.504759  2.468976  2.035138
      ESP Fit Center  555 is at  -4.104950  1.535060  2.035138
      ESP Fit Center  556 is at  -4.104950  0.424913  2.035138
      ESP Fit Center  557 is at  -2.761236  3.375207  1.024696
      ESP Fit Center  558 is at  -3.746343  2.900804  1.024696
      ESP Fit Center  559 is at  -4.428059  2.045960  1.024696
      ESP Fit Center  560 is at  -4.671360  0.979986  1.024696
      ESP Fit Center  561 is at  -2.761236  3.375207 -0.096809
      ESP Fit Center  562 is at  -3.746343  2.900804 -0.096809
      ESP Fit Center  563 is at  -4.428059  2.045960 -0.096809
      ESP Fit Center  564 is at  -4.671360  0.979986 -0.096809
      ESP Fit Center  565 is at  -2.494933  2.930148 -1.107251
      ESP Fit Center  566 is at  -3.504759  2.468976 -1.107251
      ESP Fit Center  567 is at  -4.104950  1.535060 -1.107251
      ESP Fit Center  568 is at  -4.104950  0.424913 -1.107251
      ESP Fit Center  569 is at  -2.761236  1.926887 -1.806498
      ESP Fit Center  570 is at   5.059860 -1.269405 -2.280038
      ESP Fit Center  571 is at   4.762906 -0.258074 -2.280038
      ESP Fit Center  572 is at   3.966326  0.432166 -2.280038
      ESP Fit Center  573 is at   1.964253 -2.683121 -2.280038
      ESP Fit Center  574 is at   2.923029 -3.120980 -2.280038
      ESP Fit Center  575 is at   3.966326 -2.970976 -2.280038
      ESP Fit Center  576 is at   4.762906 -2.280736 -2.280038
      ESP Fit Center  577 is at   4.269245 -1.269405 -3.070653
      ESP Fit Center  578 is at   3.729245 -0.334098 -3.070653
      ESP Fit Center  579 is at   2.109245 -1.269405 -3.070653
      ESP Fit Center  580 is at   2.649245 -2.204712 -3.070653
      ESP Fit Center  581 is at   3.729245 -2.204712 -3.070653
      ESP Fit Center  582 is at   3.189245 -1.269405 -3.360038
      ESP Fit Center  583 is at   4.953296 -0.368279  2.041018
      ESP Fit Center  584 is at   4.413296  0.567028  2.041018
      ESP Fit Center  585 is at   5.743911 -0.368279  1.250403
      ESP Fit Center  586 is at   5.446957  0.643052  1.250403
      ESP Fit Center  587 is at   4.650377  1.333292  1.250403
      ESP Fit Center  588 is at   3.607079  1.483296  1.250403
      ESP Fit Center  589 is at   5.446957 -1.379610  1.250403
      ESP Fit Center  590 is at   6.033296 -0.368279  0.170403
      ESP Fit Center  591 is at   5.785881  0.635523  0.170403
[...]
  288 Fit      -0.055189
  289 Fit      -0.052884
  290 Fit      -0.050078
  291 Fit      -0.053022
  292 Fit      -0.051905
  293 Fit      -0.043745
  294 Fit      -0.043898
  295 Fit      -0.048452
  296 Fit      -0.047442
  297 Fit      -0.033028
  298 Fit      -0.040102
  299 Fit      -0.037332
  300 Fit      -0.020529
  301 Fit      -0.024314
  302 Fit       0.020477
  303 Fit       0.024951
  304 Fit       0.028811
  305 Fit       0.040410
  306 Fit       0.031335
  307 Fit       0.025996
  308 Fit       0.023831
  309 Fit       0.023677
  310 Fit       0.029725
  311 Fit       0.037413
  312 Fit       0.041567
  313 Fit       0.031435
  314 Fit       0.028434
  315 Fit       0.035578
  316 Fit      -0.001807
  317 Fit       0.009623
  318 Fit       0.008330
  319 Fit      -0.002953
  320 Fit       0.015829
  321 Fit       0.016858
  322 Fit       0.015564
  323 Fit       0.012301
  324 Fit       0.013789
  325 Fit       0.019335
  326 Fit       0.020853
  327 Fit       0.021521
  328 Fit       0.022141
  329 Fit       0.017705
  330 Fit       0.021761
  331 Fit       0.023731
  332 Fit       0.026497
  333 Fit       0.029849
  334 Fit      -0.009751
  335 Fit       0.004152
  336 Fit      -0.003815
  337 Fit       0.005198
  338 Fit       0.011609
  339 Fit      -0.003623
  340 Fit       0.008355
  341 Fit       0.012320
  342 Fit       0.012641
  343 Fit       0.012149
  344 Fit       0.014052
  345 Fit       0.015778
  346 Fit       0.016331
  347 Fit       0.015950
  348 Fit       0.018996
  349 Fit       0.018398
  350 Fit       0.018510
  351 Fit      -0.020956
  352 Fit      -0.016775
  353 Fit      -0.011823
  354 Fit      -0.017445
  355 Fit      -0.028170
  356 Fit      -0.036896
  357 Fit      -0.036353
  358 Fit      -0.010699
  359 Fit      -0.006391
  360 Fit      -0.008342
  361 Fit      -0.047459
  362 Fit      -0.000064
  363 Fit       0.004795
  364 Fit       0.003066
  365 Fit      -0.000221
  366 Fit       0.013743
  367 Fit       0.010043
  368 Fit       0.006401
  369 Fit       0.001960
  370 Fit       0.018806
  371 Fit       0.020197
  372 Fit       0.014222
  373 Fit       0.009288
  374 Fit       0.004437
  375 Fit       0.024094
  376 Fit       0.015749
  377 Fit       0.012053
  378 Fit       0.023950
  379 Fit      -0.018921
  380 Fit      -0.037133
  381 Fit      -0.007834
  382 Fit      -0.010551
  383 Fit      -0.021343
  384 Fit      -0.004629
  385 Fit      -0.008338
  386 Fit      -0.020168
  387 Fit      -0.003226
  388 Fit      -0.010475
  389 Fit      -0.029256
  390 Fit       0.000541
  391 Fit      -0.001661
  392 Fit      -0.010262
  393 Fit      -0.014724
  394 Fit      -0.022211
  395 Fit      -0.017863
  396 Fit      -0.007669
  397 Fit      -0.002568
  398 Fit      -0.004355
  399 Fit      -0.019582
  400 Fit      -0.034941
  401 Fit       0.000217
  402 Fit       0.002094
  403 Fit       0.001543
  404 Fit      -0.003770
  405 Fit       0.004251
  406 Fit       0.004717
  407 Fit       0.004902
  408 Fit       0.003051
  409 Fit       0.005900
  410 Fit       0.001485
  411 Fit       0.005230
  412 Fit       0.007550
  413 Fit       0.008816
  414 Fit       0.010772
  415 Fit      -0.003121
  416 Fit       0.002840
  417 Fit       0.007277
  418 Fit       0.010000
  419 Fit       0.012200
  420 Fit       0.017295
  421 Fit       0.010875
  422 Fit      -0.000549
  423 Fit       0.004925
  424 Fit       0.009366
  425 Fit       0.012028
  426 Fit       0.006956
  427 Fit      -0.020830
  428 Fit      -0.032527
  429 Fit      -0.013815
  430 Fit      -0.022719
  431 Fit      -0.008387
  432 Fit      -0.002643
  433 Fit      -0.016387
  434 Fit      -0.005657
  435 Fit      -0.000742
  436 Fit      -0.015605
  437 Fit      -0.005302
  438 Fit      -0.014900
  439 Fit       0.004932
  440 Fit      -0.003870
  441 Fit       0.031578
  442 Fit       0.020463
  443 Fit       0.014433
  444 Fit       0.009783
  445 Fit       0.008124
  446 Fit       0.008793
  447 Fit       0.037074
  448 Fit       0.026124
  449 Fit       0.019416
  450 Fit       0.017191
  451 Fit       0.021047
  452 Fit       0.033319
  453 Fit       0.025517
  454 Fit       0.015912
  455 Fit       0.024979
  456 Fit       0.029256
  457 Fit       0.023871
  458 Fit       0.030125
  459 Fit       0.033763
  460 Fit       0.017557
  461 Fit       0.027507
  462 Fit       0.017661
  463 Fit       0.039641
  464 Fit       0.034300
  465 Fit       0.047223
  466 Fit       0.043625
  467 Fit       0.040916
  468 Fit       0.046516
  469 Fit       0.044692
  470 Fit       0.043197
  471 Fit       0.038823
  472 Fit       0.037748
  473 Fit       0.044278
  474 Fit       0.043470
  475 Fit       0.007306
  476 Fit       0.013813
  477 Fit       0.027777
  478 Fit      -0.007973
  479 Fit      -0.013928
  480 Fit      -0.002250
  481 Fit      -0.010625
  482 Fit       0.012948
  483 Fit       0.015499
  484 Fit       0.019594
  485 Fit       0.031027
  486 Fit       0.025495
  487 Fit       0.019873
  488 Fit       0.018502
  489 Fit       0.018011
  490 Fit       0.018135
  491 Fit       0.035521
  492 Fit      -0.007728
  493 Fit      -0.011391
  494 Fit       0.001174
  495 Fit      -0.002082
  496 Fit      -0.004959
  497 Fit      -0.002970
  498 Fit      -0.000850
  499 Fit       0.005282
  500 Fit       0.003157
  501 Fit      -0.031086
  502 Fit      -0.026517
  503 Fit      -0.012502
  504 Fit      -0.005250
  505 Fit      -0.000670
  506 Fit       0.001906
  507 Fit       0.000736
  508 Fit       0.006103
  509 Fit       0.007795
  510 Fit       0.012320
  511 Fit      -0.002387
  512 Fit       0.017576
  513 Fit      -0.011562
  514 Fit      -0.004545
  515 Fit      -0.008978
  516 Fit       0.018330
  517 Fit       0.001920
  518 Fit      -0.002483
  519 Fit       0.005001
  520 Fit       0.014572
  521 Fit       0.006065
  522 Fit       0.023311
  523 Fit       0.027424
  524 Fit       0.028748
  525 Fit      -0.039151
  526 Fit      -0.033764
  527 Fit      -0.034744
  528 Fit      -0.039594
  529 Fit      -0.042240
  530 Fit      -0.038859
  531 Fit      -0.035731
  532 Fit      -0.022597
  533 Fit      -0.023210
  534 Fit      -0.025418
  535 Fit      -0.046649
  536 Fit      -0.041084
  537 Fit      -0.034984
  538 Fit      -0.031354
  539 Fit      -0.027505
  540 Fit      -0.024120
  541 Fit      -0.008785
  542 Fit      -0.023611
  543 Fit      -0.020020
  544 Fit      -0.013860
  545 Fit      -0.000300
  546 Fit      -0.046216
  547 Fit      -0.045824
  548 Fit      -0.044621
  549 Fit      -0.046705
  550 Fit      -0.045728
  551 Fit      -0.042077
  552 Fit      -0.044181
  553 Fit      -0.043215
  554 Fit      -0.046078
  555 Fit      -0.045491
  556 Fit      -0.040666
  557 Fit      -0.038580
  558 Fit      -0.043507
  559 Fit      -0.043890
  560 Fit      -0.040183
  561 Fit      -0.031923
  562 Fit      -0.038781
  563 Fit      -0.039745
  564 Fit      -0.035713
  565 Fit      -0.021274
  566 Fit      -0.030786
  567 Fit      -0.031838
  568 Fit      -0.025436
  569 Fit      -0.014777
  570 Fit       0.022624
  571 Fit       0.026020
  572 Fit       0.034626
  573 Fit       0.026849
  574 Fit       0.022768
  575 Fit       0.021300
  576 Fit       0.021326
  577 Fit       0.026792
  578 Fit       0.034341
  579 Fit       0.038254
  580 Fit       0.028426
  581 Fit       0.025476
  582 Fit       0.032293
  583 Fit       0.007079
  584 Fit       0.005199
  585 Fit       0.013239
  586 Fit       0.013829
  587 Fit       0.012760
  588 Fit       0.009483
  589 Fit       0.012028
  590 Fit       0.016844
  591 Fit       0.017883
  592 Fit       0.018460
  593 Fit       0.018883
  594 Fit       0.015884
  595 Fit       0.019725
  596 Fit       0.021174
  597 Fit       0.023549
  598 Fit       0.028907
  599 Fit      -0.012153
  600 Fit       0.002292
  601 Fit      -0.006415
  602 Fit       0.002778
  603 Fit       0.010092
  604 Fit      -0.000219
  605 Fit       0.007315
  606 Fit       0.009997
  607 Fit       0.010375
  608 Fit       0.010964
  609 Fit       0.012486
  610 Fit       0.013640
  611 Fit       0.014070
  612 Fit       0.014102
  613 Fit       0.017156
  614 Fit       0.016762
  615 Fit      -0.021543
  616 Fit      -0.017259
  617 Fit      -0.012237
  618 Fit      -0.017724
  619 Fit      -0.028708
  620 Fit      -0.037438
  621 Fit      -0.010435
  622 Fit      -0.006285
  623 Fit      -0.007571
  624 Fit       0.004692
  625 Fit       0.002721
  626 Fit      -0.000033
  627 Fit       0.013496
  628 Fit       0.009351
  629 Fit       0.005993
  630 Fit       0.002386
  631 Fit       0.019852
  632 Fit       0.013568
  633 Fit       0.009110
  634 Fit       0.005112
  635 Fit       0.023947
  636 Fit       0.014894
  637 Fit       0.011639
  638 Fit       0.023962
  639 Fit      -0.018934
  640 Fit      -0.036799
  641 Fit      -0.009664
  642 Fit      -0.016517
  643 Fit      -0.034436
  644 Fit      -0.004375
  645 Fit      -0.007251
  646 Fit      -0.014873
  647 Fit      -0.033911
  648 Fit      -0.002466
  649 Fit      -0.007371
  650 Fit      -0.019128
  651 Fit       0.000792
  652 Fit      -0.011740
  653 Fit      -0.016937
  654 Fit      -0.024489
  655 Fit      -0.019361
  656 Fit      -0.008780
  657 Fit      -0.003921
  658 Fit      -0.005928
  659 Fit      -0.023598
  660 Fit      -0.002816
  661 Fit       0.000025
  662 Fit       0.001003
  663 Fit      -0.000205
  664 Fit      -0.006222
  665 Fit       0.003664
  666 Fit       0.004171
  667 Fit       0.004310
  668 Fit       0.002263
  669 Fit       0.002193
  670 Fit       0.004903
  671 Fit       0.006648
  672 Fit       0.008032
  673 Fit       0.010763
  674 Fit      -0.000590
  675 Fit       0.003784
  676 Fit       0.006865
  677 Fit       0.009053
  678 Fit       0.011641
  679 Fit       0.017661
  680 Fit      -0.000945
  681 Fit       0.003833
  682 Fit       0.007941
  683 Fit       0.010956
  684 Fit       0.006177
  685 Fit      -0.032754
  686 Fit      -0.014524
  687 Fit      -0.032958
  688 Fit      -0.014252
  689 Fit      -0.006268
  690 Fit      -0.024510
  691 Fit      -0.010481
  692 Fit      -0.004000
  693 Fit      -0.022255
  694 Fit      -0.009430
  695 Fit      -0.003090
  696 Fit      -0.004345
  697 Fit       0.030558
  698 Fit       0.019349
  699 Fit       0.013067
  700 Fit       0.008269
  701 Fit       0.004912
  702 Fit       0.004938
  703 Fit       0.034275
  704 Fit       0.023222
  705 Fit       0.016396
  706 Fit       0.014188
  707 Fit       0.018351
  708 Fit       0.030768
  709 Fit       0.022589
  710 Fit       0.011952
  711 Fit       0.021513
  712 Fit       0.025576
  713 Fit       0.021900
  714 Fit       0.026769
  715 Fit       0.030841
  716 Fit       0.024383
  717 Fit       0.035070
  718 Fit       0.030557
  719 Fit       0.040991
  720 Fit       0.037865
  721 Fit       0.035428
  722 Fit       0.040087
  723 Fit       0.038307
  724 Fit       0.037124
  725 Fit       0.033546
  726 Fit       0.033014
  727 Fit       0.038515
  728 Fit       0.037389
  729 Fit       0.001732
  730 Fit       0.003772
  731 Fit       0.019428
  732 Fit      -0.003367
  733 Fit      -0.008915
  734 Fit      -0.004958
  735 Fit       0.010117
  736 Fit       0.012955
  737 Fit       0.016637
  738 Fit       0.020238
  739 Fit       0.014889
  740 Fit       0.015103
  741 Fit       0.018864
  742 Fit       0.021021
  743 Fit       0.029564
  744 Fit       0.022395
  745 Fit       0.019000
  746 Fit       0.017823
  747 Fit       0.034336
  748 Fit      -0.008346
  749 Fit      -0.011891
  750 Fit      -0.033952
  751 Fit      -0.001824
  752 Fit      -0.003126
  753 Fit      -0.005283
  754 Fit      -0.008028
  755 Fit       0.008624
  756 Fit      -0.003504
  757 Fit      -0.000346
  758 Fit       0.001674
  759 Fit       0.006926
  760 Fit       0.004885
  761 Fit      -0.029711
  762 Fit      -0.025081
  763 Fit      -0.013275
  764 Fit      -0.006902
  765 Fit      -0.004281
  766 Fit      -0.001270
  767 Fit      -0.002388
  768 Fit       0.000354
  769 Fit       0.002425
  770 Fit       0.003683
  771 Fit      -0.001323
  772 Fit       0.010029
  773 Fit       0.016615
  774 Fit      -0.004889
  775 Fit       0.018821
  776 Fit      -0.008900
  777 Fit      -0.003624
  778 Fit       0.012908
  779 Fit      -0.005614
  780 Fit       0.017956
  781 Fit       0.004300
  782 Fit       0.000568
  783 Fit       0.006136
  784 Fit       0.013660
  785 Fit       0.007929
  786 Fit       0.025273
  787 Fit       0.025690
  788 Fit       0.026672
  789 Fit      -0.033076
  790 Fit      -0.028554
  791 Fit      -0.029819
  792 Fit      -0.034079
  793 Fit      -0.036074
  794 Fit      -0.032996
  795 Fit      -0.030048
  796 Fit      -0.020565
  797 Fit      -0.021114
  798 Fit      -0.022989
  799 Fit      -0.039928
  800 Fit      -0.038909
  801 Fit      -0.033449
  802 Fit      -0.029389
  803 Fit      -0.026528
  804 Fit      -0.023660
  805 Fit      -0.021483
  806 Fit      -0.007675
  807 Fit      -0.011135
  808 Fit      -0.021519
  809 Fit      -0.018667
  810 Fit      -0.014064
  811 Fit      -0.007350
  812 Fit      -0.040080
  813 Fit      -0.041172
  814 Fit      -0.038911
  815 Fit      -0.040041
  816 Fit      -0.039192
  817 Fit      -0.036861
  818 Fit      -0.039811
  819 Fit      -0.036564
  820 Fit      -0.039112
  821 Fit      -0.039535
  822 Fit      -0.037553
  823 Fit      -0.032925
  824 Fit      -0.036979
  825 Fit      -0.038243
  826 Fit      -0.036851
  827 Fit      -0.031531
  828 Fit      -0.029936
  829 Fit      -0.034528
  830 Fit      -0.035566
  831 Fit      -0.033808
  832 Fit      -0.028296
  833 Fit      -0.031021
  834 Fit      -0.029877
  835 Fit      -0.020354
  836 Fit      -0.023915
  837 Fit      -0.022243
  838 Fit       0.018176
  839 Fit       0.017763
  840 Fit       0.018105
  841 Fit       0.021617
  842 Fit       0.024914
  843 Fit       0.032806
  844 Fit       0.025322
  845 Fit       0.021745
  846 Fit       0.020324
  847 Fit       0.020328
  848 Fit       0.025048
  849 Fit       0.031508
  850 Fit       0.026445
  851 Fit       0.023800
  852 Fit       0.029516
  853 Fit       0.003982
  854 Fit       0.001577
  855 Fit       0.009921
  856 Fit       0.009997
  857 Fit       0.008322
  858 Fit       0.003471
  859 Fit       0.009110
  860 Fit       0.013555
  861 Fit       0.014120
  862 Fit       0.014160
  863 Fit       0.013560
  864 Fit       0.012943
  865 Fit       0.016240
  866 Fit       0.017047
  867 Fit       0.017938
  868 Fit       0.019238
  869 Fit       0.019238
  870 Fit       0.020487
  871 Fit       0.023407
  872 Fit      -0.013427
  873 Fit      -0.000488
  874 Fit      -0.009120
  875 Fit      -0.000315
  876 Fit       0.007054
  877 Fit      -0.005036
  878 Fit       0.003363
  879 Fit       0.006497
  880 Fit       0.007267
  881 Fit       0.005499
  882 Fit       0.008745
  883 Fit       0.010362
  884 Fit       0.011019
  885 Fit       0.011245
  886 Fit       0.014288
  887 Fit       0.013414
  888 Fit       0.013520
  889 Fit       0.013733
  890 Fit      -0.021419
  891 Fit      -0.017743
  892 Fit      -0.013216
  893 Fit      -0.017807
  894 Fit      -0.027051
  895 Fit      -0.034232
  896 Fit      -0.012428
  897 Fit      -0.007725
  898 Fit      -0.008454
  899 Fit      -0.002691
  900 Fit       0.000525
  901 Fit       0.009975
  902 Fit       0.006509
  903 Fit       0.003784
  904 Fit       0.000910
  905 Fit       0.016230
  906 Fit       0.011162
  907 Fit       0.007636
  908 Fit       0.004460
  909 Fit       0.001312
  910 Fit       0.021035
  911 Fit       0.014027
  912 Fit       0.009645
  913 Fit       0.006317
  914 Fit       0.023969
  915 Fit       0.015154
  916 Fit       0.012684
  917 Fit      -0.019304
  918 Fit      -0.033700
  919 Fit      -0.011098
  920 Fit      -0.017696
  921 Fit      -0.032954
  922 Fit      -0.007805
  923 Fit      -0.013302
  924 Fit      -0.025420
  925 Fit      -0.004808
  926 Fit      -0.009671
  927 Fit      -0.020081
  928 Fit      -0.001226
  929 Fit      -0.005709
  930 Fit      -0.014153
  931 Fit      -0.012607
  932 Fit      -0.017302
  933 Fit      -0.023666
  934 Fit      -0.018931
  935 Fit      -0.009851
  936 Fit      -0.005628
  937 Fit      -0.007663
  938 Fit      -0.004644
  939 Fit      -0.001782
  940 Fit      -0.000939
  941 Fit      -0.002454
  942 Fit      -0.008768
  943 Fit       0.001292
  944 Fit       0.002079
  945 Fit       0.002183
  946 Fit       0.000938
  947 Fit      -0.004589
  948 Fit       0.003942
  949 Fit       0.005225
  950 Fit       0.000117
  951 Fit       0.003094
  952 Fit       0.005246
  953 Fit       0.006885
  954 Fit       0.008701
  955 Fit       0.012297
  956 Fit      -0.000352
  957 Fit       0.003294
  958 Fit       0.006026
  959 Fit       0.008219
  960 Fit       0.010887
  961 Fit       0.015858
  962 Fit       0.000101
  963 Fit       0.003476
  964 Fit       0.006926
  965 Fit       0.009775
  966 Fit       0.005778
  967 Fit      -0.030367
  968 Fit      -0.015507
  969 Fit      -0.031495
  970 Fit      -0.015541
  971 Fit      -0.008024
  972 Fit      -0.016577
  973 Fit      -0.008153
  974 Fit      -0.003525
  975 Fit      -0.013955
  976 Fit      -0.006503
  977 Fit      -0.018575
  978 Fit      -0.008889
  979 Fit       0.001266
  980 Fit      -0.004653
  981 Fit       0.027974
  982 Fit       0.018327
  983 Fit       0.012543
  984 Fit       0.008325
  985 Fit       0.005644
  986 Fit       0.005607
  987 Fit       0.029621
  988 Fit       0.020986
  989 Fit       0.014964
  990 Fit       0.013143
  991 Fit       0.017125
  992 Fit       0.027125
  993 Fit       0.020270
  994 Fit       0.015811
  995 Fit       0.020944
  996 Fit       0.025084
  997 Fit       0.018909
  998 Fit       0.023470
  999 Fit       0.021491
 1000 Fit       0.032481
 1001 Fit       0.029547
 1002 Fit       0.036008
 1003 Fit       0.033679
 1004 Fit       0.031829
 1005 Fit       0.031568
 1006 Fit       0.034820
 1007 Fit       0.033432
 1008 Fit       0.032277
 1009 Fit       0.029818
 1010 Fit       0.029878
 1011 Fit       0.033717
 1012 Fit       0.032660
 -----------------------------------------------------------------
 Leave Link  602 at Mon Feb 26 23:17:09 2018, MaxMem=   33554432 cpu:       0.9

 Test job not archived.
 1\1\GINC-NODE053\SP\RHF\6-31G(d)\C6H12N2O2\WULSDORT\26-Feb-2018\0\\#HF
 /6-31G* Geom=AllCheck Guess=Read Pop=(MK,ReadRadii) Integral=(Grid=Ult
 raFine) iop(6/33=2)\\Optimization for frag0-conf2\\0,1\C,0,-1.26348436
 13,0.0111265662,-1.2504358822\C,0,-2.1026115963,0.5461811416,1.7650410
 766\C,0,-0.3467675079,-0.1822229097,-2.4508305322\C,0,-3.0062464277,-1
 .6000880801,0.7528709476\C,0,-1.4075498182,2.866856108,2.1825703263\C,
 0,-1.7452061335,-0.7884275183,1.066641288\N,0,-1.1791314578,1.53910658
 64,1.6415048831\N,0,-0.8557899469,-0.6171918635,-0.0933696476\O,0,-2.2
 819460581,0.6848641098,-1.3048221547\O,0,-3.1030942034,0.6300433296,2.
 4657871787\H,0,0.675462535,-0.4635397204,-2.1770670811\H,0,-0.76030587
 13,-0.9667181441,-3.0954582198\H,0,-0.3259024261,0.7439118995,-3.02945
 15586\H,0,-3.6012855816,-1.0959786187,-0.0114640221\H,0,-2.7336359923,
 -2.5994988936,0.3963837548\H,0,-3.6119482442,-1.6924702449,1.656329510
 9\H,0,-1.7798840723,3.5597289847,1.4168631175\H,0,-0.4810843132,3.2688
 104696,2.6061276072\H,0,-2.1584196527,2.7804449745,2.9690690846\H,0,-1
 .1468690997,-1.3393012816,1.8041037832\H,0,-0.4721137438,1.4194492404,
 0.9307515103\H,0,-0.0918105836,-1.2748225789,-0.1746286419\\Version=AM
 64L-G09RevC.01\State=1-A\HF=-492.8489847\RMSD=3.562e-09\Dipole=2.26383
 15,-0.8367346,-0.7802816\Quadrupole=-1.7297504,4.8217546,-3.0920043,0.
 2681443,-0.3487765,2.6714213\PG=C01 [X(C6H12N2O2)]\\@


 EXPERIENCE IS THE FRUIT OF THE TREE OF ERRORS.
 Job cpu time:  0 days  0 hours  1 minutes 31.7 seconds.
 File lengths (MBytes):  RWF=     19 Int=      0 D2E=      0 Chk=      4 Scr=      1
 Normal termination of Gaussian 09 at Mon Feb 26 23:17:09 2018.
