 Entering Gaussian System, Link 0=g09
 Initial command:
 /home/fb_chem/chemsoft/lx24-amd64/Gaussian_09_C.01_NBO_3.1_64_istanbul-64/g09/l1.exe /local/2426248.1.parallel/Gau-10739.inp -scrdir=/local/2426248.1.parallel/
 Entering Link 1 = /home/fb_chem/chemsoft/lx24-amd64/Gaussian_09_C.01_NBO_3.1_64_istanbul-64/g09/l1.exe PID=     10740.
  
 Copyright (c) 1988,1990,1992,1993,1995,1998,2003,2009,2011,
            Gaussian, Inc.  All Rights Reserved.
  
 This is part of the Gaussian(R) 09 program.  It is based on
 the Gaussian(R) 03 system (copyright 2003, Gaussian, Inc.),
 the Gaussian(R) 98 system (copyright 1998, Gaussian, Inc.),
 the Gaussian(R) 94 system (copyright 1995, Gaussian, Inc.),
 the Gaussian 92(TM) system (copyright 1992, Gaussian, Inc.),
 the Gaussian 90(TM) system (copyright 1990, Gaussian, Inc.),
 the Gaussian 88(TM) system (copyright 1988, Gaussian, Inc.),
 the Gaussian 86(TM) system (copyright 1986, Carnegie Mellon
 University), and the Gaussian 82(TM) system (copyright 1983,
 Carnegie Mellon University). Gaussian is a federally registered
 trademark of Gaussian, Inc.
  
 This software contains proprietary and confidential information,
 including trade secrets, belonging to Gaussian, Inc.
  
 This software is provided under written license and may be
 used, copied, transmitted, or stored only in accord with that
 written license.
  
 The following legend is applicable only to US Government
 contracts under FAR:
  
                    RESTRICTED RIGHTS LEGEND
  
 Use, reproduction and disclosure by the US Government is
 subject to restrictions as set forth in subparagraphs (a)
 and (c) of the Commercial Computer Software - Restricted
 Rights clause in FAR 52.227-19.
  
 Gaussian, Inc.
 340 Quinnipiac St., Bldg. 40, Wallingford CT 06492
  
  
 ---------------------------------------------------------------
 Warning -- This program may not be used in any manner that
 competes with the business of Gaussian, Inc. or will provide
 assistance to any competitor of Gaussian, Inc.  The licensee
 of this program is prohibited from giving any competitor of
 Gaussian, Inc. access to this program.  By using this program,
 the user acknowledges that Gaussian, Inc. is engaged in the
 business of creating and licensing software in the field of
 computational chemistry and represents and warrants to the
 licensee that it is not a competitor of Gaussian, Inc. and that
 it will not use this program in any manner prohibited above.
 ---------------------------------------------------------------
  

 Cite this work as:
 Gaussian 09, Revision C.01,
 M. J. Frisch, G. W. Trucks, H. B. Schlegel, G. E. Scuseria, 
 M. A. Robb, J. R. Cheeseman, G. Scalmani, V. Barone, B. Mennucci, 
 G. A. Petersson, H. Nakatsuji, M. Caricato, X. Li, H. P. Hratchian, 
 A. F. Izmaylov, J. Bloino, G. Zheng, J. L. Sonnenberg, M. Hada, 
 M. Ehara, K. Toyota, R. Fukuda, J. Hasegawa, M. Ishida, T. Nakajima, 
 Y. Honda, O. Kitao, H. Nakai, T. Vreven, J. A. Montgomery, Jr., 
 J. E. Peralta, F. Ogliaro, M. Bearpark, J. J. Heyd, E. Brothers, 
 K. N. Kudin, V. N. Staroverov, T. Keith, R. Kobayashi, J. Normand, 
 K. Raghavachari, A. Rendell, J. C. Burant, S. S. Iyengar, J. Tomasi, 
 M. Cossi, N. Rega, J. M. Millam, M. Klene, J. E. Knox, J. B. Cross, 
 V. Bakken, C. Adamo, J. Jaramillo, R. Gomperts, R. E. Stratmann, 
 O. Yazyev, A. J. Austin, R. Cammi, C. Pomelli, J. W. Ochterski, 
 R. L. Martin, K. Morokuma, V. G. Zakrzewski, G. A. Voth, 
 P. Salvador, J. J. Dannenberg, S. Dapprich, A. D. Daniels, 
 O. Farkas, J. B. Foresman, J. V. Ortiz, J. Cioslowski, 
 and D. J. Fox, Gaussian, Inc., Wallingford CT, 2010.
 
 ******************************************
 Gaussian 09:  AM64L-G09RevC.01 23-Sep-2011
                26-Feb-2018 
 ******************************************
 %nprocs=4
 Will use up to    4 processors via shared memory.
 %chk=frag0-conf2.chk
 ---------------------------------------------------------
 #B3LYP/6-31G* Integral=(Grid=UltraFine) freq Opt pop=none
 ---------------------------------------------------------
 1/14=-1,18=20,19=15,26=3,38=1/1,3;
 2/9=110,12=2,17=6,18=5,40=1/2;
 3/5=1,6=6,7=1,11=2,16=1,25=1,30=1,71=1,74=-5,75=-5/1,2,3;
 4//1;
 5/5=2,38=5/2;
 7//1,2,3,16;
 1/14=-1,18=20,19=15/3(2);
 2/9=110/2;
 99//99;
 2/9=110/2;
 3/5=1,6=6,7=1,11=2,16=1,25=1,30=1,71=1,74=-5,75=-5/1,2,3;
 4/5=5,16=3/1;
 5/5=2,38=5/2;
 7//1,2,3,16;
 1/14=-1,18=20,19=15/3(-5);
 2/9=110/2;
 99/9=1/99;
 ----------------------------
 Optimization for frag0-conf2
 ----------------------------
 Charge =  0 Multiplicity = 1
 Symbolic Z-Matrix:
 C                    -1.3555   -0.10868  -1.30879 
 C                    -2.18693   0.5725    1.69526 
 C                    -0.3049   -0.11546  -2.38545 
 C                    -2.99695  -1.6755    0.81104 
 C                    -1.38644   2.88093   2.10914 
 C                    -1.78773  -0.78341   1.06497 
 N                    -1.23409   1.561     1.55366 
 N                    -0.92903  -0.63509  -0.11423 
 O                    -2.47509   0.36686  -1.48151 
 O                    -3.19122   0.7295    2.39162 
 H                     0.30313  -1.02279  -2.32877 
 H                    -0.78752  -0.08207  -3.36605 
 H                     0.33875   0.76004  -2.26585 
 H                    -3.72331  -1.19721   0.14625 
 H                    -2.69486  -2.62417   0.35499 
 H                    -3.5169   -1.89983   1.74871 
 H                    -2.11166   3.43293   1.50576 
 H                    -0.41828   3.38584   2.08244 
 H                    -1.74623   2.8134    3.1392 
 H                    -1.15419  -1.2777    1.81291 
 H                    -0.43486   1.35859   0.95691 
 H                     0.01419  -1.00944  -0.05569 
 

 GradGradGradGradGradGradGradGradGradGradGradGradGradGradGradGradGradGrad
 Berny optimization.
 Initialization pass.
                           ----------------------------
                           !    Initial Parameters    !
                           ! (Angstroms and Degrees)  !
 --------------------------                            --------------------------
 ! Name  Definition              Value          Derivative Info.                !
 --------------------------------------------------------------------------------
 ! R1    R(1,3)                  1.5043         estimate D2E/DX2                !
 ! R2    R(1,8)                  1.3733         estimate D2E/DX2                !
 ! R3    R(1,9)                  1.2286         estimate D2E/DX2                !
 ! R4    R(2,6)                  1.5476         estimate D2E/DX2                !
 ! R5    R(2,7)                  1.3803         estimate D2E/DX2                !
 ! R6    R(2,10)                 1.2321         estimate D2E/DX2                !
 ! R7    R(3,11)                 1.0937         estimate D2E/DX2                !
 ! R8    R(3,12)                 1.0934         estimate D2E/DX2                !
 ! R9    R(3,13)                 1.0932         estimate D2E/DX2                !
 ! R10   R(4,6)                  1.524          estimate D2E/DX2                !
 ! R11   R(4,14)                 1.0947         estimate D2E/DX2                !
 ! R12   R(4,15)                 1.0951         estimate D2E/DX2                !
 ! R13   R(4,16)                 1.0954         estimate D2E/DX2                !
 ! R14   R(5,7)                  1.4401         estimate D2E/DX2                !
 ! R15   R(5,17)                 1.093          estimate D2E/DX2                !
 ! R16   R(5,18)                 1.0922         estimate D2E/DX2                !
 ! R17   R(5,19)                 1.0932         estimate D2E/DX2                !
 ! R18   R(6,8)                  1.4662         estimate D2E/DX2                !
 ! R19   R(6,20)                 1.0978         estimate D2E/DX2                !
 ! R20   R(7,21)                 1.0178         estimate D2E/DX2                !
 ! R21   R(8,22)                 1.0165         estimate D2E/DX2                !
 ! A1    A(3,1,8)              113.8254         estimate D2E/DX2                !
 ! A2    A(3,1,9)              122.5169         estimate D2E/DX2                !
 ! A3    A(8,1,9)              123.6172         estimate D2E/DX2                !
 ! A4    A(6,2,7)              114.0545         estimate D2E/DX2                !
 ! A5    A(6,2,10)             123.5083         estimate D2E/DX2                !
 ! A6    A(7,2,10)             121.9653         estimate D2E/DX2                !
 ! A7    A(1,3,11)             110.7874         estimate D2E/DX2                !
 ! A8    A(1,3,12)             109.479          estimate D2E/DX2                !
 ! A9    A(1,3,13)             109.2252         estimate D2E/DX2                !
 ! A10   A(11,3,12)            108.4928         estimate D2E/DX2                !
 ! A11   A(11,3,13)            109.3544         estimate D2E/DX2                !
 ! A12   A(12,3,13)            109.4832         estimate D2E/DX2                !
 ! A13   A(6,4,14)             111.8343         estimate D2E/DX2                !
 ! A14   A(6,4,15)             110.9534         estimate D2E/DX2                !
 ! A15   A(6,4,16)             110.7251         estimate D2E/DX2                !
 ! A16   A(14,4,15)            107.977          estimate D2E/DX2                !
 ! A17   A(14,4,16)            107.1194         estimate D2E/DX2                !
 ! A18   A(15,4,16)            108.0604         estimate D2E/DX2                !
 ! A19   A(7,5,17)             108.6708         estimate D2E/DX2                !
 ! A20   A(7,5,18)             108.6925         estimate D2E/DX2                !
 ! A21   A(7,5,19)             109.9769         estimate D2E/DX2                !
 ! A22   A(17,5,18)            109.948          estimate D2E/DX2                !
 ! A23   A(17,5,19)            109.4494         estimate D2E/DX2                !
 ! A24   A(18,5,19)            110.0803         estimate D2E/DX2                !
 ! A25   A(2,6,4)              112.0888         estimate D2E/DX2                !
 ! A26   A(2,6,8)              112.953          estimate D2E/DX2                !
 ! A27   A(2,6,20)             105.419          estimate D2E/DX2                !
 ! A28   A(4,6,8)              112.9481         estimate D2E/DX2                !
 ! A29   A(4,6,20)             107.9308         estimate D2E/DX2                !
 ! A30   A(8,6,20)             104.8036         estimate D2E/DX2                !
 ! A31   A(2,7,5)              122.9426         estimate D2E/DX2                !
 ! A32   A(2,7,21)             117.3763         estimate D2E/DX2                !
 ! A33   A(5,7,21)             119.4395         estimate D2E/DX2                !
 ! A34   A(1,8,6)              123.8115         estimate D2E/DX2                !
 ! A35   A(1,8,22)             118.6479         estimate D2E/DX2                !
 ! A36   A(6,8,22)             117.3785         estimate D2E/DX2                !
 ! D1    D(8,1,3,11)            37.4355         estimate D2E/DX2                !
 ! D2    D(8,1,3,12)           157.0485         estimate D2E/DX2                !
 ! D3    D(8,1,3,13)           -83.0822         estimate D2E/DX2                !
 ! D4    D(9,1,3,11)          -144.8052         estimate D2E/DX2                !
 ! D5    D(9,1,3,12)           -25.1922         estimate D2E/DX2                !
 ! D6    D(9,1,3,13)            94.6771         estimate D2E/DX2                !
 ! D7    D(3,1,8,6)           -177.5324         estimate D2E/DX2                !
 ! D8    D(3,1,8,22)            -2.2874         estimate D2E/DX2                !
 ! D9    D(9,1,8,6)              4.7365         estimate D2E/DX2                !
 ! D10   D(9,1,8,22)           179.9816         estimate D2E/DX2                !
 ! D11   D(7,2,6,4)           -160.3008         estimate D2E/DX2                !
 ! D12   D(7,2,6,8)            -31.3367         estimate D2E/DX2                !
 ! D13   D(7,2,6,20)            82.5319         estimate D2E/DX2                !
 ! D14   D(10,2,6,4)            27.4578         estimate D2E/DX2                !
 ! D15   D(10,2,6,8)           156.4219         estimate D2E/DX2                !
 ! D16   D(10,2,6,20)          -89.7095         estimate D2E/DX2                !
 ! D17   D(6,2,7,5)           -177.7002         estimate D2E/DX2                !
 ! D18   D(6,2,7,21)             7.9871         estimate D2E/DX2                !
 ! D19   D(10,2,7,5)            -5.3248         estimate D2E/DX2                !
 ! D20   D(10,2,7,21)         -179.6375         estimate D2E/DX2                !
 ! D21   D(14,4,6,2)            58.7282         estimate D2E/DX2                !
 ! D22   D(14,4,6,8)           -70.2384         estimate D2E/DX2                !
 ! D23   D(14,4,6,20)          174.3804         estimate D2E/DX2                !
 ! D24   D(15,4,6,2)           179.356          estimate D2E/DX2                !
 ! D25   D(15,4,6,8)            50.3893         estimate D2E/DX2                !
 ! D26   D(15,4,6,20)          -64.9919         estimate D2E/DX2                !
 ! D27   D(16,4,6,2)           -60.6552         estimate D2E/DX2                !
 ! D28   D(16,4,6,8)           170.3781         estimate D2E/DX2                !
 ! D29   D(16,4,6,20)           54.9969         estimate D2E/DX2                !
 ! D30   D(17,5,7,2)           -74.3992         estimate D2E/DX2                !
 ! D31   D(17,5,7,21)           99.8013         estimate D2E/DX2                !
 ! D32   D(18,5,7,2)           165.964          estimate D2E/DX2                !
 ! D33   D(18,5,7,21)          -19.8356         estimate D2E/DX2                !
 ! D34   D(19,5,7,2)            45.3899         estimate D2E/DX2                !
 ! D35   D(19,5,7,21)         -140.4096         estimate D2E/DX2                !
 ! D36   D(2,6,8,1)            -68.6381         estimate D2E/DX2                !
 ! D37   D(2,6,8,22)           116.061          estimate D2E/DX2                !
 ! D38   D(4,6,8,1)             59.8819         estimate D2E/DX2                !
 ! D39   D(4,6,8,22)          -115.419          estimate D2E/DX2                !
 ! D40   D(20,6,8,1)           177.121          estimate D2E/DX2                !
 ! D41   D(20,6,8,22)            1.8201         estimate D2E/DX2                !
 --------------------------------------------------------------------------------
 Trust Radius=3.00D-01 FncErr=1.00D-07 GrdErr=1.00D-06
 Number of steps in this run=    108 maximum allowed number of steps=    132.
 GradGradGradGradGradGradGradGradGradGradGradGradGradGradGradGradGradGrad

                          Input orientation:                          
 ---------------------------------------------------------------------
 Center     Atomic      Atomic             Coordinates (Angstroms)
 Number     Number       Type             X           Y           Z
 ---------------------------------------------------------------------
      1          6           0       -1.355500   -0.108683   -1.308790
      2          6           0       -2.186935    0.572498    1.695258
      3          6           0       -0.304897   -0.115457   -2.385454
      4          6           0       -2.996947   -1.675497    0.811045
      5          6           0       -1.386437    2.880933    2.109144
      6          6           0       -1.787729   -0.783408    1.064972
      7          7           0       -1.234089    1.560996    1.553662
      8          7           0       -0.929029   -0.635091   -0.114229
      9          8           0       -2.475090    0.366865   -1.481506
     10          8           0       -3.191225    0.729500    2.391619
     11          1           0        0.303127   -1.022794   -2.328773
     12          1           0       -0.787517   -0.082070   -3.366054
     13          1           0        0.338748    0.760043   -2.265854
     14          1           0       -3.723314   -1.197207    0.146252
     15          1           0       -2.694856   -2.624168    0.354985
     16          1           0       -3.516901   -1.899830    1.748713
     17          1           0       -2.111662    3.432935    1.505760
     18          1           0       -0.418283    3.385845    2.082436
     19          1           0       -1.746231    2.813402    3.139197
     20          1           0       -1.154192   -1.277696    1.812911
     21          1           0       -0.434858    1.358588    0.956912
     22          1           0        0.014190   -1.009442   -0.055690
 ---------------------------------------------------------------------
                    Distance matrix (angstroms):
                    1          2          3          4          5
     1  C    0.000000
     2  C    3.190547   0.000000
     3  C    1.504333   4.546158   0.000000
     4  C    3.105311   2.547829   4.460770   0.000000
     5  C    4.541039   2.478098   5.509037   5.003985   0.000000
     6  C    2.505359   1.547613   3.814497   1.523979   3.831283
     7  N    3.316052   1.380251   4.380699   3.759527   1.440140
     8  N    1.373302   2.512935   2.412058   2.492963   4.185097
     9  O    1.228600   3.196427   2.399894   3.114380   4.516466
    10  O    4.214909   1.232139   5.644933   2.884436   2.822360
    11  H    2.151049   4.993815   1.093694   4.601627   6.147261
    12  H    2.134397   5.291853   1.093441   4.986858   6.254270
    13  H    2.130994   4.701558   1.093199   5.150342   5.158977
    14  H    2.984723   2.809223   4.389225   1.094678   5.093639
    15  H    3.299952   3.503282   4.417640   1.095091   5.924118
    16  H    4.150684   2.807859   5.531030   1.095398   5.246378
    17  H    4.586560   2.867695   5.567498   5.230912   1.093037
    18  H    4.958882   3.345587   5.677500   5.820921   1.092232
    19  H    5.336276   2.702005   6.416964   5.209107   1.093171
    20  H    3.339480   2.122172   4.438284   2.134883   4.175630
    21  H    2.851994   2.057393   3.655285   3.973821   2.133231
    22  H    2.063414   3.226965   2.515716   3.203406   4.667256
                    6          7          8          9         10
     6  C    0.000000
     7  N    2.457960   0.000000
     8  N    1.466247   2.774477   0.000000
     9  O    2.877524   3.489739   2.294268   0.000000
    10  O    2.453301   2.285594   3.641279   3.955433   0.000000
    11  H    3.993306   4.910429   2.563733   3.219861   6.128877
    12  H    4.596335   5.206026   3.301549   2.569235   6.291841
    13  H    4.242470   4.207617   2.860620   2.947452   5.844117
    14  H    2.182147   3.973000   2.862142   2.579531   3.006158
    15  H    2.171487   4.591978   2.700877   3.516713   3.954914
    16  H    2.168855   4.150493   3.430335   4.081371   2.726310
    17  H    4.251679   2.067990   4.535617   4.296117   3.042822
    18  H    4.504807   2.067659   4.610219   5.103565   3.852398
    19  H    4.152249   2.084402   4.810894   5.278984   2.643772
    20  H    1.097770   2.851625   2.043895   3.911845   2.917745
    21  H    2.535761   1.017767   2.316528   3.330457   3.170441
    22  H    2.133984   3.279538   1.016478   3.181774   4.391802
                   11         12         13         14         15
    11  H    0.000000
    12  H    1.774941   0.000000
    13  H    1.784303   1.785516   0.000000
    14  H    4.729524   4.711553   5.113652   0.000000
    15  H    4.330688   4.893500   5.246374   1.771303   0.000000
    16  H    5.655766   6.075741   6.169092   1.761864   1.772822
    17  H    6.355185   6.151683   5.232011   5.087622   6.192971
    18  H    6.278161   6.469066   5.135714   5.972972   6.654857
    19  H    6.986771   7.184789   6.146381   5.380665   6.182143
    20  H    4.397988   5.327818   4.797663   3.063432   2.512405
    21  H    4.124479   4.570328   3.367929   4.243018   4.618685
    22  H    2.291412   3.530052   2.849779   3.747662   3.180397
                   16         17         18         19         20
    16  H    0.000000
    17  H    5.520154   0.000000
    18  H    6.136054   1.789498   0.000000
    19  H    5.223339   1.784790   1.791055   0.000000
    20  H    2.444087   4.816755   4.728934   4.341270   0.000000
    21  H    4.554473   2.723201   2.318803   2.932329   2.863593
    22  H    4.064143   5.166438   4.906849   5.283987   2.220078
                   21         22
    21  H    0.000000
    22  H    2.614302   0.000000
 Stoichiometry    C6H12N2O2
 Framework group  C1[X(C6H12N2O2)]
 Deg. of freedom    60
 Full point group                 C1      NOp   1
 Largest Abelian subgroup         C1      NOp   1
 Largest concise Abelian subgroup C1      NOp   1
                         Standard orientation:                         
 ---------------------------------------------------------------------
 Center     Atomic      Atomic             Coordinates (Angstroms)
 Number     Number       Type             X           Y           Z
 ---------------------------------------------------------------------
      1          6           0        1.766445   -0.365777    0.243068
      2          6           0       -1.326518    0.354960   -0.063055
      3          6           0        2.936106   -1.222565   -0.157965
      4          6           0        0.263255    2.343515    0.035445
      5          6           0       -2.537589   -1.803056    0.068267
      6          6           0       -0.086536    1.044702   -0.680963
      7          7           0       -1.433296   -0.987277   -0.366524
      8          7           0        1.060245    0.141657   -0.819829
      9          8           0        1.455561   -0.180134    1.417097
     10          8           0       -2.223197    0.964805    0.521943
     11          1           0        3.426700   -0.817861   -1.047740
     12          1           0        3.664295   -1.250233    0.657258
     13          1           0        2.584661   -2.236303   -0.367498
     14          1           0        0.465052    2.180295    1.098909
     15          1           0        1.148945    2.809629   -0.408984
     16          1           0       -0.565023    3.057382   -0.029732
     17          1           0       -2.421667   -2.008907    1.135468
     18          1           0       -2.524832   -2.738618   -0.495232
     19          1           0       -3.480377   -1.276089   -0.100488
     20          1           0       -0.373886    1.293580   -1.710812
     21          1           0       -0.648232   -1.422541   -0.846179
     22          1           0        1.385831   -0.059033   -1.761607
 ---------------------------------------------------------------------
 Rotational constants (GHZ):      1.8023053      0.9634763      0.7503908
 Standard basis: 6-31G(d) (6D, 7F)
 There are   174 symmetry adapted basis functions of A   symmetry.
 Integral buffers will be    131072 words long.
 Raffenetti 2 integral format.
 Two-electron integral symmetry is turned on.
   174 basis functions,   328 primitive gaussians,   174 cartesian basis functions
    39 alpha electrons       39 beta electrons
       nuclear repulsion energy       562.9360538575 Hartrees.
 NAtoms=   22 NActive=   22 NUniq=   22 SFac= 1.00D+00 NAtFMM=   60 NAOKFM=F Big=F
 One-electron integrals computed using PRISM.
 NBasis=   174 RedAO= T  NBF=   174
 NBsUse=   174 1.00D-06 NBFU=   174
 Harris functional with IExCor=  402 diagonalized for initial guess.
 ExpMin= 1.61D-01 ExpMax= 5.48D+03 ExpMxC= 8.25D+02 IAcc=3 IRadAn=         5 AccDes= 0.00D+00
 HarFok:  IExCor=  402 AccDes= 0.00D+00 IRadAn=         5 IDoV= 1
 ScaDFX=  1.000000  1.000000  1.000000  1.000000
 FoFCou: FMM=F IPFlag=           0 FMFlag=      100000 FMFlg1=           0
         NFxFlg=           0 DoJE=T BraDBF=F KetDBF=T FulRan=T
         Omega=  0.000000  0.000000  1.000000  0.000000  0.000000 ICntrl=     500 IOpCl=  0
         NMat0=    1 NMatS0=    1 NMatT0=    0 NMatD0=    1 NMtDS0=    0 NMtDT0=    0
         I1Cent=           4 NGrid=           0.
 Petite list used in FoFCou.
 Initial guess orbital symmetries:
       Occupied  (A) (A) (A) (A) (A) (A) (A) (A) (A) (A) (A) (A)
                 (A) (A) (A) (A) (A) (A) (A) (A) (A) (A) (A) (A)
                 (A) (A) (A) (A) (A) (A) (A) (A) (A) (A) (A) (A)
                 (A) (A) (A)
       Virtual   (A) (A) (A) (A) (A) (A) (A) (A) (A) (A) (A) (A)
                 (A) (A) (A) (A) (A) (A) (A) (A) (A) (A) (A) (A)
                 (A) (A) (A) (A) (A) (A) (A) (A) (A) (A) (A) (A)
                 (A) (A) (A) (A) (A) (A) (A) (A) (A) (A) (A) (A)
                 (A) (A) (A) (A) (A) (A) (A) (A) (A) (A) (A) (A)
                 (A) (A) (A) (A) (A) (A) (A) (A) (A) (A) (A) (A)
                 (A) (A) (A) (A) (A) (A) (A) (A) (A) (A) (A) (A)
                 (A) (A) (A) (A) (A) (A) (A) (A) (A) (A) (A) (A)
                 (A) (A) (A) (A) (A) (A) (A) (A) (A) (A) (A) (A)
                 (A) (A) (A) (A) (A) (A) (A) (A) (A) (A) (A) (A)
                 (A) (A) (A) (A) (A) (A) (A) (A) (A) (A) (A) (A)
                 (A) (A) (A)
 The electronic state of the initial guess is 1-A.
 Requested convergence on RMS density matrix=1.00D-08 within 128 cycles.
 Requested convergence on MAX density matrix=1.00D-06.
 Requested convergence on             energy=1.00D-06.
 No special actions if energy rises.
 Integral accuracy reduced to 1.0D-05 until final iterations.
 Initial convergence to 1.0D-05 achieved.  Increase integral accuracy.
 SCF Done:  E(RB3LYP) =  -495.841165084     A.U. after   15 cycles
             Convg  =    0.6682D-08             -V/T =  2.0095
 Calling FoFJK, ICntrl=      2127 FMM=F ISym2X=0 I1Cent= 0 IOpClX= 0 NMat=1 NMatS=1 NMatT=0.
 ***** Axes restored to original set *****
 -------------------------------------------------------------------
 Center     Atomic                   Forces (Hartrees/Bohr)
 Number     Number              X              Y              Z
 -------------------------------------------------------------------
      1        6          -0.012055821    0.004831801   -0.000105215
      2        6           0.004985713    0.017159293    0.012073075
      3        6           0.002380961   -0.004241819   -0.006507465
      4        6          -0.011433898   -0.003394984   -0.000371909
      5        6          -0.003339512    0.000191261   -0.002076266
      6        6          -0.001631257   -0.001046657    0.000265152
      7        7           0.001797859   -0.023718128   -0.005287556
      8        7           0.003363794    0.000135144    0.004108831
      9        8           0.007529369   -0.004802668    0.005539750
     10        8           0.009581215   -0.005812921   -0.011757967
     11        1           0.003810103    0.000637144   -0.001208786
     12        1           0.000563380    0.002240616    0.001703034
     13        1           0.002579090    0.001004871   -0.002406859
     14        1           0.003312431    0.001044503    0.000430863
     15        1           0.002466942    0.000414982    0.000522086
     16        1           0.002198285    0.001925559    0.000124875
     17        1          -0.001391718    0.006972225    0.002914589
     18        1          -0.000535407    0.001608321    0.000807706
     19        1          -0.000565149    0.001207798   -0.000127803
     20        1           0.000032694    0.000861854    0.000704368
     21        1          -0.007642535    0.002520435    0.002983866
     22        1          -0.006006540    0.000261368   -0.002328369
 -------------------------------------------------------------------
 Cartesian Forces:  Max     0.023718128 RMS     0.005646106

 GradGradGradGradGradGradGradGradGradGradGradGradGradGradGradGradGradGrad
 Berny optimization.
 Internal  Forces:  Max     0.016013810 RMS     0.004042102
 Search for a local minimum.
 Step number   1 out of a maximum of  108
 All quantities printed in internal units (Hartrees-Bohrs-Radians)
 Mixed Optimization -- RFO/linear search
 Second derivative matrix not updated -- first step.
 ITU=  0
     Eigenvalues ---    0.00230   0.00449   0.00709   0.00815   0.00953
     Eigenvalues ---    0.01161   0.01255   0.01325   0.01486   0.01953
     Eigenvalues ---    0.02045   0.03766   0.05316   0.05494   0.05600
     Eigenvalues ---    0.06583   0.07361   0.07505   0.07752   0.07893
     Eigenvalues ---    0.15949   0.15966   0.16000   0.16000   0.16000
     Eigenvalues ---    0.16000   0.16000   0.16000   0.16000   0.16000
     Eigenvalues ---    0.16000   0.18360   0.19355   0.22008   0.22012
     Eigenvalues ---    0.24788   0.24981   0.25000   0.25000   0.27855
     Eigenvalues ---    0.29987   0.31927   0.33930   0.34196   0.34231
     Eigenvalues ---    0.34278   0.34389   0.34418   0.34446   0.34449
     Eigenvalues ---    0.34464   0.34556   0.36193   0.39566   0.44696
     Eigenvalues ---    0.44905   0.49056   0.50347   0.90201   0.91672
 RFO step:  Lambda=-6.51892431D-03 EMin= 2.30000000D-03
 Linear search not attempted -- first point.
 Iteration  1 RMS(Cart)=  0.08626004 RMS(Int)=  0.00343955
 Iteration  2 RMS(Cart)=  0.00499850 RMS(Int)=  0.00064386
 Iteration  3 RMS(Cart)=  0.00001066 RMS(Int)=  0.00064383
 Iteration  4 RMS(Cart)=  0.00000000 RMS(Int)=  0.00064383
 Variable       Old X    -DE/DX   Delta X   Delta X   Delta X     New X
                                 (Linear)    (Quad)   (Total)
    R1        2.84278   0.01255   0.00000   0.03851   0.03851   2.88129
    R2        2.59516   0.00098   0.00000   0.00192   0.00192   2.59709
    R3        2.32172  -0.00950   0.00000  -0.01029  -0.01029   2.31143
    R4        2.92457  -0.00083   0.00000  -0.00289  -0.00289   2.92167
    R5        2.60830  -0.01601   0.00000  -0.03222  -0.03222   2.57608
    R6        2.32841  -0.01520   0.00000  -0.01673  -0.01673   2.31168
    R7        2.06678   0.00153   0.00000   0.00436   0.00436   2.07114
    R8        2.06630  -0.00171   0.00000  -0.00487  -0.00487   2.06144
    R9        2.06585   0.00206   0.00000   0.00587   0.00587   2.07171
   R10        2.87990   0.00263   0.00000   0.00858   0.00858   2.88849
   R11        2.06864  -0.00200   0.00000  -0.00574  -0.00574   2.06290
   R12        2.06942   0.00010   0.00000   0.00030   0.00030   2.06972
   R13        2.07000  -0.00133   0.00000  -0.00382  -0.00382   2.06618
   R14        2.72147   0.01035   0.00000   0.02573   0.02573   2.74720
   R15        2.06554   0.00284   0.00000   0.00807   0.00807   2.07361
   R16        2.06402   0.00025   0.00000   0.00071   0.00071   2.06473
   R17        2.06579  -0.00001   0.00000  -0.00003  -0.00003   2.06577
   R18        2.77080   0.00224   0.00000   0.00609   0.00609   2.77689
   R19        2.07449   0.00011   0.00000   0.00032   0.00032   2.07481
   R20        1.92330  -0.00825   0.00000  -0.01820  -0.01820   1.90510
   R21        1.92086  -0.00580   0.00000  -0.01274  -0.01274   1.90812
    A1        1.98663   0.00622   0.00000   0.02423   0.02423   2.01086
    A2        2.13832   0.00210   0.00000   0.00820   0.00820   2.14653
    A3        2.15753  -0.00831   0.00000  -0.03243  -0.03243   2.12510
    A4        1.99063   0.00767   0.00000   0.03533   0.03228   2.02291
    A5        2.15563  -0.00952   0.00000  -0.03240  -0.03543   2.12020
    A6        2.12870   0.00214   0.00000   0.01443   0.01137   2.14006
    A7        1.93360   0.00471   0.00000   0.03265   0.03246   1.96606
    A8        1.91077  -0.00181   0.00000  -0.01163  -0.01165   1.89912
    A9        1.90634   0.00311   0.00000   0.01515   0.01499   1.92133
   A10        1.89356  -0.00005   0.00000   0.00666   0.00660   1.90015
   A11        1.90859  -0.00366   0.00000  -0.02030  -0.02060   1.88800
   A12        1.91084  -0.00241   0.00000  -0.02330  -0.02328   1.88756
   A13        1.95188  -0.00277   0.00000  -0.01647  -0.01658   1.93529
   A14        1.93650  -0.00237   0.00000  -0.01476  -0.01488   1.92162
   A15        1.93252  -0.00250   0.00000  -0.01465  -0.01476   1.91776
   A16        1.88455   0.00269   0.00000   0.01553   0.01540   1.89996
   A17        1.86959   0.00289   0.00000   0.01832   0.01822   1.88781
   A18        1.88601   0.00252   0.00000   0.01480   0.01469   1.90070
   A19        1.89666   0.01035   0.00000   0.06554   0.06512   1.96179
   A20        1.89704   0.00095   0.00000   0.00498   0.00461   1.90165
   A21        1.91946  -0.00061   0.00000  -0.00632  -0.00644   1.91302
   A22        1.91895  -0.00426   0.00000  -0.02005  -0.02070   1.89826
   A23        1.91025  -0.00462   0.00000  -0.02634  -0.02651   1.88374
   A24        1.92126  -0.00163   0.00000  -0.01657  -0.01662   1.90465
   A25        1.95632  -0.00409   0.00000  -0.02399  -0.02400   1.93232
   A26        1.97140   0.00226   0.00000   0.01053   0.01055   1.98195
   A27        1.83991   0.00028   0.00000  -0.00336  -0.00342   1.83649
   A28        1.97132   0.00141   0.00000   0.00697   0.00699   1.97830
   A29        1.88375   0.00097   0.00000   0.00552   0.00540   1.88915
   A30        1.82917  -0.00069   0.00000   0.00572   0.00567   1.83484
   A31        2.14575  -0.00488   0.00000  -0.02228  -0.02254   2.12321
   A32        2.04860   0.00250   0.00000   0.00990   0.00964   2.05824
   A33        2.08461   0.00229   0.00000   0.00881   0.00855   2.09316
   A34        2.16092  -0.00080   0.00000  -0.00397  -0.00410   2.15682
   A35        2.07080  -0.00081   0.00000  -0.00625  -0.00637   2.06443
   A36        2.04864   0.00156   0.00000   0.00810   0.00796   2.05660
    D1        0.65337  -0.00040   0.00000  -0.00658  -0.00649   0.64689
    D2        2.74101   0.00132   0.00000   0.01457   0.01460   2.75561
    D3       -1.45006  -0.00082   0.00000  -0.01170  -0.01183  -1.46189
    D4       -2.52733  -0.00050   0.00000  -0.00715  -0.00705  -2.53438
    D5       -0.43969   0.00121   0.00000   0.01400   0.01403  -0.42565
    D6        1.65243  -0.00093   0.00000  -0.01228  -0.01239   1.64003
    D7       -3.09853   0.00013   0.00000   0.00729   0.00720  -3.09132
    D8       -0.03992  -0.00042   0.00000  -0.02336  -0.02330  -0.06322
    D9        0.08267  -0.00003   0.00000   0.00681   0.00674   0.08941
   D10        3.14127  -0.00058   0.00000  -0.02384  -0.02376   3.11751
   D11       -2.79778   0.00136   0.00000   0.11595   0.11513  -2.68264
   D12       -0.54693   0.00171   0.00000   0.11379   0.11291  -0.43402
   D13        1.44045   0.00215   0.00000   0.12378   0.12285   1.56331
   D14        0.47923  -0.00131   0.00000  -0.02755  -0.02662   0.45261
   D15        2.73008  -0.00096   0.00000  -0.02972  -0.02885   2.70123
   D16       -1.56573  -0.00051   0.00000  -0.01972  -0.01890  -1.58462
   D17       -3.10145  -0.00040   0.00000  -0.05661  -0.05789   3.12384
   D18        0.13940   0.00050   0.00000  -0.01535  -0.01664   0.12276
   D19       -0.09294   0.00119   0.00000   0.08031   0.08160  -0.01133
   D20       -3.13527   0.00210   0.00000   0.12157   0.12285  -3.01241
   D21        1.02500   0.00114   0.00000   0.03758   0.03758   1.06258
   D22       -1.22589   0.00035   0.00000   0.03788   0.03789  -1.18801
   D23        3.04351  -0.00020   0.00000   0.02356   0.02353   3.06704
   D24        3.13035   0.00104   0.00000   0.03593   0.03594  -3.11689
   D25        0.87946   0.00025   0.00000   0.03623   0.03625   0.91571
   D26       -1.13432  -0.00030   0.00000   0.02191   0.02189  -1.11243
   D27       -1.05863   0.00099   0.00000   0.03515   0.03516  -1.02347
   D28        2.97366   0.00020   0.00000   0.03545   0.03547   3.00913
   D29        0.95988  -0.00035   0.00000   0.02113   0.02111   0.98099
   D30       -1.29851   0.00075   0.00000   0.02115   0.02134  -1.27718
   D31        1.74186  -0.00017   0.00000  -0.02091  -0.02071   1.72115
   D32        2.89662  -0.00069   0.00000   0.00432   0.00407   2.90069
   D33       -0.34620  -0.00161   0.00000  -0.03775  -0.03798  -0.38417
   D34        0.79220   0.00109   0.00000   0.02537   0.02541   0.81761
   D35       -2.45061   0.00017   0.00000  -0.01669  -0.01664  -2.46725
   D36       -1.19796   0.00161   0.00000   0.04445   0.04443  -1.15353
   D37        2.02565   0.00226   0.00000   0.07537   0.07543   2.10107
   D38        1.04514  -0.00087   0.00000   0.02631   0.02627   1.07140
   D39       -2.01444  -0.00022   0.00000   0.05723   0.05727  -1.95717
   D40        3.09134   0.00059   0.00000   0.04005   0.03999   3.13134
   D41        0.03177   0.00124   0.00000   0.07096   0.07099   0.10276
         Item               Value     Threshold  Converged?
 Maximum Force            0.016014     0.000450     NO 
 RMS     Force            0.004042     0.000300     NO 
 Maximum Displacement     0.269981     0.001800     NO 
 RMS     Displacement     0.086889     0.001200     NO 
 Predicted change in Energy=-3.655255D-03
 GradGradGradGradGradGradGradGradGradGradGradGradGradGradGradGradGradGrad

                          Input orientation:                          
 ---------------------------------------------------------------------
 Center     Atomic      Atomic             Coordinates (Angstroms)
 Number     Number       Type             X           Y           Z
 ---------------------------------------------------------------------
      1          6           0       -1.299482   -0.085193   -1.266902
      2          6           0       -2.112407    0.531417    1.744950
      3          6           0       -0.277051   -0.115010   -2.397605
      4          6           0       -3.022770   -1.642790    0.827052
      5          6           0       -1.450237    2.877848    2.072634
      6          6           0       -1.759763   -0.821208    1.084332
      7          7           0       -1.230125    1.547825    1.528574
      8          7           0       -0.899180   -0.689947   -0.099519
      9          8           0       -2.384364    0.471225   -1.364573
     10          8           0       -3.127650    0.670566    2.413048
     11          1           0        0.289564   -1.052634   -2.429597
     12          1           0       -0.798563    0.014645   -3.346922
     13          1           0        0.434741    0.710940   -2.283413
     14          1           0       -3.698927   -1.115716    0.151267
     15          1           0       -2.759547   -2.608485    0.382398
     16          1           0       -3.550302   -1.818358    1.768519
     17          1           0       -2.248164    3.417754    1.547370
     18          1           0       -0.524478    3.452390    1.991026
     19          1           0       -1.732613    2.801238    3.125908
     20          1           0       -1.148675   -1.353280    1.825240
     21          1           0       -0.477966    1.389345    0.876285
     22          1           0       -0.001665   -1.152310   -0.083557
 ---------------------------------------------------------------------
                    Distance matrix (angstroms):
                    1          2          3          4          5
     1  C    0.000000
     2  C    3.179986   0.000000
     3  C    1.524711   4.576807   0.000000
     4  C    3.127375   2.529520   4.502388   0.000000
     5  C    4.467084   2.459996   5.506051   4.945756   0.000000
     6  C    2.506368   1.546082   3.849810   1.528521   3.841297
     7  N    3.238248   1.363204   4.369011   3.726356   1.453757
     8  N    1.374319   2.523037   2.449244   2.505210   4.213202
     9  O    1.223155   3.121973   2.419007   3.111245   4.298700
    10  O    4.177967   1.223289   5.646718   2.806777   2.793151
    11  H    2.193825   5.070062   1.095999   4.682478   6.224602
    12  H    2.141815   5.283976   1.090865   5.011611   6.163943
    13  H    2.162095   4.769476   1.096304   5.212429   5.217641
    14  H    2.971619   2.787457   4.382624   1.091642   4.969588
    15  H    3.349475   3.483436   4.484264   1.095249   5.888212
    16  H    4.157383   2.754912   5.565263   1.093378   5.153358
    17  H    4.592469   2.896275   5.650535   5.169911   1.097310
    18  H    4.871265   3.333790   5.661064   5.792854   1.092606
    19  H    5.274075   2.683911   6.413452   5.167072   1.093157
    20  H    3.345464   2.118327   4.486141   2.142994   4.249068
    21  H    2.728077   2.040102   3.608574   3.958825   2.142942
    22  H    2.055084   3.260921   2.550813   3.193251   4.794756
                    6          7          8          9         10
     6  C    0.000000
     7  N    2.467830   0.000000
     8  N    1.469468   2.787084   0.000000
     9  O    2.838599   3.295700   2.270342   0.000000
    10  O    2.421154   2.269907   3.623543   3.855209   0.000000
    11  H    4.074432   4.973828   2.640818   3.256733   6.172356
    12  H    4.610702   5.129070   3.324485   2.579329   6.247571
    13  H    4.301748   4.243042   2.917400   2.974741   5.894829
    14  H    2.172027   3.884123   2.843019   2.558169   2.938165
    15  H    2.164864   4.574687   2.715510   3.560517   3.874431
    16  H    2.160659   4.095361   3.433850   4.051897   2.605531
    17  H    4.292055   2.129176   4.626577   4.144876   3.011634
    18  H    4.540007   2.083067   4.655076   4.858659   3.833165
    19  H    4.158231   2.091653   4.825595   5.100800   2.644629
    20  H    1.097940   2.917371   2.051086   3.876938   2.890988
    21  H    2.563754   1.008137   2.335181   3.082003   3.146285
    22  H    2.136470   3.376212   1.009736   3.155015   4.396327
                   11         12         13         14         15
    11  H    0.000000
    12  H    1.778929   0.000000
    13  H    1.775568   1.771135   0.000000
    14  H    4.751094   4.682644   5.133376   0.000000
    15  H    4.430019   4.963275   5.322463   1.778825   0.000000
    16  H    5.740652   6.090953   6.220617   1.769548   1.780709
    17  H    6.499285   6.134867   5.403677   4.960460   6.159077
    18  H    6.363946   6.355069   5.167831   5.859132   6.657133
    19  H    7.057277   7.108803   6.190923   5.296925   6.151955
    20  H    4.501395   5.361441   4.863048   3.059805   2.500448
    21  H    4.181055   4.452871   3.358118   4.144342   4.629491
    22  H    2.366147   3.556175   2.915736   3.704892   3.153327
                   16         17         18         19         20
    16  H    0.000000
    17  H    5.400124   0.000000
    18  H    6.081603   1.780204   0.000000
    19  H    5.146568   1.771346   1.780883   0.000000
    20  H    2.446901   4.903963   4.848873   4.392350   0.000000
    21  H    4.530418   2.774599   2.345413   2.937411   2.978650
    22  H    4.057909   5.347164   5.077448   5.378418   2.235962
                   21         22
    21  H    0.000000
    22  H    2.758291   0.000000
 Stoichiometry    C6H12N2O2
 Framework group  C1[X(C6H12N2O2)]
 Deg. of freedom    60
 Full point group                 C1      NOp   1
 Largest Abelian subgroup         C1      NOp   1
 Largest concise Abelian subgroup C1      NOp   1
                         Standard orientation:                         
 ---------------------------------------------------------------------
 Center     Atomic      Atomic             Coordinates (Angstroms)
 Number     Number       Type             X           Y           Z
 ---------------------------------------------------------------------
      1          6           0        1.747616   -0.354892    0.231376
      2          6           0       -1.334509    0.332042   -0.144032
      3          6           0        2.997760   -1.143965   -0.141782
      4          6           0        0.166892    2.342954    0.172981
      5          6           0       -2.459653   -1.846160    0.058624
      6          6           0       -0.092632    1.091340   -0.665162
      7          7           0       -1.361817   -1.007709   -0.394327
      8          7           0        1.094027    0.238891   -0.821712
      9          8           0        1.322105   -0.283506    1.375908
     10          8           0       -2.228239    0.908191    0.460728
     11          1           0        3.569580   -0.671821   -0.948824
     12          1           0        3.635532   -1.229769    0.739055
     13          1           0        2.722555   -2.155084   -0.463934
     14          1           0        0.358063    2.080609    1.215243
     15          1           0        1.032963    2.886182   -0.219950
     16          1           0       -0.707005    2.999298    0.141492
     17          1           0       -2.435116   -2.018045    1.142110
     18          1           0       -2.403505   -2.810699   -0.451573
     19          1           0       -3.411664   -1.367121   -0.184659
     20          1           0       -0.354472    1.407793   -1.683381
     21          1           0       -0.539381   -1.429767   -0.796579
     22          1           0        1.503203    0.164752   -1.741846
 ---------------------------------------------------------------------
 Rotational constants (GHZ):      1.8125720      0.9831220      0.7586557
 Standard basis: 6-31G(d) (6D, 7F)
 There are   174 symmetry adapted basis functions of A   symmetry.
 Integral buffers will be    131072 words long.
 Raffenetti 2 integral format.
 Two-electron integral symmetry is turned on.
   174 basis functions,   328 primitive gaussians,   174 cartesian basis functions
    39 alpha electrons       39 beta electrons
       nuclear repulsion energy       565.0794437576 Hartrees.
 NAtoms=   22 NActive=   22 NUniq=   22 SFac= 1.00D+00 NAtFMM=   60 NAOKFM=F Big=F
 One-electron integrals computed using PRISM.
 NBasis=   174 RedAO= T  NBF=   174
 NBsUse=   174 1.00D-06 NBFU=   174
 Initial guess read from the read-write file.
 B after Tr=     0.000000    0.000000    0.000000
         Rot=    1.000000    0.000000    0.000000    0.000000 Ang=   0.00 deg.
 Initial guess orbital symmetries:
       Occupied  (A) (A) (A) (A) (A) (A) (A) (A) (A) (A) (A) (A)
                 (A) (A) (A) (A) (A) (A) (A) (A) (A) (A) (A) (A)
                 (A) (A) (A) (A) (A) (A) (A) (A) (A) (A) (A) (A)
                 (A) (A) (A)
       Virtual   (A) (A) (A) (A) (A) (A) (A) (A) (A) (A) (A) (A)
                 (A) (A) (A) (A) (A) (A) (A) (A) (A) (A) (A) (A)
                 (A) (A) (A) (A) (A) (A) (A) (A) (A) (A) (A) (A)
                 (A) (A) (A) (A) (A) (A) (A) (A) (A) (A) (A) (A)
                 (A) (A) (A) (A) (A) (A) (A) (A) (A) (A) (A) (A)
                 (A) (A) (A) (A) (A) (A) (A) (A) (A) (A) (A) (A)
                 (A) (A) (A) (A) (A) (A) (A) (A) (A) (A) (A) (A)
                 (A) (A) (A) (A) (A) (A) (A) (A) (A) (A) (A) (A)
                 (A) (A) (A) (A) (A) (A) (A) (A) (A) (A) (A) (A)
                 (A) (A) (A) (A) (A) (A) (A) (A) (A) (A) (A) (A)
                 (A) (A) (A) (A) (A) (A) (A) (A) (A) (A) (A) (A)
                 (A) (A) (A)
 Harris functional with IExCor=  402 diagonalized for initial guess.
 ExpMin= 1.61D-01 ExpMax= 5.48D+03 ExpMxC= 8.25D+02 IAcc=3 IRadAn=         5 AccDes= 0.00D+00
 HarFok:  IExCor=  402 AccDes= 0.00D+00 IRadAn=         5 IDoV= 1
 ScaDFX=  1.000000  1.000000  1.000000  1.000000
 FoFCou: FMM=F IPFlag=           0 FMFlag=      100000 FMFlg1=           0
         NFxFlg=           0 DoJE=T BraDBF=F KetDBF=T FulRan=T
         Omega=  0.000000  0.000000  1.000000  0.000000  0.000000 ICntrl=     500 IOpCl=  0
         NMat0=    1 NMatS0=    1 NMatT0=    0 NMatD0=    1 NMtDS0=    0 NMtDT0=    0
         I1Cent=           4 NGrid=           0.
 Petite list used in FoFCou.
 Requested convergence on RMS density matrix=1.00D-08 within 128 cycles.
 Requested convergence on MAX density matrix=1.00D-06.
 Requested convergence on             energy=1.00D-06.
 No special actions if energy rises.
 Integral accuracy reduced to 1.0D-05 until final iterations.
 Initial convergence to 1.0D-05 achieved.  Increase integral accuracy.
 SCF Done:  E(RB3LYP) =  -495.843859384     A.U. after   13 cycles
             Convg  =    0.6303D-08             -V/T =  2.0094
 Calling FoFJK, ICntrl=      2127 FMM=F ISym2X=0 I1Cent= 0 IOpClX= 0 NMat=1 NMatS=1 NMatT=0.
 ***** Axes restored to original set *****
 -------------------------------------------------------------------
 Center     Atomic                   Forces (Hartrees/Bohr)
 Number     Number              X              Y              Z
 -------------------------------------------------------------------
      1        6          -0.003369837    0.000282571    0.001103462
      2        6          -0.003596519    0.009510546   -0.010486562
      3        6          -0.000057062   -0.001324825    0.000180881
      4        6          -0.003596296   -0.002211124   -0.000250387
      5        6           0.000147859   -0.000653917    0.000044277
      6        6           0.002225672   -0.001357425    0.002332246
      7        7           0.000873835   -0.003262241    0.004443965
      8        7           0.002881008    0.001996830    0.001560518
      9        8           0.001236032    0.000092358   -0.002162121
     10        8           0.001127424   -0.002597339    0.004900381
     11        1           0.000261772    0.000415227    0.000580817
     12        1          -0.000709033    0.000581630    0.000191934
     13        1           0.000224069    0.000243875   -0.000079709
     14        1           0.000925148    0.000294714   -0.000170614
     15        1           0.000598540   -0.000040420    0.000341623
     16        1           0.000739213    0.000863127   -0.000411584
     17        1          -0.000151162   -0.001326820   -0.000706371
     18        1           0.000453461    0.000025003    0.000084552
     19        1          -0.000244050   -0.000076568   -0.000046133
     20        1           0.000672719   -0.000597432   -0.000598778
     21        1          -0.000242993    0.000981832   -0.000404998
     22        1          -0.000399798   -0.001839601   -0.000447399
 -------------------------------------------------------------------
 Cartesian Forces:  Max     0.010486562 RMS     0.002321289

 GradGradGradGradGradGradGradGradGradGradGradGradGradGradGradGradGradGrad
 Berny optimization.
 Using GEDIIS/GDIIS optimizer.
 Internal  Forces:  Max     0.003624207 RMS     0.001070660
 Search for a local minimum.
 Step number   2 out of a maximum of  108
 All quantities printed in internal units (Hartrees-Bohrs-Radians)
 Mixed Optimization -- RFO/linear search
 Update second derivatives using D2CorX and points    1    2
 DE= -2.69D-03 DEPred=-3.66D-03 R= 7.37D-01
 SS=  1.41D+00  RLast= 3.48D-01 DXNew= 5.0454D-01 1.0439D+00
 Trust test= 7.37D-01 RLast= 3.48D-01 DXMaxT set to 5.05D-01
 ITU=  1  0
 Use linear search instead of GDIIS.
     Eigenvalues ---    0.00231   0.00444   0.00708   0.00798   0.01160
     Eigenvalues ---    0.01238   0.01294   0.01389   0.01537   0.02031
     Eigenvalues ---    0.02054   0.03822   0.05390   0.05660   0.05757
     Eigenvalues ---    0.06512   0.07074   0.07405   0.07453   0.07805
     Eigenvalues ---    0.14766   0.15906   0.15938   0.16000   0.16000
     Eigenvalues ---    0.16000   0.16000   0.16000   0.16000   0.16000
     Eigenvalues ---    0.16667   0.18075   0.19221   0.21464   0.22018
     Eigenvalues ---    0.23795   0.24993   0.25000   0.26118   0.27977
     Eigenvalues ---    0.29843   0.31882   0.33931   0.34157   0.34231
     Eigenvalues ---    0.34260   0.34393   0.34416   0.34429   0.34449
     Eigenvalues ---    0.34473   0.34562   0.36226   0.39878   0.44216
     Eigenvalues ---    0.44883   0.47444   0.50358   0.89762   0.91359
 RFO step:  Lambda=-2.47076123D-03 EMin= 2.31011760D-03
 Quartic linear search produced a step of -0.14797.
 Iteration  1 RMS(Cart)=  0.07761533 RMS(Int)=  0.00271565
 Iteration  2 RMS(Cart)=  0.00512849 RMS(Int)=  0.00120043
 Iteration  3 RMS(Cart)=  0.00000805 RMS(Int)=  0.00120041
 Iteration  4 RMS(Cart)=  0.00000002 RMS(Int)=  0.00120041
 Variable       Old X    -DE/DX   Delta X   Delta X   Delta X     New X
                                 (Linear)    (Quad)   (Total)
    R1        2.88129  -0.00084  -0.00570   0.02035   0.01465   2.89594
    R2        2.59709   0.00099  -0.00028   0.00280   0.00252   2.59961
    R3        2.31143  -0.00088   0.00152  -0.00686  -0.00534   2.30609
    R4        2.92167   0.00172   0.00043   0.00353   0.00396   2.92563
    R5        2.57608  -0.00322   0.00477  -0.02447  -0.01970   2.55638
    R6        2.31168   0.00144   0.00247  -0.00845  -0.00598   2.30570
    R7        2.07114  -0.00024  -0.00064   0.00197   0.00132   2.07246
    R8        2.06144   0.00024   0.00072  -0.00226  -0.00154   2.05990
    R9        2.07171   0.00032  -0.00087   0.00423   0.00336   2.07507
   R10        2.88849   0.00177  -0.00127   0.01003   0.00876   2.89725
   R11        2.06290  -0.00033   0.00085  -0.00417  -0.00332   2.05958
   R12        2.06972   0.00004  -0.00004   0.00028   0.00023   2.06995
   R13        2.06618  -0.00085   0.00057  -0.00434  -0.00378   2.06240
   R14        2.74720  -0.00212  -0.00381   0.01053   0.00672   2.75393
   R15        2.07361  -0.00020  -0.00119   0.00423   0.00303   2.07665
   R16        2.06473   0.00039  -0.00010   0.00137   0.00127   2.06600
   R17        2.06577   0.00002   0.00000   0.00004   0.00005   2.06581
   R18        2.77689  -0.00067  -0.00090   0.00200   0.00110   2.77799
   R19        2.07481   0.00026  -0.00005   0.00084   0.00079   2.07560
   R20        1.90510  -0.00007   0.00269  -0.01081  -0.00812   1.89698
   R21        1.90812   0.00048   0.00189  -0.00656  -0.00468   1.90345
    A1        2.01086  -0.00186  -0.00359   0.00796   0.00437   2.01523
    A2        2.14653  -0.00176  -0.00121  -0.00110  -0.00232   2.14420
    A3        2.12510   0.00362   0.00480  -0.00666  -0.00186   2.12323
    A4        2.02291   0.00099  -0.00478   0.02098   0.00979   2.03269
    A5        2.12020  -0.00211   0.00524  -0.02910  -0.02999   2.09021
    A6        2.14006   0.00115  -0.00168   0.00923   0.00067   2.14073
    A7        1.96606  -0.00001  -0.00480   0.01948   0.01468   1.98074
    A8        1.89912  -0.00100   0.00172  -0.01186  -0.01014   1.88898
    A9        1.92133   0.00018  -0.00222   0.00880   0.00657   1.92790
   A10        1.90015   0.00090  -0.00098   0.01011   0.00914   1.90930
   A11        1.88800  -0.00016   0.00305  -0.01333  -0.01030   1.87770
   A12        1.88756   0.00011   0.00344  -0.01441  -0.01097   1.87659
   A13        1.93529  -0.00092   0.00245  -0.01477  -0.01236   1.92293
   A14        1.92162  -0.00047   0.00220  -0.01106  -0.00889   1.91273
   A15        1.91776  -0.00079   0.00218  -0.01287  -0.01073   1.90703
   A16        1.89996   0.00072  -0.00228   0.01275   0.01043   1.91038
   A17        1.88781   0.00083  -0.00270   0.01461   0.01187   1.89967
   A18        1.90070   0.00069  -0.00217   0.01249   0.01029   1.91099
   A19        1.96179  -0.00228  -0.00964   0.02497   0.01536   1.97714
   A20        1.90165   0.00028  -0.00068   0.00488   0.00422   1.90587
   A21        1.91302   0.00030   0.00095  -0.00224  -0.00127   1.91176
   A22        1.89826   0.00094   0.00306  -0.00765  -0.00456   1.89370
   A23        1.88374   0.00065   0.00392  -0.01389  -0.00994   1.87380
   A24        1.90465   0.00016   0.00246  -0.00702  -0.00456   1.90009
   A25        1.93232  -0.00043   0.00355  -0.01471  -0.01116   1.92116
   A26        1.98195   0.00062  -0.00156   0.00963   0.00807   1.99002
   A27        1.83649   0.00026   0.00051   0.00184   0.00235   1.83884
   A28        1.97830  -0.00015  -0.00103   0.00292   0.00190   1.98020
   A29        1.88915   0.00019  -0.00080   0.00324   0.00246   1.89161
   A30        1.83484  -0.00048  -0.00084  -0.00234  -0.00319   1.83165
   A31        2.12321  -0.00151   0.00334  -0.01980  -0.01676   2.10646
   A32        2.05824   0.00153  -0.00143   0.01125   0.00951   2.06775
   A33        2.09316  -0.00011  -0.00126   0.00210   0.00056   2.09372
   A34        2.15682   0.00006   0.00061  -0.00335  -0.00337   2.15345
   A35        2.06443   0.00013   0.00094  -0.00501  -0.00469   2.05974
   A36        2.05660  -0.00029  -0.00118   0.00148  -0.00034   2.05626
    D1        0.64689  -0.00032   0.00096  -0.01513  -0.01416   0.63272
    D2        2.75561   0.00012  -0.00216   0.00202  -0.00015   2.75546
    D3       -1.46189  -0.00024   0.00175  -0.01745  -0.01570  -1.47759
    D4       -2.53438  -0.00017   0.00104  -0.00957  -0.00852  -2.54290
    D5       -0.42565   0.00027  -0.00208   0.00758   0.00549  -0.42016
    D6        1.64003  -0.00009   0.00183  -0.01189  -0.01006   1.62997
    D7       -3.09132   0.00044  -0.00107   0.03121   0.03009  -3.06123
    D8       -0.06322  -0.00060   0.00345  -0.04140  -0.03790  -0.10112
    D9        0.08941   0.00043  -0.00100   0.02560   0.02454   0.11395
   D10        3.11751  -0.00062   0.00352  -0.04702  -0.04345   3.07406
   D11       -2.68264  -0.00162  -0.01704  -0.04460  -0.06045  -2.74309
   D12       -0.43402  -0.00167  -0.01671  -0.04525  -0.06078  -0.49480
   D13        1.56331  -0.00178  -0.01818  -0.04216  -0.05914   1.50417
   D14        0.45261   0.00210   0.00394   0.14867   0.15142   0.60403
   D15        2.70123   0.00204   0.00427   0.14802   0.15109   2.85232
   D16       -1.58462   0.00194   0.00280   0.15111   0.15273  -1.43190
   D17        3.12384   0.00126   0.00857   0.07938   0.08902  -3.07033
   D18        0.12276   0.00194   0.00246   0.13172   0.13537   0.25813
   D19       -0.01133  -0.00249  -0.01207  -0.11615  -0.12941  -0.14075
   D20       -3.01241  -0.00181  -0.01818  -0.06382  -0.08306  -3.09548
   D21        1.06258   0.00029  -0.00556   0.05055   0.04500   1.10757
   D22       -1.18801  -0.00007  -0.00561   0.04756   0.04195  -1.14605
   D23        3.06704   0.00048  -0.00348   0.04668   0.04320   3.11024
   D24       -3.11689   0.00029  -0.00532   0.04962   0.04431  -3.07258
   D25        0.91571  -0.00007  -0.00536   0.04663   0.04127   0.95698
   D26       -1.11243   0.00048  -0.00324   0.04575   0.04251  -1.06991
   D27       -1.02347   0.00035  -0.00520   0.05000   0.04479  -0.97868
   D28        3.00913  -0.00001  -0.00525   0.04701   0.04175   3.05088
   D29        0.98099   0.00054  -0.00312   0.04613   0.04300   1.02399
   D30       -1.27718   0.00031  -0.00316   0.02232   0.01911  -1.25807
   D31        1.72115  -0.00026   0.00306  -0.03037  -0.02725   1.69389
   D32        2.90069   0.00040  -0.00060   0.01255   0.01190   2.91259
   D33       -0.38417  -0.00017   0.00562  -0.04014  -0.03446  -0.41863
   D34        0.81761  -0.00015  -0.00376   0.01948   0.01566   0.83327
   D35       -2.46725  -0.00072   0.00246  -0.03321  -0.03070  -2.49795
   D36       -1.15353  -0.00020  -0.00657   0.00795   0.00137  -1.15217
   D37        2.10107   0.00081  -0.01116   0.08066   0.06950   2.17057
   D38        1.07140  -0.00038  -0.00389  -0.00163  -0.00551   1.06589
   D39       -1.95717   0.00063  -0.00847   0.07108   0.06262  -1.89456
   D40        3.13134  -0.00053  -0.00592   0.00239  -0.00353   3.12780
   D41        0.10276   0.00048  -0.01050   0.07510   0.06460   0.16736
         Item               Value     Threshold  Converged?
 Maximum Force            0.003624     0.000450     NO 
 RMS     Force            0.001071     0.000300     NO 
 Maximum Displacement     0.263815     0.001800     NO 
 RMS     Displacement     0.074473     0.001200     NO 
 Predicted change in Energy=-1.495626D-03
 GradGradGradGradGradGradGradGradGradGradGradGradGradGradGradGradGradGrad

                          Input orientation:                          
 ---------------------------------------------------------------------
 Center     Atomic      Atomic             Coordinates (Angstroms)
 Number     Number       Type             X           Y           Z
 ---------------------------------------------------------------------
      1          6           0       -1.284009   -0.106430   -1.303128
      2          6           0       -2.138330    0.579895    1.690377
      3          6           0       -0.268129   -0.188117   -2.447577
      4          6           0       -3.016241   -1.620548    0.816205
      5          6           0       -1.474132    2.883314    2.158721
      6          6           0       -1.756095   -0.782871    1.062988
      7          7           0       -1.249645    1.587323    1.531201
      8          7           0       -0.884666   -0.675439   -0.116043
      9          8           0       -2.362019    0.454727   -1.413605
     10          8           0       -3.078337    0.647509    2.465309
     11          1           0        0.304680   -1.123284   -2.457663
     12          1           0       -0.806495   -0.083217   -3.389582
     13          1           0        0.449996    0.640098   -2.383232
     14          1           0       -3.660354   -1.125529    0.089622
     15          1           0       -2.732236   -2.608735    0.438492
     16          1           0       -3.563499   -1.732543    1.753793
     17          1           0       -2.281718    3.460267    1.686975
     18          1           0       -0.553497    3.470902    2.109444
     19          1           0       -1.745901    2.739351    3.207751
     20          1           0       -1.145333   -1.291143    1.821289
     21          1           0       -0.522929    1.480789    0.846928
     22          1           0       -0.010735   -1.176052   -0.101748
 ---------------------------------------------------------------------
                    Distance matrix (angstroms):
                    1          2          3          4          5
     1  C    0.000000
     2  C    3.187786   0.000000
     3  C    1.532465   4.605449   0.000000
     4  C    3.128059   2.525243   4.500694   0.000000
     5  C    4.578112   2.442590   5.666226   4.946233   0.000000
     6  C    2.505782   1.548176   3.858996   1.533157   3.836801
     7  N    3.302029   1.352778   4.466121   3.731288   1.457316
     8  N    1.375652   2.531934   2.460417   2.511161   4.264592
     9  O    1.220332   3.114547   2.422132   3.115578   4.409976
    10  O    4.241362   1.220125   5.721188   2.804903   2.768807
    11  H    2.211533   5.106403   1.096700   4.689776   6.366161
    12  H    2.140525   5.293343   1.090052   4.993496   6.326903
    13  H    2.175018   4.826733   1.098082   5.230843   5.418821
    14  H    2.936891   2.790599   4.338583   1.089885   5.013139
    15  H    3.375223   3.476679   4.501179   1.095372   5.891062
    16  H    4.145489   2.717075   5.558437   1.091377   5.082869
    17  H    4.759986   2.883941   5.870245   5.206961   1.098915
    18  H    4.997660   3.323438   5.851180   5.801762   1.093278
    19  H    5.353489   2.668272   6.537325   5.132443   1.093182
    20  H    3.344363   2.122255   4.495484   2.149185   4.200959
    21  H    2.778713   2.032865   3.701883   3.979427   2.143050
    22  H    2.051495   3.289638   2.558356   3.173843   4.871314
                    6          7          8          9         10
     6  C    0.000000
     7  N    2.468508   0.000000
     8  N    1.470050   2.822537   0.000000
     9  O    2.834133   3.345449   2.267933   0.000000
    10  O    2.400169   2.258300   3.636724   3.949209   0.000000
    11  H    4.093613   5.066987   2.664262   3.269780   6.230262
    12  H    4.606152   5.215475   3.327596   2.571677   6.322576
    13  H    4.332218   4.371361   2.941447   2.980263   5.996461
    14  H    2.165885   3.905026   2.819454   2.538223   3.020976
    15  H    2.162551   4.582465   2.731055   3.598906   3.851090
    16  H    2.155411   4.052774   3.433643   4.032383   2.531064
    17  H    4.320863   2.144146   4.722997   4.318948   3.025230
    18  H    4.542676   2.089704   4.717480   4.977946   3.804341
    19  H    4.123852   2.093862   4.842533   5.191920   2.588901
    20  H    1.098359   2.894926   2.049462   3.872071   2.812407
    21  H    2.586801   1.003840   2.389035   3.089509   3.137455
    22  H    2.134827   3.440590   1.007260   3.147848   4.396059
                   11         12         13         14         15
    11  H    0.000000
    12  H    1.784635   0.000000
    13  H    1.770924   1.764850   0.000000
    14  H    4.712765   4.619067   5.111499   0.000000
    15  H    4.451645   4.974019   5.351976   1.784100   0.000000
    16  H    5.750684   6.064293   6.233181   1.774066   1.785700
    17  H    6.698987   6.364275   5.655281   5.047940   6.212444
    18  H    6.534638   6.552485   5.404128   5.904188   6.670905
    19  H    7.156937   7.237000   6.363012   5.322138   6.102759
    20  H    4.521079   5.359764   4.894157   3.058011   2.483231
    21  H    4.287943   4.524880   3.476676   4.148475   4.666055
    22  H    2.377521   3.554908   2.952261   3.654982   3.122660
                   16         17         18         19         20
    16  H    0.000000
    17  H    5.349084   0.000000
    18  H    6.021831   1.779141   0.000000
    19  H    5.041378   1.766232   1.778559   0.000000
    20  H    2.459048   4.887260   4.807326   4.304398   0.000000
    21  H    4.515858   2.778012   2.356997   2.941619   3.003395
    22  H    4.046584   5.463730   5.174761   5.412390   2.235762
                   21         22
    21  H    0.000000
    22  H    2.867252   0.000000
 Stoichiometry    C6H12N2O2
 Framework group  C1[X(C6H12N2O2)]
 Deg. of freedom    60
 Full point group                 C1      NOp   1
 Largest Abelian subgroup         C1      NOp   1
 Largest concise Abelian subgroup C1      NOp   1
                         Standard orientation:                         
 ---------------------------------------------------------------------
 Center     Atomic      Atomic             Coordinates (Angstroms)
 Number     Number       Type             X           Y           Z
 ---------------------------------------------------------------------
      1          6           0        1.783826   -0.363305    0.221842
      2          6           0       -1.318112    0.308019   -0.076953
      3          6           0        3.058939   -1.121793   -0.161864
      4          6           0        0.182517    2.323389    0.174536
      5          6           0       -2.563593   -1.788847    0.057860
      6          6           0       -0.088843    1.057313   -0.646431
      7          7           0       -1.401617   -1.012955   -0.356351
      8          7           0        1.098919    0.209656   -0.824598
      9          8           0        1.373420   -0.296065    1.369123
     10          8           0       -2.248225    0.941213    0.394916
     11          1           0        3.613479   -0.656029   -0.985453
     12          1           0        3.699184   -1.179785    0.718442
     13          1           0        2.817986   -2.149720   -0.463678
     14          1           0        0.440694    2.058484    1.199728
     15          1           0        1.008598    2.883645   -0.276621
     16          1           0       -0.715008    2.944208    0.186240
     17          1           0       -2.601784   -1.969121    1.141215
     18          1           0       -2.552170   -2.754645   -0.454352
     19          1           0       -3.476820   -1.254114   -0.216229
     20          1           0       -0.376880    1.358571   -1.662635
     21          1           0       -0.585111   -1.480741   -0.705908
     22          1           0        1.516752    0.172507   -1.740353
 ---------------------------------------------------------------------
 Rotational constants (GHZ):      1.8637590      0.9489838      0.7418388
 Standard basis: 6-31G(d) (6D, 7F)
 There are   174 symmetry adapted basis functions of A   symmetry.
 Integral buffers will be    131072 words long.
 Raffenetti 2 integral format.
 Two-electron integral symmetry is turned on.
   174 basis functions,   328 primitive gaussians,   174 cartesian basis functions
    39 alpha electrons       39 beta electrons
       nuclear repulsion energy       563.6371739323 Hartrees.
 NAtoms=   22 NActive=   22 NUniq=   22 SFac= 1.00D+00 NAtFMM=   60 NAOKFM=F Big=F
 One-electron integrals computed using PRISM.
 NBasis=   174 RedAO= T  NBF=   174
 NBsUse=   174 1.00D-06 NBFU=   174
 Initial guess read from the read-write file.
 B after Tr=     0.000000    0.000000    0.000000
         Rot=    1.000000    0.000000    0.000000    0.000000 Ang=   0.00 deg.
 Initial guess orbital symmetries:
       Occupied  (A) (A) (A) (A) (A) (A) (A) (A) (A) (A) (A) (A)
                 (A) (A) (A) (A) (A) (A) (A) (A) (A) (A) (A) (A)
                 (A) (A) (A) (A) (A) (A) (A) (A) (A) (A) (A) (A)
                 (A) (A) (A)
       Virtual   (A) (A) (A) (A) (A) (A) (A) (A) (A) (A) (A) (A)
                 (A) (A) (A) (A) (A) (A) (A) (A) (A) (A) (A) (A)
                 (A) (A) (A) (A) (A) (A) (A) (A) (A) (A) (A) (A)
                 (A) (A) (A) (A) (A) (A) (A) (A) (A) (A) (A) (A)
                 (A) (A) (A) (A) (A) (A) (A) (A) (A) (A) (A) (A)
                 (A) (A) (A) (A) (A) (A) (A) (A) (A) (A) (A) (A)
                 (A) (A) (A) (A) (A) (A) (A) (A) (A) (A) (A) (A)
                 (A) (A) (A) (A) (A) (A) (A) (A) (A) (A) (A) (A)
                 (A) (A) (A) (A) (A) (A) (A) (A) (A) (A) (A) (A)
                 (A) (A) (A) (A) (A) (A) (A) (A) (A) (A) (A) (A)
                 (A) (A) (A) (A) (A) (A) (A) (A) (A) (A) (A) (A)
                 (A) (A) (A)
 Harris functional with IExCor=  402 diagonalized for initial guess.
 ExpMin= 1.61D-01 ExpMax= 5.48D+03 ExpMxC= 8.25D+02 IAcc=3 IRadAn=         5 AccDes= 0.00D+00
 HarFok:  IExCor=  402 AccDes= 0.00D+00 IRadAn=         5 IDoV= 1
 ScaDFX=  1.000000  1.000000  1.000000  1.000000
 FoFCou: FMM=F IPFlag=           0 FMFlag=      100000 FMFlg1=           0
         NFxFlg=           0 DoJE=T BraDBF=F KetDBF=T FulRan=T
         Omega=  0.000000  0.000000  1.000000  0.000000  0.000000 ICntrl=     500 IOpCl=  0
         NMat0=    1 NMatS0=    1 NMatT0=    0 NMatD0=    1 NMtDS0=    0 NMtDT0=    0
         I1Cent=           4 NGrid=           0.
 Petite list used in FoFCou.
 Requested convergence on RMS density matrix=1.00D-08 within 128 cycles.
 Requested convergence on MAX density matrix=1.00D-06.
 Requested convergence on             energy=1.00D-06.
 No special actions if energy rises.
 Integral accuracy reduced to 1.0D-05 until final iterations.
 Initial convergence to 1.0D-05 achieved.  Increase integral accuracy.
 SCF Done:  E(RB3LYP) =  -495.843657692     A.U. after   13 cycles
             Convg  =    0.5627D-08             -V/T =  2.0093
 Calling FoFJK, ICntrl=      2127 FMM=F ISym2X=0 I1Cent= 0 IOpClX= 0 NMat=1 NMatS=1 NMatT=0.
 ***** Axes restored to original set *****
 -------------------------------------------------------------------
 Center     Atomic                   Forces (Hartrees/Bohr)
 Number     Number              X              Y              Z
 -------------------------------------------------------------------
      1        6           0.003260340   -0.003683721    0.000793940
      2        6           0.011037189   -0.010064774    0.008753072
      3        6          -0.000349571    0.001187418    0.002278859
      4        6           0.002222158   -0.001544066   -0.000193847
      5        6           0.001367829    0.000976776    0.000604092
      6        6          -0.002349777    0.000201250   -0.004427295
      7        7          -0.002004885    0.009044805    0.000671868
      8        7           0.000584198    0.003982854   -0.000656732
      9        8          -0.002582498    0.003064222   -0.002669680
     10        8          -0.010908742    0.002681040    0.001073426
     11        1          -0.001338014    0.000215043    0.000945479
     12        1          -0.000795628   -0.000512176   -0.000651289
     13        1          -0.000927264   -0.000156126    0.000984867
     14        1          -0.000697598   -0.000326056   -0.000908565
     15        1          -0.000919284   -0.000214497    0.000044951
     16        1          -0.000334901    0.000087404   -0.000192571
     17        1           0.000674530   -0.002786489   -0.001689310
     18        1           0.000435224   -0.000700922   -0.000521208
     19        1           0.000072365   -0.001118868   -0.000237162
     20        1          -0.000394497    0.001557925    0.000161733
     21        1           0.002196111    0.000631098   -0.004228627
     22        1           0.001752714   -0.002522138    0.000063998
 -------------------------------------------------------------------
 Cartesian Forces:  Max     0.011037189 RMS     0.003203468

 GradGradGradGradGradGradGradGradGradGradGradGradGradGradGradGradGradGrad
 Berny optimization.
 Using GEDIIS/GDIIS optimizer.
 Internal  Forces:  Max     0.009234343 RMS     0.002047758
 Search for a local minimum.
 Step number   3 out of a maximum of  108
 All quantities printed in internal units (Hartrees-Bohrs-Radians)
 Mixed Optimization -- RFO/linear search
 Update second derivatives using D2CorX and points    1    3    2
 DE=  2.02D-04 DEPred=-1.50D-03 R=-1.35D-01
 Trust test=-1.35D-01 RLast= 4.16D-01 DXMaxT set to 2.52D-01
 ITU= -1  1  0
 Use linear search instead of GDIIS.
 Quartic linear search produced a step of -0.53347.
 Iteration  1 RMS(Cart)=  0.03808313 RMS(Int)=  0.00074993
 Iteration  2 RMS(Cart)=  0.00149560 RMS(Int)=  0.00031320
 Iteration  3 RMS(Cart)=  0.00000062 RMS(Int)=  0.00031320
 Variable       Old X    -DE/DX   Delta X   Delta X   Delta X     New X
                                 (Linear)    (Quad)   (Total)
    R1        2.89594  -0.00496  -0.00782   0.00000  -0.00782   2.88812
    R2        2.59961  -0.00061  -0.00134   0.00000  -0.00134   2.59826
    R3        2.30609   0.00393   0.00285   0.00000   0.00285   2.30894
    R4        2.92563  -0.00009  -0.00211   0.00000  -0.00211   2.92352
    R5        2.55638   0.00694   0.01051   0.00000   0.01051   2.56689
    R6        2.30570   0.00923   0.00319   0.00000   0.00319   2.30889
    R7        2.07246  -0.00089  -0.00071   0.00000  -0.00071   2.07176
    R8        2.05990   0.00091   0.00082   0.00000   0.00082   2.06072
    R9        2.07507  -0.00067  -0.00179   0.00000  -0.00179   2.07328
   R10        2.89725   0.00107  -0.00467   0.00000  -0.00467   2.89257
   R11        2.05958   0.00087   0.00177   0.00000   0.00177   2.06136
   R12        2.06995  -0.00006  -0.00012   0.00000  -0.00012   2.06983
   R13        2.06240  -0.00001   0.00202   0.00000   0.00202   2.06442
   R14        2.75393  -0.00441  -0.00359   0.00000  -0.00359   2.75034
   R15        2.07665  -0.00123  -0.00162   0.00000  -0.00162   2.07503
   R16        2.06600   0.00001  -0.00068   0.00000  -0.00068   2.06532
   R17        2.06581  -0.00010  -0.00003   0.00000  -0.00003   2.06579
   R18        2.77799  -0.00099  -0.00059   0.00000  -0.00059   2.77740
   R19        2.07560  -0.00083  -0.00042   0.00000  -0.00042   2.07518
   R20        1.89698   0.00441   0.00433   0.00000   0.00433   1.90132
   R21        1.90345   0.00278   0.00250   0.00000   0.00250   1.90594
    A1        2.01523  -0.00260  -0.00233   0.00000  -0.00233   2.01290
    A2        2.14420  -0.00178   0.00124   0.00000   0.00124   2.14544
    A3        2.12323   0.00437   0.00099   0.00000   0.00100   2.12423
    A4        2.03269  -0.00320  -0.00522   0.00000  -0.00350   2.02919
    A5        2.09021   0.00248   0.01600   0.00000   0.01769   2.10790
    A6        2.14073   0.00161  -0.00036   0.00000   0.00140   2.14214
    A7        1.98074  -0.00178  -0.00783   0.00000  -0.00782   1.97292
    A8        1.88898   0.00015   0.00541   0.00000   0.00541   1.89439
    A9        1.92790  -0.00119  -0.00350   0.00000  -0.00350   1.92441
   A10        1.90930   0.00055  -0.00488   0.00000  -0.00488   1.90442
   A11        1.87770   0.00141   0.00549   0.00000   0.00551   1.88321
   A12        1.87659   0.00101   0.00585   0.00000   0.00586   1.88245
   A13        1.92293   0.00063   0.00660   0.00000   0.00661   1.92954
   A14        1.91273   0.00118   0.00474   0.00000   0.00476   1.91749
   A15        1.90703   0.00008   0.00573   0.00000   0.00574   1.91277
   A16        1.91038  -0.00095  -0.00556   0.00000  -0.00555   1.90484
   A17        1.89967  -0.00040  -0.00633   0.00000  -0.00631   1.89336
   A18        1.91099  -0.00056  -0.00549   0.00000  -0.00548   1.90551
   A19        1.97714  -0.00420  -0.00819   0.00000  -0.00818   1.96896
   A20        1.90587  -0.00036  -0.00225   0.00000  -0.00224   1.90363
   A21        1.91176  -0.00056   0.00068   0.00000   0.00068   1.91243
   A22        1.89370   0.00195   0.00243   0.00000   0.00245   1.89615
   A23        1.87380   0.00226   0.00531   0.00000   0.00530   1.87910
   A24        1.90009   0.00113   0.00243   0.00000   0.00243   1.90252
   A25        1.92116   0.00321   0.00595   0.00000   0.00595   1.92711
   A26        1.99002  -0.00193  -0.00430   0.00000  -0.00430   1.98571
   A27        1.83884  -0.00117  -0.00125   0.00000  -0.00125   1.83759
   A28        1.98020  -0.00094  -0.00101   0.00000  -0.00101   1.97918
   A29        1.89161  -0.00023  -0.00131   0.00000  -0.00131   1.89030
   A30        1.83165   0.00094   0.00170   0.00000   0.00170   1.83336
   A31        2.10646   0.00195   0.00894   0.00000   0.00902   2.11548
   A32        2.06775  -0.00053  -0.00508   0.00000  -0.00499   2.06276
   A33        2.09372  -0.00152  -0.00030   0.00000  -0.00022   2.09350
   A34        2.15345  -0.00046   0.00180   0.00000   0.00196   2.15541
   A35        2.05974   0.00069   0.00250   0.00000   0.00266   2.06240
   A36        2.05626  -0.00032   0.00018   0.00000   0.00034   2.05660
    D1        0.63272   0.00012   0.00755   0.00000   0.00755   0.64027
    D2        2.75546  -0.00024   0.00008   0.00000   0.00008   2.75554
    D3       -1.47759   0.00040   0.00837   0.00000   0.00838  -1.46921
    D4       -2.54290  -0.00023   0.00455   0.00000   0.00454  -2.53836
    D5       -0.42016  -0.00059  -0.00293   0.00000  -0.00293  -0.42309
    D6        1.62997   0.00004   0.00536   0.00000   0.00537   1.63534
    D7       -3.06123   0.00024  -0.01605   0.00000  -0.01604  -3.07726
    D8       -0.10112  -0.00040   0.02022   0.00000   0.02020  -0.08092
    D9        0.11395   0.00071  -0.01309   0.00000  -0.01308   0.10087
   D10        3.07406   0.00007   0.02318   0.00000   0.02316   3.09722
   D11       -2.74309   0.00282   0.03225   0.00000   0.03201  -2.71108
   D12       -0.49480   0.00272   0.03242   0.00000   0.03220  -0.46260
   D13        1.50417   0.00216   0.03155   0.00000   0.03132   1.53549
   D14        0.60403  -0.00198  -0.08078   0.00000  -0.08055   0.52348
   D15        2.85232  -0.00208  -0.08060   0.00000  -0.08037   2.77195
   D16       -1.43190  -0.00264  -0.08148   0.00000  -0.08125  -1.51314
   D17       -3.07033  -0.00255  -0.04749   0.00000  -0.04774  -3.11806
   D18        0.25813  -0.00174  -0.07222   0.00000  -0.07249   0.18563
   D19       -0.14075   0.00248   0.06904   0.00000   0.06932  -0.07143
   D20       -3.09548   0.00329   0.04431   0.00000   0.04456  -3.05092
   D21        1.10757  -0.00010  -0.02400   0.00000  -0.02400   1.08357
   D22       -1.14605   0.00055  -0.02238   0.00000  -0.02238  -1.16843
   D23        3.11024   0.00008  -0.02305   0.00000  -0.02305   3.08720
   D24       -3.07258  -0.00013  -0.02364   0.00000  -0.02364  -3.09622
   D25        0.95698   0.00053  -0.02201   0.00000  -0.02201   0.93496
   D26       -1.06991   0.00006  -0.02268   0.00000  -0.02268  -1.09259
   D27       -0.97868  -0.00005  -0.02390   0.00000  -0.02389  -1.00257
   D28        3.05088   0.00060  -0.02227   0.00000  -0.02227   3.02861
   D29        1.02399   0.00013  -0.02294   0.00000  -0.02294   1.00105
   D30       -1.25807   0.00016  -0.01019   0.00000  -0.01019  -1.26826
   D31        1.69389  -0.00055   0.01454   0.00000   0.01452   1.70841
   D32        2.91259   0.00072  -0.00635   0.00000  -0.00633   2.90626
   D33       -0.41863   0.00001   0.01838   0.00000   0.01838  -0.40026
   D34        0.83327  -0.00011  -0.00835   0.00000  -0.00834   0.82493
   D35       -2.49795  -0.00082   0.01638   0.00000   0.01636  -2.48158
   D36       -1.15217  -0.00120  -0.00073   0.00000  -0.00072  -1.15289
   D37        2.17057  -0.00066  -0.03707   0.00000  -0.03708   2.13349
[...]
 00024539,0.00003948,0.00000287,-0.00002362,0.00323929,0.00762675,0.006
 82636,0.08055417,0.19589699,-0.01179654,-0.02101205,-0.01727420,-0.000
 19746,0.00007603,0.00032191,-0.06125587,-0.11503491,-0.13726280,0.0001
 5600,-0.00007481,-0.00046615,-0.00000124,0.00006810,0.00000724,0.00024
 747,0.00112003,0.00040206,0.00001369,-0.00005999,-0.00004608,0.0027740
 3,0.00120471,-0.00150410,0.00143179,0.00265482,0.00135294,0.00012014,-
 0.00001413,-0.00010126,-0.00252905,-0.00514247,-0.00475374,0.06397744,
 0.12359536,0.14800592,0.00025809,-0.01966065,0.00912334,0.00008681,-0.
 00016867,0.00000461,-0.05056960,-0.00193861,0.00155781,0.00008901,0.00
 005640,0.00003006,0.00001174,-0.00005125,0.00000273,0.00075317,-0.0000
 3302,0.00040776,-0.00000927,0.00007482,0.00001757,-0.00176906,0.001712
 43,0.00256805,0.00109247,0.00156556,-0.00113826,-0.00009153,0.00007915
 ,0.00003663,0.00293170,0.02680236,-0.01610676,-0.00065807,-0.01128060,
 0.00743237,0.04834271,0.00194203,0.00484069,-0.00385573,0.00005973,-0.
 00005137,-0.00000859,-0.00424875,-0.24844784,0.12621480,-0.00003635,-0
 .00004124,0.00003668,-0.00000602,-0.00003309,-0.00001029,0.00000540,0.
 00010100,-0.00046433,0.00000312,0.00004008,0.00002606,0.00016368,0.000
 09589,-0.00084202,-0.00078535,0.00080910,-0.00068948,-0.00006435,0.000
 02952,0.00005317,-0.00039350,-0.00461661,0.00183522,0.00011008,-0.0193
 2579,0.01281836,0.00329209,0.26651932,-0.00099740,0.02647309,-0.017514
 31,0.00017424,0.00082111,-0.00010777,0.00344743,0.12448221,-0.12119973
 ,-0.00013363,-0.00011793,0.00003244,-0.00005735,0.00006562,0.00001908,
 -0.00115384,-0.00042420,-0.00084599,-0.00008997,-0.00034923,-0.0000068
 4,0.00450112,-0.00128788,-0.00373029,-0.00280744,-0.00238314,0.0030112
 8,0.00007519,-0.00031599,-0.00006640,0.00050403,0.00544419,-0.00439933
 ,0.00006570,-0.01752207,0.01195113,-0.00432018,-0.13472666,0.13270068,
 -0.00384282,0.00191451,-0.00050045,-0.00009513,0.00178032,0.00122329,-
 0.00003746,-0.00047203,-0.00002422,-0.12810810,0.06962769,-0.10151961,
 -0.00006558,0.00003380,0.00005275,-0.01713999,0.01170711,-0.02147707,-
 0.00001438,-0.00053150,0.00011524,0.00273317,0.00054437,0.00140952,0.0
 0281113,-0.00025893,-0.00009935,0.00038755,-0.00005342,-0.00050435,0.0
 0012014,-0.00002553,-0.00005482,0.00005459,-0.00004445,-0.00003729,0.0
 0000456,-0.00000683,0.00007999,0.13940449,-0.00190114,0.00144569,-0.00
 044132,-0.00088383,0.00160591,-0.00026191,0.00014379,-0.00020041,0.000
 04959,0.07211917,-0.11103374,0.09114545,0.00000507,0.00002038,0.000000
 84,-0.01050267,0.00943730,-0.01561329,0.00006784,-0.00026604,0.0002010
 3,0.00205414,0.00005542,0.00120772,0.00068205,-0.00183168,0.00065295,0
 .00039888,-0.00014522,0.00015017,0.00004356,-0.00004077,-0.00006562,0.
 00008475,-0.00000485,-0.00006667,-0.00000556,-0.00001994,0.00004665,-0
 .07395769,0.11677953,0.00043017,0.00052051,-0.00004377,-0.00150246,0.0
 0092643,0.00061237,0.00004302,-0.00013821,0.00003198,-0.10442297,0.088
 38779,-0.18582298,-0.00001475,0.00002716,-0.00000569,-0.00334294,0.001
 98599,-0.00524098,0.00021776,-0.00014637,-0.00017250,0.00010331,-0.000
 46385,0.00065505,0.00088870,0.00106942,-0.00120663,0.00129717,-0.00056
 820,0.00019185,0.00000382,-0.00000924,-0.00000922,0.00001870,-0.000018
 53,-0.00003116,-0.00003512,0.00000565,0.00003776,0.11471460,-0.0980662
 3,0.19725469,-0.00005180,-0.00002399,0.00062720,-0.00728895,-0.0011457
 9,0.00141993,0.00003365,-0.00008343,-0.00000490,-0.06700091,0.06431683
 ,0.02290522,-0.00030704,-0.00012314,0.00024343,0.00518391,-0.02945020,
 -0.01108602,0.00096477,-0.00180047,-0.00112132,0.00235766,0.00153727,-
 0.00114313,0.00023560,0.00025916,-0.00027879,0.00200125,0.00091624,-0.
 00003026,0.00000412,-0.00001266,-0.00001593,0.00001500,-0.00001035,-0.
 00001485,-0.00000567,0.00000086,0.00000643,-0.00448542,0.01484832,0.00
 802692,0.07159654,0.00055924,-0.00099664,0.00045221,-0.00298441,0.0010
 2263,-0.00015101,-0.00005551,0.00007068,0.00008232,0.06243894,-0.26746
 634,-0.07638274,-0.00020344,0.00010131,0.00032696,0.00501879,-0.016310
 76,-0.00636142,0.00015882,-0.00123451,-0.00069774,0.00098620,0.0022953
 7,0.00018266,-0.00073952,0.00013075,0.00038313,-0.00011637,-0.00013405
 ,0.00008132,-0.00003351,-0.00000822,0.00001549,-0.00004777,-0.00000777
 ,0.00012903,0.00000130,0.00003116,0.00000231,0.00327363,-0.01260698,-0
 .00561017,-0.06685927,0.29021583,-0.00056673,0.00056859,-0.00020927,-0
 .00021987,-0.00072548,-0.00042984,0.00008194,-0.00005020,0.00000660,0.
 02049819,-0.07610938,-0.07785453,-0.00014534,0.00008741,0.00012892,0.0
 0341988,-0.00526709,-0.00401367,-0.00000629,-0.00052830,-0.00024392,-0
 .00011531,0.00072773,0.00068456,0.00062082,0.00006875,-0.00036476,-0.0
 0104802,-0.00100366,0.00031782,0.00000532,-0.00001202,-0.00002051,0.00
 002798,0.00000880,-0.00003141,-0.00001492,-0.00001528,0.00001476,-0.00
 493979,0.02165938,0.01008606,-0.02297849,0.08656512,0.07863881,-0.0025
 3386,0.00199353,-0.00240372,-0.00180665,-0.00002935,0.00200827,0.00015
 174,0.00013997,0.00018441,-0.13236127,-0.01352002,0.12469357,0.0000492
 9,-0.00004525,-0.00006013,-0.01363920,-0.00142188,0.02280556,0.0005370
 9,0.00024890,-0.00009691,-0.00530356,-0.00465810,0.00149785,0.00182659
 ,-0.00054415,0.00002316,0.00147685,0.00198279,-0.00086233,0.00005464,-
 0.00001563,-0.00002555,-0.00003432,-0.00003465,0.00011987,-0.00002104,
 -0.00001584,0.00003635,0.01220033,0.00065191,-0.01568361,-0.00457687,-
 0.00059558,0.00508450,0.14351055,-0.00050095,0.00056282,-0.00093810,-0
 .00333096,-0.00013315,0.00250763,0.00017125,0.00031417,0.00018078,-0.0
 1157467,-0.05001392,0.01797588,0.00007507,-0.00014426,-0.00014306,-0.0
 0697374,-0.00125963,0.01524612,0.00132628,0.00076179,-0.00030057,-0.00
 377258,-0.00203459,0.00052959,0.00000944,-0.00068674,0.00004942,0.0021
 3812,-0.00076236,-0.00189074,-0.00000591,-0.00001064,-0.00001232,-0.00
 005151,-0.00000900,0.00015282,-0.00001288,0.00000204,0.00000649,-0.009
 71465,-0.00147177,0.01272883,0.01717520,0.00462240,-0.02560924,0.01515
 394,0.04984386,-0.00156571,0.00030731,-0.00032597,0.00127699,-0.000599
 78,-0.00045561,0.00003615,-0.00000631,0.00001976,0.12714532,0.02151419
 ,-0.24043163,0.00001715,-0.00004392,-0.00003738,-0.00388640,0.00103248
 ,0.00611531,-0.00006785,0.00021166,0.00019391,-0.00153467,-0.00187482,
 0.00177455,0.00105475,0.00012732,-0.00009595,-0.00137546,-0.00238697,-
 0.00106845,0.00004018,-0.00000903,0.00000099,-0.00000728,-0.00001297,0
 .00006675,0.00000721,0.00000400,0.00000862,0.01292185,0.00064008,-0.01
 720958,0.00326337,0.00097099,-0.00696622,-0.13765530,-0.02039535,0.257
 67954,0.00003483,0.00009529,-0.00015992,-0.00136094,-0.00166909,0.0007
 4375,-0.00002978,0.00000286,0.00000859,-0.00003229,-0.00002450,0.00002
 618,-0.08234576,0.05041381,-0.06324751,0.00008950,-0.00005965,-0.00001
 952,0.00187227,0.00688352,0.00097073,0.00000125,-0.00002826,0.00014076
 ,-0.00007164,-0.00004123,0.00017889,0.00043066,0.00048854,-0.00135409,
 -0.00001046,0.00001038,0.00000626,-0.00000595,-0.00000986,0.00000292,0
 .00000168,0.00000369,0.00003254,0.00001318,-0.00000006,-0.00001191,-0.
 00000156,0.00001638,0.00000662,-0.00000871,-0.00002887,0.00000173,0.08
 041019,0.00078537,-0.00076560,0.00100297,0.00955748,0.00264984,-0.0009
 1074,-0.00003649,0.00001705,-0.00006091,0.00037628,-0.00022213,-0.0002
 8650,0.04974504,-0.13825872,0.11094485,-0.00127349,0.00003232,-0.00030
 449,0.00688858,-0.03716895,0.01362357,-0.00029895,0.00005383,-0.000858
 82,-0.00046539,0.00076884,-0.00025371,-0.00284467,0.00032102,0.0020393
 3,-0.00001667,-0.00000335,0.00001169,0.00000797,0.00000930,-0.00001874
 ,0.00001786,0.00000468,-0.00005469,-0.00007127,-0.00003849,-0.00002484
 ,-0.00013601,-0.00013924,-0.00007905,0.00005010,0.00009009,0.00002294,
 -0.05915131,0.16398093,0.00021029,-0.00018012,0.00005657,0.00281334,-0
 .00036335,-0.00065347,-0.00002322,0.00000331,-0.00001372,0.00008679,-0
 .00011553,-0.00009394,-0.06275284,0.11372681,-0.18756734,-0.00078061,0
 .00023840,-0.00062935,0.00502889,-0.01462255,0.01624020,0.00006059,0.0
 0009913,-0.00004049,-0.00006291,0.00029148,0.00008785,-0.00058391,0.00
 055035,0.00135816,-0.00000948,-0.00000303,0.00000514,-0.00000192,0.000
 00495,0.00000058,-0.00000132,-0.00000290,-0.00000920,-0.00001176,-0.00
 000618,0.00001361,-0.00003675,-0.00003763,-0.00000276,-0.00001126,0.00
 000536,-0.00000667,0.06881663,-0.11973512,0.19518786,-0.00010228,0.000
 06377,0.00018003,-0.00121310,0.00168272,0.00135730,0.00001424,-0.00000
 377,-0.00002481,0.00000900,-0.00005167,-0.00001510,-0.24737454,-0.0785
 0682,-0.08641941,-0.00017370,0.00045587,-0.00044291,0.01223905,0.00333
 253,0.00460545,-0.00000064,-0.00016798,-0.00015562,0.00008003,-0.00009
 357,-0.00010702,0.00083493,-0.00152208,-0.00074680,0.00001330,-0.00000
 495,-0.00000172,0.00000639,-0.00000168,-0.00000532,-0.00000047,0.00000
 393,-0.00000243,0.00000847,0.00001110,0.00001842,0.00001465,-0.0000254
 2,-0.00001950,0.00000816,0.00003705,-0.00001308,-0.00907652,-0.0030636
 4,-0.00291143,0.26107793,0.00016545,-0.00017005,0.00056455,0.00372409,
 -0.00074539,-0.00620021,-0.00001044,0.00000745,-0.00005794,0.00024966,
 -0.00026681,-0.00011498,-0.07227210,-0.07753906,-0.03120203,-0.0004799
 2,-0.00077390,0.00136027,-0.02953670,-0.02465151,-0.01218025,-0.000096
 37,0.00016468,-0.00027924,-0.00013816,0.00013254,-0.00029897,-0.001225
 28,0.00059848,0.00085120,0.00001193,-0.00000938,-0.00000174,0.00001441
 ,0.00000044,-0.00001491,0.00001054,0.00000552,-0.00002491,-0.00002298,
 0.00000675,-0.00000470,-0.00012827,-0.00011116,-0.00007450,0.00002616,
 0.00005873,0.00002028,0.01704203,0.00895257,0.00663074,0.08444161,0.09
 494233,-0.00014364,0.00005287,0.00014306,0.00398486,0.00103841,-0.0035
 5334,0.00001246,0.00000286,-0.00002831,0.00008526,-0.00003103,-0.00006
 256,-0.08551984,-0.03169298,-0.08927175,0.00006620,-0.00048501,0.00079
 999,-0.00981502,-0.01240018,-0.00360728,0.00002789,0.00013157,0.000028
 11,0.00007451,-0.00007469,-0.00015546,-0.00131072,0.00180169,0.0011863
 0,0.00001806,-0.00001758,-0.00000633,0.00001276,0.00000442,-0.00000428
 ,-0.00000497,0.00000074,-0.00001773,-0.00001810,0.00000504,-0.00000487
 ,-0.00004228,-0.00003082,-0.00000591,-0.00000060,0.00001309,0.00001857
 ,-0.02207132,-0.00778549,-0.00859129,0.09506729,0.04117856,0.09032228,
 -0.00017305,0.00019146,-0.00032836,0.00008815,-0.00147921,0.00025814,-
 0.00000238,-0.00000417,0.00002094,-0.00002235,0.00000484,-0.00005080,-
 0.18129522,-0.01381108,0.13771295,-0.00014696,-0.00005786,0.00035457,-
 0.00498992,0.00401340,0.00483262,0.00001262,0.00026734,0.00045728,0.00
 009478,-0.00012482,0.00008285,-0.00114342,-0.00166528,-0.00098572,-0.0
 0000226,0.00000011,-0.00000233,-0.00000336,-0.00000070,0.00000770,-0.0
 0000710,-0.00000431,0.00001144,-0.00000086,-0.00000735,-0.00000824,0.0
 0000233,0.00002029,0.00000413,0.00001152,-0.00003063,0.00000800,0.0104
 1997,0.00009300,-0.01015108,-0.01649967,-0.00189493,0.01984249,0.19297
 042,0.00008916,-0.00006006,0.00026025,0.00479990,0.00125480,-0.0038372
 8,0.00000717,-0.00001939,0.00002595,-0.00010747,0.00007245,0.00000988,
 -0.02239422,-0.05220321,0.02553868,0.00030670,0.00006506,-0.00010285,0
 .02709135,-0.00205321,-0.02915049,-0.00052996,-0.00043313,-0.00011472,
 -0.00007116,0.00001472,0.00001267,-0.00213077,0.00015497,0.00290631,-0
 .00000209,0.00000855,-0.00000027,-0.00000209,0.00000414,-0.00000561,-0
 .00000014,-0.00000184,0.00000809,0.00001360,-0.00001382,-0.00001912,0.
 00000883,0.00006188,0.00004309,-0.00007240,-0.00010791,0.00001921,-0.0
 1453190,-0.00069208,0.01301052,-0.00589217,-0.00095523,0.00866276,0.01
 424385,0.06061530,0.00008363,-0.00003888,0.00019091,0.00463030,0.00110
 177,-0.00125638,-0.00000791,-0.00000133,-0.00000183,-0.00002856,0.0000
 2888,0.00002905,0.13471046,0.01644054,-0.19470536,0.00014514,0.0000457
 9,-0.00006781,0.00950039,-0.00489995,-0.01119341,-0.00017701,-0.000248
 47,-0.00017367,-0.00009681,-0.00001509,-0.00001608,-0.00186361,0.00254
 247,0.00114779,-0.00000048,0.00000353,0.00000277,0.00000192,-0.0000038
 6,-0.00000496,0.00000263,0.00000466,0.00001110,0.00000569,-0.00001048,
 -0.00001709,-0.00001240,0.00002077,0.00002376,-0.00003617,-0.00005014,
 0.00001349,0.01638093,0.00237671,-0.01593564,-0.01040120,-0.00006148,0
 .01312933,-0.15187716,-0.01566723,0.20881360,-0.00375385,0.00128391,0.
 00192171,-0.00433670,0.00391574,-0.00517370,0.00034566,-0.00046627,0.0
 0062178,-0.01759378,0.01274517,-0.01934235,0.00021151,0.00017389,0.000
 18920,-0.12539053,0.07682141,-0.09850445,0.00007798,-0.00022648,0.0001
 4932,0.00852439,-0.01463252,0.02324912,0.00126673,-0.00024962,-0.00066
 240,0.00066786,0.00034879,0.00192075,-0.00001232,0.00001989,-0.0000580
 0,-0.00005320,0.00001746,0.00009028,-0.00013568,0.00001260,0.00019753,
 -0.00394567,-0.00383021,-0.00071856,0.00152788,-0.00016611,0.00037247,
 0.00068137,0.00028479,0.00037096,0.00000420,-0.00007035,-0.00002699,-0
 .00001809,0.00004643,0.00001153,-0.00003202,-0.00005416,-0.00002837,0.
 14042322,-0.00033037,0.00012893,0.00006496,0.01832017,-0.01843931,0.02
 034852,0.00020040,-0.00004696,0.00010517,-0.01207732,0.00960235,-0.013
 73913,-0.00095058,-0.00000007,-0.00092164,0.07325569,-0.11534831,0.091
 66497,-0.00132699,-0.00012399,-0.00254763,0.00243959,-0.00234506,0.001
 66806,-0.00034064,0.00041418,0.00033281,-0.00186707,0.00061244,-0.0033
 7080,-0.00000143,0.00002495,-0.00001668,-0.00004566,0.00001112,0.00004
 735,-0.00001685,0.00002169,0.00002780,-0.00371093,-0.00163915,-0.00066
 240,0.00077860,0.00107736,-0.00014830,0.00084833,0.00066157,0.00051867
 ,-0.00002446,0.00020459,0.00011753,0.00011252,-0.00037846,-0.00024393,
 0.00001047,0.00000570,-0.00000032,-0.07565206,0.12490979,0.00539503,-0
 .00252396,-0.00152807,0.00772029,-0.00680429,0.01059942,-0.00060409,0.
 00076844,-0.00091460,-0.00602018,0.00325909,-0.00436533,-0.00040567,0.
 00024561,-0.00030154,-0.08753082,0.08132812,-0.15682043,-0.00050787,-0
 .00040811,-0.00023416,-0.01177577,0.01953148,-0.02853455,-0.00064389,0
 .00017209,0.00090335,-0.00058562,0.00017393,-0.00149874,0.00004951,-0.
 00001333,0.00006424,0.00007156,-0.00000729,-0.00015359,0.00023373,-0.0
 0005049,-0.00035025,-0.00113473,-0.00116797,0.00096954,0.00040642,0.00
 005666,-0.00004285,0.00001351,-0.00017268,0.00069525,0.00001665,0.0000
 0524,0.00003117,0.00002223,-0.00016711,-0.00011762,0.00001796,0.000036
 93,0.00002078,0.09537962,-0.09394352,0.18150872,0.00240988,-0.00197725
 ,-0.00058619,-0.02249479,0.00524128,0.01654721,-0.00008522,-0.00012203
 ,0.00002416,0.00004756,0.00000624,-0.00003275,0.00050572,0.00028329,-0
 .00239214,-0.00141163,-0.00034996,-0.00051085,-0.22595168,0.01770198,0
 .20898223,-0.00103829,0.00081445,-0.00062081,-0.00102522,0.00183749,0.
 00093748,0.00194701,-0.00595670,0.00158942,-0.00020494,0.00011692,0.00
 010378,-0.00010367,0.00000027,0.00001420,-0.00000310,-0.00002092,0.000
 02125,-0.00004950,-0.00003829,-0.00000861,0.00007627,0.00004041,-0.000
 01442,0.00002826,0.00010034,0.00003058,-0.00032728,-0.00012090,0.00033
 911,0.00015413,0.00011225,-0.00024111,0.00071368,-0.00074419,-0.000899
 79,-0.00004659,0.00074427,0.00005875,0.24625785,-0.00393610,0.00313257
 ,-0.00609493,-0.01103449,0.01529094,0.02310693,0.00002693,0.00010454,0
 .00025708,0.00010468,0.00005402,-0.00015398,0.02291887,0.00007312,-0.0
 2076610,-0.00200862,-0.00260697,0.00187427,0.01547312,-0.07091211,-0.0
 4340818,0.00299967,0.00044871,0.00361074,0.00229414,-0.00238635,0.0004
 6981,-0.00860998,-0.00509308,-0.00067784,0.00005200,0.00000025,-0.0000
 4497,-0.00003309,-0.00005623,0.00009990,-0.00002094,-0.00001995,0.0001
 4096,-0.00005088,0.00003601,0.00012132,0.00004757,-0.00006339,-0.00003
 232,0.00023710,0.00031627,-0.00006112,0.00060736,0.00015869,0.00040064
 ,-0.00080921,0.00076151,-0.00008889,0.00021152,-0.00579231,-0.00156252
 ,0.00005653,-0.00055892,-0.00028075,-0.01862577,0.06772350,-0.00064320
 ,-0.00295003,-0.00270551,-0.00242357,0.00366618,-0.00524700,0.00009346
 ,0.00014868,0.00001421,0.00038190,-0.00005180,-0.00062980,0.00284043,0
 .00194088,-0.00614038,-0.00102437,-0.00038530,0.00050358,0.22487384,-0
 .04303440,-0.22824163,-0.00074388,-0.00072634,-0.00162458,0.00014326,0
 .00098166,0.00039452,0.00072596,-0.00286488,0.00563514,-0.00002926,-0.
 00005035,-0.00002791,-0.00003666,0.00003964,0.00007680,-0.00000038,-0.
 00002148,-0.00012414,-0.00020909,-0.00008237,-0.00002852,-0.00019568,-
 0.00009089,0.00000537,0.00019772,0.00009339,-0.00000071,-0.00048213,0.
 00042164,0.00060611,0.00003754,0.00015919,-0.00018464,-0.00027816,-0.0
 0176037,-0.00003009,0.00005294,0.00068021,-0.00012837,-0.22377795,0.04
 352122,0.23768630,-0.01233662,0.00400886,-0.00040627,-0.00025709,-0.00
 264836,-0.00013563,0.00032711,-0.00236313,0.00076785,-0.00059261,0.000
 87273,0.00133669,-0.00001833,0.00008091,0.00002624,-0.01004694,0.00918
 851,-0.00123464,0.00003371,-0.00010833,-0.00068464,-0.25715614,0.20729
 456,0.03589679,0.00499311,0.00299011,-0.00160216,-0.00032691,0.0004716
 7,0.00022699,-0.00004132,-0.00021595,0.00103659,-0.00020975,0.00015686
 ,-0.00055030,-0.00030135,-0.00001498,0.00040901,0.00004730,0.00001622,
 -0.00001345,-0.00029543,-0.00068711,-0.00005317,-0.00025089,-0.0004741
 4,-0.00006850,-0.00000685,0.00002749,0.00000986,-0.00000127,-0.0000394
 3,-0.00003569,0.00000510,-0.00002786,-0.00003161,0.00158764,-0.0003657
 0,-0.00017665,0.00060157,0.00009959,0.00049729,0.27424595,0.00643996,-
 0.01206979,-0.01194381,0.00048082,-0.00005091,-0.00026816,0.00058232,-
 0.00024943,-0.00019837,-0.00081093,0.00067399,0.00150749,-0.00013884,-
 0.00006684,0.00014721,-0.01051314,0.00263165,0.00076292,-0.00030577,-0
 .00000616,-0.00060639,0.22137015,-0.19904448,0.00223948,0.00332347,0.0
 0326918,0.00554326,-0.00012124,-0.00011318,0.00003477,-0.00134216,0.00
 068161,0.00065731,-0.00041886,0.00010226,-0.00052222,-0.00042334,0.000
 05700,-0.00031180,0.00002607,-0.00007411,-0.00004123,-0.00011532,-0.00
 055028,-0.00007407,-0.00037989,-0.00059976,0.00000113,0.00000531,0.000
 04480,-0.00001284,0.00000184,-0.00003004,-0.00004143,0.00002405,0.0000
 7462,-0.00000538,-0.00037882,0.00120556,-0.00003808,0.00095683,-0.0006
 1082,0.00036554,-0.21826252,0.20472515,-0.02782643,0.01764938,0.010597
 70,0.00402917,0.00447336,-0.00227250,-0.00061175,-0.00121950,-0.001221
 10,-0.00049009,-0.00026720,-0.00097428,-0.00015897,0.00000672,0.000214
 06,0.01623079,-0.02080040,-0.00198816,-0.00070328,-0.00059007,-0.00026
 440,0.04315814,-0.00536335,-0.06119969,-0.00186410,0.00546204,-0.00667
 528,0.00113931,-0.00238519,-0.00161498,0.00123612,0.00071628,-0.001213
 49,0.00015170,0.00013298,-0.00055162,0.00019742,-0.00031208,0.00058513
 ,0.00000770,0.00002313,-0.00005992,0.00006188,0.00009345,0.00027899,0.
 00017079,0.00002280,0.00001141,0.00001324,-0.00007584,-0.00004338,-0.0
 0002188,-0.00008185,-0.00001629,0.00007075,0.00012359,0.00001973,-0.00
 001240,0.00001832,0.00019765,0.00043646,-0.00043126,0.00019124,-0.0352
 1456,0.00280469,0.06599918\\0.00001159,0.00000128,0.00000573,-0.000011
 00,-0.00000342,0.00000594,-0.00000109,0.00000246,0.00000461,0.00000492
 ,0.00000231,-0.00000054,-0.00000763,-0.00000326,-0.00000137,-0.0000096
 1,-0.00000278,0.00000933,0.00001254,0.00000143,-0.00000820,0.00000315,
 0.00000094,-0.00001489,-0.00000571,0.00000078,-0.00000480,0.00000285,-
 0.00000224,-0.00000400,0.00000115,-0.00000102,-0.00000199,-0.00000254,
 -0.00000116,0.00000008,-0.00000115,-0.00000019,0.00000067,-0.00000044,
 0.00000044,0.00000097,-0.00000027,0.00000093,0.00000115,-0.00000272,-0
 .00000050,0.00000091,0.00000152,-0.00000229,0.00000040,0.00000140,-0.0
 0000104,0.00000166,0.00000074,0.00000327,0.00000322,0.,0.00000141,0.00
 000092,0.00000132,0.00000193,-0.00000024,0.00000095,0.00000072,0.00000
 047\\\@


 THE PROGRESS OF RIVERS TO THE SEA IS NOT AS RAPID
 AS THAT OF MAN TO ERROR.
                                              -- VOLTAIRE
 Job cpu time:  0 days  0 hours 47 minutes 51.6 seconds.
 File lengths (MBytes):  RWF=     93 Int=      0 D2E=      0 Chk=      4 Scr=      1
 Normal termination of Gaussian 09 at Mon Feb 26 22:33:37 2018.
