 Entering Gaussian System, Link 0=g09
 Initial command:
 /home/fb_chem/chemsoft/lx24-amd64/Gaussian_09_C.01_NBO_3.1_64_istanbul-64/g09/l1.exe /local/2400002.1.parallel/Gau-4074.inp -scrdir=/local/2400002.1.parallel/
 Entering Link 1 = /home/fb_chem/chemsoft/lx24-amd64/Gaussian_09_C.01_NBO_3.1_64_istanbul-64/g09/l1.exe PID=      4075.
  
 Copyright (c) 1988,1990,1992,1993,1995,1998,2003,2009,2011,
            Gaussian, Inc.  All Rights Reserved.
  
 This is part of the Gaussian(R) 09 program.  It is based on
 the Gaussian(R) 03 system (copyright 2003, Gaussian, Inc.),
 the Gaussian(R) 98 system (copyright 1998, Gaussian, Inc.),
 the Gaussian(R) 94 system (copyright 1995, Gaussian, Inc.),
 the Gaussian 92(TM) system (copyright 1992, Gaussian, Inc.),
 the Gaussian 90(TM) system (copyright 1990, Gaussian, Inc.),
 the Gaussian 88(TM) system (copyright 1988, Gaussian, Inc.),
 the Gaussian 86(TM) system (copyright 1986, Carnegie Mellon
 University), and the Gaussian 82(TM) system (copyright 1983,
 Carnegie Mellon University). Gaussian is a federally registered
 trademark of Gaussian, Inc.
  
 This software contains proprietary and confidential information,
 including trade secrets, belonging to Gaussian, Inc.
  
 This software is provided under written license and may be
 used, copied, transmitted, or stored only in accord with that
 written license.
  
 The following legend is applicable only to US Government
 contracts under FAR:
  
                    RESTRICTED RIGHTS LEGEND
  
 Use, reproduction and disclosure by the US Government is
 subject to restrictions as set forth in subparagraphs (a)
 and (c) of the Commercial Computer Software - Restricted
 Rights clause in FAR 52.227-19.
  
 Gaussian, Inc.
 340 Quinnipiac St., Bldg. 40, Wallingford CT 06492
  
  
 ---------------------------------------------------------------
 Warning -- This program may not be used in any manner that
 competes with the business of Gaussian, Inc. or will provide
 assistance to any competitor of Gaussian, Inc.  The licensee
 of this program is prohibited from giving any competitor of
 Gaussian, Inc. access to this program.  By using this program,
 the user acknowledges that Gaussian, Inc. is engaged in the
 business of creating and licensing software in the field of
 computational chemistry and represents and warrants to the
 licensee that it is not a competitor of Gaussian, Inc. and that
 it will not use this program in any manner prohibited above.
 ---------------------------------------------------------------
  

 Cite this work as:
 Gaussian 09, Revision C.01,
 M. J. Frisch, G. W. Trucks, H. B. Schlegel, G. E. Scuseria, 
 M. A. Robb, J. R. Cheeseman, G. Scalmani, V. Barone, B. Mennucci, 
 G. A. Petersson, H. Nakatsuji, M. Caricato, X. Li, H. P. Hratchian, 
 A. F. Izmaylov, J. Bloino, G. Zheng, J. L. Sonnenberg, M. Hada, 
 M. Ehara, K. Toyota, R. Fukuda, J. Hasegawa, M. Ishida, T. Nakajima, 
 Y. Honda, O. Kitao, H. Nakai, T. Vreven, J. A. Montgomery, Jr., 
 J. E. Peralta, F. Ogliaro, M. Bearpark, J. J. Heyd, E. Brothers, 
 K. N. Kudin, V. N. Staroverov, T. Keith, R. Kobayashi, J. Normand, 
 K. Raghavachari, A. Rendell, J. C. Burant, S. S. Iyengar, J. Tomasi, 
 M. Cossi, N. Rega, J. M. Millam, M. Klene, J. E. Knox, J. B. Cross, 
 V. Bakken, C. Adamo, J. Jaramillo, R. Gomperts, R. E. Stratmann, 
 O. Yazyev, A. J. Austin, R. Cammi, C. Pomelli, J. W. Ochterski, 
 R. L. Martin, K. Morokuma, V. G. Zakrzewski, G. A. Voth, 
 P. Salvador, J. J. Dannenberg, S. Dapprich, A. D. Daniels, 
 O. Farkas, J. B. Foresman, J. V. Ortiz, J. Cioslowski, 
 and D. J. Fox, Gaussian, Inc., Wallingford CT, 2010.
 
 ******************************************
 Gaussian 09:  AM64L-G09RevC.01 23-Sep-2011
                17-Feb-2018 
 ******************************************
 %nprocs=2
 Will use up to    2 processors via shared memory.
 %chk=frag16-conf0.chk
 ----------------------------------------------------------------------
 #HF/6-31G* Geom=AllCheck Guess=Read Pop=(MK,ReadRadii) Integral=(Grid=
 UltraFine) iop(6/33=2)
 ----------------------------------------------------------------------
 1/29=7,38=1/1;
 2/12=2,40=1/2;
 3/5=1,6=6,7=1,11=9,14=-4,16=1,25=1,30=1,75=-5,116=-2/1,2,3;
 4/5=1/1;
 5/5=2,38=6/2;
 6/7=2,8=2,9=2,10=2,15=8,20=101,28=1,33=2/1,2;
 99/5=1,9=1/99;
 Structure from the checkpoint file:  frag16-conf0.chk
 -----------------------------
 Optimization for frag16-conf0
 -----------------------------
 Charge =  0 Multiplicity = 1
 Redundant internal coordinates found in file.
 C,0,4.8166639338,-3.8259535475,0.5531257378
 C,0,5.9432508897,-2.6299232161,-2.7126947898
 C,0,2.8883105853,-7.1140762267,-4.7501583946
 C,0,4.2628449935,-6.902348834,-4.1014867341
 C,0,2.3208722055,-5.7883553582,-5.2760214768
 C,0,4.2220256351,-5.8324789476,-2.9976593106
 C,0,2.2737084291,-4.7224011763,-4.1716235597
 C,0,3.6477797121,-4.4942554331,-3.504971699
 C,0,5.5297029015,-4.7579603759,1.5219426178
 C,0,6.9169740599,-1.3316055613,-4.5258288748
 C,0,4.8754318365,-0.4766610055,-3.4605870744
 C,0,3.5096146716,-3.4101770871,-2.4179234619
 C,0,4.7974783564,-2.8887766839,-1.7178022479
 N,0,5.3178790559,-3.8001936195,-0.7131438596
 N,0,5.884866337,-1.523127009,-3.5132066128
 O,0,3.8461701484,-3.1526278082,0.8921157947
 O,0,6.8686876085,-3.4424555234,-2.7902890653
 H,0,2.9571682776,-7.8491081735,-5.5625026393
 H,0,2.1955226523,-7.5339259239,-4.0055517441
 H,0,4.6398311361,-7.8470807269,-3.6889227953
 H,0,4.9824838193,-6.5931663166,-4.874138955
 H,0,2.9523416206,-5.4274729737,-6.1017268131
 H,0,1.3174535122,-5.9392325354,-5.6947984034
 H,0,3.6041393334,-6.1917735421,-2.1606613212
 H,0,5.2311117282,-5.6796765794,-2.6044314913
 H,0,1.8965696507,-3.774544895,-4.580023226
 H,0,1.5532758099,-5.0340301395,-3.3996152442
 H,0,4.3303891229,-4.1177290623,-4.2841951294
 H,0,5.8622595418,-4.1783555032,2.3886277764
 H,0,4.8158076342,-5.5043740371,1.8844468058
 H,0,6.3897273158,-5.2732352934,1.0834059503
 H,0,6.4610270825,-1.2513307179,-5.520923273
 H,0,7.5936045074,-2.1838068921,-4.4988124567
 H,0,7.479778426,-0.4102724999,-4.3277979583
 H,0,5.3659982392,0.5030081205,-3.3986979783
 H,0,4.2296959631,-0.5852849718,-2.5916162699
 H,0,4.2504911301,-0.4865870166,-4.363903234
 H,0,3.0025475794,-2.545964991,-2.8682833898
 H,0,2.8498374007,-3.7603511231,-1.6152643555
 H,0,4.5174968434,-1.9738888639,-1.1850786834
 H,0,6.179974171,-4.2703107962,-0.9606402538
 Recover connectivity data from disk.
                          Input orientation:                          
 ---------------------------------------------------------------------
 Center     Atomic      Atomic             Coordinates (Angstroms)
 Number     Number       Type             X           Y           Z
 ---------------------------------------------------------------------
      1          6           0        4.816664   -3.825954    0.553126
      2          6           0        5.943251   -2.629923   -2.712695
      3          6           0        2.888311   -7.114076   -4.750158
      4          6           0        4.262845   -6.902349   -4.101487
      5          6           0        2.320872   -5.788355   -5.276021
      6          6           0        4.222026   -5.832479   -2.997659
      7          6           0        2.273708   -4.722401   -4.171624
      8          6           0        3.647780   -4.494255   -3.504972
      9          6           0        5.529703   -4.757960    1.521943
     10          6           0        6.916974   -1.331606   -4.525829
     11          6           0        4.875432   -0.476661   -3.460587
     12          6           0        3.509615   -3.410177   -2.417923
     13          6           0        4.797478   -2.888777   -1.717802
     14          7           0        5.317879   -3.800194   -0.713144
     15          7           0        5.884866   -1.523127   -3.513207
     16          8           0        3.846170   -3.152628    0.892116
     17          8           0        6.868688   -3.442456   -2.790289
     18          1           0        2.957168   -7.849108   -5.562503
     19          1           0        2.195523   -7.533926   -4.005552
     20          1           0        4.639831   -7.847081   -3.688923
     21          1           0        4.982484   -6.593166   -4.874139
     22          1           0        2.952342   -5.427473   -6.101727
     23          1           0        1.317454   -5.939233   -5.694798
     24          1           0        3.604139   -6.191774   -2.160661
     25          1           0        5.231112   -5.679677   -2.604431
     26          1           0        1.896570   -3.774545   -4.580023
     27          1           0        1.553276   -5.034030   -3.399615
     28          1           0        4.330389   -4.117729   -4.284195
     29          1           0        5.862260   -4.178356    2.388628
     30          1           0        4.815808   -5.504374    1.884447
     31          1           0        6.389727   -5.273235    1.083406
     32          1           0        6.461027   -1.251331   -5.520923
     33          1           0        7.593605   -2.183807   -4.498812
     34          1           0        7.479778   -0.410272   -4.327798
     35          1           0        5.365998    0.503008   -3.398698
     36          1           0        4.229696   -0.585285   -2.591616
     37          1           0        4.250491   -0.486587   -4.363903
     38          1           0        3.002548   -2.545965   -2.868283
     39          1           0        2.849837   -3.760351   -1.615264
     40          1           0        4.517497   -1.973889   -1.185079
     41          1           0        6.179974   -4.270311   -0.960640
 ---------------------------------------------------------------------
                    Distance matrix (angstroms):
                    1          2          3          4          5
     1  C    0.000000
     2  C    3.655854   0.000000
     3  C    6.531089   5.795821   0.000000
     4  C    5.606812   4.796470   1.534584   0.000000
     5  C    6.637692   5.446831   1.534944   2.528195   0.000000
     6  C    4.121628   3.646942   2.548046   1.537766   2.967704
     7  C    5.439991   4.469058   2.536247   2.951907   1.535636
     8  C    4.275637   3.061474   2.998457   2.555983   2.563590
     9  C    1.521732   4.757281   7.201909   6.150308   7.587531
    10  C    6.035632   2.433356   7.051058   6.185277   6.445895
    11  C    5.227916   2.517165   7.047477   6.486561   6.167307
    12  C    3.272366   2.572600   4.420883   3.949304   3.903532
    13  C    2.456783   1.539354   5.540150   4.698569   5.215559
    14  N    1.362101   2.399756   5.760391   4.713526   5.809879
    15  N    4.793655   1.367196   6.462825   5.649164   5.831101
    16  O    1.228878   4.203050   6.960304   6.258601   6.878918
    17  O    3.941611   1.233962   5.758931   4.525540   5.689001
    18  H    7.552775   6.654171   1.097687   2.176169   2.175694
    19  H    6.434359   6.306044   1.100304   2.163773   2.162596
    20  H    5.847710   5.465405   2.175165   1.097655   3.483504
    21  H    6.094273   4.615432   2.161546   1.100211   2.809521
    22  H    7.094197   5.315765   2.162283   2.809562   1.100354
    23  H    7.466390   6.422030   2.177199   3.484475   1.097719
    24  H    3.798942   4.296855   2.840519   2.169243   3.393374
    25  H    3.684864   3.133665   3.485737   2.161861   3.952050
    26  H    5.905829   4.601381   3.487831   3.951128   2.172528
    27  H    5.266243   5.052076   2.816536   3.365264   2.163125
    28  H    4.870449   2.698982   3.357798   2.791425   2.795151
    29  H    2.141617   5.331763   8.271946   7.218023   8.595369
    30  H    2.142315   5.537807   7.093967   6.171831   7.587994
    31  H    2.202351   4.647238   7.048339   5.836159   7.567248
    32  H    6.799021   3.170924   6.908702   6.227424   6.146987
    33  H    5.994174   2.472429   6.819862   5.789341   6.434169
    34  H    6.525525   3.145842   8.136397   7.248926   7.512471
    35  H    5.887154   3.258693   8.123137   7.519985   7.237292
    36  H    4.553665   2.670482   7.005978   6.495083   6.158050
    37  H    5.970686   3.191522   6.777045   6.421138   5.715255
    38  H    4.078655   2.946013   4.941877   4.699704   4.095727
    39  H    2.928246   3.471517   4.590916   4.248534   4.218264
    40  H    2.557538   2.190152   6.464176   5.732364   6.009253
    41  H    2.085079   2.411764   5.769099   4.524149   5.984951
                    6          7          8          9         10
     6  C    0.000000
     7  C    2.531088   0.000000
     8  C    1.542066   1.544198   0.000000
     9  C    4.826118   6.558922   5.374109   0.000000
    10  C    5.464056   5.760458   4.661774   7.088016   0.000000
    11  C    5.415351   5.029995   4.201210   6.601757   2.456332
    12  C    2.590592   2.514928   1.541424   4.628155   4.513737
    13  C    3.261068   3.968984   2.663333   3.811292   3.847344
    14  N    3.248090   4.698779   3.326448   2.440860   4.815350
    15  N    4.647724   4.869223   3.719170   5.995249   1.458537
    16  O    4.738483   5.529763   4.601489   2.409991   6.488458
    17  O    3.572119   4.965902   3.462846   4.703060   2.733152
    18  H    3.499297   3.489693   3.995674   8.146318   7.696271
    19  H    2.831516   2.817510   3.405764   7.026801   7.812270
    20  H    2.170490   3.949071   3.501349   6.122716   6.952497
    21  H    2.162896   3.366119   2.839275   6.676623   5.616724
    22  H    3.378071   2.164017   2.845640   8.075356   5.914211
    23  H    3.965160   2.171443   3.509091   8.439182   7.345158
    24  H    1.100655   2.823663   2.165789   4.396042   6.339568
    25  H    1.093724   3.481193   2.173278   4.238594   5.043771
    26  H    3.485214   1.098843   2.177259   7.169432   5.583489
    27  H    2.814483   1.100969   2.165503   6.333239   6.614043
    28  H    2.146459   2.146680   1.102233   5.963177   3.809369
    29  H    5.868439   7.497372   6.303826   1.094385   7.551564
    30  H    4.929015   6.614358   5.606288   1.094618   7.932120
    31  H    4.654759   6.697788   5.401694   1.094287   6.875896
    32  H    5.689192   5.603800   4.742888   7.922485   1.097517
    33  H    5.189780   5.903627   4.679255   6.865526   1.088488
    34  H    6.463942   6.761805   5.660404   7.544843   1.097643
    35  H    6.450419   6.120831   5.285472   7.205366   2.653631
    36  H    5.262887   4.841285   4.056217   6.001883   3.394059
    37  H    5.517789   4.678329   4.142756   7.384050   2.801858
    38  H    3.507854   2.639465   2.148844   5.527524   4.420957
    39  H    2.843876   2.791494   2.178605   4.244876   5.559837
    40  H    4.273344   4.637710   3.534199   4.012927   4.163007
    41  H    3.228526   5.076782   3.596635   2.612254   4.678646
                   11         12         13         14         15
    11  C    0.000000
    12  C    3.399724   0.000000
    13  C    2.976857   1.555834   0.000000
    14  N    4.334752   2.515593   1.452872   0.000000
    15  N    1.454929   3.225279   2.504174   3.653335   0.000000
    16  O    5.212121   3.337059   2.790390   2.272032   5.120393
    17  O    3.635699   3.379803   2.397227   2.616776   2.274717
    18  H    7.902579   5.467878   6.540134   6.744104   7.265609
    19  H    7.568612   4.610066   5.794945   5.876208   7.069891
    20  H    7.377719   4.751730   5.338066   5.068758   6.447742
    21  H    6.278633   4.281794   4.870235   5.022655   5.326512
    22  H    5.931647   4.236796   5.391503   6.105787   5.526668
    23  H    6.891342   4.683973   6.101832   6.737639   6.717335
    24  H    5.997375   2.795067   3.539770   3.279004   5.369111
    25  H    5.284968   2.854639   2.960282   2.667762   4.304669
    26  H    4.582881   2.722013   4.170392   5.163213   4.702498
    27  H    5.640040   2.725414   4.237388   4.786619   5.576919
    28  H    3.772635   2.158071   2.883551   3.718652   3.121343
    29  H    6.992116   5.406290   4.433908   3.171805   6.471661
    30  H    7.338313   4.960060   4.451728   3.147028   6.791751
    31  H    6.778502   4.901565   4.008449   2.558574   5.953742
    32  H    2.712787   4.795838   4.462326   5.560417   2.106362
    33  H    3.373533   4.744792   4.006160   4.703501   2.080313
    34  H    2.745739   5.330033   4.488852   5.406579   2.108494
    35  H    1.097377   4.440844   3.827901   5.072678   2.094650
    36  H    1.088064   2.920394   2.528241   3.879232   2.113875
    37  H    1.098467   3.589306   3.615461   5.044537   2.114068
    38  H    2.853163   1.098546   2.159376   3.402716   3.125682
    39  H    4.276783   1.096444   2.136226   2.628048   4.221227
    40  H    2.747316   2.144448   1.095082   2.049079   2.737346
    41  H    4.726875   3.161380   2.096002   1.012656   3.761609
                   16         17         18         19         20
    16  O    0.000000
    17  O    4.772810   0.000000
    18  H    8.031771   6.511815   0.000000
    19  H    6.775512   6.328939   1.761687   0.000000
    20  H    6.607095   5.017576   2.518265   2.484545   0.000000
    21  H    6.810155   4.222224   2.480552   3.067022   1.759105
    22  H    7.408622   5.499425   2.480948   3.066573   3.811003
    23  H    7.585975   6.744351   2.520673   2.483467   4.324536
    24  H    4.314445   4.314216   3.838991   2.681267   2.479573
    25  H    4.530991   2.778733   4.315951   3.823111   2.494669
    26  H    5.842262   5.294845   4.323448   3.814752   4.990500
    27  H    5.216895   5.581934   3.817546   2.651249   4.186141
    28  H    5.287729   3.021706   4.176481   4.038031   3.789217
    29  H    2.712247   5.326878   9.226833   8.098787   7.203506
    30  H    2.730500   5.506267   8.025545   6.758480   6.048280
    31  H    3.317115   4.311226   7.911111   6.971339   5.697538
    32  H    7.181885   3.524710   7.470570   7.743506   7.083565
    33  H    6.636564   2.242488   7.397541   7.616191   6.438429
    34  H    6.926119   3.454200   8.792882   8.875452   7.986212
    35  H    5.838205   4.265550   8.957810   8.660975   8.386628
    36  H    4.344506   3.894505   7.950385   7.377038   7.355676
    37  H    5.907367   4.250691   7.570736   7.349578   7.401625
    38  H    3.901326   3.969486   5.948462   5.179230   5.608563
    39  H    2.765676   4.199154   5.684201   4.514584   4.919908
    40  H    2.480895   3.203355   7.490972   6.652867   6.385811
    41  H    3.182540   2.123037   6.661187   5.983187   4.754876
                   21         22         23         24         25
    21  H    0.000000
    22  H    2.643348   0.000000
    23  H    3.812290   1.760780   0.000000
    24  H    3.069839   4.067062   4.216970   0.000000
    25  H    2.459238   4.181803   4.993441   1.762446   0.000000
    26  H    4.189749   2.482420   2.502793   3.822578   4.318757
    27  H    4.045317   3.068157   2.478481   2.661093   3.817807
    28  H    2.626985   2.630184   3.792817   3.055895   2.464262
    29  H    7.704096   9.061680   9.439159   5.463423   5.251948
    30  H    6.847754   8.201060   8.358980   4.278266   4.511456
    31  H    6.262180   7.966526   8.492089   4.373464   3.886866
    32  H    5.580289   5.485287   6.961538   6.622775   5.443240
    33  H    5.138217   5.884898   7.411051   6.119361   4.625057
    34  H    6.690526   6.986903   8.391206   7.289912   5.982735
    35  H    7.258078   6.950015   7.947657   7.032566   6.234953
    36  H    6.470799   6.115496   6.839273   5.657717   5.191900
    37  H    6.171423   5.396071   6.332877   6.149894   5.570057
    38  H    4.931880   4.331370   4.726838   3.762255   3.854382
    39  H    4.815941   4.787290   4.872199   2.603506   3.214456
    40  H    5.929848   6.208895   6.804543   4.424538   4.031956
    41  H    4.705859   6.179596   6.988681   3.430305   2.364043
                   26         27         28         29         30
    26  H    0.000000
    27  H    1.759976   0.000000
    28  H    2.475635   3.055233   0.000000
    29  H    8.028191   7.266586   6.846668   0.000000
    30  H    7.300934   6.227893   6.341180   1.762834   0.000000
    31  H    7.383019   6.598936   5.864061   1.783420   1.781099
    32  H    5.299639   6.549411   3.779597   8.454998   8.696817
    33  H    5.915509   6.768868   3.799301   7.376491   7.712867
    34  H    6.523355   7.573909   4.864750   7.869256   8.463959
    35  H    5.632932   6.722771   4.817448   7.460200   8.018913
    36  H    4.423643   5.254276   3.918306   6.354388   6.676534
    37  H    4.049484   5.374389   3.632895   7.862800   8.033657
    38  H    2.379632   2.927998   2.497681   6.203045   5.884602
    39  H    3.114276   2.547006   3.072937   5.027978   4.376601
    40  H    4.651588   4.801588   3.773007   4.409018   4.687782
    41  H    5.629678   5.285660   3.806608   3.365560   3.387976
                   31         32         33         34         35
    31  H    0.000000
    32  H    7.732914   0.000000
    33  H    6.492692   1.788003   0.000000
    34  H    7.356476   1.780107   1.785393   0.000000
    35  H    7.382565   2.963213   3.659434   2.483017   0.000000
    36  H    6.336277   3.742098   4.184322   3.688901   1.768317
    37  H    7.560523   2.609597   3.751688   3.230391   1.776310
    38  H    5.875954   4.546829   4.885446   5.170780   3.894031
    39  H    4.701325   5.881330   5.770933   6.325916   5.261932
    40  H    4.420063   4.806137   4.526294   4.593114   3.428569
    41  H    2.286477   5.476259   4.344020   5.284613   5.421370
                   36         37         38         39         40
    36  H    0.000000
    37  H    1.775155   0.000000
    38  H    2.329529   2.834657   0.000000
    39  H    3.596987   4.498264   1.751602   0.000000
    40  H    1.997348   3.519699   2.335706   2.481450   0.000000
    41  H    4.476950   5.442579   4.087604   3.431968   2.843898
                   41
    41  H    0.000000
 Stoichiometry    C13H24N2O2
 Framework group  C1[X(C13H24N2O2)]
 Deg. of freedom   117
 Full point group                 C1      NOp   1
 Largest Abelian subgroup         C1      NOp   1
 Largest concise Abelian subgroup C1      NOp   1
                         Standard orientation:                         
 ---------------------------------------------------------------------
 Center     Atomic      Atomic             Coordinates (Angstroms)
 Number     Number       Type             X           Y           Z
 ---------------------------------------------------------------------
      1          6           0       -2.115412    2.337405    0.237302
      2          6           0       -1.344737   -1.142983   -0.574012
      3          6           0        4.162786    0.653674   -0.398625
      4          6           0        2.998344    0.719312   -1.395979
      5          6           0        3.908036   -0.417407    0.670927
      6          6           0        1.647890    0.937893   -0.693684
      7          6           0        2.562593   -0.194628    1.376852
      8          6           0        1.376703   -0.124872    0.390269
      9          6           0       -2.453586    3.481338   -0.707538
     10          6           0       -1.477649   -3.532458   -1.014424
     11          6           0       -1.758492   -2.768267    1.303053
     12          6           0        0.071953    0.094033    1.181280
     13          6           0       -1.281792    0.033362    0.416877
     14          7           0       -1.567908    1.235574   -0.347100
     15          7           0       -1.520165   -2.408128   -0.086305
     16          8           0       -2.313655    2.412182    1.447776
     17          8           0       -1.201088   -0.923255   -1.779727
     18          1           0        5.105789    0.452845   -0.923342
     19          1           0        4.278536    1.632570    0.090285
     20          1           0        3.168679    1.517806   -2.129627
     21          1           0        2.958157   -0.220959   -1.965840
     22          1           0        3.908268   -1.409748    0.195492
     23          1           0        4.721516   -0.425387    1.407931
     24          1           0        1.633420    1.934942   -0.227717
     25          1           0        0.846585    0.923793   -1.437958
     26          1           0        2.387742   -0.991753    2.112701
     27          1           0        2.605097    0.746788    1.946117
     28          1           0        1.314712   -1.102218   -0.115565
     29          1           0       -3.514320    3.727338   -0.597963
     30          1           0       -1.882135    4.366244   -0.409926
     31          1           0       -2.243219    3.260067   -1.758371
     32          1           0       -0.699344   -4.244489   -0.711441
     33          1           0       -1.261168   -3.152937   -2.011372
     34          1           0       -2.441866   -4.056889   -1.023218
     35          1           0       -2.641799   -3.416240    1.367383
     36          1           0       -1.939375   -1.890352    1.919844
     37          1           0       -0.903531   -3.317972    1.719582
     38          1           0        0.035453   -0.656335    1.982791
     39          1           0        0.092196    1.068552    1.683367
     40          1           0       -2.068202   -0.041456    1.175274
     41          1           0       -1.506566    1.133848   -1.352765
 ---------------------------------------------------------------------
 Rotational constants (GHZ):      0.4619930      0.3451374      0.2475752
 Standard basis: 6-31G(d) (6D, 7F)
 There are   303 symmetry adapted basis functions of A   symmetry.
 Integral buffers will be    131072 words long.
 Raffenetti 1 integral format.
 Two-electron integral symmetry is turned on.
   303 basis functions,   572 primitive gaussians,   303 cartesian basis functions
    66 alpha electrons       66 beta electrons
       nuclear repulsion energy      1321.3906022422 Hartrees.
 NAtoms=   41 NActive=   41 NUniq=   41 SFac= 1.00D+00 NAtFMM=   60 NAOKFM=F Big=F
 One-electron integrals computed using PRISM.
 NBasis=   303 RedAO= T  NBF=   303
 NBsUse=   303 1.00D-06 NBFU=   303
 Initial guess read from the checkpoint file:  frag16-conf0.chk
 B after Tr=     0.000000    0.000000    0.000000
         Rot=    1.000000    0.000000    0.000000    0.000000 Ang=   0.00 deg.
 Initial guess orbital symmetries:
       Occupied  (A) (A) (A) (A) (A) (A) (A) (A) (A) (A) (A) (A)
                 (A) (A) (A) (A) (A) (A) (A) (A) (A) (A) (A) (A)
                 (A) (A) (A) (A) (A) (A) (A) (A) (A) (A) (A) (A)
                 (A) (A) (A) (A) (A) (A) (A) (A) (A) (A) (A) (A)
                 (A) (A) (A) (A) (A) (A) (A) (A) (A) (A) (A) (A)
                 (A) (A) (A) (A) (A) (A)
       Virtual   (A) (A) (A) (A) (A) (A) (A) (A) (A) (A) (A) (A)
                 (A) (A) (A) (A) (A) (A) (A) (A) (A) (A) (A) (A)
                 (A) (A) (A) (A) (A) (A) (A) (A) (A) (A) (A) (A)
                 (A) (A) (A) (A) (A) (A) (A) (A) (A) (A) (A) (A)
                 (A) (A) (A) (A) (A) (A) (A) (A) (A) (A) (A) (A)
                 (A) (A) (A) (A) (A) (A) (A) (A) (A) (A) (A) (A)
                 (A) (A) (A) (A) (A) (A) (A) (A) (A) (A) (A) (A)
                 (A) (A) (A) (A) (A) (A) (A) (A) (A) (A) (A) (A)
                 (A) (A) (A) (A) (A) (A) (A) (A) (A) (A) (A) (A)
                 (A) (A) (A) (A) (A) (A) (A) (A) (A) (A) (A) (A)
                 (A) (A) (A) (A) (A) (A) (A) (A) (A) (A) (A) (A)
                 (A) (A) (A) (A) (A) (A) (A) (A) (A) (A) (A) (A)
                 (A) (A) (A) (A) (A) (A) (A) (A) (A) (A) (A) (A)
                 (A) (A) (A) (A) (A) (A) (A) (A) (A) (A) (A) (A)
                 (A) (A) (A) (A) (A) (A) (A) (A) (A) (A) (A) (A)
                 (A) (A) (A) (A) (A) (A) (A) (A) (A) (A) (A) (A)
                 (A) (A) (A) (A) (A) (A) (A) (A) (A) (A) (A) (A)
                 (A) (A) (A) (A) (A) (A) (A) (A) (A) (A) (A) (A)
                 (A) (A) (A) (A) (A) (A) (A) (A) (A) (A) (A) (A)
                 (A) (A) (A) (A) (A) (A) (A) (A) (A)
 Requested convergence on RMS density matrix=1.00D-08 within 128 cycles.
 Requested convergence on MAX density matrix=1.00D-06.
 Requested convergence on             energy=1.00D-06.
 No special actions if energy rises.
 SCF Done:  E(RHF) =  -764.921038354     A.U. after   13 cycles
             Convg  =    0.7769D-08             -V/T =  2.0022

 **********************************************************************

            Population analysis using the SCF density.

 **********************************************************************

 Orbital symmetries:
 BldTbl:  Degeneracy threshold= 1.00D-02
       Occupied  (A) (A) (A) (A) (A) (A) (A) (A) (A) (A) (A) (A)
                 (A) (A) (A) (A) (A) (A) (A) (A) (A) (A) (A) (A)
                 (A) (A) (A) (A) (A) (A) (A) (A) (A) (A) (A) (A)
                 (A) (A) (A) (A) (A) (A) (A) (A) (A) (A) (A) (A)
                 (A) (A) (A) (A) (A) (A) (A) (A) (A) (A) (A) (A)
                 (A) (A) (A) (A) (A) (A)
       Virtual   (A) (A) (A) (A) (A) (A) (A) (A) (A) (A) (A) (A)
                 (A) (A) (A) (A) (A) (A) (A) (A) (A) (A) (A) (A)
                 (A) (A) (A) (A) (A) (A) (A) (A) (A) (A) (A) (A)
                 (A) (A) (A) (A) (A) (A) (A) (A) (A) (A) (A) (A)
                 (A) (A) (A) (A) (A) (A) (A) (A) (A) (A) (A) (A)
                 (A) (A) (A) (A) (A) (A) (A) (A) (A) (A) (A) (A)
                 (A) (A) (A) (A) (A) (A) (A) (A) (A) (A) (A) (A)
                 (A) (A) (A) (A) (A) (A) (A) (A) (A) (A) (A) (A)
                 (A) (A) (A) (A) (A) (A) (A) (A) (A) (A) (A) (A)
                 (A) (A) (A) (A) (A) (A) (A) (A) (A) (A) (A) (A)
                 (A) (A) (A) (A) (A) (A) (A) (A) (A) (A) (A) (A)
                 (A) (A) (A) (A) (A) (A) (A) (A) (A) (A) (A) (A)
                 (A) (A) (A) (A) (A) (A) (A) (A) (A) (A) (A) (A)
                 (A) (A) (A) (A) (A) (A) (A) (A) (A) (A) (A) (A)
                 (A) (A) (A) (A) (A) (A) (A) (A) (A) (A) (A) (A)
                 (A) (A) (A) (A) (A) (A) (A) (A) (A) (A) (A) (A)
                 (A) (A) (A) (A) (A) (A) (A) (A) (A) (A) (A) (A)
                 (A) (A) (A) (A) (A) (A) (A) (A) (A) (A) (A) (A)
                 (A) (A) (A) (A) (A) (A) (A) (A) (A) (A) (A) (A)
                 (A) (A) (A) (A) (A) (A) (A) (A) (A)
 The electronic state is 1-A.
 Alpha  occ. eigenvalues --  -20.53366 -20.51462 -15.60544 -15.57953 -11.36384
 Alpha  occ. eigenvalues --  -11.34830 -11.28331 -11.27981 -11.26299 -11.23338
 Alpha  occ. eigenvalues --  -11.22905 -11.22626 -11.21761 -11.21651 -11.21432
 Alpha  occ. eigenvalues --  -11.21302 -11.21062  -1.38794  -1.36528  -1.25284
 Alpha  occ. eigenvalues --   -1.22444  -1.11716  -1.05665  -1.00949  -0.99645
 Alpha  occ. eigenvalues --   -0.98464  -0.97383  -0.93838  -0.87707  -0.82704
 Alpha  occ. eigenvalues --   -0.80636  -0.77791  -0.75465  -0.74166  -0.70604
 Alpha  occ. eigenvalues --   -0.67582  -0.66397  -0.64915  -0.63878  -0.63184
 Alpha  occ. eigenvalues --   -0.62157  -0.60289  -0.59876  -0.58991  -0.58537
 Alpha  occ. eigenvalues --   -0.57915  -0.57015  -0.56633  -0.55685  -0.54741
 Alpha  occ. eigenvalues --   -0.53608  -0.53299  -0.52049  -0.51755  -0.51385
 Alpha  occ. eigenvalues --   -0.49318  -0.48265  -0.47691  -0.46971  -0.44597
 Alpha  occ. eigenvalues --   -0.43342  -0.42196  -0.41849  -0.41003  -0.38302
 Alpha  occ. eigenvalues --   -0.37187
 Alpha virt. eigenvalues --    0.17968   0.20237   0.21043   0.22869   0.24264
 Alpha virt. eigenvalues --    0.24631   0.25550   0.26693   0.28056   0.28726
 Alpha virt. eigenvalues --    0.28827   0.29757   0.30733   0.30771   0.31481
 Alpha virt. eigenvalues --    0.32070   0.32378   0.32586   0.33033   0.33242
 Alpha virt. eigenvalues --    0.33685   0.34100   0.34558   0.35153   0.35328
 Alpha virt. eigenvalues --    0.36164   0.37671   0.38527   0.39516   0.40443
 Alpha virt. eigenvalues --    0.42451   0.43332   0.43754   0.45064   0.45590
 Alpha virt. eigenvalues --    0.46274   0.47546   0.48856   0.51592   0.52205
 Alpha virt. eigenvalues --    0.54627   0.61380   0.64045   0.69490   0.70206
 Alpha virt. eigenvalues --    0.72198   0.72359   0.73243   0.73678   0.74363
 Alpha virt. eigenvalues --    0.75808   0.76166   0.76335   0.77292   0.78668
 Alpha virt. eigenvalues --    0.79720   0.82977   0.83389   0.85571   0.86723
 Alpha virt. eigenvalues --    0.88936   0.90750   0.91033   0.91923   0.92551
 Alpha virt. eigenvalues --    0.93684   0.94813   0.96067   0.96893   0.98335
 Alpha virt. eigenvalues --    0.98455   1.00149   1.00866   1.01629   1.02833
 Alpha virt. eigenvalues --    1.03269   1.05055   1.06275   1.06657   1.08621
 Alpha virt. eigenvalues --    1.09779   1.10365   1.11703   1.11894   1.12434
 Alpha virt. eigenvalues --    1.13296   1.13729   1.14604   1.15006   1.15454
 Alpha virt. eigenvalues --    1.16015   1.17030   1.17257   1.18039   1.18790
 Alpha virt. eigenvalues --    1.19939   1.20003   1.20618   1.20757   1.21057
 Alpha virt. eigenvalues --    1.21456   1.22058   1.23069   1.24360   1.25463
 Alpha virt. eigenvalues --    1.25771   1.26767   1.27923   1.29419   1.30650
 Alpha virt. eigenvalues --    1.32095   1.34690   1.37473   1.39797   1.40165
 Alpha virt. eigenvalues --    1.42758   1.43901   1.45101   1.48935   1.52362
 Alpha virt. eigenvalues --    1.55071   1.55253   1.58433   1.60637   1.63297
 Alpha virt. eigenvalues --    1.63547   1.64622   1.66446   1.67737   1.68965
 Alpha virt. eigenvalues --    1.70686   1.72113   1.73800   1.79252   1.83742
 Alpha virt. eigenvalues --    1.84468   1.86039   1.89577   1.92582   1.97263
 Alpha virt. eigenvalues --    1.99023   2.00673   2.01703   2.03199   2.03756
 Alpha virt. eigenvalues --    2.05512   2.08090   2.11261   2.11706   2.12299
 Alpha virt. eigenvalues --    2.13240   2.14878   2.16489   2.17695   2.19529
 Alpha virt. eigenvalues --    2.20246   2.21568   2.22061   2.23541   2.24299
 Alpha virt. eigenvalues --    2.25198   2.26390   2.29395   2.29891   2.31146
 Alpha virt. eigenvalues --    2.32116   2.33268   2.34362   2.35590   2.36215
 Alpha virt. eigenvalues --    2.38431   2.39406   2.40977   2.42611   2.43693
 Alpha virt. eigenvalues --    2.45731   2.47796   2.49605   2.52588   2.54131
 Alpha virt. eigenvalues --    2.55242   2.56163   2.57156   2.60414   2.63669
 Alpha virt. eigenvalues --    2.65092   2.66439   2.68013   2.68385   2.71354
 Alpha virt. eigenvalues --    2.72259   2.72555   2.74083   2.74639   2.75466
 Alpha virt. eigenvalues --    2.77119   2.77855   2.81863   2.83988   2.87445
 Alpha virt. eigenvalues --    2.90999   2.92237   2.94913   2.96648   2.98712
 Alpha virt. eigenvalues --    3.01067   3.02808   3.05973   3.07375   3.08475
 Alpha virt. eigenvalues --    3.09128   3.14931   3.18253   3.20803   3.28094
 Alpha virt. eigenvalues --    3.31912   3.36640   3.38391   3.53383   3.58000
 Alpha virt. eigenvalues --    4.41572   4.44335   4.50072   4.55269   4.59160
 Alpha virt. eigenvalues --    4.63470   4.64184   4.69963   4.70594   4.77401
 Alpha virt. eigenvalues --    4.78495   4.91941   4.93835   4.98545   5.00504
 Alpha virt. eigenvalues --    5.07509   5.11357
          Condensed to atoms (all electrons):
              1          2          3          4          5          6
     1  C    4.153623   0.003217   0.000000  -0.000002   0.000000   0.000131
     2  C    0.003217   4.159065  -0.000001  -0.000010  -0.000003  -0.000897
     3  C    0.000000  -0.000001   5.105857   0.338316   0.340804  -0.054334
     4  C   -0.000002  -0.000010   0.338316   5.104917  -0.057590   0.337744
     5  C    0.000000  -0.000003   0.340804  -0.057590   5.093634  -0.003693
     6  C    0.000131  -0.000897  -0.054334   0.337744  -0.003693   5.127268
     7  C   -0.000008   0.000031  -0.055639  -0.004702   0.340930  -0.056548
     8  C    0.000260  -0.003613  -0.003789  -0.049023  -0.048401   0.344226
     9  C    0.361776  -0.000035   0.000000   0.000000   0.000000  -0.000005
    10  C    0.000001  -0.029982   0.000000   0.000000   0.000000  -0.000003
    11  C    0.000007  -0.025043   0.000000   0.000000   0.000000  -0.000005
    12  C   -0.001957  -0.047486  -0.000395   0.003978   0.004128  -0.052435
    13  C   -0.031526   0.358275   0.000008  -0.000198  -0.000077  -0.000580
    14  N    0.280731  -0.044018  -0.000003   0.000170   0.000001  -0.003268
    15  N   -0.000076   0.305234   0.000000   0.000001   0.000000   0.000060
    16  O    0.571479   0.000465   0.000000   0.000000   0.000000  -0.000022
    17  O    0.000399   0.549745  -0.000001  -0.000014   0.000000  -0.002613
    18  H    0.000000   0.000000   0.402924  -0.037280  -0.037877   0.004212
    19  H    0.000000   0.000000   0.394661  -0.043083  -0.043334  -0.002659
    20  H    0.000000   0.000000  -0.037562   0.403067   0.004460  -0.037911
    21  H    0.000000   0.000002  -0.044058   0.395920  -0.003096  -0.042505
    22  H    0.000000  -0.000003  -0.043517  -0.002932   0.396053   0.000473
    23  H    0.000000   0.000000  -0.036996   0.004357   0.402750  -0.000379
    24  H    0.000092   0.000086  -0.002955  -0.042210   0.000398   0.391170
    25  H    0.000028  -0.000457   0.003947  -0.035380  -0.000284   0.397978
    26  H    0.000000   0.000009   0.004252  -0.000329  -0.036123   0.004372
    27  H   -0.000003  -0.000005  -0.003087   0.000367  -0.040925  -0.003142
    28  H   -0.000007   0.004592   0.000167  -0.002363  -0.002139  -0.046087
    29  H   -0.028368   0.000003   0.000000   0.000000   0.000000   0.000000
    30  H   -0.027798   0.000000   0.000000   0.000000   0.000000   0.000003
    31  H   -0.038892  -0.000034   0.000000   0.000000   0.000000   0.000006
    32  H    0.000000   0.001741   0.000000   0.000000   0.000000  -0.000001
    33  H    0.000000  -0.004891   0.000000   0.000000   0.000000   0.000001
    34  H    0.000000   0.000554   0.000000   0.000000   0.000000   0.000000
    35  H    0.000000   0.000537   0.000000   0.000000   0.000000   0.000000
    36  H   -0.000006  -0.003082   0.000000   0.000000   0.000000   0.000001
    37  H    0.000000   0.000710   0.000000   0.000000   0.000000  -0.000001
    38  H   -0.000039  -0.001772   0.000002  -0.000090   0.000024   0.004521
    39  H    0.002292   0.003674   0.000016  -0.000067  -0.000046  -0.003086
    40  H    0.000164  -0.033725   0.000000   0.000003   0.000001  -0.000077
    41  H   -0.010790  -0.006888   0.000000  -0.000005   0.000000  -0.000529
              7          8          9         10         11         12
     1  C   -0.000008   0.000260   0.361776   0.000001   0.000007  -0.001957
     2  C    0.000031  -0.003613  -0.000035  -0.029982  -0.025043  -0.047486
     3  C   -0.055639  -0.003789   0.000000   0.000000   0.000000  -0.000395
     4  C   -0.004702  -0.049023   0.000000   0.000000   0.000000   0.003978
     5  C    0.340930  -0.048401   0.000000   0.000000   0.000000   0.004128
     6  C   -0.056548   0.344226  -0.000005  -0.000003  -0.000005  -0.052435
     7  C    5.126368   0.355439   0.000000   0.000000  -0.000009  -0.060248
     8  C    0.355439   5.111463   0.000010   0.000046   0.000348   0.343626
     9  C    0.000000   0.000010   5.238842   0.000000   0.000000  -0.000309
    10  C    0.000000   0.000046   0.000000   4.972871  -0.049699  -0.000315
    11  C   -0.000009   0.000348   0.000000  -0.049699   4.953733  -0.003041
    12  C   -0.060248   0.343626  -0.000309  -0.000315  -0.003041   5.163211
    13  C    0.003916  -0.039202   0.005234   0.003329  -0.003002   0.327336
    14  N   -0.000132   0.000455  -0.101077  -0.000067   0.000301  -0.055949
    15  N   -0.000042  -0.001987   0.000000   0.215419   0.222078   0.006379
    16  O    0.000001   0.000072  -0.067898   0.000000   0.000006  -0.003503
    17  O    0.000026   0.002565  -0.000045  -0.007606   0.001707  -0.001886
    18  H    0.004448  -0.000264   0.000000   0.000000   0.000000   0.000010
    19  H   -0.003153   0.000235   0.000000   0.000000   0.000000  -0.000058
    20  H   -0.000348   0.004198   0.000000   0.000000   0.000000  -0.000075
    21  H    0.000458  -0.003722   0.000000   0.000000   0.000000  -0.000096
    22  H   -0.043714  -0.003727   0.000000   0.000000   0.000000  -0.000120
    23  H   -0.038106   0.004213   0.000000   0.000000   0.000000  -0.000087
    24  H   -0.003198  -0.045791   0.000012   0.000000   0.000000  -0.002825
    25  H    0.004124  -0.032995  -0.000020   0.000002  -0.000002  -0.003910
    26  H    0.399155  -0.039328   0.000000   0.000000   0.000002  -0.004496
    27  H    0.392406  -0.043880   0.000000   0.000000   0.000000  -0.004183
    28  H   -0.046544   0.399353   0.000000   0.000051  -0.000066  -0.041513
    29  H    0.000000   0.000000   0.380534   0.000000   0.000000  -0.000003
    30  H    0.000000  -0.000001   0.380490   0.000000   0.000000   0.000028
    31  H    0.000000  -0.000002   0.375625   0.000000   0.000000   0.000008
    32  H    0.000000   0.000027   0.000000   0.398441  -0.001848   0.000003
    33  H    0.000000  -0.000003   0.000000   0.395481   0.003071  -0.000025
    34  H    0.000000  -0.000001   0.000000   0.399623  -0.002202   0.000001
    35  H    0.000000  -0.000010   0.000000  -0.002631   0.400231   0.000132
    36  H   -0.000008   0.000085   0.000000   0.003339   0.398053  -0.003356
    37  H    0.000009   0.000166   0.000000  -0.000872   0.398396  -0.000333
    38  H   -0.004804  -0.045803   0.000003   0.000013  -0.001492   0.395644
    39  H   -0.003626  -0.034449   0.000084   0.000003   0.000052   0.394891
    40  H   -0.000066   0.003558   0.000360  -0.000102  -0.004561  -0.044927
    41  H    0.000007   0.000042  -0.000360  -0.000011  -0.000032   0.002665
             13         14         15         16         17         18
     1  C   -0.031526   0.280731  -0.000076   0.571479   0.000399   0.000000
     2  C    0.358275  -0.044018   0.305234   0.000465   0.549745   0.000000
     3  C    0.000008  -0.000003   0.000000   0.000000  -0.000001   0.402924
     4  C   -0.000198   0.000170   0.000001   0.000000  -0.000014  -0.037280
     5  C   -0.000077   0.000001   0.000000   0.000000   0.000000  -0.037877
     6  C   -0.000580  -0.003268   0.000060  -0.000022  -0.002613   0.004212
     7  C    0.003916  -0.000132  -0.000042   0.000001   0.000026   0.004448
     8  C   -0.039202   0.000455  -0.001987   0.000072   0.002565  -0.000264
     9  C    0.005234  -0.101077   0.000000  -0.067898  -0.000045   0.000000
    10  C    0.003329  -0.000067   0.215419   0.000000  -0.007606   0.000000
    11  C   -0.003002   0.000301   0.222078   0.000006   0.001707   0.000000
    12  C    0.327336  -0.055949   0.006379  -0.003503  -0.001886   0.000010
    13  C    5.076851   0.201478  -0.096027   0.005224  -0.075677   0.000000
    14  N    0.201478   7.396583   0.002054  -0.098588  -0.013090   0.000000
    15  N   -0.096027   0.002054   7.366637  -0.000002  -0.091700   0.000000
    16  O    0.005224  -0.098588  -0.000002   8.214771  -0.000005   0.000000
    17  O   -0.075677  -0.013090  -0.091700  -0.000005   8.260547   0.000000
    18  H    0.000000   0.000000   0.000000   0.000000   0.000000   0.544005
    19  H    0.000001   0.000000   0.000000   0.000000   0.000000  -0.029030
    20  H    0.000000   0.000001   0.000000   0.000000  -0.000001  -0.002219
    21  H    0.000005  -0.000003  -0.000001   0.000000   0.000039  -0.003106
    22  H    0.000003   0.000000   0.000000   0.000000   0.000000  -0.003111
    23  H    0.000001   0.000000   0.000000   0.000000   0.000000  -0.002239
    24  H   -0.000294   0.000541  -0.000002  -0.000014   0.000034  -0.000089
    25  H    0.001001  -0.001128  -0.000015  -0.000007   0.005651  -0.000077
    26  H   -0.000061  -0.000001   0.000000   0.000000   0.000000  -0.000086
    27  H   -0.000058   0.000008  -0.000001  -0.000001   0.000000  -0.000086
    28  H   -0.005019   0.000218   0.000263  -0.000001  -0.000149  -0.000050
    29  H   -0.000112   0.001589   0.000000   0.000879   0.000000   0.000000
    30  H   -0.000120   0.001480   0.000000   0.000603   0.000000   0.000000
    31  H    0.000103   0.006037   0.000000   0.002469  -0.000024   0.000000
    32  H   -0.000003   0.000000  -0.048644   0.000000   0.000462   0.000000
    33  H    0.000532  -0.000007  -0.030038   0.000000   0.011056   0.000000
    34  H   -0.000102   0.000003  -0.047539   0.000000   0.000400   0.000000
    35  H   -0.000196   0.000004  -0.046789   0.000000  -0.000020   0.000000
    36  H    0.003256   0.000064  -0.034046  -0.000040   0.000051   0.000000
    37  H   -0.000007  -0.000011  -0.050318   0.000000  -0.000010   0.000000
    38  H   -0.040385   0.004040   0.000542   0.000022  -0.000004   0.000000
    39  H   -0.033708  -0.007056  -0.000083   0.005227  -0.000097   0.000000
    40  H    0.415779  -0.047574   0.001498   0.009361   0.001832   0.000000
    41  H   -0.027908   0.302462   0.000786   0.001714   0.024143   0.000000
             19         20         21         22         23         24
     1  C    0.000000   0.000000   0.000000   0.000000   0.000000   0.000092
     2  C    0.000000   0.000000   0.000002  -0.000003   0.000000   0.000086
     3  C    0.394661  -0.037562  -0.044058  -0.043517  -0.036996  -0.002955
     4  C   -0.043083   0.403067   0.395920  -0.002932   0.004357  -0.042210
     5  C   -0.043334   0.004460  -0.003096   0.396053   0.402750   0.000398
     6  C   -0.002659  -0.037911  -0.042505   0.000473  -0.000379   0.391170
     7  C   -0.003153  -0.000348   0.000458  -0.043714  -0.038106  -0.003198
     8  C    0.000235   0.004198  -0.003722  -0.003727   0.004213  -0.045791
     9  C    0.000000   0.000000   0.000000   0.000000   0.000000   0.000012
    10  C    0.000000   0.000000   0.000000   0.000000   0.000000   0.000000
    11  C    0.000000   0.000000   0.000000   0.000000   0.000000   0.000000
    12  C   -0.000058  -0.000075  -0.000096  -0.000120  -0.000087  -0.002825
    13  C    0.000001   0.000000   0.000005   0.000003   0.000001  -0.000294
    14  N    0.000000   0.000001  -0.000003   0.000000   0.000000   0.000541
    15  N    0.000000   0.000000  -0.000001   0.000000   0.000000  -0.000002
    16  O    0.000000   0.000000   0.000000   0.000000   0.000000  -0.000014
    17  O    0.000000  -0.000001   0.000039   0.000000   0.000000   0.000034
    18  H   -0.029030  -0.002219  -0.003106  -0.003111  -0.002239  -0.000089
    19  H    0.567555  -0.003107   0.004627   0.004653  -0.003074   0.002764
    20  H   -0.003107   0.544024  -0.028771  -0.000086  -0.000091  -0.003204
    21  H    0.004627  -0.028771   0.562861   0.002900  -0.000080   0.004538
    22  H    0.004653  -0.000086   0.002900   0.568452  -0.029240   0.000072
    23  H   -0.003074  -0.000091  -0.000080  -0.029240   0.543914  -0.000036
    24  H    0.002764  -0.003204   0.004538   0.000072  -0.000036   0.571446
    25  H   -0.000087  -0.002393  -0.003064  -0.000043   0.000011  -0.027139
    26  H   -0.000087   0.000012  -0.000043  -0.003014  -0.002559  -0.000087
    27  H    0.002855  -0.000041   0.000076   0.004545  -0.003090   0.002891
    28  H    0.000081  -0.000083   0.002822   0.002819  -0.000077   0.004886
    29  H    0.000000   0.000000   0.000000   0.000000   0.000000   0.000000
    30  H    0.000000   0.000000   0.000000   0.000000   0.000000   0.000007
    31  H    0.000000   0.000000   0.000000   0.000000   0.000000   0.000002
    32  H    0.000000   0.000000   0.000000   0.000000   0.000000   0.000000
    33  H    0.000000   0.000000   0.000000   0.000000   0.000000   0.000000
    34  H    0.000000   0.000000   0.000000   0.000000   0.000000   0.000000
    35  H    0.000000   0.000000   0.000000   0.000000   0.000000   0.000000
    36  H    0.000000   0.000000   0.000000   0.000000   0.000000   0.000000
    37  H    0.000000   0.000000   0.000000   0.000000   0.000000   0.000000
    38  H    0.000001   0.000002   0.000001   0.000011  -0.000007  -0.000033
    39  H   -0.000005   0.000000   0.000000  -0.000001   0.000001   0.002563
    40  H    0.000000   0.000000   0.000000   0.000000   0.000000  -0.000011
    41  H    0.000000  -0.000001   0.000000   0.000000   0.000000   0.000011
             25         26         27         28         29         30
     1  C    0.000028   0.000000  -0.000003  -0.000007  -0.028368  -0.027798
     2  C   -0.000457   0.000009  -0.000005   0.004592   0.000003   0.000000
     3  C    0.003947   0.004252  -0.003087   0.000167   0.000000   0.000000
     4  C   -0.035380  -0.000329   0.000367  -0.002363   0.000000   0.000000
     5  C   -0.000284  -0.036123  -0.040925  -0.002139   0.000000   0.000000
     6  C    0.397978   0.004372  -0.003142  -0.046087   0.000000   0.000003
     7  C    0.004124   0.399155   0.392406  -0.046544   0.000000   0.000000
     8  C   -0.032995  -0.039328  -0.043880   0.399353   0.000000  -0.000001
     9  C   -0.000020   0.000000   0.000000   0.000000   0.380534   0.380490
    10  C    0.000002   0.000000   0.000000   0.000051   0.000000   0.000000
    11  C   -0.000002   0.000002   0.000000  -0.000066   0.000000   0.000000
    12  C   -0.003910  -0.004496  -0.004183  -0.041513  -0.000003   0.000028
    13  C    0.001001  -0.000061  -0.000058  -0.005019  -0.000112  -0.000120
    14  N   -0.001128  -0.000001   0.000008   0.000218   0.001589   0.001480
    15  N   -0.000015   0.000000  -0.000001   0.000263   0.000000   0.000000
    16  O   -0.000007   0.000000  -0.000001  -0.000001   0.000879   0.000603
    17  O    0.005651   0.000000   0.000000  -0.000149   0.000000   0.000000
    18  H   -0.000077  -0.000086  -0.000086  -0.000050   0.000000   0.000000
    19  H   -0.000087  -0.000087   0.002855   0.000081   0.000000   0.000000
    20  H   -0.002393   0.000012  -0.000041  -0.000083   0.000000   0.000000
    21  H   -0.003064  -0.000043   0.000076   0.002822   0.000000   0.000000
    22  H   -0.000043  -0.003014   0.004545   0.002819   0.000000   0.000000
    23  H    0.000011  -0.002559  -0.003090  -0.000077   0.000000   0.000000
    24  H   -0.027139  -0.000087   0.002891   0.004886   0.000000   0.000007
    25  H    0.516520  -0.000092  -0.000086  -0.003040   0.000000   0.000001
    26  H   -0.000092   0.553282  -0.029234  -0.002679   0.000000   0.000000
    27  H   -0.000086  -0.029234   0.563368   0.004831   0.000000   0.000000
    28  H   -0.003040  -0.002679   0.004831   0.569953   0.000000   0.000000
    29  H    0.000000   0.000000   0.000000   0.000000   0.484217  -0.020370
    30  H    0.000001   0.000000   0.000000   0.000000  -0.020370   0.483645
    31  H    0.000011   0.000000   0.000000   0.000000  -0.022632  -0.022829
    32  H    0.000001   0.000000   0.000000  -0.000002   0.000000   0.000000
    33  H    0.000000   0.000000   0.000000   0.000021   0.000000   0.000000
    34  H    0.000000   0.000000   0.000000   0.000003   0.000000   0.000000
    35  H    0.000000   0.000000   0.000000   0.000005   0.000000   0.000000
    36  H    0.000000  -0.000001   0.000000  -0.000009   0.000000   0.000000
    37  H    0.000001   0.000028   0.000000  -0.000037   0.000000   0.000000
    38  H   -0.000099   0.002936   0.000202  -0.001615   0.000000   0.000000
    39  H    0.000005   0.000224   0.002449   0.003819   0.000001  -0.000001
    40  H    0.000074  -0.000001  -0.000001  -0.000081   0.000018  -0.000014
    41  H    0.001439   0.000000   0.000000  -0.000002  -0.000042   0.000048
             31         32         33         34         35         36
     1  C   -0.038892   0.000000   0.000000   0.000000   0.000000  -0.000006
     2  C   -0.000034   0.001741  -0.004891   0.000554   0.000537  -0.003082
     3  C    0.000000   0.000000   0.000000   0.000000   0.000000   0.000000
     4  C    0.000000   0.000000   0.000000   0.000000   0.000000   0.000000
     5  C    0.000000   0.000000   0.000000   0.000000   0.000000   0.000000
     6  C    0.000006  -0.000001   0.000001   0.000000   0.000000   0.000001
     7  C    0.000000   0.000000   0.000000   0.000000   0.000000  -0.000008
     8  C   -0.000002   0.000027  -0.000003  -0.000001  -0.000010   0.000085
     9  C    0.375625   0.000000   0.000000   0.000000   0.000000   0.000000
    10  C    0.000000   0.398441   0.395481   0.399623  -0.002631   0.003339
    11  C    0.000000  -0.001848   0.003071  -0.002202   0.400231   0.398053
    12  C    0.000008   0.000003  -0.000025   0.000001   0.000132  -0.003356
    13  C    0.000103  -0.000003   0.000532  -0.000102  -0.000196   0.003256
    14  N    0.006037   0.000000  -0.000007   0.000003   0.000004   0.000064
    15  N    0.000000  -0.048644  -0.030038  -0.047539  -0.046789  -0.034046
    16  O    0.002469   0.000000   0.000000   0.000000   0.000000  -0.000040
    17  O   -0.000024   0.000462   0.011056   0.000400  -0.000020   0.000051
    18  H    0.000000   0.000000   0.000000   0.000000   0.000000   0.000000
    19  H    0.000000   0.000000   0.000000   0.000000   0.000000   0.000000
    20  H    0.000000   0.000000   0.000000   0.000000   0.000000   0.000000
    21  H    0.000000   0.000000   0.000000   0.000000   0.000000   0.000000
    22  H    0.000000   0.000000   0.000000   0.000000   0.000000   0.000000
    23  H    0.000000   0.000000   0.000000   0.000000   0.000000   0.000000
    24  H    0.000002   0.000000   0.000000   0.000000   0.000000   0.000000
    25  H    0.000011   0.000001   0.000000   0.000000   0.000000   0.000000
    26  H    0.000000   0.000000   0.000000   0.000000   0.000000  -0.000001
    27  H    0.000000   0.000000   0.000000   0.000000   0.000000   0.000000
    28  H    0.000000  -0.000002   0.000021   0.000003   0.000005  -0.000009
    29  H   -0.022632   0.000000   0.000000   0.000000   0.000000   0.000000
    30  H   -0.022829   0.000000   0.000000   0.000000   0.000000   0.000000
    31  H    0.524397   0.000000   0.000000   0.000000   0.000000   0.000000
    32  H    0.000000   0.542410  -0.021298  -0.039779  -0.001361  -0.000052
    33  H    0.000000  -0.021298   0.427858  -0.021566  -0.000003  -0.000088
    34  H    0.000000  -0.039779  -0.021566   0.539222   0.004194  -0.000013
    35  H    0.000000  -0.001361  -0.000003   0.004194   0.527593  -0.023376
    36  H    0.000000  -0.000052  -0.000088  -0.000013  -0.023376   0.489450
    37  H    0.000000   0.003616  -0.000060  -0.000773  -0.039772  -0.026708
    38  H    0.000000  -0.000003   0.000001   0.000000   0.000101   0.000153
    39  H   -0.000009   0.000000   0.000000   0.000000   0.000001   0.000058
    40  H   -0.000021  -0.000003  -0.000012   0.000003   0.000064   0.000499
    41  H    0.001375   0.000000  -0.000012   0.000001   0.000001  -0.000003
             37         38         39         40         41
     1  C    0.000000  -0.000039   0.002292   0.000164  -0.010790
     2  C    0.000710  -0.001772   0.003674  -0.033725  -0.006888
     3  C    0.000000   0.000002   0.000016   0.000000   0.000000
     4  C    0.000000  -0.000090  -0.000067   0.000003  -0.000005
     5  C    0.000000   0.000024  -0.000046   0.000001   0.000000
     6  C   -0.000001   0.004521  -0.003086  -0.000077  -0.000529
     7  C    0.000009  -0.004804  -0.003626  -0.000066   0.000007
     8  C    0.000166  -0.045803  -0.034449   0.003558   0.000042
     9  C    0.000000   0.000003   0.000084   0.000360  -0.000360
    10  C   -0.000872   0.000013   0.000003  -0.000102  -0.000011
    11  C    0.398396  -0.001492   0.000052  -0.004561  -0.000032
    12  C   -0.000333   0.395644   0.394891  -0.044927   0.002665
    13  C   -0.000007  -0.040385  -0.033708   0.415779  -0.027908
    14  N   -0.000011   0.004040  -0.007056  -0.047574   0.302462
    15  N   -0.050318   0.000542  -0.000083   0.001498   0.000786
    16  O    0.000000   0.000022   0.005227   0.009361   0.001714
    17  O   -0.000010  -0.000004  -0.000097   0.001832   0.024143
    18  H    0.000000   0.000000   0.000000   0.000000   0.000000
    19  H    0.000000   0.000001  -0.000005   0.000000   0.000000
    20  H    0.000000   0.000002   0.000000   0.000000  -0.000001
    21  H    0.000000   0.000001   0.000000   0.000000   0.000000
    22  H    0.000000   0.000011  -0.000001   0.000000   0.000000
    23  H    0.000000  -0.000007   0.000001   0.000000   0.000000
    24  H    0.000000  -0.000033   0.002563  -0.000011   0.000011
    25  H    0.000001  -0.000099   0.000005   0.000074   0.001439
    26  H    0.000028   0.002936   0.000224  -0.000001   0.000000
    27  H    0.000000   0.000202   0.002449  -0.000001   0.000000
    28  H   -0.000037  -0.001615   0.003819  -0.000081  -0.000002
    29  H    0.000000   0.000000   0.000001   0.000018  -0.000042
    30  H    0.000000   0.000000  -0.000001  -0.000014   0.000048
    31  H    0.000000   0.000000  -0.000009  -0.000021   0.001375
    32  H    0.003616  -0.000003   0.000000  -0.000003   0.000000
    33  H   -0.000060   0.000001   0.000000  -0.000012  -0.000012
    34  H   -0.000773   0.000000   0.000000   0.000003   0.000001
    35  H   -0.039772   0.000101   0.000001   0.000064   0.000001
    36  H   -0.026708   0.000153   0.000058   0.000499  -0.000003
    37  H    0.538573   0.000048  -0.000019   0.000165   0.000000
    38  H    0.000048   0.558831  -0.024417  -0.002992  -0.000090
    39  H   -0.000019  -0.024417   0.487588  -0.002625  -0.000074
    40  H    0.000165  -0.002992  -0.002625   0.475225   0.002183
    41  H    0.000000  -0.000090  -0.000074   0.002183   0.280538
 Mulliken atomic charges:
              1
     1  C    0.765273
     2  C    0.814004
     3  C   -0.308616
     4  C   -0.313561
     5  C   -0.309598
     6  C   -0.301387
     7  C   -0.306425
     8  C   -0.174397
     9  C   -0.573223
    10  C   -0.297333
    11  C   -0.286982
    12  C   -0.308511
    13  C   -0.048071
    14  N   -0.826251
    15  N   -0.673642
    16  O   -0.642211
    17  O   -0.665717
    18  H    0.159917
    19  H    0.150244
    20  H    0.160128
    21  H    0.154293
    22  H    0.149530
    23  H    0.160814
    24  H    0.146375
    25  H    0.179525
    26  H    0.153951
    27  H    0.153825
    28  H    0.157680
    29  H    0.204285
    30  H    0.204829
    31  H    0.174412
    32  H    0.166293
    33  H    0.239981
    34  H    0.167972
    35  H    0.181295
    36  H    0.195779
    37  H    0.177209
    38  H    0.156551
    39  H    0.206422
    40  H    0.226006
    41  H    0.429332
 Sum of Mulliken atomic charges =   0.00000
 Mulliken charges with hydrogens summed into heavy atoms:
              1
     1  C    0.765273
     2  C    0.814004
     3  C    0.001544
     4  C    0.000861
     5  C    0.000746
     6  C    0.024513
     7  C    0.001351
     8  C   -0.016717
     9  C    0.010303
    10  C    0.276913
    11  C    0.267301
    12  C    0.054462
    13  C    0.177935
    14  N   -0.396918
    15  N   -0.673642
    16  O   -0.642211
    17  O   -0.665717
 Sum of Mulliken charges with hydrogens summed into heavy atoms =   0.00000
 DipInt: DoE/N= T F RetVal/Mat= T F Init=T NMatP=  1 IDeriv=0 Min/MaxMlt=  0  4
 Entering OneElI...
 OneElI was handed    33316966 working-precision words.
 Multipole integrals L=0 to 4 MinM= 0 MaxM= 0.
 Requested accuracy = 0.1000D-12
 PrsmSu:  NPrtUS=   1 ThrOK=F IAlg=1 NPAlg=1 LenDen=           0.
 Prism:   IPart=     0 DynPar=F LinDyn=F Incr=          57.
 PRISM was handed    32865403 working-precision words and  5702 shell-pairs
 IPart=  0 NShTot=        5702 NBatch=          78 AvBLen=        73.1
 PrSmSu:  NxtVal=             58.
 Electronic moments (au):
       -132.00000000          0.11194265         -1.11121521         -0.10738205
      -2526.36407173      -1796.91820487       -634.47189784          4.73623303
          3.18812237         -9.03555122      -7208.86528134        746.02659287
        -13.58429375       5322.54829036      -1846.90688183        -57.23083832
         -0.28940314        224.52536037        432.88759403        554.12827395
    -100034.39367231     -64106.57525425      -6861.84237498       2447.15419767
       1383.03250195       3192.16668379       -514.32067890        236.43462028
       -219.89067605     -28581.22400074     -11125.81009177      -8203.71190522
       2284.35801164       -572.76723107       -737.59327613
 Electronic spatial extent (au):  <R**2>=           4957.7542
 DipInt: DoE/N= F T RetVal/Mat= T F Init=T NMatP=  1 IDeriv=0 Min/MaxMlt=  0  4
 Nuclear    moments (au):
        132.00000000          0.00000000          0.00000000          0.00000000
       2446.69595739       1725.05684131        549.91290414          0.00000000
          0.00000000          0.00000000       7170.80748172       -780.17195232
         12.66493163      -5353.61245943       1829.73920791         36.60241276
          7.96309833       -241.07499962       -466.32791926       -514.56137825
      90835.36004559      58203.82815144       4605.62733818      -2428.95853737
      -1293.96072086      -3105.87794417        433.73686824       -223.22034649
        155.83596781      26066.78787763       9153.53570872       6744.39889420
      -2427.10721797        718.23660314        816.87354020
 Total      moments (au):
          0.00000000          0.11194265         -1.11121521         -0.10738205
        -79.66811434        -71.86136356        -84.55899370          4.73623303
          3.18812237         -9.03555122        -38.05779963        -34.14535946
         -0.91936213        -31.06416907        -17.16767392        -20.62842555
          7.67369519        -16.54963925        -33.44032524         39.56689570
      -9199.03362673      -5902.74710281      -2256.21503681         18.19566030
         89.07178109         86.28873962        -80.58381066         13.21427378
        -64.05470825      -2514.43612311      -1972.27438304      -1459.31301101
       -142.74920633        145.46937208         79.28026407
 Traceless Quadrup. (au):
         -0.97195714          6.83479364         -5.86283650          4.73623303
          3.18812237         -9.03555122
 Charge=              0.0000 electrons
 Dipole moment (field-independent basis, Debye):
    X=              0.2845    Y=             -2.8244    Z=             -0.2729  Tot=              2.8518
 Quadrupole moment (field-independent basis, Debye-Ang):
   XX=           -107.1563   YY=            -96.6560   ZZ=           -113.7347
   XY=              6.3704   XZ=              4.2881   YZ=            -12.1531
 Traceless Quadrupole moment (field-independent basis, Debye-Ang):
   XX=             -1.3073   YY=              9.1930   ZZ=             -7.8857
   XY=              6.3704   XZ=              4.2881   YZ=            -12.1531
 Octapole moment (field-independent basis, Debye-Ang**2):
  XXX=            -27.0881  YYY=            -24.3033  ZZZ=             -0.6544  XYY=            -22.1103
  XXY=            -12.2193  XXZ=            -14.6825  XZZ=              5.4618  YZZ=            -11.7794
  YYZ=            -23.8015  XYZ=             28.1622
 Hexadecapole moment (field-independent basis, Debye-Ang**3):
 XXXX=          -3464.7969 YYYY=          -2223.2575 ZZZZ=           -849.7987 XXXY=              6.8534
 XXXZ=             33.5487 YYYX=             32.5005 YYYZ=            -30.3517 ZZZX=              4.9771
 ZZZY=            -24.1261 XXYY=           -947.0572 XXZZ=           -742.8531 YYZZ=           -549.6472
 XXYZ=            -53.7662 YYXZ=             54.7907 ZZXY=             29.8607
 N-N= 1.321390602242D+03 E-N=-4.430178457290D+03  KE= 7.632275908175D+02
 Entering OneElI...
 OneElI was handed    33132020 working-precision words.
 Calculate electrostatic properties
    NBasis =   303  MinDer = 0  MaxDer = 0
    NGrid  =    41  NMatD  =   1
 Requested accuracy = 0.1000D-12
 PrsmSu:  NPrtUS=   2 ThrOK=T IAlg=1 NPAlg=1 LenDen=           0.
 Prism:   IPart=     0 DynPar=F LinDyn=F Incr=         512.
 PRISM was handed    16294959 working-precision words and  5121 shell-pairs
 PRISM was handed    16294959 working-precision words and  5121 shell-pairs
 IPart=  1 NShTot=      104550 NBatch=        2550 AvBLen=        41.0
 IPart=  0 NShTot=      105411 NBatch=        2571 AvBLen=        41.0
 PrSmSu:  NxtVal=           1025.
 --------------------------------------------------------
       Center         ----      EFG at Nuclei      ----
                      3XX-RR        3YY-RR        3ZZ-RR
 --------------------------------------------------------
     1   Atom       -0.455584      0.112520      0.343063
     2   Atom       -0.553280      0.205709      0.347571
     3   Atom        0.001289     -0.004939      0.003651
     4   Atom       -0.002702      0.010356     -0.007653
     5   Atom       -0.005304     -0.002289      0.007593
     6   Atom        0.013987     -0.023263      0.009276
     7   Atom        0.008645      0.007044     -0.015689
     8   Atom       -0.026409      0.014788      0.011621
     9   Atom        0.032386     -0.014457     -0.017929
    10   Atom        0.103085     -0.126365      0.023280
    11   Atom        0.113394      0.115968     -0.229362
    12   Atom       -0.044835      0.063313     -0.018478
    13   Atom        0.149512     -0.196264      0.046752
    14   Atom        0.759755     -0.367246     -0.392509
    15   Atom        0.998056     -0.510683     -0.487373
    16   Atom       -0.342902      1.289315     -0.946413
    17   Atom       -0.559038      1.453562     -0.894524
    18   Atom       -0.176571      0.132426      0.044145
    19   Atom        0.140368     -0.197346      0.056977
    20   Atom        0.132048     -0.085025     -0.047024
    21   Atom        0.140733     -0.170656      0.029923
    22   Atom        0.143650     -0.206438      0.062788
    23   Atom       -0.095289      0.148217     -0.052928
    24   Atom        0.144559     -0.209354      0.064795
    25   Atom       -0.092388      0.150970     -0.058582
    26   Atom        0.128674     -0.082903     -0.045771
    27   Atom        0.138369     -0.169484      0.031116
    28   Atom        0.133426     -0.189434      0.056009
    29   Atom       -0.269728      0.124766      0.144963
    30   Atom        0.028516     -0.144064      0.115547
    31   Atom        0.138186      0.121562     -0.259748
    32   Atom       -0.067493     -0.039720      0.107214
    33   Atom        0.134902      0.095806     -0.230708
    34   Atom       -0.188096      0.044302      0.143794
    35   Atom       -0.129737     -0.000254      0.129990
    36   Atom        0.149606     -0.148386     -0.001219
    37   Atom       -0.115687      0.042121      0.073566
    38   Atom        0.133785     -0.055057     -0.078728
    39   Atom        0.137859     -0.194493      0.056633
    40   Atom       -0.071533      0.130727     -0.059194
    41   Atom        0.213437      0.160147     -0.373584
 --------------------------------------------------------
                        XY            XZ            YZ
 --------------------------------------------------------
     1   Atom       -0.250283     -0.072746     -0.106035
     2   Atom        0.066725     -0.085080      0.085821
     3   Atom       -0.008551      0.000587      0.004153
     4   Atom        0.000879      0.000274     -0.002928
     5   Atom        0.007541      0.006114     -0.000640
     6   Atom        0.003283      0.024515      0.011061
     7   Atom        0.001578     -0.003848      0.000616
     8   Atom        0.003420      0.014765     -0.010755
     9   Atom        0.014117     -0.012576      0.045358
    10   Atom        0.018763     -0.012014     -0.239272
    11   Atom       -0.018522      0.068692      0.109327
    12   Atom       -0.020842     -0.058445      0.009888
    13   Atom        0.034856     -0.055717      0.100791
    14   Atom        0.487754      0.086005      0.089239
    15   Atom       -0.134477      0.232287     -0.000352
    16   Atom       -0.784465      0.171014     -0.272698
    17   Atom        0.170296      0.087860      0.548655
    18   Atom        0.070653      0.179286     -0.036642
    19   Atom       -0.039628     -0.021206     -0.169247
    20   Atom       -0.049090      0.045009      0.214359
    21   Atom       -0.012279     -0.008356     -0.190656
    22   Atom       -0.001226      0.002122     -0.167409
    23   Atom        0.000805     -0.216202      0.003026
    24   Atom        0.003120      0.005381     -0.164106
    25   Atom       -0.003699     -0.216824      0.001518
    26   Atom       -0.050751      0.046149      0.213054
    27   Atom       -0.013450     -0.009271     -0.189717
    28   Atom       -0.022403     -0.009021     -0.170584
    29   Atom        0.097430      0.042266     -0.003920
    30   Atom       -0.187938     -0.066796     -0.092902
    31   Atom        0.023843      0.082810     -0.086311
    32   Atom        0.201135     -0.089886      0.069318
    33   Atom       -0.029292      0.081720      0.123610
    34   Atom       -0.181647      0.002376     -0.011018
    35   Atom       -0.208678      0.020289      0.015226
    36   Atom        0.058285      0.046063     -0.196984
    37   Atom        0.169594     -0.121608      0.083262
    38   Atom       -0.012746      0.009361      0.218841
    39   Atom       -0.011094     -0.008516     -0.174936
    40   Atom       -0.025533      0.208787      0.036541
    41   Atom        0.025924      0.030806     -0.029187
 --------------------------------------------------------


 ---------------------------------------------------------------------------------
              Nuclear Quadrupole in Principal Axis System
 ---------------------------------------------------------------------------------

       Atom             a.u.   MegaHertz   Gauss  10(-4) cm-1        Axes

              Baa    -0.5625   -75.483   -26.934   -25.179  0.9251  0.3613  0.1166
     1 C(13)  Bbb     0.1772    23.783     8.487     7.933 -0.3779  0.8463  0.3754
              Bcc     0.3853    51.700    18.448    17.245  0.0369 -0.3914  0.9195
 
              Baa    -0.5685   -76.283   -27.219   -25.445  0.9902 -0.0965  0.1010
     2 C(13)  Bbb     0.1779    23.869     8.517     7.962  0.1290  0.9095 -0.3953
              Bcc     0.3906    52.414    18.702    17.483 -0.0537  0.4044  0.9130
 
              Baa    -0.0118    -1.589    -0.567    -0.530  0.5376  0.8091 -0.2373
     3 C(13)  Bbb     0.0036     0.486     0.173     0.162  0.4961 -0.0760  0.8649
              Bcc     0.0082     1.103     0.393     0.368  0.6818 -0.5827 -0.4423
 
              Baa    -0.0081    -1.093    -0.390    -0.365 -0.0753  0.1593  0.9844
     4 C(13)  Bbb    -0.0027    -0.365    -0.130    -0.122  0.9953 -0.0481  0.0839
              Bcc     0.0109     1.459     0.520     0.487  0.0608  0.9861 -0.1549
 
              Baa    -0.0128    -1.721    -0.614    -0.574  0.7797 -0.5735 -0.2515
     5 C(13)  Bbb     0.0023     0.309     0.110     0.103  0.4459  0.7904 -0.4199
              Bcc     0.0105     1.411     0.504     0.471  0.4396  0.2153  0.8720
 
              Baa    -0.0273    -3.663    -1.307    -1.222  0.1518  0.9133 -0.3780
     6 C(13)  Bbb    -0.0106    -1.419    -0.506    -0.473  0.6797 -0.3741 -0.6309
              Bcc     0.0379     5.082     1.813     1.695  0.7176  0.1611  0.6776
 
              Baa    -0.0163    -2.189    -0.781    -0.730  0.1545 -0.0365  0.9873
     7 C(13)  Bbb     0.0063     0.850     0.303     0.284 -0.4400  0.8922  0.1018
              Bcc     0.0100     1.339     0.478     0.447  0.8846  0.4502 -0.1218
 
              Baa    -0.0325    -4.356    -1.554    -1.453  0.9268 -0.1459 -0.3460
     8 C(13)  Bbb     0.0072     0.972     0.347     0.324  0.3404  0.7155  0.6101
              Bcc     0.0252     3.384     1.207     1.129  0.1586 -0.6832  0.7128
 
              Baa    -0.0652    -8.753    -3.123    -2.920  0.1897 -0.6830  0.7054
     9 C(13)  Bbb     0.0289     3.880     1.384     1.294 -0.1922  0.6787  0.7088
              Bcc     0.0363     4.873     1.739     1.625  0.9629  0.2700  0.0026
 
              Baa    -0.3024   -40.579   -14.480   -13.536 -0.0198  0.8061  0.5915
    10 C(13)  Bbb     0.0989    13.276     4.737     4.428  0.9790 -0.1045  0.1752
              Bcc     0.2035    27.303     9.743     9.107 -0.2031 -0.5825  0.7870
 
              Baa    -0.2741   -36.784   -13.126   -12.270 -0.1805 -0.2734  0.9448
    11 C(13)  Bbb     0.1264    16.958     6.051     5.656  0.9817 -0.1096  0.1559
              Bcc     0.1478    19.827     7.075     6.613  0.0609  0.9556  0.2881
 
              Baa    -0.0922   -12.378    -4.417    -4.129  0.7864  0.0663  0.6142
    12 C(13)  Bbb     0.0188     2.522     0.900     0.841 -0.5381 -0.4149  0.7337
              Bcc     0.0734     9.856     3.517     3.288 -0.3035  0.9075  0.2905
 
              Baa    -0.2396   -32.150   -11.472   -10.724 -0.1334  0.9264 -0.3521
    13 C(13)  Bbb     0.0654     8.778     3.132     2.928  0.3988  0.3754  0.8367
              Bcc     0.1742    23.372     8.340     7.796  0.9073 -0.0288 -0.4195
 
              Baa    -0.5664   -21.843    -7.794    -7.286 -0.3108  0.8992 -0.3078
    14 N(14)  Bbb    -0.3845   -14.828    -5.291    -4.946 -0.1826  0.2613  0.9478
              Bcc     0.9508    36.672    13.085    12.232  0.9328  0.3508  0.0830
 
              Baa    -0.5423   -20.917    -7.464    -6.977  0.1660  0.6975 -0.6971
    15 N(14)  Bbb    -0.5026   -19.383    -6.916    -6.465 -0.0448  0.7115  0.7012
              Bcc     1.0449    40.300    14.380    13.443  0.9851 -0.0852  0.1494
 
              Baa    -0.9946    71.970    25.681    24.007 -0.1981  0.0489  0.9790
    16 O(17)  Bbb    -0.6494    46.987    16.766    15.673  0.9062  0.3897  0.1639
              Bcc     1.6440  -118.957   -42.447   -39.680 -0.3735  0.9196 -0.1215
 
              Baa    -1.0217    73.930    26.380    24.660 -0.1080 -0.2080  0.9721
    17 O(17)  Bbb    -0.5697    41.223    14.710    13.751  0.9904 -0.1070  0.0872
              Bcc     1.5914  -115.153   -41.090   -38.411  0.0859  0.9722  0.2176
 
              Baa    -0.2917  -155.618   -55.529   -51.909  0.8585 -0.1844 -0.4785
    18 H(1)   Bbb     0.1430    76.281    27.219    25.444  0.3476 -0.4768  0.8074
              Bcc     0.1487    79.338    28.310    26.464  0.3770  0.8595  0.3452
 
              Baa    -0.2866  -152.920   -54.565   -51.008  0.1046  0.8896  0.4447
    19 H(1)   Bbb     0.1411    75.291    26.866    25.115  0.2994 -0.4545  0.8389
              Bcc     0.1455    77.628    27.700    25.894  0.9484  0.0453 -0.3139
 
              Baa    -0.2917  -155.633   -55.534   -51.913  0.1553  0.7287 -0.6670
    20 H(1)   Bbb     0.1425    76.040    27.133    25.364  0.9878 -0.1203  0.0986
              Bcc     0.1492    79.593    28.401    26.549  0.0084  0.6742  0.7385
 
              Baa    -0.2863  -152.759   -54.508   -50.955  0.0347  0.8555  0.5167
    21 H(1)   Bbb     0.1411    75.276    26.860    25.109  0.9795 -0.1318  0.1525
              Bcc     0.1452    77.483    27.648    25.846 -0.1985 -0.5008  0.8425
 
              Baa    -0.2866  -152.939   -54.572   -51.015  0.0004  0.9018  0.4321
    22 H(1)   Bbb     0.1409    75.154    26.817    25.069 -0.6582 -0.3250  0.6791
              Bcc     0.1458    77.785    27.756    25.946  0.7528 -0.2847  0.5934
 
              Baa    -0.2914  -155.457   -55.471   -51.855  0.7407 -0.0060  0.6718
    23 H(1)   Bbb     0.1426    76.092    27.152    25.382 -0.6443 -0.2897  0.7078
              Bcc     0.1487    79.365    28.319    26.473 -0.1904  0.9571  0.2184
 
              Baa    -0.2862  -152.683   -54.481   -50.930 -0.0119  0.9057  0.4237
    24 H(1)   Bbb     0.1392    74.276    26.504    24.776 -0.5489 -0.3601  0.7544
              Bcc     0.1470    78.407    27.978    26.154  0.8358 -0.2236  0.5014
 
              Baa    -0.2930  -156.316   -55.778   -52.142  0.7341  0.0038  0.6790
    25 H(1)   Bbb     0.1407    75.079    26.790    25.044 -0.6393 -0.3332  0.6930
              Bcc     0.1523    81.238    28.988    27.098 -0.2289  0.9428  0.2422
 
              Baa    -0.2895  -154.438   -55.107   -51.515  0.1619  0.7275 -0.6667
    26 H(1)   Bbb     0.1399    74.655    26.639    24.902  0.9864 -0.1003  0.1301
              Bcc     0.1495    79.783    28.469    26.613 -0.0278  0.6787  0.7339
 
              Baa    -0.2844  -151.749   -54.148   -50.618  0.0385  0.8559  0.5157
    27 H(1)   Bbb     0.1388    74.081    26.434    24.711  0.9879 -0.1103  0.1092
              Bcc     0.1456    77.667    27.714    25.907 -0.1504 -0.5053  0.8498
 
              Baa    -0.2783  -148.466   -52.976   -49.523  0.0583  0.8886  0.4550
    28 H(1)   Bbb     0.1343    71.660    25.570    23.903  0.9708  0.0557 -0.2332
              Bcc     0.1440    76.806    27.406    25.620  0.2326 -0.4554  0.8594
 
              Baa    -0.2965  -158.190   -56.446   -52.767  0.9697 -0.2252 -0.0948
    29 H(1)   Bbb     0.1424    75.994    27.116    25.349  0.1085  0.7448 -0.6584
              Bcc     0.1541    82.197    29.330    27.418  0.2189  0.6282  0.7466
 
              Baa    -0.2963  -158.082   -56.408   -52.731  0.5232  0.8092  0.2674
    30 H(1)   Bbb     0.1422    75.878    27.075    25.310  0.4379 -0.5244  0.7302
              Bcc     0.1541    82.204    29.332    27.420  0.7311 -0.2649 -0.6287
 
              Baa    -0.2954  -157.625   -56.245   -52.578 -0.1945  0.2095  0.9583
    31 H(1)   Bbb     0.1383    73.769    26.323    24.607 -0.3131  0.9126 -0.2630
              Bcc     0.1572    83.856    29.922    27.971  0.9296  0.3512  0.1119
 
              Baa    -0.2876  -153.444   -54.753   -51.183  0.7074 -0.6510  0.2754
    32 H(1)   Bbb     0.1327    70.808    25.266    23.619  0.2094  0.5650  0.7980
              Bcc     0.1549    82.636    29.487    27.564  0.6751  0.5069 -0.5360
 
              Baa    -0.2900  -154.707   -55.203   -51.605 -0.2002 -0.3127  0.9285
    33 H(1)   Bbb     0.1371    73.168    26.108    24.406  0.1075  0.9350  0.3381
              Bcc     0.1528    81.539    29.095    27.198  0.9739 -0.1674  0.1535
 
              Baa    -0.2876  -153.425   -54.746   -51.177  0.8771  0.4803  0.0074
    34 H(1)   Bbb     0.1330    70.948    25.316    23.666 -0.3449  0.6188  0.7058
              Bcc     0.1546    82.478    29.430    27.512  0.3344 -0.6216  0.7084
 
              Baa    -0.2850  -152.082   -54.267   -50.729  0.8036  0.5921 -0.0610
    35 H(1)   Bbb     0.1315    70.182    25.043    23.410  0.0551  0.0280  0.9981
              Bcc     0.1535    81.899    29.224    27.319 -0.5927  0.8054  0.0102
 
              Baa    -0.2974  -158.669   -56.617   -52.926 -0.1637  0.8095  0.5639
    36 H(1)   Bbb     0.1347    71.877    25.648    23.976 -0.1626 -0.5859  0.7939
              Bcc     0.1627    86.791    30.969    28.951  0.9730  0.0382  0.2275
 
              Baa    -0.2844  -151.769   -54.155   -50.625  0.7774 -0.5008  0.3805
    37 H(1)   Bbb     0.1330    70.974    25.325    23.675 -0.4459 -0.0122  0.8950
              Bcc     0.1514    80.794    28.829    26.950  0.4435  0.8655  0.2328
 
              Baa    -0.2866  -152.932   -54.570   -51.013 -0.0370 -0.6874  0.7253
    38 H(1)   Bbb     0.1339    71.458    25.498    23.836  0.9878  0.0849  0.1309
              Bcc     0.1527    81.473    29.072    27.177 -0.1515  0.7213  0.6759
 
              Baa    -0.2847  -151.909   -54.205   -50.671  0.0325  0.8891  0.4565
    39 H(1)   Bbb     0.1376    73.413    26.195    24.488  0.9612 -0.1530  0.2294
              Bcc     0.1471    78.496    28.009    26.183 -0.2738 -0.4313  0.8596
 
              Baa    -0.2789  -148.819   -53.102   -49.641  0.7119  0.1063 -0.6942
    40 H(1)   Bbb     0.1301    69.440    24.778    23.163 -0.4355  0.8423 -0.3176
              Bcc     0.1488    79.379    28.324    26.478  0.5509  0.5284  0.6459
 
              Baa    -0.3769  -201.113   -71.762   -67.084 -0.0545  0.0568  0.9969
    41 H(1)   Bbb     0.1524    81.330    29.021    27.129 -0.3588  0.9306 -0.0726
              Bcc     0.2245   119.783    42.741    39.955  0.9318  0.3616  0.0303
 

 ---------------------------------------------------------------------------------

[...]
  837 Fit      -0.023798
  838 Fit      -0.026583
  839 Fit      -0.025019
  840 Fit      -0.025539
  841 Fit      -0.028247
  842 Fit      -0.000631
  843 Fit      -0.002343
  844 Fit      -0.000310
  845 Fit       0.000600
  846 Fit      -0.000820
  847 Fit      -0.002785
  848 Fit       0.000398
  849 Fit       0.000982
  850 Fit       0.001076
  851 Fit      -0.000266
  852 Fit      -0.002004
  853 Fit       0.000601
  854 Fit       0.001307
  855 Fit       0.000202
  856 Fit      -0.001247
  857 Fit      -0.000221
  858 Fit      -0.002248
  859 Fit      -0.000124
  860 Fit       0.000483
  861 Fit      -0.001568
  862 Fit      -0.000621
  863 Fit       0.000404
  864 Fit       0.000701
  865 Fit       0.000723
  866 Fit      -0.002108
  867 Fit      -0.000704
  868 Fit       0.000102
  869 Fit       0.000246
  870 Fit      -0.001590
  871 Fit      -0.000832
  872 Fit      -0.001978
  873 Fit      -0.000589
  874 Fit      -0.000004
  875 Fit      -0.000376
  876 Fit      -0.001837
  877 Fit      -0.000527
  878 Fit       0.000437
  879 Fit       0.000489
  880 Fit      -0.000553
  881 Fit      -0.003010
  882 Fit      -0.002100
  883 Fit      -0.000430
  884 Fit      -0.001070
  885 Fit      -0.004619
  886 Fit      -0.004971
  887 Fit      -0.003035
  888 Fit      -0.001390
  889 Fit       0.001327
  890 Fit       0.001135
  891 Fit      -0.020407
  892 Fit      -0.009846
  893 Fit      -0.002386
  894 Fit      -0.000498
  895 Fit      -0.001143
  896 Fit      -0.004023
  897 Fit      -0.010130
  898 Fit      -0.006187
  899 Fit      -0.002955
  900 Fit      -0.005896
  901 Fit       0.004051
  902 Fit       0.001454
  903 Fit       0.005723
  904 Fit       0.003924
  905 Fit       0.001785
  906 Fit      -0.000362
  907 Fit       0.004260
  908 Fit       0.004111
  909 Fit       0.002745
  910 Fit       0.000904
  911 Fit       0.002103
  912 Fit       0.001653
  913 Fit       0.001260
  914 Fit       0.002276
  915 Fit       0.001270
  916 Fit       0.001557
  917 Fit       0.002053
  918 Fit       0.002130
  919 Fit       0.001485
  920 Fit       0.000527
  921 Fit       0.001217
  922 Fit       0.001916
  923 Fit       0.000889
  924 Fit       0.000159
  925 Fit      -0.000290
  926 Fit       0.000609
  927 Fit      -0.000103
  928 Fit      -0.000233
  929 Fit      -0.001904
  930 Fit      -0.005140
  931 Fit      -0.000059
  932 Fit      -0.000042
  933 Fit       0.000317
  934 Fit      -0.000774
  935 Fit      -0.000296
  936 Fit       0.000444
  937 Fit       0.000944
  938 Fit      -0.003755
  939 Fit      -0.001183
  940 Fit      -0.012237
  941 Fit      -0.009613
  942 Fit       0.002440
  943 Fit       0.001289
  944 Fit      -0.000863
  945 Fit       0.004769
  946 Fit       0.007181
  947 Fit       0.004634
  948 Fit       0.012931
  949 Fit       0.009409
  950 Fit       0.005745
  951 Fit       0.002671
  952 Fit       0.012409
  953 Fit       0.007618
  954 Fit       0.003529
  955 Fit       0.008030
  956 Fit      -0.001675
  957 Fit      -0.000806
  958 Fit      -0.000673
  959 Fit      -0.002202
  960 Fit      -0.002668
  961 Fit       0.000296
  962 Fit       0.000179
  963 Fit      -0.001252
  964 Fit       0.000351
  965 Fit      -0.000980
  966 Fit       0.008527
  967 Fit       0.003064
  968 Fit      -0.018027
  969 Fit      -0.021165
  970 Fit      -0.004723
  971 Fit      -0.003396
  972 Fit      -0.003321
  973 Fit      -0.005525
  974 Fit       0.001884
  975 Fit       0.002852
  976 Fit       0.003176
  977 Fit       0.002573
  978 Fit       0.001980
  979 Fit       0.004939
  980 Fit       0.005394
  981 Fit       0.005084
  982 Fit       0.004937
  983 Fit       0.005812
  984 Fit      -0.011812
  985 Fit      -0.016930
  986 Fit      -0.002483
  987 Fit      -0.000600
  988 Fit      -0.000318
  989 Fit      -0.002162
  990 Fit      -0.005687
  991 Fit       0.003059
  992 Fit       0.004037
  993 Fit       0.004403
  994 Fit       0.003654
  995 Fit       0.002027
  996 Fit       0.004727
  997 Fit       0.005450
  998 Fit       0.005572
  999 Fit       0.004791
 1000 Fit       0.007600
 1001 Fit       0.006665
 1002 Fit       0.006479
 1003 Fit       0.006207
 1004 Fit       0.006908
 1005 Fit       0.008513
 1006 Fit       0.007698
 1007 Fit       0.007297
 1008 Fit       0.007253
 1009 Fit       0.007814
 1010 Fit       0.009253
 1011 Fit       0.008268
 1012 Fit       0.013902
 1013 Fit       0.015449
 1014 Fit       0.015308
 1015 Fit       0.014915
 1016 Fit       0.009627
 1017 Fit       0.006861
 1018 Fit       0.013654
 1019 Fit       0.013228
 1020 Fit       0.012847
 1021 Fit       0.011717
 1022 Fit       0.006066
 1023 Fit       0.011905
 1024 Fit       0.010888
 1025 Fit       0.009237
 1026 Fit      -0.004735
 1027 Fit      -0.009897
 1028 Fit       0.003194
 1029 Fit      -0.005463
 1030 Fit      -0.021089
 1031 Fit      -0.004906
 1032 Fit       0.002439
 1033 Fit       0.002289
 1034 Fit      -0.005325
 1035 Fit       0.016411
 1036 Fit       0.016160
 1037 Fit       0.015520
 1038 Fit       0.004340
 1039 Fit       0.009126
 1040 Fit       0.011839
 1041 Fit       0.012987
 1042 Fit       0.013123
 1043 Fit       0.013251
 1044 Fit       0.004792
 1045 Fit       0.008727
 1046 Fit       0.010479
 1047 Fit       0.011105
 1048 Fit       0.004152
 1049 Fit       0.007760
 1050 Fit       0.015318
 1051 Fit       0.016430
 1052 Fit       0.013445
 1053 Fit       0.014967
 1054 Fit       0.016228
 1055 Fit       0.016832
 1056 Fit       0.012719
 1057 Fit       0.014854
 1058 Fit       0.016569
 1059 Fit       0.017344
 1060 Fit       0.017697
 1061 Fit       0.011813
 1062 Fit       0.015605
 1063 Fit       0.013917
 1064 Fit       0.015659
 1065 Fit       0.010898
 1066 Fit       0.009291
 1067 Fit       0.013086
 1068 Fit       0.005940
 1069 Fit       0.010861
 1070 Fit       0.012048
 1071 Fit       0.016553
 1072 Fit       0.015783
 1073 Fit       0.016772
 1074 Fit       0.017194
 1075 Fit       0.016225
 1076 Fit       0.015718
 1077 Fit       0.016930
 1078 Fit       0.016622
 1079 Fit       0.016216
 1080 Fit       0.014731
 1081 Fit       0.017590
 1082 Fit       0.017316
 1083 Fit       0.016195
 1084 Fit       0.013323
 1085 Fit       0.004335
 1086 Fit       0.003569
 1087 Fit      -0.002141
 1088 Fit      -0.004497
 1089 Fit       0.006655
 1090 Fit       0.013083
 1091 Fit       0.010022
 1092 Fit       0.015024
 1093 Fit      -0.008478
 1094 Fit      -0.003502
 1095 Fit      -0.008668
 1096 Fit      -0.022138
 1097 Fit      -0.019424
 1098 Fit      -0.008206
 1099 Fit      -0.025744
 1100 Fit      -0.012022
 1101 Fit      -0.001072
 1102 Fit      -0.003611
 1103 Fit      -0.016072
 1104 Fit       0.005973
 1105 Fit      -0.008018
 1106 Fit       0.006247
 1107 Fit      -0.004946
 1108 Fit      -0.006668
 1109 Fit       0.010071
 1110 Fit       0.000589
 1111 Fit      -0.003948
 1112 Fit      -0.011733
 1113 Fit      -0.007609
 1114 Fit      -0.000986
 1115 Fit      -0.001170
 1116 Fit       0.004654
 1117 Fit      -0.000545
 1118 Fit      -0.008026
 1119 Fit      -0.001339
 1120 Fit      -0.001802
 1121 Fit      -0.002265
 1122 Fit      -0.001966
 1123 Fit      -0.001511
 1124 Fit      -0.000593
 1125 Fit      -0.002529
 1126 Fit      -0.002766
 1127 Fit      -0.007218
 1128 Fit      -0.005098
 1129 Fit       0.001503
 1130 Fit      -0.000099
 1131 Fit      -0.000156
 1132 Fit      -0.000342
 1133 Fit      -0.000349
 1134 Fit       0.002417
 1135 Fit      -0.000304
 1136 Fit      -0.000220
 1137 Fit      -0.017628
 1138 Fit      -0.021070
 1139 Fit      -0.006951
 1140 Fit      -0.000224
 1141 Fit       0.002443
 1142 Fit       0.003942
 1143 Fit       0.004477
 1144 Fit       0.004762
 1145 Fit       0.003913
 1146 Fit       0.003784
 1147 Fit       0.003666
 1148 Fit       0.005475
 1149 Fit       0.004919
 1150 Fit       0.004838
 1151 Fit       0.005064
 1152 Fit       0.005021
 1153 Fit       0.014899
 1154 Fit       0.003633
 1155 Fit       0.011165
 1156 Fit      -0.000178
 1157 Fit      -0.000558
 1158 Fit       0.009229
 1159 Fit       0.008923
 1160 Fit       0.004927
 1161 Fit      -0.004739
 1162 Fit       0.002546
 1163 Fit       0.005874
 1164 Fit       0.006850
 1165 Fit       0.006336
 1166 Fit       0.013579
 1167 Fit       0.014120
 1168 Fit       0.013167
 1169 Fit       0.014172
 1170 Fit       0.014688
 1171 Fit       0.013602
 1172 Fit       0.014891
 1173 Fit       0.015139
 1174 Fit       0.011129
 1175 Fit       0.015658
 1176 Fit       0.009083
 1177 Fit       0.016158
 1178 Fit       0.008855
 1179 Fit       0.009680
 1180 Fit      -0.000844
 1181 Fit      -0.000160
 1182 Fit      -0.001204
 1183 Fit       0.003832
 1184 Fit      -0.032466
 1185 Fit      -0.029802
 1186 Fit      -0.033401
 1187 Fit      -0.034922
 1188 Fit      -0.033049
 1189 Fit      -0.028586
 1190 Fit      -0.026894
 1191 Fit      -0.028279
 1192 Fit      -0.031526
 1193 Fit      -0.033722
 1194 Fit      -0.034658
 1195 Fit      -0.033991
 1196 Fit      -0.031716
 1197 Fit      -0.027499
 1198 Fit      -0.020726
 1199 Fit      -0.020640
 1200 Fit      -0.024507
 1201 Fit      -0.027103
 1202 Fit      -0.029415
 1203 Fit      -0.030648
 1204 Fit      -0.030407
 1205 Fit      -0.029019
 1206 Fit      -0.026158
 1207 Fit      -0.020415
 1208 Fit      -0.020596
 1209 Fit      -0.019132
 1210 Fit      -0.014718
 1211 Fit      -0.013034
 1212 Fit      -0.013698
 1213 Fit      -0.014781
 1214 Fit      -0.021084
 1215 Fit      -0.019491
 1216 Fit      -0.014046
 1217 Fit      -0.008165
 1218 Fit      -0.009689
 1219 Fit      -0.015621
 1220 Fit      -0.018510
 1221 Fit      -0.017433
 1222 Fit      -0.019001
 1223 Fit      -0.022534
 1224 Fit      -0.020477
 1225 Fit      -0.019322
 1226 Fit      -0.021193
 1227 Fit      -0.020123
 1228 Fit      -0.020586
 1229 Fit      -0.022467
 1230 Fit      -0.000016
 1231 Fit      -0.001084
 1232 Fit      -0.000089
 1233 Fit       0.000355
 1234 Fit       0.000581
 1235 Fit      -0.000385
 1236 Fit      -0.001687
 1237 Fit       0.000425
 1238 Fit       0.000683
 1239 Fit       0.000918
 1240 Fit       0.000550
 1241 Fit      -0.000380
 1242 Fit      -0.001498
 1243 Fit       0.000278
 1244 Fit       0.000746
 1245 Fit      -0.000326
 1246 Fit      -0.001310
 1247 Fit      -0.000663
 1248 Fit       0.000212
 1249 Fit      -0.000441
 1250 Fit       0.000089
 1251 Fit       0.000214
 1252 Fit      -0.001405
 1253 Fit      -0.000574
 1254 Fit      -0.000041
 1255 Fit       0.000062
 1256 Fit      -0.001328
 1257 Fit      -0.000612
 1258 Fit      -0.000329
 1259 Fit      -0.001623
 1260 Fit      -0.000543
 1261 Fit      -0.000531
 1262 Fit      -0.001304
 1263 Fit      -0.000462
 1264 Fit       0.000063
 1265 Fit       0.000092
 1266 Fit      -0.000401
 1267 Fit      -0.001714
 1268 Fit      -0.000699
 1269 Fit      -0.000002
 1270 Fit       0.000051
 1271 Fit      -0.000736
 1272 Fit      -0.003077
 1273 Fit      -0.002136
 1274 Fit      -0.000957
 1275 Fit      -0.001507
 1276 Fit      -0.004352
 1277 Fit      -0.003004
 1278 Fit      -0.009487
 1279 Fit      -0.001570
 1280 Fit       0.000459
 1281 Fit       0.000305
 1282 Fit      -0.018255
 1283 Fit      -0.009801
 1284 Fit      -0.003230
 1285 Fit      -0.001264
 1286 Fit      -0.001495
 1287 Fit      -0.003750
 1288 Fit      -0.009187
 1289 Fit      -0.006190
 1290 Fit      -0.003310
 1291 Fit      -0.005508
 1292 Fit       0.004043
 1293 Fit       0.007293
 1294 Fit       0.005281
 1295 Fit       0.003173
 1296 Fit       0.001216
 1297 Fit       0.006042
 1298 Fit       0.004906
 1299 Fit       0.003348
 1300 Fit       0.001700
 1301 Fit       0.000216
 1302 Fit       0.002935
 1303 Fit       0.003203
 1304 Fit       0.002226
 1305 Fit       0.000917
 1306 Fit       0.001157
 1307 Fit       0.001039
 1308 Fit       0.001736
 1309 Fit       0.000931
 1310 Fit       0.001813
 1311 Fit       0.001777
 1312 Fit       0.001241
 1313 Fit       0.000507
 1314 Fit       0.001590
 1315 Fit       0.001795
 1316 Fit       0.001155
 1317 Fit       0.000645
 1318 Fit      -0.000116
 1319 Fit       0.000758
 1320 Fit       0.001123
 1321 Fit       0.000156
 1322 Fit       0.000057
 1323 Fit      -0.000902
 1324 Fit      -0.003359
 1325 Fit       0.000026
 1326 Fit      -0.000577
 1327 Fit      -0.000991
 1328 Fit      -0.000487
 1329 Fit      -0.000203
 1330 Fit       0.000634
 1331 Fit      -0.000155
 1332 Fit       0.001151
 1333 Fit      -0.002433
 1334 Fit      -0.009372
 1335 Fit       0.002215
 1336 Fit       0.001366
 1337 Fit       0.003938
 1338 Fit       0.006033
 1339 Fit       0.004032
 1340 Fit       0.011129
 1341 Fit       0.008348
 1342 Fit       0.005277
 1343 Fit       0.002754
 1344 Fit       0.010904
 1345 Fit       0.006775
 1346 Fit       0.003511
 1347 Fit       0.010645
 1348 Fit       0.006292
 1349 Fit      -0.001550
 1350 Fit      -0.000779
 1351 Fit      -0.001145
 1352 Fit      -0.002620
 1353 Fit      -0.002560
 1354 Fit      -0.000121
 1355 Fit      -0.000612
 1356 Fit      -0.002241
 1357 Fit      -0.004587
 1358 Fit       0.000372
 1359 Fit      -0.000388
 1360 Fit      -0.002193
 1361 Fit       0.009156
 1362 Fit       0.006447
 1363 Fit       0.001201
 1364 Fit      -0.007204
 1365 Fit      -0.007628
 1366 Fit      -0.010723
 1367 Fit      -0.001083
 1368 Fit      -0.000534
 1369 Fit      -0.000200
 1370 Fit      -0.000655
 1371 Fit      -0.001772
 1372 Fit       0.002360
 1373 Fit       0.002714
 1374 Fit       0.003092
 1375 Fit       0.002991
 1376 Fit       0.002566
 1377 Fit       0.002669
 1378 Fit       0.004224
 1379 Fit       0.004402
 1380 Fit       0.004212
 1381 Fit      -0.015673
 1382 Fit      -0.020601
 1383 Fit      -0.007152
 1384 Fit      -0.004426
 1385 Fit      -0.003918
 1386 Fit      -0.005573
 1387 Fit       0.000409
 1388 Fit       0.001193
 1389 Fit       0.001571
 1390 Fit       0.001102
 1391 Fit      -0.000202
 1392 Fit       0.002754
 1393 Fit       0.003556
 1394 Fit       0.003864
 1395 Fit       0.003528
 1396 Fit       0.002685
 1397 Fit       0.004614
 1398 Fit       0.004636
 1399 Fit       0.004249
 1400 Fit       0.004320
 1401 Fit       0.006076
 1402 Fit       0.005761
 1403 Fit       0.005679
 1404 Fit       0.005505
 1405 Fit       0.005415
 1406 Fit       0.005127
 1407 Fit       0.004645
 1408 Fit       0.006483
 1409 Fit       0.006303
 1410 Fit       0.006072
 1411 Fit       0.005855
 1412 Fit       0.005565
 1413 Fit       0.006110
 1414 Fit       0.006354
 1415 Fit       0.014333
 1416 Fit       0.015136
 1417 Fit       0.014709
 1418 Fit       0.014525
 1419 Fit       0.010122
 1420 Fit       0.013055
 1421 Fit       0.012623
 1422 Fit       0.012220
 1423 Fit       0.011408
 1424 Fit       0.006926
 1425 Fit       0.011636
 1426 Fit       0.010994
 1427 Fit       0.010293
 1428 Fit       0.009014
 1429 Fit       0.009007
 1430 Fit       0.007319
 1431 Fit      -0.003084
 1432 Fit      -0.005336
 1433 Fit      -0.009503
 1434 Fit       0.001667
 1435 Fit      -0.005924
 1436 Fit      -0.005306
 1437 Fit       0.000811
 1438 Fit       0.000614
 1439 Fit      -0.005809
 1440 Fit       0.016178
 1441 Fit       0.015563
 1442 Fit       0.008719
 1443 Fit       0.011159
 1444 Fit       0.012384
 1445 Fit       0.012756
 1446 Fit       0.012766
 1447 Fit       0.004309
 1448 Fit       0.007759
 1449 Fit       0.009705
 1450 Fit       0.010598
 1451 Fit       0.010950
 1452 Fit       0.002807
 1453 Fit       0.006529
 1454 Fit       0.008331
 1455 Fit       0.009188
 1456 Fit       0.002858
 1457 Fit       0.013711
 1458 Fit       0.014704
 1459 Fit       0.011970
 1460 Fit       0.013097
 1461 Fit       0.014227
 1462 Fit       0.015075
 1463 Fit       0.010680
 1464 Fit       0.011983
 1465 Fit       0.013555
 1466 Fit       0.014667
 1467 Fit       0.015304
 1468 Fit       0.016102
 1469 Fit       0.009984
 1470 Fit       0.011819
 1471 Fit       0.013955
 1472 Fit       0.015530
 1473 Fit       0.016321
 1474 Fit       0.011543
 1475 Fit       0.013037
 1476 Fit       0.008355
 1477 Fit       0.006948
 1478 Fit       0.010794
 1479 Fit       0.002483
 1480 Fit       0.008329
 1481 Fit       0.006733
 1482 Fit       0.013935
 1483 Fit       0.014356
 1484 Fit       0.013940
 1485 Fit       0.015195
 1486 Fit       0.014674
 1487 Fit       0.014239
 1488 Fit       0.013564
 1489 Fit       0.015992
 1490 Fit       0.015390
 1491 Fit       0.014966
 1492 Fit       0.014193
 1493 Fit       0.012440
 1494 Fit       0.016351
 1495 Fit       0.014496
 1496 Fit       0.003422
 1497 Fit       0.003003
 1498 Fit      -0.001944
 1499 Fit      -0.003965
 1500 Fit       0.004721
 1501 Fit       0.010507
 1502 Fit       0.008312
 1503 Fit       0.012925
 1504 Fit      -0.008144
 1505 Fit      -0.003934
 1506 Fit      -0.008959
 1507 Fit      -0.019411
 1508 Fit      -0.016695
 1509 Fit      -0.009141
 1510 Fit      -0.003108
 1511 Fit      -0.011474
 1512 Fit      -0.002439
 1513 Fit      -0.004684
 1514 Fit       0.003721
 1515 Fit      -0.002832
 1516 Fit       0.000688
 1517 Fit       0.008785
 1518 Fit      -0.006339
 1519 Fit       0.005998
 1520 Fit      -0.001881
 1521 Fit      -0.005647
 -----------------------------------------------------------------
 Leave Link  602 at Sat Feb 17 20:59:31 2018, MaxMem=   33554432 cpu:       1.3

 Test job not archived.
 1\1\GINC-NODE093\SP\RHF\6-31G(d)\C13H24N2O2\WULSDORT\17-Feb-2018\0\\#H
 F/6-31G* Geom=AllCheck Guess=Read Pop=(MK,ReadRadii) Integral=(Grid=Ul
 traFine) iop(6/33=2)\\Optimization for frag16-conf0\\0,1\C,0,4.8166639
 338,-3.8259535475,0.5531257378\C,0,5.9432508897,-2.6299232161,-2.71269
 47898\C,0,2.8883105853,-7.1140762267,-4.7501583946\C,0,4.2628449935,-6
 .902348834,-4.1014867341\C,0,2.3208722055,-5.7883553582,-5.2760214768\
 C,0,4.2220256351,-5.8324789476,-2.9976593106\C,0,2.2737084291,-4.72240
 11763,-4.1716235597\C,0,3.6477797121,-4.4942554331,-3.504971699\C,0,5.
 5297029015,-4.7579603759,1.5219426178\C,0,6.9169740599,-1.3316055613,-
 4.5258288748\C,0,4.8754318365,-0.4766610055,-3.4605870744\C,0,3.509614
 6716,-3.4101770871,-2.4179234619\C,0,4.7974783564,-2.8887766839,-1.717
 8022479\N,0,5.3178790559,-3.8001936195,-0.7131438596\N,0,5.884866337,-
 1.523127009,-3.5132066128\O,0,3.8461701484,-3.1526278082,0.8921157947\
 O,0,6.8686876085,-3.4424555234,-2.7902890653\H,0,2.9571682776,-7.84910
 81735,-5.5625026393\H,0,2.1955226523,-7.5339259239,-4.0055517441\H,0,4
 .6398311361,-7.8470807269,-3.6889227953\H,0,4.9824838193,-6.5931663166
 ,-4.874138955\H,0,2.9523416206,-5.4274729737,-6.1017268131\H,0,1.31745
 35122,-5.9392325354,-5.6947984034\H,0,3.6041393334,-6.1917735421,-2.16
 06613212\H,0,5.2311117282,-5.6796765794,-2.6044314913\H,0,1.8965696507
 ,-3.774544895,-4.580023226\H,0,1.5532758099,-5.0340301395,-3.399615244
 2\H,0,4.3303891229,-4.1177290623,-4.2841951294\H,0,5.8622595418,-4.178
 3555032,2.3886277764\H,0,4.8158076342,-5.5043740371,1.8844468058\H,0,6
 .3897273158,-5.2732352934,1.0834059503\H,0,6.4610270825,-1.2513307179,
 -5.520923273\H,0,7.5936045074,-2.1838068921,-4.4988124567\H,0,7.479778
 426,-0.4102724999,-4.3277979583\H,0,5.3659982392,0.5030081205,-3.39869
 79783\H,0,4.2296959631,-0.5852849718,-2.5916162699\H,0,4.2504911301,-0
 .4865870166,-4.363903234\H,0,3.0025475794,-2.545964991,-2.8682833898\H
 ,0,2.8498374007,-3.7603511231,-1.6152643555\H,0,4.5174968434,-1.973888
 8639,-1.1850786834\H,0,6.179974171,-4.2703107962,-0.9606402538\\Versio
 n=AM64L-G09RevC.01\State=1-A\HF=-764.9210384\RMSD=7.769e-09\Dipole=0.2
 898552,0.5411806,-0.9391319\Quadrupole=-4.2400982,7.5567787,-3.3166805
 ,2.4266808,6.0016071,-8.3847046\PG=C01 [X(C13H24N2O2)]\\@


 IT IS UNWORTHY OF EXCELLENT MEN TO LOSE HOURS LIKE SLAVES IN THE LABOR
 OF CALCULATION WHICH COULD BE SAFELY RELEGATED TO ANYONE ELSE
 IF A MACHINE WERE USED.
    -- G.W. VON LEIBNIZ
 Job cpu time:  0 days  0 hours  6 minutes 37.3 seconds.
 File lengths (MBytes):  RWF=     52 Int=      0 D2E=      0 Chk=      8 Scr=      1
 Normal termination of Gaussian 09 at Sat Feb 17 20:59:32 2018.
