 Entering Gaussian System, Link 0=g09
 Initial command:
 /home/fb_chem/chemsoft/lx24-amd64/Gaussian_09_C.01_NBO_3.1_64_istanbul-64/g09/l1.exe /local/2397386.1.parallel_long/Gau-17399.inp -scrdir=/local/2397386.1.parallel_long/
 Entering Link 1 = /home/fb_chem/chemsoft/lx24-amd64/Gaussian_09_C.01_NBO_3.1_64_istanbul-64/g09/l1.exe PID=     17400.
  
 Copyright (c) 1988,1990,1992,1993,1995,1998,2003,2009,2011,
            Gaussian, Inc.  All Rights Reserved.
  
 This is part of the Gaussian(R) 09 program.  It is based on
 the Gaussian(R) 03 system (copyright 2003, Gaussian, Inc.),
 the Gaussian(R) 98 system (copyright 1998, Gaussian, Inc.),
 the Gaussian(R) 94 system (copyright 1995, Gaussian, Inc.),
 the Gaussian 92(TM) system (copyright 1992, Gaussian, Inc.),
 the Gaussian 90(TM) system (copyright 1990, Gaussian, Inc.),
 the Gaussian 88(TM) system (copyright 1988, Gaussian, Inc.),
 the Gaussian 86(TM) system (copyright 1986, Carnegie Mellon
 University), and the Gaussian 82(TM) system (copyright 1983,
 Carnegie Mellon University). Gaussian is a federally registered
 trademark of Gaussian, Inc.
  
 This software contains proprietary and confidential information,
 including trade secrets, belonging to Gaussian, Inc.
  
 This software is provided under written license and may be
 used, copied, transmitted, or stored only in accord with that
 written license.
  
 The following legend is applicable only to US Government
 contracts under FAR:
  
                    RESTRICTED RIGHTS LEGEND
  
 Use, reproduction and disclosure by the US Government is
 subject to restrictions as set forth in subparagraphs (a)
 and (c) of the Commercial Computer Software - Restricted
 Rights clause in FAR 52.227-19.
  
 Gaussian, Inc.
 340 Quinnipiac St., Bldg. 40, Wallingford CT 06492
  
  
 ---------------------------------------------------------------
 Warning -- This program may not be used in any manner that
 competes with the business of Gaussian, Inc. or will provide
 assistance to any competitor of Gaussian, Inc.  The licensee
 of this program is prohibited from giving any competitor of
 Gaussian, Inc. access to this program.  By using this program,
 the user acknowledges that Gaussian, Inc. is engaged in the
 business of creating and licensing software in the field of
 computational chemistry and represents and warrants to the
 licensee that it is not a competitor of Gaussian, Inc. and that
 it will not use this program in any manner prohibited above.
 ---------------------------------------------------------------
  

 Cite this work as:
 Gaussian 09, Revision C.01,
 M. J. Frisch, G. W. Trucks, H. B. Schlegel, G. E. Scuseria, 
 M. A. Robb, J. R. Cheeseman, G. Scalmani, V. Barone, B. Mennucci, 
 G. A. Petersson, H. Nakatsuji, M. Caricato, X. Li, H. P. Hratchian, 
 A. F. Izmaylov, J. Bloino, G. Zheng, J. L. Sonnenberg, M. Hada, 
 M. Ehara, K. Toyota, R. Fukuda, J. Hasegawa, M. Ishida, T. Nakajima, 
 Y. Honda, O. Kitao, H. Nakai, T. Vreven, J. A. Montgomery, Jr., 
 J. E. Peralta, F. Ogliaro, M. Bearpark, J. J. Heyd, E. Brothers, 
 K. N. Kudin, V. N. Staroverov, T. Keith, R. Kobayashi, J. Normand, 
 K. Raghavachari, A. Rendell, J. C. Burant, S. S. Iyengar, J. Tomasi, 
 M. Cossi, N. Rega, J. M. Millam, M. Klene, J. E. Knox, J. B. Cross, 
 V. Bakken, C. Adamo, J. Jaramillo, R. Gomperts, R. E. Stratmann, 
 O. Yazyev, A. J. Austin, R. Cammi, C. Pomelli, J. W. Ochterski, 
 R. L. Martin, K. Morokuma, V. G. Zakrzewski, G. A. Voth, 
 P. Salvador, J. J. Dannenberg, S. Dapprich, A. D. Daniels, 
 O. Farkas, J. B. Foresman, J. V. Ortiz, J. Cioslowski, 
 and D. J. Fox, Gaussian, Inc., Wallingford CT, 2010.
 
 ******************************************
 Gaussian 09:  AM64L-G09RevC.01 23-Sep-2011
                16-Feb-2018 
 ******************************************
 %nprocs=4
 Will use up to    4 processors via shared memory.
 %chk=frag32-conf1.chk
 ---------------------------------------------------------
 #B3LYP/6-31G* Integral=(Grid=UltraFine) freq Opt pop=none
 ---------------------------------------------------------
 1/14=-1,18=20,19=15,26=3,38=1/1,3;
 2/9=110,12=2,17=6,18=5,40=1/2;
 3/5=1,6=6,7=1,11=2,16=1,25=1,30=1,71=1,74=-5,75=-5/1,2,3;
 4//1;
 5/5=2,38=5/2;
 7//1,2,3,16;
 1/14=-1,18=20,19=15/3(2);
 2/9=110/2;
 99//99;
 2/9=110/2;
 3/5=1,6=6,7=1,11=2,16=1,25=1,30=1,71=1,74=-5,75=-5/1,2,3;
 4/5=5,16=3/1;
 5/5=2,38=5/2;
 7//1,2,3,16;
 1/14=-1,18=20,19=15/3(-5);
 2/9=110/2;
 99/9=1/99;
 -----------------------------
 Optimization for frag32-conf1
 -----------------------------
 Charge =  0 Multiplicity = 1
 Symbolic Z-Matrix:
 C                    -0.5996   -1.41316   5.34189 
 C                    -0.68855  -2.92788   3.47952 
 C                    -1.86814  -1.84638   5.69221 
 C                    -1.95349  -3.2999    3.90503 
 C                     0.01364  -1.97007   4.21628 
 C                     2.394     0.17808   2.30592 
 C                     2.09185   1.33482   1.39308 
 C                     1.37702  -1.51236   3.77853 
 N                    -2.55971  -2.78135   4.99894 
 N                     1.28204  -0.39827   2.86393 
 O                     3.54082  -0.19344   2.5471 
 H                    -0.10229  -0.65324   5.93845 
 H                    -0.26221  -3.37854   2.58742 
 H                    -2.37207  -1.43559   6.56442 
 H                    -2.52528  -4.04495   3.35603 
 H                     2.02236   2.25117   1.98509 
 H                     2.89379   1.43618   0.65669 
 H                     1.15005   1.17612   0.86017 
 H                     1.98057  -1.20501   4.64087 
 H                     1.92134  -2.32626   3.28489 
 H                     0.36329  -0.02695   2.63843 
 

 GradGradGradGradGradGradGradGradGradGradGradGradGradGradGradGradGradGrad
 Berny optimization.
 Initialization pass.
                           ----------------------------
                           !    Initial Parameters    !
                           ! (Angstroms and Degrees)  !
 --------------------------                            --------------------------
 ! Name  Definition              Value          Derivative Info.                !
 --------------------------------------------------------------------------------
 ! R1    R(1,3)                  1.3855         estimate D2E/DX2                !
 ! R2    R(1,5)                  1.3976         estimate D2E/DX2                !
 ! R3    R(1,12)                 1.0866         estimate D2E/DX2                !
 ! R4    R(2,4)                  1.3855         estimate D2E/DX2                !
 ! R5    R(2,5)                  1.3976         estimate D2E/DX2                !
 ! R6    R(2,13)                 1.0866         estimate D2E/DX2                !
 ! R7    R(3,9)                  1.3539         estimate D2E/DX2                !
 ! R8    R(3,14)                 1.0879         estimate D2E/DX2                !
 ! R9    R(4,9)                  1.3539         estimate D2E/DX2                !
 ! R10   R(4,15)                 1.0879         estimate D2E/DX2                !
 ! R11   R(5,8)                  1.5033         estimate D2E/DX2                !
 ! R12   R(6,7)                  1.5042         estimate D2E/DX2                !
 ! R13   R(6,10)                 1.3711         estimate D2E/DX2                !
 ! R14   R(6,11)                 1.2294         estimate D2E/DX2                !
 ! R15   R(7,16)                 1.0932         estimate D2E/DX2                !
 ! R16   R(7,17)                 1.0935         estimate D2E/DX2                !
 ! R17   R(7,18)                 1.0937         estimate D2E/DX2                !
 ! R18   R(8,10)                 1.4445         estimate D2E/DX2                !
 ! R19   R(8,19)                 1.0965         estimate D2E/DX2                !
 ! R20   R(8,20)                 1.0965         estimate D2E/DX2                !
 ! R21   R(10,21)                1.0163         estimate D2E/DX2                !
 ! A1    A(3,1,5)              118.7378         estimate D2E/DX2                !
 ! A2    A(3,1,12)             119.9272         estimate D2E/DX2                !
 ! A3    A(5,1,12)             121.335          estimate D2E/DX2                !
 ! A4    A(4,2,5)              118.74           estimate D2E/DX2                !
 ! A5    A(4,2,13)             119.9346         estimate D2E/DX2                !
 ! A6    A(5,2,13)             121.3254         estimate D2E/DX2                !
 ! A7    A(1,3,9)              123.6515         estimate D2E/DX2                !
 ! A8    A(1,3,14)             120.5825         estimate D2E/DX2                !
 ! A9    A(9,3,14)             115.7658         estimate D2E/DX2                !
 ! A10   A(2,4,9)              123.6495         estimate D2E/DX2                !
 ! A11   A(2,4,15)             120.5835         estimate D2E/DX2                !
 ! A12   A(9,4,15)             115.7669         estimate D2E/DX2                !
 ! A13   A(1,5,2)              118.5029         estimate D2E/DX2                !
 ! A14   A(1,5,8)              120.7406         estimate D2E/DX2                !
 ! A15   A(2,5,8)              120.7183         estimate D2E/DX2                !
 ! A16   A(7,6,10)             114.0367         estimate D2E/DX2                !
 ! A17   A(7,6,11)             122.6037         estimate D2E/DX2                !
 ! A18   A(10,6,11)            123.3427         estimate D2E/DX2                !
 ! A19   A(6,7,16)             109.193          estimate D2E/DX2                !
 ! A20   A(6,7,17)             109.4297         estimate D2E/DX2                !
 ! A21   A(6,7,18)             110.9209         estimate D2E/DX2                !
 ! A22   A(16,7,17)            109.4894         estimate D2E/DX2                !
 ! A23   A(16,7,18)            109.3159         estimate D2E/DX2                !
 ! A24   A(17,7,18)            108.4725         estimate D2E/DX2                !
 ! A25   A(5,8,10)             111.0726         estimate D2E/DX2                !
 ! A26   A(5,8,19)             110.8257         estimate D2E/DX2                !
 ! A27   A(5,8,20)             110.8114         estimate D2E/DX2                !
 ! A28   A(10,8,19)            108.5383         estimate D2E/DX2                !
 ! A29   A(10,8,20)            108.6665         estimate D2E/DX2                !
 ! A30   A(19,8,20)            106.7895         estimate D2E/DX2                !
 ! A31   A(3,9,4)              116.7113         estimate D2E/DX2                !
 ! A32   A(6,10,8)             121.9064         estimate D2E/DX2                !
 ! A33   A(6,10,21)            119.2922         estimate D2E/DX2                !
 ! A34   A(8,10,21)            118.7976         estimate D2E/DX2                !
 ! D1    D(5,1,3,9)             -0.3574         estimate D2E/DX2                !
 ! D2    D(5,1,3,14)           179.8001         estimate D2E/DX2                !
 ! D3    D(12,1,3,9)           179.558          estimate D2E/DX2                !
 ! D4    D(12,1,3,14)           -0.2845         estimate D2E/DX2                !
 ! D5    D(3,1,5,2)              0.9277         estimate D2E/DX2                !
 ! D6    D(3,1,5,8)            178.6952         estimate D2E/DX2                !
 ! D7    D(12,1,5,2)          -178.9864         estimate D2E/DX2                !
 ! D8    D(12,1,5,8)            -1.219          estimate D2E/DX2                !
 ! D9    D(5,2,4,9)              0.355          estimate D2E/DX2                !
 ! D10   D(5,2,4,15)          -179.8029         estimate D2E/DX2                !
 ! D11   D(13,2,4,9)          -179.5541         estimate D2E/DX2                !
 ! D12   D(13,2,4,15)            0.2879         estimate D2E/DX2                !
 ! D13   D(4,2,5,1)             -0.9267         estimate D2E/DX2                !
 ! D14   D(4,2,5,8)           -178.6946         estimate D2E/DX2                !
 ! D15   D(13,2,5,1)           178.9812         estimate D2E/DX2                !
 ! D16   D(13,2,5,8)             1.2132         estimate D2E/DX2                !
 ! D17   D(1,3,9,4)             -0.2244         estimate D2E/DX2                !
 ! D18   D(14,3,9,4)           179.6251         estimate D2E/DX2                !
 ! D19   D(2,4,9,3)              0.2256         estimate D2E/DX2                !
 ! D20   D(15,4,9,3)          -179.6234         estimate D2E/DX2                !
 ! D21   D(1,5,8,10)           -89.2834         estimate D2E/DX2                !
 ! D22   D(1,5,8,19)            31.4543         estimate D2E/DX2                !
 ! D23   D(1,5,8,20)           149.8265         estimate D2E/DX2                !
 ! D24   D(2,5,8,10)            88.4344         estimate D2E/DX2                !
 ! D25   D(2,5,8,19)          -150.828          estimate D2E/DX2                !
 ! D26   D(2,5,8,20)           -32.4558         estimate D2E/DX2                !
 ! D27   D(10,6,7,16)           86.4434         estimate D2E/DX2                !
 ! D28   D(10,6,7,17)         -153.7292         estimate D2E/DX2                !
 ! D29   D(10,6,7,18)          -34.0897         estimate D2E/DX2                !
 ! D30   D(11,6,7,16)          -92.1058         estimate D2E/DX2                !
 ! D31   D(11,6,7,17)           27.7217         estimate D2E/DX2                !
 ! D32   D(11,6,7,18)          147.3611         estimate D2E/DX2                !
 ! D33   D(7,6,10,8)          -179.2971         estimate D2E/DX2                !
 ! D34   D(7,6,10,21)           -0.0173         estimate D2E/DX2                !
 ! D35   D(11,6,10,8)           -0.7602         estimate D2E/DX2                !
 ! D36   D(11,6,10,21)         178.5197         estimate D2E/DX2                !
 ! D37   D(5,8,10,6)          -178.7267         estimate D2E/DX2                !
 ! D38   D(5,8,10,21)            1.99           estimate D2E/DX2                !
 ! D39   D(19,8,10,6)           59.1956         estimate D2E/DX2                !
 ! D40   D(19,8,10,21)        -120.0878         estimate D2E/DX2                !
 ! D41   D(20,8,10,6)          -56.5814         estimate D2E/DX2                !
 ! D42   D(20,8,10,21)         124.1353         estimate D2E/DX2                !
 --------------------------------------------------------------------------------
 Trust Radius=3.00D-01 FncErr=1.00D-07 GrdErr=1.00D-06
 Number of steps in this run=    107 maximum allowed number of steps=    126.
 GradGradGradGradGradGradGradGradGradGradGradGradGradGradGradGradGradGrad

                          Input orientation:                          
 ---------------------------------------------------------------------
 Center     Atomic      Atomic             Coordinates (Angstroms)
 Number     Number       Type             X           Y           Z
 ---------------------------------------------------------------------
      1          6           0       -0.599603   -1.413162    5.341887
      2          6           0       -0.688548   -2.927878    3.479521
      3          6           0       -1.868137   -1.846377    5.692206
      4          6           0       -1.953486   -3.299902    3.905032
      5          6           0        0.013643   -1.970069    4.216280
      6          6           0        2.393997    0.178077    2.305916
      7          6           0        2.091847    1.334823    1.393083
      8          6           0        1.377023   -1.512357    3.778531
      9          7           0       -2.559712   -2.781349    4.998942
     10          7           0        1.282039   -0.398268    2.863935
     11          8           0        3.540823   -0.193438    2.547100
     12          1           0       -0.102294   -0.653237    5.938451
     13          1           0       -0.262208   -3.378536    2.587422
     14          1           0       -2.372066   -1.435588    6.564418
     15          1           0       -2.525278   -4.044950    3.356034
     16          1           0        2.022356    2.251174    1.985092
     17          1           0        2.893792    1.436179    0.656691
     18          1           0        1.150048    1.176118    0.860171
     19          1           0        1.980567   -1.205010    4.640867
     20          1           0        1.921345   -2.326257    3.284887
     21          1           0        0.363289   -0.026950    2.638433
 ---------------------------------------------------------------------
                    Distance matrix (angstroms):
                    1          2          3          4          5
     1  C    0.000000
     2  C    2.402224   0.000000
     3  C    1.385488   2.730760   0.000000
     4  C    2.730813   1.385471   2.305214   0.000000
     5  C    1.397572   1.397600   2.394735   2.394772   0.000000
     6  C    4.550913   4.530606   5.807854   5.792592   3.732306
     7  C    5.512565   5.500404   6.654620   6.644944   4.817850
     8  C    2.522096   2.521842   3.782166   3.782011   1.503305
     9  N    2.414865   2.414822   1.353906   1.353901   2.809430
    10  N    3.272741   3.265132   4.474343   4.469003   2.430684
    11  O    5.142148   5.121929   6.471534   6.456124   4.287607
    12  H    1.086596   3.400591   2.145326   3.816614   2.171027
    13  H    3.400530   1.086600   3.816569   2.145391   2.170956
    14  H    2.153302   3.818082   1.087863   3.274632   3.389843
    15  H    3.818133   2.153294   3.274638   1.087860   3.389879
    16  H    5.618728   6.033647   6.757851   7.092809   5.179963
    17  H    6.501816   6.312410   7.668609   7.515204   5.706878
    18  H    5.463646   5.204249   6.449300   6.240020   4.738499
    19  H    2.681796   3.382480   4.040939   4.517388   2.152760
    20  H    3.379374   2.685400   4.515047   4.043128   2.152601
    21  H    3.187069   3.198308   4.197036   4.205227   2.527363
                    6          7          8          9         10
     6  C    0.000000
     7  C    1.504201   0.000000
     8  C    2.461788   3.782561   0.000000
     9  N    6.367875   7.182068   4.312496   0.000000
    10  N    1.371134   2.413048   1.444542   4.999639   0.000000
    11  O    1.229391   2.401430   2.817446   7.065787   2.290075
    12  H    4.485294   5.424667   2.755307   3.383850   3.381425
    13  H    4.447939   5.402200   2.754712   3.383872   3.367960
    14  H    6.591974   7.371865   4.671480   2.072920   5.303027
    15  H    6.567799   7.356152   4.671240   2.072926   5.294914
    16  H    2.130441   1.093162   4.218655   7.443449   2.887902
    17  H    2.133673   1.093464   4.554157   8.147601   3.291636
    18  H    2.152597   1.093695   3.974448   6.822997   2.551702
    19  H    2.745150   4.124468   1.096517   4.819460   2.072742
    20  H    2.730105   4.124500   1.096543   4.819229   2.074381
    21  H    2.067941   2.528484   2.129299   4.658611   1.016282
                   11         12         13         14         15
    11  O    0.000000
    12  H    4.998498   0.000000
    13  H    4.960798   4.322293   0.000000
    14  H    7.255621   2.481083   4.903371   0.000000
    15  H    7.230913   4.903411   2.481202   4.138354   0.000000
    16  H    2.932188   5.345914   6.105380   7.339849   7.886801
    17  H    2.578361   6.421774   6.072029   8.418880   8.166734
    18  H    3.230668   5.541104   5.071758   7.194771   6.855429
    19  H    2.800275   2.515251   3.737764   4.764308   5.478931
    20  H    2.777762   3.733030   2.522230   5.475582   4.767748
    21  H    3.183203   3.391036   3.409834   4.987965   5.000309
                   16         17         18         19         20
    16  H    0.000000
    17  H    1.785573   0.000000
    18  H    1.783849   1.774734   0.000000
    19  H    4.358910   4.866572   4.544578   0.000000
    20  H    4.759470   4.691374   4.329062   1.760507   0.000000
    21  H    2.892958   3.531500   2.286608   2.830751   2.851710
                   21
    21  H    0.000000
 Stoichiometry    C8H10N2O
 Framework group  C1[X(C8H10N2O)]
 Deg. of freedom    57
 Full point group                 C1      NOp   1
 Largest Abelian subgroup         C1      NOp   1
 Largest concise Abelian subgroup C1      NOp   1
                         Standard orientation:                         
 ---------------------------------------------------------------------
 Center     Atomic      Atomic             Coordinates (Angstroms)
 Number     Number       Type             X           Y           Z
 ---------------------------------------------------------------------
      1          6           0        1.571735    1.202799   -0.203456
      2          6           0        1.557500   -1.199383   -0.204781
      3          6           0        2.879684    1.146256    0.250031
      4          6           0        2.866002   -1.158916    0.248777
      5          6           0        0.892892    0.005839   -0.447722
      6          6           0       -2.807744   -0.010900    0.037166
      7          6           0       -3.587631    0.003519    1.323318
      8          6           0       -0.536696    0.014284   -0.912626
      9          7           0        3.544724   -0.010446    0.479866
     10          7           0       -1.447511    0.008975    0.208574
     11          8           0       -3.349828   -0.011892   -1.066259
     12          1           0        1.093709    2.165814   -0.360885
     13          1           0        1.067905   -2.156402   -0.363244
     14          1           0        3.437267    2.059422    0.446697
     15          1           0        3.412676   -2.078859    0.444466
     16          1           0       -3.731832    1.038410    1.644583
     17          1           0       -4.561234   -0.467930    1.163645
     18          1           0       -3.059722   -0.548143    2.106357
     19          1           0       -0.742365    0.900540   -1.524672
     20          1           0       -0.747469   -0.859891   -1.540159
     21          1           0       -1.065252    0.031482    1.149957
 ---------------------------------------------------------------------
 Rotational constants (GHZ):      3.1454707      0.4815906      0.4748937
 Standard basis: 6-31G(d) (6D, 7F)
 There are   185 symmetry adapted basis functions of A   symmetry.
 Integral buffers will be    131072 words long.
 Raffenetti 2 integral format.
 Two-electron integral symmetry is turned on.
   185 basis functions,   348 primitive gaussians,   185 cartesian basis functions
    40 alpha electrons       40 beta electrons
       nuclear repulsion energy       563.3844309771 Hartrees.
 NAtoms=   21 NActive=   21 NUniq=   21 SFac= 1.00D+00 NAtFMM=   60 NAOKFM=F Big=F
 One-electron integrals computed using PRISM.
 NBasis=   185 RedAO= T  NBF=   185
 NBsUse=   185 1.00D-06 NBFU=   185
 Harris functional with IExCor=  402 diagonalized for initial guess.
 ExpMin= 1.61D-01 ExpMax= 5.48D+03 ExpMxC= 8.25D+02 IAcc=3 IRadAn=         5 AccDes= 0.00D+00
 HarFok:  IExCor=  402 AccDes= 0.00D+00 IRadAn=         5 IDoV= 1
 ScaDFX=  1.000000  1.000000  1.000000  1.000000
 FoFCou: FMM=F IPFlag=           0 FMFlag=      100000 FMFlg1=           0
         NFxFlg=           0 DoJE=T BraDBF=F KetDBF=T FulRan=T
         Omega=  0.000000  0.000000  1.000000  0.000000  0.000000 ICntrl=     500 IOpCl=  0
         NMat0=    1 NMatS0=    1 NMatT0=    0 NMatD0=    1 NMtDS0=    0 NMtDT0=    0
         I1Cent=           4 NGrid=           0.
 Petite list used in FoFCou.
 Initial guess orbital symmetries:
       Occupied  (A) (A) (A) (A) (A) (A) (A) (A) (A) (A) (A) (A)
                 (A) (A) (A) (A) (A) (A) (A) (A) (A) (A) (A) (A)
                 (A) (A) (A) (A) (A) (A) (A) (A) (A) (A) (A) (A)
                 (A) (A) (A) (A)
       Virtual   (A) (A) (A) (A) (A) (A) (A) (A) (A) (A) (A) (A)
                 (A) (A) (A) (A) (A) (A) (A) (A) (A) (A) (A) (A)
                 (A) (A) (A) (A) (A) (A) (A) (A) (A) (A) (A) (A)
                 (A) (A) (A) (A) (A) (A) (A) (A) (A) (A) (A) (A)
                 (A) (A) (A) (A) (A) (A) (A) (A) (A) (A) (A) (A)
                 (A) (A) (A) (A) (A) (A) (A) (A) (A) (A) (A) (A)
                 (A) (A) (A) (A) (A) (A) (A) (A) (A) (A) (A) (A)
                 (A) (A) (A) (A) (A) (A) (A) (A) (A) (A) (A) (A)
                 (A) (A) (A) (A) (A) (A) (A) (A) (A) (A) (A) (A)
                 (A) (A) (A) (A) (A) (A) (A) (A) (A) (A) (A) (A)
                 (A) (A) (A) (A) (A) (A) (A) (A) (A) (A) (A) (A)
                 (A) (A) (A) (A) (A) (A) (A) (A) (A) (A) (A) (A)
                 (A)
 The electronic state of the initial guess is 1-A.
 Requested convergence on RMS density matrix=1.00D-08 within 128 cycles.
 Requested convergence on MAX density matrix=1.00D-06.
 Requested convergence on             energy=1.00D-06.
 No special actions if energy rises.
 Integral accuracy reduced to 1.0D-05 until final iterations.
 Initial convergence to 1.0D-05 achieved.  Increase integral accuracy.
 SCF Done:  E(RB3LYP) =  -495.608376680     A.U. after   14 cycles
             Convg  =    0.9550D-08             -V/T =  2.0095
 Calling FoFJK, ICntrl=      2127 FMM=F ISym2X=0 I1Cent= 0 IOpClX= 0 NMat=1 NMatS=1 NMatT=0.
 ***** Axes restored to original set *****
 -------------------------------------------------------------------
 Center     Atomic                   Forces (Hartrees/Bohr)
 Number     Number              X              Y              Z
 -------------------------------------------------------------------
      1        6           0.002726753    0.000109536   -0.001688244
      2        6           0.002757320    0.001503247    0.000030439
      3        6          -0.013385419   -0.012165104   -0.006651535
      4        6          -0.012264769    0.004630906    0.013926858
      5        6           0.002751289    0.001934055   -0.001715590
      6        6           0.007066783   -0.005016194    0.004073569
      7        6          -0.001323406    0.001927651   -0.007437314
      8        6           0.007774315   -0.004106190    0.004712124
      9        7           0.010192784    0.003289428   -0.003050636
     10        7          -0.003127961    0.009040906   -0.008808672
     11        8          -0.009364582   -0.002182080    0.001763642
     12        1           0.001619281   -0.000473525   -0.000466143
     13        1           0.001641320    0.000321419    0.000462014
     14        1          -0.000483485   -0.000274917    0.000339612
     15        1          -0.000485658   -0.000366642    0.000230952
     16        1          -0.000141452    0.003043204   -0.001316670
     17        1           0.000097042    0.001134576    0.002488623
     18        1          -0.001893702    0.003336404   -0.000659401
     19        1           0.000395666   -0.001928854    0.001494640
     20        1           0.000345596   -0.000982790    0.000995421
     21        1           0.005102285   -0.002775034    0.001276309
 -------------------------------------------------------------------
 Cartesian Forces:  Max     0.013926858 RMS     0.004873734

 GradGradGradGradGradGradGradGradGradGradGradGradGradGradGradGradGradGrad
 Berny optimization.
 Internal  Forces:  Max     0.013137014 RMS     0.003656252
 Search for a local minimum.
 Step number   1 out of a maximum of  107
 All quantities printed in internal units (Hartrees-Bohrs-Radians)
 Mixed Optimization -- RFO/linear search
 Second derivative matrix not updated -- first step.
 ITU=  0
     Eigenvalues ---    0.00710   0.00722   0.01103   0.01263   0.01493
     Eigenvalues ---    0.01558   0.02074   0.02140   0.02190   0.02206
     Eigenvalues ---    0.02251   0.02286   0.02287   0.02296   0.05249
     Eigenvalues ---    0.06613   0.07349   0.07512   0.09889   0.13193
     Eigenvalues ---    0.15999   0.16000   0.16000   0.16000   0.16000
     Eigenvalues ---    0.16000   0.16000   0.16000   0.21947   0.21999
     Eigenvalues ---    0.22000   0.22819   0.23877   0.24980   0.24992
     Eigenvalues ---    0.25000   0.31941   0.32033   0.34067   0.34070
     Eigenvalues ---    0.34389   0.34415   0.34450   0.35061   0.35061
     Eigenvalues ---    0.35209   0.35209   0.38969   0.43091   0.43851
     Eigenvalues ---    0.44937   0.46620   0.48112   0.50759   0.52396
     Eigenvalues ---    0.53555   0.91341
 RFO step:  Lambda=-3.83931388D-03 EMin= 7.10379247D-03
 Linear search not attempted -- first point.
 Iteration  1 RMS(Cart)=  0.03857150 RMS(Int)=  0.00059306
 Iteration  2 RMS(Cart)=  0.00077637 RMS(Int)=  0.00006038
 Iteration  3 RMS(Cart)=  0.00000036 RMS(Int)=  0.00006038
 Variable       Old X    -DE/DX   Delta X   Delta X   Delta X     New X
                                 (Linear)    (Quad)   (Total)
    R1        2.61819   0.00897   0.00000   0.01845   0.01845   2.63665
    R2        2.64103  -0.00031   0.00000   0.00049   0.00051   2.64154
    R3        2.05337   0.00015   0.00000   0.00043   0.00043   2.05380
    R4        2.61816   0.00890   0.00000   0.01831   0.01830   2.63647
    R5        2.64108  -0.00031   0.00000   0.00050   0.00052   2.64160
    R6        2.05338   0.00013   0.00000   0.00037   0.00037   2.05375
    R7        2.55851  -0.01314   0.00000  -0.02505  -0.02507   2.53344
    R8        2.05576   0.00039   0.00000   0.00111   0.00111   2.05687
    R9        2.55850  -0.01303   0.00000  -0.02485  -0.02487   2.53364
   R10        2.05576   0.00039   0.00000   0.00110   0.00110   2.05686
   R11        2.84084   0.00534   0.00000   0.01647   0.01647   2.85731
   R12        2.84253   0.01212   0.00000   0.03749   0.03749   2.88002
   R13        2.59107  -0.00312   0.00000  -0.00611  -0.00611   2.58496
   R14        2.32321  -0.00773   0.00000  -0.00843  -0.00843   2.31478
   R15        2.06578   0.00185   0.00000   0.00530   0.00530   2.07108
   R16        2.06635  -0.00150   0.00000  -0.00431  -0.00431   2.06204
   R17        2.06678   0.00147   0.00000   0.00422   0.00422   2.07100
   R18        2.72979   0.01226   0.00000   0.03114   0.03114   2.76093
   R19        2.07212   0.00085   0.00000   0.00247   0.00247   2.07459
   R20        2.07217   0.00045   0.00000   0.00131   0.00131   2.07348
   R21        1.92050  -0.00591   0.00000  -0.01304  -0.01304   1.90746
    A1        2.07236   0.00131   0.00000   0.00807   0.00808   2.08044
    A2        2.09312   0.00097   0.00000   0.00591   0.00589   2.09902
    A3        2.11769  -0.00228   0.00000  -0.01397  -0.01399   2.10371
    A4        2.07240   0.00129   0.00000   0.00796   0.00797   2.08037
    A5        2.09325   0.00099   0.00000   0.00598   0.00596   2.09922
    A6        2.11753  -0.00227   0.00000  -0.01393  -0.01395   2.10358
    A7        2.15813   0.00223   0.00000   0.00726   0.00722   2.16534
    A8        2.10456  -0.00062   0.00000  -0.00060  -0.00060   2.10396
    A9        2.02049  -0.00161   0.00000  -0.00664  -0.00664   2.01385
   A10        2.15809   0.00226   0.00000   0.00738   0.00735   2.16544
   A11        2.10458  -0.00063   0.00000  -0.00066  -0.00067   2.10391
   A12        2.02051  -0.00162   0.00000  -0.00670  -0.00670   2.01381
   A13        2.06827  -0.00704   0.00000  -0.02341  -0.02340   2.04487
   A14        2.10732   0.00354   0.00000   0.01199   0.01194   2.11926
   A15        2.10693   0.00351   0.00000   0.01189   0.01184   2.11878
   A16        1.99032   0.00700   0.00000   0.02757   0.02757   2.01789
   A17        2.13984   0.00342   0.00000   0.01345   0.01345   2.15329
   A18        2.15274  -0.01042   0.00000  -0.04109  -0.04109   2.11164
   A19        1.90578   0.00266   0.00000   0.01233   0.01219   1.91796
   A20        1.90991  -0.00152   0.00000  -0.00991  -0.00997   1.89994
   A21        1.93593   0.00451   0.00000   0.03217   0.03199   1.96792
   A22        1.91095  -0.00235   0.00000  -0.02371  -0.02371   1.88724
   A23        1.90792  -0.00339   0.00000  -0.01928  -0.01953   1.88839
   A24        1.89320  -0.00002   0.00000   0.00761   0.00751   1.90072
   A25        1.93858  -0.00204   0.00000  -0.00750  -0.00747   1.93111
   A26        1.93427  -0.00055   0.00000  -0.00629  -0.00628   1.92799
   A27        1.93402  -0.00001   0.00000  -0.00559  -0.00559   1.92843
   A28        1.89435   0.00241   0.00000   0.02056   0.02053   1.91488
   A29        1.89659   0.00126   0.00000   0.00867   0.00863   1.90522
   A30        1.86383  -0.00093   0.00000  -0.00907  -0.00922   1.85461
   A31        2.03700  -0.00003   0.00000  -0.00703  -0.00710   2.02990
   A32        2.12767  -0.00229   0.00000  -0.01024  -0.01025   2.11741
   A33        2.08204   0.00163   0.00000   0.00804   0.00803   2.09007
   A34        2.07341   0.00066   0.00000   0.00211   0.00210   2.07551
    D1       -0.00624   0.00012   0.00000   0.00611   0.00619  -0.00005
    D2        3.13810  -0.00014   0.00000  -0.00437  -0.00434   3.13376
    D3        3.13388   0.00034   0.00000   0.01407   0.01417  -3.13514
    D4       -0.00497   0.00008   0.00000   0.00360   0.00364  -0.00133
    D5        0.01619  -0.00039   0.00000  -0.01498  -0.01490   0.00129
    D6        3.11882  -0.00002   0.00000  -0.00094  -0.00103   3.11779
    D7       -3.12390  -0.00061   0.00000  -0.02308  -0.02293   3.13636
    D8       -0.02128  -0.00024   0.00000  -0.00904  -0.00905  -0.03032
    D9        0.00620  -0.00012   0.00000  -0.00588  -0.00596   0.00024
   D10       -3.13815   0.00014   0.00000   0.00430   0.00427  -3.13388
   D11       -3.13381  -0.00032   0.00000  -0.01329  -0.01338   3.13599
   D12        0.00503  -0.00007   0.00000  -0.00312  -0.00316   0.00187
   D13       -0.01617   0.00039   0.00000   0.01487   0.01480  -0.00137
   D14       -3.11881   0.00001   0.00000   0.00084   0.00092  -3.11789
   D15        3.12381   0.00060   0.00000   0.02241   0.02226  -3.13711
   D16        0.02118   0.00022   0.00000   0.00838   0.00839   0.02956
   D17       -0.00392   0.00005   0.00000   0.00278   0.00283  -0.00108
   D18        3.13505   0.00031   0.00000   0.01280   0.01287  -3.13526
   D19        0.00394  -0.00006   0.00000  -0.00290  -0.00295   0.00099
   D20       -3.13502  -0.00030   0.00000  -0.01263  -0.01270   3.13546
   D21       -1.55829  -0.00047   0.00000  -0.01393  -0.01398  -1.57227
   D22        0.54898   0.00084   0.00000   0.00279   0.00271   0.55169
   D23        2.61496  -0.00067   0.00000  -0.01608  -0.01613   2.59884
   D24        1.54347  -0.00032   0.00000  -0.00037  -0.00030   1.54317
   D25       -2.63244   0.00099   0.00000   0.01635   0.01639  -2.61605
   D26       -0.56646  -0.00053   0.00000  -0.00252  -0.00245  -0.56891
   D27        1.50872   0.00082   0.00000   0.01384   0.01392   1.52264
   D28       -2.68308  -0.00134   0.00000  -0.01360  -0.01365  -2.69673
   D29       -0.59498   0.00047   0.00000   0.00953   0.00946  -0.58552
   D30       -1.60755   0.00097   0.00000   0.01736   0.01747  -1.59007
   D31        0.48383  -0.00120   0.00000  -0.01007  -0.01009   0.47374
   D32        2.57194   0.00061   0.00000   0.01306   0.01301   2.58495
   D33       -3.12933   0.00065   0.00000   0.03045   0.03043  -3.09889
   D34       -0.00030   0.00047   0.00000   0.02139   0.02136   0.02105
   D35       -0.01327   0.00074   0.00000   0.02780   0.02783   0.01457
   D36        3.11576   0.00056   0.00000   0.01874   0.01876   3.13451
   D37       -3.11937  -0.00003   0.00000  -0.00052  -0.00051  -3.11988
   D38        0.03473   0.00014   0.00000   0.00845   0.00845   0.04318
   D39        1.03316   0.00036   0.00000  -0.00157  -0.00151   1.03165
   D40       -2.09593   0.00052   0.00000   0.00740   0.00745  -2.08848
   D41       -0.98753  -0.00051   0.00000  -0.00652  -0.00656  -0.99409
   D42        2.16657  -0.00034   0.00000   0.00246   0.00240   2.16897
         Item               Value     Threshold  Converged?
 Maximum Force            0.013137     0.000450     NO 
 RMS     Force            0.003656     0.000300     NO 
 Maximum Displacement     0.201393     0.001800     NO 
 RMS     Displacement     0.038753     0.001200     NO 
 Predicted change in Energy=-1.956789D-03
 GradGradGradGradGradGradGradGradGradGradGradGradGradGradGradGradGradGrad

                          Input orientation:                          
 ---------------------------------------------------------------------
 Center     Atomic      Atomic             Coordinates (Angstroms)
 Number     Number       Type             X           Y           Z
 ---------------------------------------------------------------------
      1          6           0       -0.613171   -1.426691    5.344185
      2          6           0       -0.694840   -2.939870    3.501441
      3          6           0       -1.889770   -1.868310    5.693469
      4          6           0       -1.967605   -3.312976    3.934251
      5          6           0        0.012581   -1.970944    4.218936
      6          6           0        2.381205    0.181062    2.282422
      7          6           0        2.118913    1.372047    1.368392
      8          6           0        1.382378   -1.507526    3.777228
      9          7           0       -2.575247   -2.797777    5.012643
     10          7           0        1.271445   -0.392033    2.840235
     11          8           0        3.503730   -0.235324    2.541300
     12          1           0       -0.110903   -0.672951    5.944845
     13          1           0       -0.258407   -3.402234    2.620038
     14          1           0       -2.394349   -1.464759    6.569408
     15          1           0       -2.534888   -4.070294    3.396323
     16          1           0        2.082955    2.294560    1.959002
     17          1           0        2.940544    1.457140    0.655396
     18          1           0        1.176883    1.282690    0.815532
     19          1           0        1.983178   -1.204272    4.644580
     20          1           0        1.929142   -2.328517    3.296651
     21          1           0        0.355664   -0.029978    2.618623
 ---------------------------------------------------------------------
                    Distance matrix (angstroms):
                    1          2          3          4          5
     1  C    0.000000
     2  C    2.385810   0.000000
     3  C    1.395253   2.716816   0.000000
     4  C    2.716704   1.395157   2.277711   0.000000
     5  C    1.397843   1.397877   2.409091   2.408989   0.000000
     6  C    4.574445   4.548436   5.837499   5.817988   3.740534
     7  C    5.577110   5.573126   6.728726   6.725526   4.872148
     8  C    2.538525   2.538209   3.809081   3.808765   1.512021
     9  N    2.416514   2.416579   1.340639   1.340742   2.830279
    10  N    3.300312   3.285566   4.507063   4.496690   2.445100
    11  O    5.120976   5.085708   6.456985   6.430222   4.244403
    12  H    1.086825   3.383804   2.157879   3.802573   2.163053
    13  H    3.383727   1.086795   3.802663   2.157888   2.162983
    14  H    2.162224   3.804827   1.088449   3.246855   3.402096
    15  H    3.804708   2.162102   3.246812   1.088442   3.401993
    16  H    5.707563   6.123277   6.859904   7.193963   5.252454
    17  H    6.552108   6.375711   7.731283   7.589125   5.746612
    18  H    5.572588   5.342983   6.567148   6.382347   4.850246
    19  H    2.698138   3.389815   4.067043   4.534301   2.156899
    20  H    3.386598   2.702031   4.532176   4.069438   2.156774
    21  H    3.212186   3.217203   4.228016   4.231611   2.538909
                    6          7          8          9         10
     6  C    0.000000
     7  C    1.524039   0.000000
     8  C    2.466461   3.825822   0.000000
     9  N    6.394842   7.259693   4.342096   0.000000
    10  N    1.367904   2.448776   1.461022   5.030308   0.000000
    11  O    1.224931   2.424267   2.765167   7.044691   2.257657
    12  H    4.511461   5.486167   2.761334   3.384801   3.410044
    13  H    4.463355   5.478323   2.760648   3.384919   3.383820
    14  H    6.625171   7.447656   4.696995   2.057469   5.338119
    15  H    6.594147   7.442408   4.696578   2.057527   5.322312
    16  H    2.158803   1.095968   4.272308   7.546885   2.941582
    17  H    2.142067   1.091183   4.578533   8.216683   3.313436
    18  H    2.194480   1.095928   4.074209   6.953016   2.629270
    19  H    2.767195   4.170043   1.097827   4.842930   2.102845
    20  H    2.744268   4.177125   1.097238   4.842970   2.095436
    21  H    2.064070   2.576393   2.140013   4.688527   1.009382
                   11         12         13         14         15
    11  O    0.000000
    12  H    4.984095   0.000000
    13  H    4.918250   4.304077   0.000000
    14  H    7.247379   2.496230   4.890151   0.000000
    15  H    7.204371   4.890052   2.496255   4.108167   0.000000
    16  H    2.959389   5.431950   6.194546   7.445440   7.993856
    17  H    2.595813   6.467371   6.140571   8.483756   8.248974
    18  H    3.270605   5.638508   5.221571   7.308164   7.006580
    19  H    2.770330   2.521540   3.735573   4.789108   5.494101
    20  H    2.726049   3.730364   2.529039   5.490864   4.792836
    21  H    3.155704   3.419774   3.427709   5.022935   5.028346
                   16         17         18         19         20
    16  H    0.000000
    17  H    1.770910   0.000000
    18  H    1.775492   1.779488   0.000000
    19  H    4.411815   4.890118   4.636454   0.000000
    20  H    4.815165   4.725502   4.445522   1.756064   0.000000
    21  H    2.970204   3.570348   2.376685   2.851714   2.866852
                   21
    21  H    0.000000
 Stoichiometry    C8H10N2O
 Framework group  C1[X(C8H10N2O)]
 Deg. of freedom    57
 Full point group                 C1      NOp   1
 Largest Abelian subgroup         C1      NOp   1
 Largest concise Abelian subgroup C1      NOp   1
                         Standard orientation:                         
 ---------------------------------------------------------------------
 Center     Atomic      Atomic             Coordinates (Angstroms)
 Number     Number       Type             X           Y           Z
 ---------------------------------------------------------------------
      1          6           0        1.584986    1.181081   -0.276058
      2          6           0        1.569174   -1.200286   -0.131368
      3          6           0        2.900023    1.146487    0.188926
      4          6           0        2.884870   -1.126989    0.326929
      5          6           0        0.889853   -0.019729   -0.445801
      6          6           0       -2.818793   -0.015332    0.041562
      7          6           0       -3.652629    0.107846    1.311302
      8          6           0       -0.546567   -0.039210   -0.917526
      9          7           0        3.560098    0.019544    0.491602
     10          7           0       -1.462825    0.015883    0.219146
     11          8           0       -3.306236   -0.105913   -1.078550
     12          1           0        1.111035    2.131069   -0.508614
     13          1           0        1.082160   -2.164951   -0.246964
     14          1           0        3.464104    2.067778    0.322185
     15          1           0        3.436782   -2.032738    0.571304
     16          1           0       -3.824844    1.165060    1.543216
     17          1           0       -4.621575   -0.365352    1.144246
     18          1           0       -3.174264   -0.359476    2.179540
     19          1           0       -0.740871    0.805626   -1.591115
     20          1           0       -0.747748   -0.947984   -1.498549
     21          1           0       -1.081306    0.097079    1.150115
 ---------------------------------------------------------------------
 Rotational constants (GHZ):      3.1563200      0.4766540      0.4710448
 Standard basis: 6-31G(d) (6D, 7F)
 There are   185 symmetry adapted basis functions of A   symmetry.
 Integral buffers will be    131072 words long.
 Raffenetti 2 integral format.
 Two-electron integral symmetry is turned on.
   185 basis functions,   348 primitive gaussians,   185 cartesian basis functions
    40 alpha electrons       40 beta electrons
       nuclear repulsion energy       562.1725462476 Hartrees.
 NAtoms=   21 NActive=   21 NUniq=   21 SFac= 1.00D+00 NAtFMM=   60 NAOKFM=F Big=F
 One-electron integrals computed using PRISM.
 NBasis=   185 RedAO= T  NBF=   185
 NBsUse=   185 1.00D-06 NBFU=   185
 Initial guess read from the read-write file.
 B after Tr=     0.000000    0.000000    0.000000
         Rot=    1.000000    0.000000    0.000000    0.000000 Ang=   0.00 deg.
 Initial guess orbital symmetries:
       Occupied  (A) (A) (A) (A) (A) (A) (A) (A) (A) (A) (A) (A)
                 (A) (A) (A) (A) (A) (A) (A) (A) (A) (A) (A) (A)
                 (A) (A) (A) (A) (A) (A) (A) (A) (A) (A) (A) (A)
                 (A) (A) (A) (A)
       Virtual   (A) (A) (A) (A) (A) (A) (A) (A) (A) (A) (A) (A)
                 (A) (A) (A) (A) (A) (A) (A) (A) (A) (A) (A) (A)
                 (A) (A) (A) (A) (A) (A) (A) (A) (A) (A) (A) (A)
                 (A) (A) (A) (A) (A) (A) (A) (A) (A) (A) (A) (A)
                 (A) (A) (A) (A) (A) (A) (A) (A) (A) (A) (A) (A)
                 (A) (A) (A) (A) (A) (A) (A) (A) (A) (A) (A) (A)
                 (A) (A) (A) (A) (A) (A) (A) (A) (A) (A) (A) (A)
                 (A) (A) (A) (A) (A) (A) (A) (A) (A) (A) (A) (A)
                 (A) (A) (A) (A) (A) (A) (A) (A) (A) (A) (A) (A)
                 (A) (A) (A) (A) (A) (A) (A) (A) (A) (A) (A) (A)
                 (A) (A) (A) (A) (A) (A) (A) (A) (A) (A) (A) (A)
                 (A) (A) (A) (A) (A) (A) (A) (A) (A) (A) (A) (A)
                 (A)
 Harris functional with IExCor=  402 diagonalized for initial guess.
 ExpMin= 1.61D-01 ExpMax= 5.48D+03 ExpMxC= 8.25D+02 IAcc=3 IRadAn=         5 AccDes= 0.00D+00
 HarFok:  IExCor=  402 AccDes= 0.00D+00 IRadAn=         5 IDoV= 1
 ScaDFX=  1.000000  1.000000  1.000000  1.000000
 FoFCou: FMM=F IPFlag=           0 FMFlag=      100000 FMFlg1=           0
         NFxFlg=           0 DoJE=T BraDBF=F KetDBF=T FulRan=T
         Omega=  0.000000  0.000000  1.000000  0.000000  0.000000 ICntrl=     500 IOpCl=  0
         NMat0=    1 NMatS0=    1 NMatT0=    0 NMatD0=    1 NMtDS0=    0 NMtDT0=    0
         I1Cent=           4 NGrid=           0.
 Petite list used in FoFCou.
 Requested convergence on RMS density matrix=1.00D-08 within 128 cycles.
 Requested convergence on MAX density matrix=1.00D-06.
 Requested convergence on             energy=1.00D-06.
 No special actions if energy rises.
 Integral accuracy reduced to 1.0D-05 until final iterations.
 Initial convergence to 1.0D-05 achieved.  Increase integral accuracy.
 SCF Done:  E(RB3LYP) =  -495.610093321     A.U. after   13 cycles
             Convg  =    0.3874D-08             -V/T =  2.0095
 Calling FoFJK, ICntrl=      2127 FMM=F ISym2X=0 I1Cent= 0 IOpClX= 0 NMat=1 NMatS=1 NMatT=0.
 ***** Axes restored to original set *****
 -------------------------------------------------------------------
 Center     Atomic                   Forces (Hartrees/Bohr)
 Number     Number              X              Y              Z
 -------------------------------------------------------------------
      1        6          -0.000300265    0.000456931    0.000561180
      2        6          -0.000481842   -0.000481719   -0.000599889
      3        6          -0.002188591   -0.001197793    0.000765561
      4        6          -0.002096401   -0.000864409    0.001042422
      5        6           0.000238006    0.000744682   -0.000596781
      6        6           0.001091894   -0.002436767    0.002626554
      7        6          -0.000510712   -0.001183690   -0.000616958
      8        6           0.000985075   -0.001538774    0.000962949
      9        7           0.003796324    0.001433996   -0.001264183
     10        7          -0.001872478    0.002309178   -0.002058267
     11        8           0.001100126    0.001622059   -0.001499345
     12        1          -0.000136456    0.000057345    0.000257366
     13        1          -0.000149145   -0.000217353   -0.000091808
     14        1           0.000786859    0.000971381    0.000397627
     15        1           0.000726178   -0.000244372   -0.001055617
     16        1           0.000119534    0.000080377    0.000310389
     17        1           0.000677266   -0.000237620    0.000345599
     18        1          -0.000172961    0.000034743    0.000749268
     19        1          -0.000386673    0.000745665   -0.000687186
     20        1          -0.000255150    0.000676281   -0.000306834
     21        1          -0.000970587   -0.000730140    0.000757955
 -------------------------------------------------------------------
 Cartesian Forces:  Max     0.003796324 RMS     0.001139403

 GradGradGradGradGradGradGradGradGradGradGradGradGradGradGradGradGradGrad
 Berny optimization.
 Using GEDIIS/GDIIS optimizer.
 Internal  Forces:  Max     0.003776198 RMS     0.000772249
 Search for a local minimum.
 Step number   2 out of a maximum of  107
 All quantities printed in internal units (Hartrees-Bohrs-Radians)
 Mixed Optimization -- En-DIIS/RFO-DIIS
 Update second derivatives using D2CorX and points    1    2
 DE= -1.72D-03 DEPred=-1.96D-03 R= 8.77D-01
 SS=  1.41D+00  RLast= 1.39D-01 DXNew= 5.0454D-01 4.1695D-01
 Trust test= 8.77D-01 RLast= 1.39D-01 DXMaxT set to 4.17D-01
 ITU=  1  0
 Use linear search instead of GDIIS.
     Eigenvalues ---    0.00709   0.00722   0.01102   0.01241   0.01496
     Eigenvalues ---    0.01545   0.02075   0.02145   0.02191   0.02207
     Eigenvalues ---    0.02252   0.02287   0.02290   0.02295   0.05272
     Eigenvalues ---    0.06657   0.07052   0.07441   0.09926   0.13172
     Eigenvalues ---    0.15426   0.15998   0.16000   0.16000   0.16000
     Eigenvalues ---    0.16000   0.16000   0.16490   0.21479   0.21947
     Eigenvalues ---    0.22000   0.22723   0.24103   0.24967   0.24991
     Eigenvalues ---    0.27700   0.32018   0.33244   0.34068   0.34176
     Eigenvalues ---    0.34400   0.34423   0.34535   0.35060   0.35061
     Eigenvalues ---    0.35208   0.35209   0.39408   0.42981   0.43413
     Eigenvalues ---    0.45091   0.46631   0.48451   0.50782   0.51377
     Eigenvalues ---    0.53545   0.91256
 RFO step:  Lambda=-2.02731126D-04 EMin= 7.09441712D-03
 Quartic linear search produced a step of -0.09451.
 Iteration  1 RMS(Cart)=  0.00879052 RMS(Int)=  0.00006249
 Iteration  2 RMS(Cart)=  0.00006898 RMS(Int)=  0.00001264
 Iteration  3 RMS(Cart)=  0.00000001 RMS(Int)=  0.00001264
 Variable       Old X    -DE/DX   Delta X   Delta X   Delta X     New X
                                 (Linear)    (Quad)   (Total)
    R1        2.63665  -0.00047  -0.00174   0.00181   0.00007   2.63672
    R2        2.64154   0.00092  -0.00005   0.00197   0.00192   2.64346
    R3        2.05380   0.00012  -0.00004   0.00037   0.00033   2.05413
    R4        2.63647  -0.00053  -0.00173   0.00169  -0.00004   2.63642
    R5        2.64160   0.00098  -0.00005   0.00211   0.00206   2.64366
    R6        2.05375   0.00011  -0.00003   0.00033   0.00029   2.05404
    R7        2.53344  -0.00064   0.00237  -0.00483  -0.00246   2.53098
    R8        2.05687   0.00032  -0.00010   0.00098   0.00087   2.05774
    R9        2.53364  -0.00056   0.00235  -0.00467  -0.00232   2.53132
   R10        2.05686   0.00031  -0.00010   0.00097   0.00087   2.05772
   R11        2.85731  -0.00055  -0.00156   0.00088  -0.00068   2.85662
   R12        2.88002  -0.00151  -0.00354   0.00123  -0.00231   2.87771
   R13        2.58496   0.00020   0.00058  -0.00054   0.00004   2.58500
   R14        2.31478   0.00014   0.00080  -0.00110  -0.00030   2.31448
   R15        2.07108   0.00023  -0.00050   0.00139   0.00089   2.07197
   R16        2.06204   0.00027   0.00041   0.00006   0.00047   2.06251
   R17        2.07100  -0.00023  -0.00040   0.00001  -0.00039   2.07062
   R18        2.76093  -0.00077  -0.00294   0.00280  -0.00014   2.76079
   R19        2.07459  -0.00055  -0.00023  -0.00109  -0.00133   2.07327
   R20        2.07348  -0.00050  -0.00012  -0.00113  -0.00126   2.07222
   R21        1.90746   0.00045   0.00123  -0.00101   0.00023   1.90768
    A1        2.08044  -0.00028  -0.00076   0.00051  -0.00025   2.08019
    A2        2.09902  -0.00014  -0.00056  -0.00035  -0.00090   2.09812
    A3        2.10371   0.00041   0.00132  -0.00018   0.00114   2.10485
    A4        2.08037  -0.00029  -0.00075   0.00046  -0.00029   2.08008
    A5        2.09922  -0.00012  -0.00056  -0.00024  -0.00080   2.09841
    A6        2.10358   0.00040   0.00132  -0.00023   0.00109   2.10467
    A7        2.16534  -0.00115  -0.00068  -0.00362  -0.00430   2.16104
    A8        2.10396  -0.00072   0.00006  -0.00507  -0.00502   2.09894
    A9        2.01385   0.00187   0.00063   0.00872   0.00934   2.02320
   A10        2.16544  -0.00115  -0.00069  -0.00358  -0.00427   2.16116
   A11        2.10391  -0.00072   0.00006  -0.00507  -0.00501   2.09890
   A12        2.01381   0.00187   0.00063   0.00867   0.00930   2.02311
   A13        2.04487   0.00049   0.00221  -0.00106   0.00115   2.04601
   A14        2.11926  -0.00027  -0.00113   0.00049  -0.00063   2.11863
   A15        2.11878  -0.00022  -0.00112   0.00064  -0.00047   2.11830
   A16        2.01789  -0.00185  -0.00261  -0.00252  -0.00515   2.01274
   A17        2.15329  -0.00193  -0.00127  -0.00490  -0.00619   2.14709
   A18        2.11164   0.00378   0.00388   0.00771   0.01158   2.12322
   A19        1.91796  -0.00031  -0.00115  -0.00106  -0.00220   1.91576
   A20        1.89994  -0.00070   0.00094  -0.00496  -0.00401   1.89593
   A21        1.96792  -0.00018  -0.00302   0.00435   0.00135   1.96927
   A22        1.88724   0.00024   0.00224  -0.00348  -0.00125   1.88599
   A23        1.88839   0.00011   0.00185  -0.00311  -0.00125   1.88715
   A24        1.90072   0.00086  -0.00071   0.00805   0.00735   1.90807
   A25        1.93111  -0.00074   0.00071  -0.00537  -0.00466   1.92645
   A26        1.92799   0.00059   0.00059   0.00263   0.00321   1.93120
   A27        1.92843   0.00048   0.00053   0.00300   0.00352   1.93195
   A28        1.91488  -0.00042  -0.00194  -0.00244  -0.00438   1.91050
   A29        1.90522  -0.00014  -0.00082  -0.00126  -0.00207   1.90315
   A30        1.85461   0.00026   0.00087   0.00374   0.00461   1.85922
   A31        2.02990   0.00237   0.00067   0.00729   0.00797   2.03787
   A32        2.11741  -0.00168   0.00097  -0.00842  -0.00745   2.10997
   A33        2.09007   0.00213  -0.00076   0.01195   0.01119   2.10126
   A34        2.07551  -0.00046  -0.00020  -0.00358  -0.00377   2.07173
    D1       -0.00005  -0.00006  -0.00058  -0.00127  -0.00186  -0.00191
    D2        3.13376   0.00010   0.00041   0.00312   0.00352   3.13728
    D3       -3.13514  -0.00004  -0.00134   0.00099  -0.00035  -3.13549
    D4       -0.00133   0.00012  -0.00034   0.00538   0.00503   0.00370
    D5        0.00129   0.00002   0.00141  -0.00189  -0.00049   0.00080
    D6        3.11779   0.00003   0.00010   0.00147   0.00157   3.11937
    D7        3.13636  -0.00001   0.00217  -0.00416  -0.00201   3.13435
    D8       -0.03032   0.00001   0.00086  -0.00080   0.00006  -0.03027
    D9        0.00024   0.00005   0.00056   0.00096   0.00153   0.00177
   D10       -3.13388  -0.00009  -0.00040  -0.00284  -0.00324  -3.13712
   D11        3.13599   0.00003   0.00126  -0.00099   0.00028   3.13627
   D12        0.00187  -0.00011   0.00030  -0.00479  -0.00448  -0.00262
   D13       -0.00137  -0.00001  -0.00140   0.00203   0.00064  -0.00073
   D14       -3.11789  -0.00003  -0.00009  -0.00132  -0.00142  -3.11931
   D15       -3.13711   0.00001  -0.00210   0.00399   0.00190  -3.13521
   D16        0.02956  -0.00001  -0.00079   0.00063  -0.00016   0.02940
   D17       -0.00108   0.00009  -0.00027   0.00413   0.00387   0.00278
   D18       -3.13526  -0.00005  -0.00122  -0.00001  -0.00125  -3.13651
   D19        0.00099  -0.00009   0.00028  -0.00397  -0.00370  -0.00271
   D20        3.13546   0.00004   0.00120  -0.00039   0.00083   3.13629
   D21       -1.57227   0.00005   0.00132  -0.00560  -0.00427  -1.57655
   D22        0.55169  -0.00058  -0.00026  -0.01052  -0.01077   0.54091
   D23        2.59884   0.00039   0.00152  -0.00245  -0.00091   2.59792
   D24        1.54317   0.00008   0.00003  -0.00213  -0.00210   1.54107
   D25       -2.61605  -0.00056  -0.00155  -0.00704  -0.00860  -2.62466
   D26       -0.56891   0.00042   0.00023   0.00102   0.00126  -0.56765
   D27        1.52264   0.00024  -0.00132   0.02155   0.02020   1.54284
   D28       -2.69673  -0.00006   0.00129   0.01378   0.01505  -2.68168
   D29       -0.58552   0.00043  -0.00089   0.02335   0.02244  -0.56309
   D30       -1.59007   0.00004  -0.00165   0.01002   0.00838  -1.58170
   D31        0.47374  -0.00026   0.00095   0.00224   0.00323   0.47697
   D32        2.58495   0.00023  -0.00123   0.01181   0.01061   2.59556
   D33       -3.09889   0.00000  -0.00288   0.00113  -0.00178  -3.10067
   D34        0.02105  -0.00003  -0.00202  -0.00141  -0.00347   0.01758
   D35        0.01457   0.00010  -0.00263   0.01215   0.00955   0.02412
   D36        3.13451   0.00007  -0.00177   0.00960   0.00786  -3.14081
   D37       -3.11988   0.00001   0.00005   0.00195   0.00200  -3.11788
   D38        0.04318   0.00002  -0.00080   0.00428   0.00348   0.04666
   D39        1.03165   0.00005   0.00014   0.00382   0.00395   1.03560
   D40       -2.08848   0.00005  -0.00070   0.00615   0.00543  -2.08305
   D41       -0.99409   0.00005   0.00062   0.00141   0.00204  -0.99205
   D42        2.16897   0.00006  -0.00023   0.00375   0.00352   2.17249
         Item               Value     Threshold  Converged?
 Maximum Force            0.003776     0.000450     NO 
 RMS     Force            0.000772     0.000300     NO 
 Maximum Displacement     0.036717     0.001800     NO 
 RMS     Displacement     0.008796     0.001200     NO 
 Predicted change in Energy=-1.205966D-04
 GradGradGradGradGradGradGradGradGradGradGradGradGradGradGradGradGradGrad

                          Input orientation:                          
 ---------------------------------------------------------------------
 Center     Atomic      Atomic             Coordinates (Angstroms)
 Number     Number       Type             X           Y           Z
 ---------------------------------------------------------------------
      1          6           0       -0.613685   -1.426003    5.345767
      2          6           0       -0.692906   -2.937840    3.498410
      3          6           0       -1.890198   -1.869004    5.693761
      4          6           0       -1.965748   -3.312841    3.929278
      5          6           0        0.013011   -1.968488    4.218925
      6          6           0        2.379952    0.178547    2.286594
      7          6           0        2.115716    1.365555    1.369990
      8          6           0        1.383257   -1.504653    3.780292
      9          7           0       -2.570650   -2.795758    5.006784
     10          7           0        1.267091   -0.390744    2.842169
     11          8           0        3.505478   -0.236785    2.533081
     12          1           0       -0.112222   -0.673902    5.949459
     13          1           0       -0.255237   -3.399853    2.617244
     14          1           0       -2.392600   -1.461550    6.569718
     15          1           0       -2.529052   -4.068601    3.384098
     16          1           0        2.098457    2.291102    1.957559
     17          1           0        2.931867    1.437711    0.648937
     18          1           0        1.163845    1.284681    0.833325
     19          1           0        1.981572   -1.193045    4.645510
     20          1           0        1.933285   -2.322034    3.298804
     21          1           0        0.348202   -0.033451    2.625199
 ---------------------------------------------------------------------
                    Distance matrix (angstroms):
                    1          2          3          4          5
     1  C    0.000000
     2  C    2.388442   0.000000
     3  C    1.395291   2.719465   0.000000
     4  C    2.719314   1.395135   2.281178   0.000000
     5  C    1.398860   1.398965   2.409822   2.409702   0.000000
     6  C    4.571103   4.541236   5.833990   5.811481   3.734444
     7  C    5.572184   5.562170   6.723445   6.715332   4.863501
     8  C    2.538636   2.538491   3.809150   3.808881   1.511660
     9  N    2.412643   2.412738   1.339337   1.339514   2.824960
    10  N    3.298042   3.280235   4.503922   4.491292   2.440789
    11  O    5.127665   5.084681   6.462767   6.430070   4.247140
    12  H    1.086999   3.386776   2.157510   3.805350   2.164806
    13  H    3.386651   1.086951   3.805464   2.157511   2.164751
    14  H    2.159597   3.808061   1.088911   3.252907   3.401496
    15  H    3.807899   2.159426   3.252830   1.088901   3.401396
    16  H    5.714241   6.124359   6.868411   7.197890   5.254234
    17  H    6.544616   6.356407   7.722495   7.570667   5.732951
    18  H    5.556037   5.327277   6.549561   6.365256   4.834234
    19  H    2.698146   3.393079   4.067722   4.537385   2.158361
    20  H    3.388212   2.704799   4.534322   4.072058   2.158488
    21  H    3.204047   3.206537   4.218503   4.220117   2.529167
                    6          7          8          9         10
     6  C    0.000000
     7  C    1.522817   0.000000
     8  C    2.461239   3.818919   0.000000
     9  N    6.383916   7.246021   4.336429   0.000000
    10  N    1.367923   2.443780   1.460946   5.019752   0.000000
    11  O    1.224771   2.419031   2.768907   7.041795   2.264865
    12  H    4.511560   5.485857   2.762587   3.381535   3.411442
    13  H    4.456288   5.466825   2.762088   3.381711   3.379766
    14  H    6.619087   7.440067   4.694662   2.062663   5.332409
    15  H    6.583396   7.427015   4.694354   2.062757   5.313288
    16  H    2.156477   1.096437   4.271022   7.548145   2.943808
    17  H    2.138229   1.091433   4.567393   8.196998   3.305297
    18  H    2.194183   1.095723   4.063636   6.929227   2.617854
    19  H    2.757618   4.158541   1.097125   4.839621   2.099097
    20  H    2.734408   4.165563   1.096574   4.840148   2.093373
    21  H    2.070654   2.580092   2.137759   4.671400   1.009501
                   11         12         13         14         15
    11  O    0.000000
    12  H    4.995044   0.000000
    13  H    4.914780   4.307542   0.000000
    14  H    7.251332   2.491031   4.893607   0.000000
    15  H    7.198791   4.893478   2.491088   4.118678   0.000000
    16  H    2.949771   5.441840   6.193710   7.451443   7.993415
    17  H    2.585143   6.466909   6.118324   8.474155   8.223272
    18  H    3.269139   5.624875   5.209705   7.286720   6.985811
    19  H    2.774722   2.520668   3.739944   4.786236   5.495973
    20  H    2.721468   3.731810   2.532952   5.491137   4.792726
    21  H    3.165158   3.416558   3.420068   5.011056   5.013677
                   16         17         18         19         20
    16  H    0.000000
    17  H    1.770689   0.000000
    18  H    1.774905   1.784185   0.000000
    19  H    4.402048   4.878169   4.619584   0.000000
    20  H    4.807000   4.706872   4.436104   1.758001   0.000000
    21  H    2.985412   3.570049   2.369295   2.845034   2.864236
                   21
    21  H    0.000000
 Stoichiometry    C8H10N2O
 Framework group  C1[X(C8H10N2O)]
 Deg. of freedom    57
 Full point group                 C1      NOp   1
 Largest Abelian subgroup         C1      NOp   1
 Largest concise Abelian subgroup C1      NOp   1
                         Standard orientation:                         
 ---------------------------------------------------------------------
 Center     Atomic      Atomic             Coordinates (Angstroms)
 Number     Number       Type             X           Y           Z
 ---------------------------------------------------------------------
      1          6           0        1.586544    1.184688   -0.268794
      2          6           0        1.565348   -1.200173   -0.139774
      3          6           0        2.901849    1.144421    0.195088
      4          6           0        2.881428   -1.133333    0.318337
      5          6           0        0.888568   -0.014630   -0.445650
      6          6           0       -2.814161   -0.012568    0.040014
      7          6           0       -3.645058    0.097284    1.311435
      8          6           0       -0.547224   -0.027658   -0.918353
      9          7           0        3.553798    0.012357    0.490416
     10          7           0       -1.458791    0.017753    0.222412
     11          8           0       -3.310603   -0.103500   -1.075935
     12          1           0        1.115636    2.137642   -0.496147
     13          1           0        1.076952   -2.163399   -0.262766
     14          1           0        3.462772    2.067160    0.335249
     15          1           0        3.426111   -2.045347    0.557620
     16          1           0       -3.833338    1.152694    1.541291
     17          1           0       -4.607387   -0.389011    1.142126
     18          1           0       -3.156141   -0.358694    2.179566
     19          1           0       -0.744966    0.826011   -1.578527
     20          1           0       -0.753661   -0.930453   -1.505566
     21          1           0       -1.069962    0.092441    1.151027
 ---------------------------------------------------------------------
 Rotational constants (GHZ):      3.1550878      0.4775368      0.4717366
 Standard basis: 6-31G(d) (6D, 7F)
 There are   185 symmetry adapted basis functions of A   symmetry.
 Integral buffers will be    131072 words long.
 Raffenetti 2 integral format.
 Two-electron integral symmetry is turned on.
   185 basis functions,   348 primitive gaussians,   185 cartesian basis functions
    40 alpha electrons       40 beta electrons
       nuclear repulsion energy       562.3791323496 Hartrees.
 NAtoms=   21 NActive=   21 NUniq=   21 SFac= 1.00D+00 NAtFMM=   60 NAOKFM=F Big=F
 One-electron integrals computed using PRISM.
 NBasis=   185 RedAO= T  NBF=   185
 NBsUse=   185 1.00D-06 NBFU=   185
 Initial guess read from the read-write file.
 B after Tr=     0.000000    0.000000    0.000000
         Rot=    1.000000    0.000000    0.000000    0.000000 Ang=   0.00 deg.
 Initial guess orbital symmetries:
       Occupied  (A) (A) (A) (A) (A) (A) (A) (A) (A) (A) (A) (A)
                 (A) (A) (A) (A) (A) (A) (A) (A) (A) (A) (A) (A)
                 (A) (A) (A) (A) (A) (A) (A) (A) (A) (A) (A) (A)
                 (A) (A) (A) (A)
       Virtual   (A) (A) (A) (A) (A) (A) (A) (A) (A) (A) (A) (A)
                 (A) (A) (A) (A) (A) (A) (A) (A) (A) (A) (A) (A)
                 (A) (A) (A) (A) (A) (A) (A) (A) (A) (A) (A) (A)
                 (A) (A) (A) (A) (A) (A) (A) (A) (A) (A) (A) (A)
                 (A) (A) (A) (A) (A) (A) (A) (A) (A) (A) (A) (A)
                 (A) (A) (A) (A) (A) (A) (A) (A) (A) (A) (A) (A)
                 (A) (A) (A) (A) (A) (A) (A) (A) (A) (A) (A) (A)
                 (A) (A) (A) (A) (A) (A) (A) (A) (A) (A) (A) (A)
                 (A) (A) (A) (A) (A) (A) (A) (A) (A) (A) (A) (A)
                 (A) (A) (A) (A) (A) (A) (A) (A) (A) (A) (A) (A)
                 (A) (A) (A) (A) (A) (A) (A) (A) (A) (A) (A) (A)
                 (A) (A) (A) (A) (A) (A) (A) (A) (A) (A) (A) (A)
                 (A)
 Harris functional with IExCor=  402 diagonalized for initial guess.
 ExpMin= 1.61D-01 ExpMax= 5.48D+03 ExpMxC= 8.25D+02 IAcc=3 IRadAn=         5 AccDes= 0.00D+00
 HarFok:  IExCor=  402 AccDes= 0.00D+00 IRadAn=         5 IDoV= 1
 ScaDFX=  1.000000  1.000000  1.000000  1.000000
 FoFCou: FMM=F IPFlag=           0 FMFlag=      100000 FMFlg1=           0
         NFxFlg=           0 DoJE=T BraDBF=F KetDBF=T FulRan=T
         Omega=  0.000000  0.000000  1.000000  0.000000  0.000000 ICntrl=     500 IOpCl=  0
         NMat0=    1 NMatS0=    1 NMatT0=    0 NMatD0=    1 NMtDS0=    0 NMtDT0=    0
         I1Cent=           4 NGrid=           0.
 Petite list used in FoFCou.
 Requested convergence on RMS density matrix=1.00D-08 within 128 cycles.
 Requested convergence on MAX density matrix=1.00D-06.
 Requested convergence on             energy=1.00D-06.
 No special actions if energy rises.
 Integral accuracy reduced to 1.0D-05 until final iterations.
 Initial convergence to 1.0D-05 achieved.  Increase integral accuracy.
 SCF Done:  E(RB3LYP) =  -495.610223674     A.U. after   11 cycles
             Convg  =    0.5004D-08             -V/T =  2.0095
 Calling FoFJK, ICntrl=      2127 FMM=F ISym2X=0 I1Cent= 0 IOpClX= 0 NMat=1 NMatS=1 NMatT=0.
 ***** Axes restored to original set *****
 -------------------------------------------------------------------
 Center     Atomic                   Forces (Hartrees/Bohr)
 Number     Number              X              Y              Z
 -------------------------------------------------------------------
      1        6           0.000225549    0.000081508   -0.000019717
      2        6           0.000125329    0.000040947   -0.000162225
      3        6          -0.000594376   -0.000349110   -0.000237376
      4        6          -0.000490927    0.000175549    0.000372131
      5        6           0.000020739   -0.000170377    0.000184072
      6        6          -0.000324620   -0.000923971   -0.000696082
      7        6          -0.000080520    0.000026252   -0.000055769
      8        6          -0.000089382   -0.000803042    0.000623329
      9        7           0.000708562    0.000152756   -0.000101746
     10        7           0.000417563    0.000731038   -0.000602530
     11        8          -0.000146779    0.000573336    0.000385440
     12        1          -0.000019001    0.000008542    0.000036889
     13        1          -0.000016475   -0.000028230   -0.000015223
     14        1           0.000198387    0.000118942    0.000028841
     15        1           0.000188155   -0.000008091   -0.000129622
     16        1           0.000145912    0.000021467    0.000065989
     17        1           0.000091312   -0.000044510   -0.000026801
     18        1           0.000071931    0.000007512    0.000310120
     19        1          -0.000194826    0.000148204   -0.000117493
     20        1          -0.000096953    0.000208199   -0.000064718
     21        1          -0.000139581    0.000033078    0.000222491
 -------------------------------------------------------------------
 Cartesian Forces:  Max     0.000923971 RMS     0.000312630

 GradGradGradGradGradGradGradGradGradGradGradGradGradGradGradGradGradGrad
 Berny optimization.
 Using GEDIIS/GDIIS optimizer.
 Internal  Forces:  Max     0.000575266 RMS     0.000148554
 Search for a local minimum.
 Step number   3 out of a maximum of  107
 All quantities printed in internal units (Hartrees-Bohrs-Radians)
 Mixed Optimization -- En-DIIS/RFO-DIIS
 Swaping is turned off.
 Update second derivatives using D2CorX and points    1    2    3
 DE= -1.30D-04 DEPred=-1.21D-04 R= 1.08D+00
 SS=  1.41D+00  RLast= 5.32D-02 DXNew= 7.0122D-01 1.5974D-01
 Trust test= 1.08D+00 RLast= 5.32D-02 DXMaxT set to 4.17D-01
 ITU=  1  1  0
     Eigenvalues ---    0.00643   0.00721   0.01094   0.01357   0.01499
     Eigenvalues ---    0.01559   0.02101   0.02144   0.02191   0.02210
     Eigenvalues ---    0.02252   0.02287   0.02292   0.02315   0.05316
     Eigenvalues ---    0.06554   0.07001   0.07449   0.09814   0.13137
     Eigenvalues ---    0.14719   0.15998   0.15999   0.16000   0.16000
     Eigenvalues ---    0.16000   0.16015   0.16151   0.21499   0.21975
     Eigenvalues ---    0.22000   0.22800   0.23941   0.24850   0.24993
     Eigenvalues ---    0.27791   0.32073   0.32668   0.33973   0.34071
     Eigenvalues ---    0.34392   0.34416   0.34441   0.35061   0.35063
     Eigenvalues ---    0.35204   0.35209   0.39984   0.42996   0.43750
     Eigenvalues ---    0.45046   0.46631   0.48405   0.50976   0.51255
     Eigenvalues ---    0.53553   0.91257
 En-DIIS/RFO-DIIS IScMMF=        0 using points:     3    2
 RFO step:  Lambda=-7.72808267D-06.
 DidBck=F Rises=F RFO-DIIS coefs:    1.09234   -0.09234
 Iteration  1 RMS(Cart)=  0.00625337 RMS(Int)=  0.00004901
 Iteration  2 RMS(Cart)=  0.00006266 RMS(Int)=  0.00001915
 Iteration  3 RMS(Cart)=  0.00000000 RMS(Int)=  0.00001915
 Variable       Old X    -DE/DX   Delta X   Delta X   Delta X     New X
                                  (DIIS)     (GDIIS)  (Total)
    R1        2.63672   0.00000   0.00001   0.00033   0.00034   2.63705
    R2        2.64346  -0.00015   0.00018  -0.00007   0.00011   2.64357
    R3        2.05413   0.00002   0.00003   0.00010   0.00013   2.05426
    R4        2.63642  -0.00005   0.00000   0.00021   0.00020   2.63663
    R5        2.64366  -0.00010   0.00019   0.00006   0.00025   2.64391
    R6        2.05404   0.00002   0.00003   0.00010   0.00013   2.05417
    R7        2.53098  -0.00037  -0.00023  -0.00152  -0.00175   2.52923
    R8        2.05774  -0.00002   0.00008   0.00005   0.00013   2.05788
    R9        2.53132  -0.00032  -0.00021  -0.00140  -0.00161   2.52970
   R10        2.05772  -0.00003   0.00008   0.00004   0.00012   2.05785
   R11        2.85662  -0.00033  -0.00006  -0.00094  -0.00101   2.85562
   R12        2.87771  -0.00021  -0.00021  -0.00036  -0.00057   2.87714
   R13        2.58500  -0.00033   0.00000  -0.00082  -0.00082   2.58418
   R14        2.31448  -0.00025  -0.00003  -0.00049  -0.00052   2.31397
   R15        2.07197   0.00005   0.00008   0.00037   0.00045   2.07242
   R16        2.06251   0.00008   0.00004   0.00025   0.00029   2.06280
   R17        2.07062  -0.00022  -0.00004  -0.00066  -0.00070   2.06992
   R18        2.76079   0.00058  -0.00001   0.00215   0.00214   2.76292
   R19        2.07327  -0.00016  -0.00012  -0.00063  -0.00075   2.07251
   R20        2.07222  -0.00018  -0.00012  -0.00070  -0.00082   2.07141
   R21        1.90768   0.00009   0.00002   0.00002   0.00005   1.90773
    A1        2.08019  -0.00013  -0.00002  -0.00041  -0.00044   2.07975
    A2        2.09812   0.00002  -0.00008  -0.00002  -0.00010   2.09802
    A3        2.10485   0.00010   0.00011   0.00043   0.00054   2.10539
    A4        2.08008  -0.00013  -0.00003  -0.00044  -0.00047   2.07961
    A5        2.09841   0.00003  -0.00007   0.00006  -0.00002   2.09840
    A6        2.10467   0.00010   0.00010   0.00038   0.00049   2.10515
    A7        2.16104  -0.00005  -0.00040  -0.00071  -0.00111   2.15994
    A8        2.09894  -0.00021  -0.00046  -0.00214  -0.00260   2.09634
    A9        2.02320   0.00027   0.00086   0.00284   0.00370   2.02690
   A10        2.16116  -0.00005  -0.00039  -0.00068  -0.00108   2.16009
   A11        2.09890  -0.00021  -0.00046  -0.00211  -0.00258   2.09633
   A12        2.02311   0.00026   0.00086   0.00280   0.00365   2.02677
   A13        2.04601   0.00015   0.00011   0.00052   0.00062   2.04664
   A14        2.11863  -0.00005  -0.00006  -0.00021  -0.00027   2.11837
   A15        2.11830  -0.00010  -0.00004  -0.00038  -0.00042   2.11788
   A16        2.01274   0.00020  -0.00048   0.00056  -0.00002   2.01272
   A17        2.14709  -0.00024  -0.00057  -0.00173  -0.00240   2.14469
   A18        2.12322   0.00004   0.00107   0.00075   0.00171   2.12493
   A19        1.91576  -0.00009  -0.00020  -0.00100  -0.00121   1.91456
   A20        1.89593  -0.00003  -0.00037  -0.00076  -0.00113   1.89479
   A21        1.96927  -0.00012   0.00012   0.00001   0.00014   1.96941
   A22        1.88599   0.00002  -0.00012  -0.00074  -0.00086   1.88513
   A23        1.88715   0.00008  -0.00011  -0.00023  -0.00035   1.88680
   A24        1.90807   0.00016   0.00068   0.00271   0.00339   1.91146
   A25        1.92645   0.00012  -0.00043  -0.00042  -0.00085   1.92560
   A26        1.93120  -0.00001   0.00030   0.00052   0.00081   1.93201
   A27        1.93195   0.00003   0.00033   0.00072   0.00104   1.93299
   A28        1.91050  -0.00010  -0.00040  -0.00110  -0.00150   1.90900
   A29        1.90315  -0.00016  -0.00019  -0.00174  -0.00193   1.90122
   A30        1.85922   0.00012   0.00043   0.00204   0.00247   1.86169
   A31        2.03787   0.00022   0.00074   0.00173   0.00247   2.04034
   A32        2.10997  -0.00013  -0.00069  -0.00176  -0.00245   2.10752
   A33        2.10126   0.00023   0.00103   0.00296   0.00400   2.10525
   A34        2.07173  -0.00010  -0.00035  -0.00124  -0.00159   2.07014
    D1       -0.00191   0.00002  -0.00017   0.00055   0.00038  -0.00153
    D2        3.13728  -0.00001   0.00033  -0.00040  -0.00007   3.13721
    D3       -3.13549   0.00001  -0.00003   0.00064   0.00060  -3.13489
    D4        0.00370  -0.00002   0.00046  -0.00031   0.00015   0.00385
    D5        0.00080   0.00001  -0.00005   0.00071   0.00067   0.00147
    D6        3.11937  -0.00004   0.00015  -0.00258  -0.00244   3.11693
    D7        3.13435   0.00002  -0.00019   0.00062   0.00044   3.13479
    D8       -0.03027  -0.00004   0.00001  -0.00267  -0.00267  -0.03294
    D9        0.00177  -0.00002   0.00014  -0.00042  -0.00027   0.00149
   D10       -3.13712   0.00001  -0.00030   0.00036   0.00007  -3.13706
   D11        3.13627  -0.00001   0.00003  -0.00047  -0.00045   3.13582
   D12       -0.00262   0.00002  -0.00041   0.00031  -0.00011  -0.00272
   D13       -0.00073  -0.00001   0.00006  -0.00077  -0.00072  -0.00145
   D14       -3.11931   0.00004  -0.00013   0.00252   0.00239  -3.11692
   D15       -3.13521  -0.00002   0.00018  -0.00071  -0.00054  -3.13575
   D16        0.02940   0.00004  -0.00001   0.00258   0.00257   0.03197
   D17        0.00278  -0.00004   0.00036  -0.00169  -0.00133   0.00145
   D18       -3.13651  -0.00001  -0.00012  -0.00077  -0.00089  -3.13740
   D19       -0.00271   0.00004  -0.00034   0.00162   0.00128  -0.00143
   D20        3.13629   0.00002   0.00008   0.00086   0.00094   3.13723
   D21       -1.57655  -0.00003  -0.00039  -0.00425  -0.00464  -1.58119
   D22        0.54091  -0.00008  -0.00099  -0.00557  -0.00656   0.53435
   D23        2.59792   0.00008  -0.00008  -0.00226  -0.00234   2.59558
   D24        1.54107  -0.00008  -0.00019  -0.00767  -0.00786   1.53320
   D25       -2.62466  -0.00013  -0.00079  -0.00899  -0.00978  -2.63444
   D26       -0.56765   0.00003   0.00012  -0.00568  -0.00556  -0.57321
   D27        1.54284  -0.00005   0.00187   0.00501   0.00688   1.54972
   D28       -2.68168  -0.00011   0.00139   0.00309   0.00449  -2.67719
   D29       -0.56309   0.00000   0.00207   0.00600   0.00808  -0.55501
   D30       -1.58170   0.00027   0.00077   0.03251   0.03327  -1.54843
   D31        0.47697   0.00022   0.00030   0.03060   0.03088   0.50785
   D32        2.59556   0.00032   0.00098   0.03350   0.03447   2.63003
   D33       -3.10067   0.00011  -0.00016   0.01191   0.01177  -3.08890
   D34        0.01758   0.00009  -0.00032   0.00993   0.00962   0.02721
   D35        0.02412  -0.00021   0.00088  -0.01520  -0.01434   0.00979
   D36       -3.14081  -0.00024   0.00073  -0.01719  -0.01648   3.12589
   D37       -3.11788   0.00003   0.00018   0.00355   0.00373  -3.11415
   D38        0.04666   0.00005   0.00032   0.00544   0.00576   0.05242
   D39        1.03560   0.00003   0.00036   0.00390   0.00426   1.03986
   D40       -2.08305   0.00005   0.00050   0.00579   0.00629  -2.07675
   D41       -0.99205   0.00003   0.00019   0.00304   0.00323  -0.98882
   D42        2.17249   0.00005   0.00033   0.00494   0.00526   2.17775
         Item               Value     Threshold  Converged?
 Maximum Force            0.000575     0.000450     NO 
 RMS     Force            0.000149     0.000300     YES
 Maximum Displacement     0.027722     0.001800     NO 
 RMS     Displacement     0.006261     0.001200     NO 
 Predicted change in Energy=-2.503020D-05
 GradGradGradGradGradGradGradGradGradGradGradGradGradGradGradGradGradGrad

                          Input orientation:                          
 ---------------------------------------------------------------------
 Center     Atomic      Atomic             Coordinates (Angstroms)
[...]
 0.02239408,0.02210796,-0.12746768,0.06652858,-0.00062832,-0.00029812,0
 .00052659,-0.30629517,0.47286633,0.00134747,0.00211531,0.00150787,0.00
 000937,-0.00230051,-0.00197681,0.00027591,-0.00136248,0.00006882,0.000
 19498,-0.00067295,0.00050914,0.00757320,0.01660706,-0.01251540,0.10649
 955,0.04098823,-0.21613969,0.02297422,0.00724561,-0.02581871,0.0112678
 7,0.06031634,-0.16880494,0.00023747,0.00082355,0.00029628,-0.17982313,
 -0.17836026,0.50811202,-0.00065933,-0.00067677,-0.00034937,-0.00071020
 ,-0.00052595,0.00029262,0.00009613,0.00032103,-0.00019485,0.00066690,0
 .00045111,-0.00002380,0.00178680,-0.00103597,0.00105447,-0.40022704,0.
 30258412,-0.01626979,-0.00173270,0.02241340,-0.00740878,-0.00176068,0.
 00657440,-0.00725073,-0.00057011,-0.00038470,0.00033946,-0.06091661,0.
 04475014,0.03309824,0.46385035,0.00018988,0.00024660,0.00043387,0.0003
 8408,0.00054894,-0.00116760,0.00028853,-0.00023457,0.00008258,-0.00027
 487,-0.00004185,0.00028206,-0.00055210,0.00187135,-0.00120447,0.297719
 62,-0.37463070,0.03493472,0.03370939,-0.02397359,0.01271785,-0.0003770
 0,-0.00755037,0.00532749,0.00005065,0.00008719,-0.00014829,0.04211402,
 0.00096108,-0.02437996,-0.37538014,0.39559721,0.00054992,0.00063333,-0
 .00000761,0.00069797,0.00062928,-0.00048563,-0.00044829,0.00000001,0.0
 0011233,-0.00048497,-0.00014762,-0.00002372,-0.00041269,-0.00241672,0.
 00057672,-0.01049212,0.02956936,-0.10473359,-0.02104340,0.02496520,0.0
 0791370,0.00046492,-0.00121410,0.00017506,0.00050777,0.00019764,0.0000
 0205,0.03780860,-0.02824114,0.01164291,-0.01410644,-0.02854740,0.08777
 932,-0.09038990,-0.05807422,-0.07921653,0.00090040,-0.00318089,0.00359
 047,-0.00446792,-0.00938845,-0.02501802,-0.00083960,-0.00004375,0.0016
 5366,0.00882146,0.00713772,0.01156170,-0.00032511,0.00022801,0.0002372
 6,0.00003540,-0.00000937,-0.00004392,-0.00059402,0.00237893,0.00087135
 ,-0.00245428,-0.00668374,0.00148475,0.00036826,0.00023456,-0.00086284,
 0.00011888,-0.00011894,-0.00003691,0.08917490,-0.05819092,-0.10256828,
 -0.10702291,-0.00286319,0.00533472,-0.00012846,-0.00222016,-0.00535725
 ,-0.01528423,-0.00037136,-0.00006358,0.00125901,0.00048978,0.00368355,
 0.00222927,-0.00006556,-0.00012416,0.00016603,-0.00002155,0.00001984,0
 .00001499,0.00247634,-0.00223402,0.00170914,-0.00673675,0.00346822,-0.
 00081222,-0.00031237,0.00008192,0.00018877,0.00008080,0.00000405,-0.00
 009326,0.06513633,0.09986889,-0.07909472,-0.10709029,-0.23948009,0.004
 64870,0.00029665,-0.00314992,0.00202912,0.00290376,0.00540251,0.000983
 39,0.00065874,-0.00016094,-0.01211305,-0.01361491,-0.01856908,0.000145
 09,-0.00003791,-0.00003772,-0.00004084,-0.00003315,-0.00000799,-0.0025
 6734,-0.00084557,0.00004638,0.00145388,-0.00068874,0.00217091,0.000202
 70,0.00039919,0.00053564,-0.00004607,0.00006154,0.00010126,0.08532634,
 0.11732280,0.25301810,0.00117484,-0.00453674,-0.00158192,-0.10304297,-
 0.01547659,0.10946555,-0.00080794,-0.00086388,-0.00153912,-0.00566525,
 0.00293817,0.02578970,0.01041917,0.00158534,-0.01268853,-0.00004971,-0
 .00087482,0.00001205,-0.00000486,-0.00005703,-0.00004390,-0.00059999,0
 .00139217,-0.00016666,-0.00223359,-0.00663789,0.00167493,-0.00028445,0
 .00003118,-0.00038529,0.00008388,0.00059123,0.00012643,0.00053810,-0.0
 0016583,-0.00081316,0.10142893,-0.00476166,0.00338051,-0.00339081,-0.0
 1531593,-0.04429106,0.00544715,-0.00063008,-0.00076066,-0.00086968,-0.
 00418628,0.00208412,0.01689563,0.00776285,0.00422689,-0.01296677,-0.00
 151740,0.00002247,0.00096690,0.00003148,0.00003591,0.00005638,0.001649
 87,-0.00186211,-0.00012928,-0.00660996,0.00366033,-0.00050067,0.000740
 92,0.00049647,0.00018031,0.00048807,-0.00052983,-0.00020273,0.00021874
 ,0.00048702,-0.00086890,0.01911841,0.03641525,-0.00248323,-0.00385671,
 -0.00138504,0.10932948,0.00575191,-0.29000549,-0.00072590,-0.00032043,
 0.00050345,-0.00104360,-0.00084066,-0.00009356,0.01144118,0.00184394,-
 0.01853943,-0.00053070,-0.00049260,0.00058213,-0.00000883,0.00005847,0
 .00001189,0.00075513,0.00194280,-0.00060812,0.00143878,-0.00065494,0.0
 0199066,0.00087017,0.00062494,0.00100495,0.00017485,0.00021008,-0.0000
 3670,0.00075760,0.00015096,-0.00081945,-0.11910811,-0.00526986,0.30729
 786,-0.00726216,-0.00217063,0.02437327,-0.00022231,-0.00011881,-0.0008
 9522,-0.12305982,-0.02200462,0.12124009,0.00327788,-0.00537538,-0.0023
 3524,-0.00193325,-0.00617830,-0.00041345,0.00025421,-0.00014923,-0.000
 23369,-0.00001545,0.00001540,0.00004625,-0.00000388,0.00061078,0.00096
 251,0.00943295,0.00459253,-0.01684417,-0.00050902,-0.00022195,0.000363
 70,-0.00014953,0.00005934,0.00008717,-0.00035902,0.00151511,-0.0008112
 6,-0.00044796,0.00087290,-0.00010444,0.12072487,-0.00884617,0.00417524
 ,0.01496197,0.00002857,-0.00052681,-0.00044429,-0.02215302,-0.04967961
 ,0.02277882,-0.00495269,0.00607068,-0.00456498,-0.00598836,0.00297119,
 -0.00165958,0.00017166,-0.00011921,-0.00007934,-0.00001707,0.00001886,
 0.00003050,0.00025463,-0.00011160,0.00073531,0.01026846,-0.00226050,-0
 .01794617,-0.00029808,-0.00006766,0.00016681,-0.00005227,0.00004737,0.
 00000985,0.00173325,-0.00173413,0.00035136,0.00094141,-0.00114333,0.00
 036599,0.02890984,0.04195217,-0.00000988,-0.00107736,0.00176970,-0.000
 14921,0.00000281,0.00004981,0.12054067,0.02236429,-0.25666014,-0.00088
 862,-0.00355550,-0.00070171,0.00062480,-0.00099044,0.00167661,-0.00021
 285,0.00002958,0.00016890,0.00001936,-0.00000078,-0.00002663,-0.000226
 51,-0.00019699,-0.00002833,0.00447724,-0.00404470,-0.03090519,0.000227
 08,0.00006982,-0.00011223,0.00010822,-0.00001338,-0.00006046,0.0000275
 3,0.00089413,0.00033937,0.00000878,0.00046966,-0.00010473,-0.12509606,
 -0.01404018,0.28538306,-0.00031370,0.00020920,0.00086212,-0.00618609,-
 0.01367945,-0.02101864,0.00296619,-0.00355038,0.00491263,-0.11115817,-
 0.07035763,-0.09158526,-0.00196191,-0.00547376,0.00296622,0.00027742,-
 0.00009003,-0.00024180,-0.00001939,-0.00000356,0.00002203,-0.00008480,
 -0.00015819,-0.00137512,0.00883206,0.01244756,0.01490720,-0.00003965,0
 .00006211,0.00013976,-0.00012683,0.00009372,0.00010846,-0.00042387,0.0
 0083600,-0.00032747,-0.00037461,0.00179344,-0.00007153,0.00040663,0.00
 004525,0.00053745,0.10870699,0.00006185,-0.00009264,0.00061072,-0.0071
 9064,-0.00239369,-0.01355883,-0.00396330,0.00750933,-0.00012817,-0.070
 05227,-0.11503003,-0.10356913,-0.00592030,0.00379874,0.00032150,0.0002
 4779,-0.00007801,-0.00027083,-0.00001751,0.00000558,0.00003299,0.00034
 545,-0.00020415,-0.00105293,0.00668605,0.00106529,0.00243217,-0.000190
 95,-0.00009896,0.00036642,-0.00010916,0.00005572,0.00009498,0.00077476
 ,-0.00122371,0.00024691,0.00162617,-0.00183291,0.00085094,-0.00020896,
 0.00042205,0.00002640,0.07806902,0.10837953,0.00014289,0.00013317,-0.0
 0015913,0.00329000,0.00249231,0.00710288,0.00338379,-0.00106823,-0.002
 23829,-0.09100011,-0.10298746,-0.20383772,0.00213785,-0.00043644,0.001
 03585,0.00015430,-0.00003183,-0.00014226,-0.00001005,0.00000145,0.0000
 2118,0.00009474,0.00035081,0.00024733,-0.00633229,-0.01186974,-0.03332
 824,-0.00015880,-0.00005574,0.00009058,-0.00008645,0.00002593,0.000068
 37,-0.00046663,0.00015584,-0.00002397,-0.00089788,0.00034667,0.0003659
 0,-0.00043636,-0.00063120,-0.00075753,0.09013407,0.11356826,0.23154595
 ,-0.00001662,-0.00000879,-0.00000605,0.00002036,-0.00001075,-0.0000083
 7,0.00000286,0.00000833,-0.00000465,0.00001159,0.00000413,0.00000070,-
 0.00000472,-0.00000004,0.00000225,0.00198842,0.00270470,0.00205826,-0.
 22566681,-0.12801762,-0.00296111,0.00009416,0.00002379,-0.00007429,-0.
 00000754,-0.00000562,0.00001525,0.00049496,-0.00047517,0.00029540,0.00
 014457,0.00040396,-0.00067632,0.00000270,0.00000066,0.00000652,-0.0000
 1423,0.00002558,0.00000120,-0.00000293,-0.00000145,0.00000491,0.000001
 37,0.00000476,-0.00000064,0.24204470,-0.00005015,-0.00002310,0.0000099
 1,-0.00002983,-0.00002640,-0.00002708,0.00002124,0.00001576,-0.0000079
 5,0.00002009,0.00001658,0.00001518,0.00008361,0.00007140,-0.00004154,-
 0.01873077,-0.01310168,-0.00151832,-0.12870773,-0.14148816,-0.00123080
 ,-0.00001828,0.00066681,0.00059688,-0.00003906,-0.00002307,0.00000576,
 0.00111811,-0.00136424,0.00126784,0.00261065,0.00228594,0.00098863,0.0
 0000667,0.00000012,-0.00000750,0.00001479,0.00001739,0.00000578,-0.000
 00586,-0.00000299,0.00000727,-0.00000537,-0.00000614,-0.00000452,0.140
 92836,0.14927422,0.00006029,0.00002217,-0.00000697,0.00004694,0.000026
 93,-0.00000546,-0.00002123,-0.00001497,0.00000843,-0.00001741,-0.00001
 003,-0.00000925,-0.00010562,-0.00016829,0.00012274,0.02479782,0.017651
 91,-0.00042642,-0.00169435,0.00027241,-0.04308134,-0.00042992,-0.00117
 539,-0.00126202,0.00003054,0.00001967,0.00000711,-0.00129306,0.0016504
 1,-0.00312687,-0.00152128,-0.00298370,0.00020192,-0.00001030,0.0000031
 9,0.00001364,-0.00001032,-0.00000958,-0.00002314,0.00000535,0.00000442
 ,-0.00000562,0.00001005,0.00000961,0.00000325,0.00274559,-0.00064327,0
 .04790745,-0.00002490,-0.00001764,-0.00000874,-0.00006197,0.00000349,0
 .00006680,0.00000035,0.00001116,0.00000299,-0.00000493,0.00000200,-0.0
 0001092,0.00009134,-0.00002038,0.00005334,-0.00133338,-0.00199250,0.00
 089972,-0.04672756,0.00214987,-0.00237406,-0.00005571,-0.00032759,-0.0
 0006821,0.00000948,-0.00000350,-0.00002958,-0.00020512,-0.00050231,0.0
 0054785,-0.00010148,0.00117009,-0.00032180,0.00000115,-0.00000326,-0.0
 0001119,0.00000648,-0.00003444,0.00000579,0.00000032,-0.00000199,-0.00
 000461,-0.00000776,-0.00001045,-0.00000054,0.00041050,-0.01342929,-0.0
 2487179,0.04594948,-0.00012321,-0.00008066,-0.00003295,-0.00005784,-0.
 00000783,0.00005844,-0.00000044,0.00004221,0.00002316,0.00000543,0.000
 01640,-0.00002159,0.00019735,-0.00008122,0.00034270,0.00118842,0.01327
 417,0.02282603,0.00213577,-0.11411938,-0.11871540,-0.00121515,-0.00060
 671,-0.00009227,-0.00000621,-0.00002198,-0.00001295,0.00001934,-0.0025
 8805,0.00179946,-0.00138675,-0.00029603,-0.00202225,0.00001044,-0.0000
 0590,0.00000105,-0.00000559,-0.00002374,0.00000914,-0.00001113,-0.0000
 0964,0.00000263,-0.00001050,-0.00000722,-0.00000252,0.00083031,-0.0096
 8997,-0.01713722,0.00017507,0.12288153,0.00014717,0.00012215,0.0000541
 9,0.00013001,0.00002798,-0.00013005,-0.00000650,-0.00005683,-0.0000108
 8,-0.00003586,-0.00003118,0.00002218,-0.00031786,0.00011447,-0.0003579
 9,0.00128077,-0.01437331,-0.02375536,-0.00346541,-0.11885818,-0.253002
 47,0.00116495,0.00034523,0.00037411,0.00003267,0.00003773,0.00001421,-
 0.00096908,0.00363723,-0.00219692,0.00109730,0.00106274,0.00402449,-0.
 00001690,0.00000513,0.00000936,-0.00001549,0.00001198,-0.00000735,0.00
 001707,0.00001098,-0.00000445,0.00001926,0.00001850,0.00000798,-0.0002
 2545,0.00025074,0.00081195,0.00133754,0.12748686,0.27357809,0.00004852
 ,0.00002929,-0.00000093,0.00002604,0.00001779,0.00003378,-0.00001703,-
 0.00000965,0.00000210,-0.00002715,-0.00001648,-0.00000778,-0.00008616,
 -0.00004447,-0.00005330,-0.00381576,-0.00147381,0.00234119,-0.22838146
 ,0.12478602,0.01369670,0.00043307,0.00010643,-0.00052959,0.00003500,0.
 00001090,-0.00001202,0.00028953,-0.00082839,0.00042680,0.00253925,0.00
 054076,-0.00086103,-0.00000721,0.00000090,-0.00000315,-0.00002049,-0.0
 0000501,-0.00001288,0.00000568,0.00000323,-0.00000618,0.00000100,0.000
 00491,0.00000246,-0.01953684,0.01626684,0.00195828,0.00148554,-0.00172
 948,0.00034496,0.24577936,-0.00002962,-0.00002797,0.00001389,-0.000083
 80,0.00000585,-0.00000790,0.00001829,0.00000106,0.00000375,0.00001430,
 0.00001308,0.00000058,0.00011820,0.00007998,0.00000647,0.01876519,-0.0
 1059209,-0.01031699,0.12306628,-0.13536587,-0.00773741,-0.00045860,0.0
 0018245,0.00010637,-0.00002858,-0.00000758,-0.00001156,-0.00140976,0.0
 0098189,-0.00049203,0.00098643,-0.00355487,0.00668948,0.00000406,-0.00
 000014,-0.00000781,0.00006121,-0.00004952,0.00000686,-0.00000324,-0.00
 000040,-0.00000108,-0.00000481,-0.00001544,-0.00000237,-0.01598123,0.0
 1362749,0.00149214,0.01255726,-0.00880170,0.00044617,-0.13719377,0.143
 01146,-0.00002144,-0.00000847,-0.00000873,-0.00000884,0.00000698,0.000
 02966,0.00000131,0.00001048,0.00000166,-0.00000204,-0.00000088,0.00000
 381,0.00001692,-0.00003692,0.00006243,-0.02338473,0.00895609,0.0068149
 4,0.01595973,-0.00968260,-0.05352340,0.00015843,-0.00041355,0.00039388
 ,-0.00000081,-0.00000461,-0.00001380,0.00106136,-0.00087148,-0.0003884
 6,-0.00085929,0.00693440,-0.00432653,-0.00000008,-0.00000065,-0.000006
 52,-0.00000631,0.00000075,-0.00001121,-0.00000104,-0.00000206,-0.00000
 027,-0.00000282,-0.00000444,-0.00000165,-0.00064284,0.00008005,-0.0011
 3222,0.02489077,-0.01472322,0.00063377,-0.01749199,0.00851173,0.052660
 54,0.00085026,0.00055497,-0.00210296,-0.00387710,-0.00259180,0.0028977
 4,-0.00007032,0.00025394,-0.00006225,-0.00035964,-0.00028083,-0.001578
 13,-0.00836867,-0.01963612,-0.02467341,-0.00020263,0.00055886,0.000841
 65,0.00002058,0.00008284,0.00008318,-0.05777276,-0.02183019,-0.0319303
 2,0.00022732,0.00000503,0.00021823,0.00224055,0.00178143,0.00020554,-0
 .00035960,-0.00102088,0.00017031,0.00012611,0.00008351,0.00108531,0.00
 012485,0.00009680,-0.00009827,0.00001643,0.00001149,0.00002361,-0.0004
 5290,-0.00020602,0.00007727,0.00002441,-0.00004717,0.00003516,-0.00002
 756,0.00000467,0.00001466,0.00001428,-0.00001624,-0.00002403,0.0613393
 0,0.00076353,0.00047437,-0.00122568,-0.00366163,-0.00088289,0.00140229
 ,-0.00042870,-0.00019063,0.00008289,0.00038410,0.00041856,-0.00145452,
 -0.00181456,-0.00855049,-0.01375043,0.00512646,-0.00220028,0.00057688,
 -0.00128432,-0.00090659,-0.00047383,-0.02260742,-0.13008061,-0.1174876
 4,0.00001765,0.00018065,0.00086064,0.00003354,0.01256453,0.02877327,-0
 .00103080,0.00229028,-0.00074559,-0.00020298,0.00008609,0.00096050,0.0
 0022633,-0.00005680,0.00011316,-0.00003267,-0.00002960,0.00004072,-0.0
 0018320,-0.00029760,0.00008549,-0.00005179,-0.00022373,0.00039485,0.00
 004980,0.00008511,-0.00007700,0.00004027,0.00000876,-0.00002183,0.0293
 0094,0.13729081,0.00154417,0.00168288,0.00072959,0.00061657,-0.0000241
 6,0.00049019,-0.00063700,0.00025721,-0.00009799,0.00041008,0.00031768,
 -0.00018282,0.00041643,-0.00044959,0.00176991,-0.00807561,0.00167290,0
 .00077284,0.00126329,0.00071896,0.00016586,-0.03534532,-0.11655347,-0.
 21406423,0.00013361,-0.00001137,0.00055780,0.00317147,-0.00177614,-0.0
 3383771,0.00188773,-0.00177439,0.00018622,-0.00005644,-0.00049154,0.00
 059700,0.00007850,0.00015277,0.00006658,0.00000756,-0.00001289,0.00000
 670,0.00001094,0.00000215,0.00001174,0.00002180,0.00018525,-0.00043003
 ,-0.00003668,-0.00004926,0.00000547,-0.00005908,-0.00003024,0.00004003
 ,0.03447891,0.11895379,0.24551716,-0.00074458,-0.00098441,-0.00140186,
 0.00160341,-0.00005373,0.00105166,0.00017785,-0.00121902,0.00046713,0.
 00035267,-0.00108054,0.00059606,-0.02425841,0.01206029,0.00531770,0.00
 105361,-0.00065205,0.00132143,-0.00047699,0.00076338,-0.00005330,-0.20
 370025,0.13102799,0.02118708,-0.00011986,0.00050742,-0.00013561,-0.000
 39138,0.00348523,-0.00353112,-0.00241437,-0.00095892,0.00162330,-0.000
 26963,0.00036999,0.00002207,-0.00037675,0.00040310,-0.00055775,-0.0001
 6376,-0.00004166,0.00001039,-0.00004432,0.00007685,-0.00003834,-0.0000
 0750,0.00001516,-0.00000047,-0.00000638,-0.00002072,0.00003044,0.00011
 115,0.00017141,-0.00033034,0.00675991,-0.00505270,0.00013438,0.2225973
 4,-0.00087895,-0.00095069,-0.00003102,-0.00083804,-0.00054799,0.000083
 46,0.00060337,-0.00090817,-0.00006557,0.00114582,-0.00005707,0.0003209
 5,-0.01476120,0.01417286,0.00209491,0.00453922,-0.00187869,-0.00087580
 ,0.00023305,-0.00002442,0.00013376,0.12127722,-0.15070722,-0.02131769,
 -0.00072801,-0.00003915,0.00037047,0.01813437,-0.02001078,0.00426147,-
 0.00160874,0.00151590,-0.00249991,-0.00014060,0.00027940,0.00013045,-0
 .00005456,0.00014799,-0.00028540,-0.00012514,0.00002015,0.00005748,-0.
 00005724,0.00005136,-0.00008744,-0.00006376,0.00002679,-0.00001051,-0.
 00006268,0.00004608,0.00004413,-0.00017985,0.00014130,-0.00000339,0.01
 319418,-0.01068266,-0.00265502,-0.13847166,0.17083793,0.00061716,0.000
 78383,-0.00038025,-0.00106733,-0.00078009,0.00009152,-0.00064740,0.000
 10408,-0.00022362,0.00060817,0.00036939,-0.00059395,0.00171558,0.00041
 560,0.00028221,-0.00480244,0.00484884,0.00088017,0.00045536,-0.0005638
 8,0.00018559,0.02945586,-0.02940507,-0.05320846,0.00006536,0.00000652,
 0.00068217,-0.02447916,0.02488164,-0.00144818,0.00208634,-0.00321898,-
 0.00019167,0.00027353,-0.00028701,0.00014436,0.00000431,-0.00013200,-0
 .00009555,0.00005004,-0.00006268,-0.00000132,-0.00001773,0.00000227,-0
 .00000425,0.00007893,-0.00006541,0.00003166,0.00007339,-0.00006679,-0.
 00004263,0.00012226,-0.00039812,0.00040970,0.02086126,-0.01663241,-0.0
 0217961,-0.02635996,0.01726440,0.06041871,-0.00038178,0.00011302,0.000
 38908,-0.00030192,0.00011965,-0.00031672,0.00011849,0.00017491,0.00014
 701,-0.00030240,-0.00009344,-0.00002644,0.00210402,0.00014102,-0.00016
 091,-0.01578201,0.01528254,-0.01164142,-0.00095022,-0.00122525,-0.0014
 0288,0.00279621,-0.00647607,0.00026275,0.00002035,-0.00005717,-0.00025
 434,-0.24110528,0.21316241,-0.00085496,0.00044171,0.00136756,0.0067391
 3,0.00004319,-0.00003848,-0.00007487,0.00014655,-0.00014141,-0.0000289
 4,0.00001012,-0.00001504,-0.00001615,0.00000235,-0.00002804,0.00001075
 ,0.00001657,-0.00002201,0.00028576,0.00060211,0.00000023,-0.00056427,0
 .00112367,-0.00055300,0.00068810,-0.00025282,0.00040813,0.00003471,0.0
 0031825,-0.00115683,0.00090648,0.25133286,-0.00044439,0.00000765,0.000
 47298,-0.00040412,0.00028468,-0.00008401,0.00032353,0.00014541,0.00014
 161,-0.00054376,-0.00024249,0.00004237,0.00129671,0.00039343,-0.000428
 51,-0.00323681,-0.00398745,-0.00292862,-0.00197203,-0.00129006,-0.0003
 0237,0.01031445,-0.01088187,-0.00250655,0.00012593,-0.00005371,-0.0005
 1305,0.21540064,-0.22688489,0.04246772,0.00093111,0.00530016,0.0023529
 6,-0.00002052,-0.00000268,-0.00013819,0.00014650,-0.00042438,-0.000214
 38,0.00003002,0.00000777,-0.00004439,0.00001782,-0.00000711,0.00001755
 ,-0.00031836,-0.00005301,0.00060526,0.00028731,-0.00000547,-0.00022553
 ,-0.00032642,0.00036227,0.00127364,-0.00029943,0.00070271,-0.00011550,
 -0.00034543,-0.00143291,0.00293587,-0.22096275,0.23806195,0.00035734,-
 0.00007077,0.00000203,0.00009673,0.00006601,0.00026569,0.00004575,0.00
 001656,-0.00009087,-0.00012707,0.00002721,0.00004113,-0.00045107,-0.00
 086116,0.00061619,0.01138633,-0.02412341,0.00837893,0.00034991,-0.0014
 4151,-0.00131062,-0.02171379,0.01733731,0.00089211,0.00005529,-0.00003
 471,-0.00011902,-0.00338605,0.04578468,-0.05740230,0.00797764,0.001364
 89,-0.00291847,-0.00005563,0.00002101,-0.00012286,0.00009644,-0.000187
 90,-0.00009367,0.00001790,0.00002735,-0.00002555,0.00001021,0.00000052
 ,-0.00000795,-0.00063109,0.00013309,0.00040119,-0.00014006,0.00032693,
 -0.00002769,0.00010943,0.00172806,-0.00163765,-0.00052346,-0.00037554,
 -0.00012469,0.00064711,0.00307027,-0.00475662,0.00587814,-0.04280888,0
 .05804067\\0.00000029,-0.00000043,-0.00000058,-0.00000135,-0.00000093,
 -0.00000009,-0.00000008,-0.00000018,-0.00000073,0.00000137,0.00000119,
 -0.00000136,0.00000129,0.00000079,0.00000085,-0.00000192,0.00000070,0.
 00000030,0.00000037,0.00000039,0.00000096,-0.00000101,-0.00000030,-0.0
 0000028,-0.00000071,-0.00000071,0.00000145,0.00000036,-0.00000051,0.00
 000023,0.00000127,-0.00000061,-0.00000041,0.00000025,-0.00000030,-0.00
 000001,-0.00000005,0.00000038,-0.00000019,-0.00000007,-0.00000033,-0.0
 0000025,-0.00000054,0.00000024,0.00000023,-0.00000011,0.,0.00000015,-0
 .00000026,0.00000020,0.00000008,-0.00000028,0.00000050,-0.00000008,0.0
 0000045,-0.00000033,0.00000032,0.00000043,-0.00000007,-0.00000041,0.00
 000031,0.00000031,-0.00000015\\\@


 A SUCCESSFUL PURSUIT OF SCIENCE MAKES A MAN THE
 BENEFACTOR OF ALL MANKIND OF EVERY AGE.
   --  JOSEPH PRIESTLEY, "EXPERIMENTS AND
 OBSERVATIONS ON DIFFERENT KINDS OF AIR", 1774
 Job cpu time:  0 days  0 hours 49 minutes 20.6 seconds.
 File lengths (MBytes):  RWF=     96 Int=      0 D2E=      0 Chk=      3 Scr=      1
 Normal termination of Gaussian 09 at Fri Feb 16 20:57:47 2018.
