 Entering Gaussian System, Link 0=g09
 Initial command:
 /home/fb_chem/chemsoft/lx24-amd64/Gaussian_09_C.01_NBO_3.1_64_istanbul-64/g09/l1.exe /local/2659141.1.parallel_long/Gau-17553.inp -scrdir=/local/2659141.1.parallel_long/
 Entering Link 1 = /home/fb_chem/chemsoft/lx24-amd64/Gaussian_09_C.01_NBO_3.1_64_istanbul-64/g09/l1.exe PID=     17554.
  
 Copyright (c) 1988,1990,1992,1993,1995,1998,2003,2009,2011,
            Gaussian, Inc.  All Rights Reserved.
  
 This is part of the Gaussian(R) 09 program.  It is based on
 the Gaussian(R) 03 system (copyright 2003, Gaussian, Inc.),
 the Gaussian(R) 98 system (copyright 1998, Gaussian, Inc.),
 the Gaussian(R) 94 system (copyright 1995, Gaussian, Inc.),
 the Gaussian 92(TM) system (copyright 1992, Gaussian, Inc.),
 the Gaussian 90(TM) system (copyright 1990, Gaussian, Inc.),
 the Gaussian 88(TM) system (copyright 1988, Gaussian, Inc.),
 the Gaussian 86(TM) system (copyright 1986, Carnegie Mellon
 University), and the Gaussian 82(TM) system (copyright 1983,
 Carnegie Mellon University). Gaussian is a federally registered
 trademark of Gaussian, Inc.
  
 This software contains proprietary and confidential information,
 including trade secrets, belonging to Gaussian, Inc.
  
 This software is provided under written license and may be
 used, copied, transmitted, or stored only in accord with that
 written license.
  
 The following legend is applicable only to US Government
 contracts under FAR:
  
                    RESTRICTED RIGHTS LEGEND
  
 Use, reproduction and disclosure by the US Government is
 subject to restrictions as set forth in subparagraphs (a)
 and (c) of the Commercial Computer Software - Restricted
 Rights clause in FAR 52.227-19.
  
 Gaussian, Inc.
 340 Quinnipiac St., Bldg. 40, Wallingford CT 06492
  
  
 ---------------------------------------------------------------
 Warning -- This program may not be used in any manner that
 competes with the business of Gaussian, Inc. or will provide
 assistance to any competitor of Gaussian, Inc.  The licensee
 of this program is prohibited from giving any competitor of
 Gaussian, Inc. access to this program.  By using this program,
 the user acknowledges that Gaussian, Inc. is engaged in the
 business of creating and licensing software in the field of
 computational chemistry and represents and warrants to the
 licensee that it is not a competitor of Gaussian, Inc. and that
 it will not use this program in any manner prohibited above.
 ---------------------------------------------------------------
  

 Cite this work as:
 Gaussian 09, Revision C.01,
 M. J. Frisch, G. W. Trucks, H. B. Schlegel, G. E. Scuseria, 
 M. A. Robb, J. R. Cheeseman, G. Scalmani, V. Barone, B. Mennucci, 
 G. A. Petersson, H. Nakatsuji, M. Caricato, X. Li, H. P. Hratchian, 
 A. F. Izmaylov, J. Bloino, G. Zheng, J. L. Sonnenberg, M. Hada, 
 M. Ehara, K. Toyota, R. Fukuda, J. Hasegawa, M. Ishida, T. Nakajima, 
 Y. Honda, O. Kitao, H. Nakai, T. Vreven, J. A. Montgomery, Jr., 
 J. E. Peralta, F. Ogliaro, M. Bearpark, J. J. Heyd, E. Brothers, 
 K. N. Kudin, V. N. Staroverov, T. Keith, R. Kobayashi, J. Normand, 
 K. Raghavachari, A. Rendell, J. C. Burant, S. S. Iyengar, J. Tomasi, 
 M. Cossi, N. Rega, J. M. Millam, M. Klene, J. E. Knox, J. B. Cross, 
 V. Bakken, C. Adamo, J. Jaramillo, R. Gomperts, R. E. Stratmann, 
 O. Yazyev, A. J. Austin, R. Cammi, C. Pomelli, J. W. Ochterski, 
 R. L. Martin, K. Morokuma, V. G. Zakrzewski, G. A. Voth, 
 P. Salvador, J. J. Dannenberg, S. Dapprich, A. D. Daniels, 
 O. Farkas, J. B. Foresman, J. V. Ortiz, J. Cioslowski, 
 and D. J. Fox, Gaussian, Inc., Wallingford CT, 2010.
 
 ******************************************
 Gaussian 09:  AM64L-G09RevC.01 23-Sep-2011
                24-Aug-2018 
 ******************************************
 %nprocs=8
 Will use up to    8 processors via shared memory.
 %chk=frag41-conf0.chk
 ---------------------------------------------------------
 #B3LYP/6-31G* Integral=(Grid=UltraFine) freq Opt pop=none
 ---------------------------------------------------------
 1/14=-1,18=20,19=15,26=3,38=1/1,3;
 2/9=110,12=2,17=6,18=5,40=1/2;
 3/5=1,6=6,7=1,11=2,16=1,25=1,30=1,71=1,74=-5,75=-5/1,2,3;
 4//1;
 5/5=2,38=5/2;
 7//1,2,3,16;
 1/14=-1,18=20,19=15/3(2);
 2/9=110/2;
 99//99;
 2/9=110/2;
 3/5=1,6=6,7=1,11=2,16=1,25=1,30=1,71=1,74=-5,75=-5/1,2,3;
 4/5=5,16=3/1;
 5/5=2,38=5/2;
 7//1,2,3,16;
 1/14=-1,18=20,19=15/3(-5);
 2/9=110/2;
 99/9=1/99;
 -----------------------------
 Optimization for frag41-conf0
 -----------------------------
 Charge =  0 Multiplicity = 1
 Symbolic Z-Matrix:
 N                     1.67479  -1.10818  -0.36382 
 C                     2.35291   0.05347  -0.11861 
 O                     2.31302   0.96311  -0.9413 
 C                     3.05326   0.13199   1.14954 
 C                     3.42586   1.27859   1.83162 
 C                     4.12005   0.99047   3.04542 
 C                     4.26786  -0.36066   3.2167 
 Cl                    5.06326  -1.15108   4.51648 
 S                     3.56659  -1.27928   1.98399 
 H                     1.1558   -1.1857   -1.22654 
 H                     1.62297  -1.84857   0.32125 
 H                     3.19741   2.27729   1.47462 
 H                     4.49303   1.73435   3.73813 
 

 GradGradGradGradGradGradGradGradGradGradGradGradGradGradGradGradGradGrad
 Berny optimization.
 Initialization pass.
                           ----------------------------
                           !    Initial Parameters    !
                           ! (Angstroms and Degrees)  !
 --------------------------                            --------------------------
 ! Name  Definition              Value          Derivative Info.                !
 --------------------------------------------------------------------------------
 ! R1    R(1,2)                  1.3673         estimate D2E/DX2                !
 ! R2    R(1,10)                 1.0098         estimate D2E/DX2                !
 ! R3    R(1,11)                 1.01           estimate D2E/DX2                !
 ! R4    R(2,3)                  1.2271         estimate D2E/DX2                !
 ! R5    R(2,4)                  1.4508         estimate D2E/DX2                !
 ! R6    R(4,5)                  1.3852         estimate D2E/DX2                !
 ! R7    R(4,9)                  1.718          estimate D2E/DX2                !
 ! R8    R(5,6)                  1.4277         estimate D2E/DX2                !
 ! R9    R(5,12)                 1.0849         estimate D2E/DX2                !
 ! R10   R(6,7)                  1.3699         estimate D2E/DX2                !
 ! R11   R(6,13)                 1.0827         estimate D2E/DX2                !
 ! R12   R(7,8)                  1.7166         estimate D2E/DX2                !
 ! R13   R(7,9)                  1.6897         estimate D2E/DX2                !
 ! A1    A(2,1,10)             118.253          estimate D2E/DX2                !
 ! A2    A(2,1,11)             121.7759         estimate D2E/DX2                !
 ! A3    A(10,1,11)            119.791          estimate D2E/DX2                !
 ! A4    A(1,2,3)              119.5669         estimate D2E/DX2                !
 ! A5    A(1,2,4)              116.2424         estimate D2E/DX2                !
 ! A6    A(3,2,4)              124.1651         estimate D2E/DX2                !
 ! A7    A(2,4,5)              127.2332         estimate D2E/DX2                !
 ! A8    A(2,4,9)              121.6237         estimate D2E/DX2                !
 ! A9    A(5,4,9)              111.1265         estimate D2E/DX2                !
 ! A10   A(4,5,6)              112.482          estimate D2E/DX2                !
 ! A11   A(4,5,12)             122.9091         estimate D2E/DX2                !
 ! A12   A(6,5,12)             124.6054         estimate D2E/DX2                !
 ! A13   A(5,6,7)              110.965          estimate D2E/DX2                !
 ! A14   A(5,6,13)             124.9452         estimate D2E/DX2                !
 ! A15   A(7,6,13)             124.0864         estimate D2E/DX2                !
 ! A16   A(6,7,8)              126.7828         estimate D2E/DX2                !
 ! A17   A(6,7,9)              113.5904         estimate D2E/DX2                !
 ! A18   A(8,7,9)              119.6267         estimate D2E/DX2                !
 ! A19   A(4,9,7)               91.8199         estimate D2E/DX2                !
 ! D1    D(10,1,2,3)             0.1271         estimate D2E/DX2                !
 ! D2    D(10,1,2,4)           178.3616         estimate D2E/DX2                !
 ! D3    D(11,1,2,3)          -174.9832         estimate D2E/DX2                !
 ! D4    D(11,1,2,4)             3.2514         estimate D2E/DX2                !
 ! D5    D(1,2,4,5)           -157.0218         estimate D2E/DX2                !
 ! D6    D(1,2,4,9)             24.5918         estimate D2E/DX2                !
 ! D7    D(3,2,4,5)             21.1224         estimate D2E/DX2                !
 ! D8    D(3,2,4,9)           -157.2641         estimate D2E/DX2                !
 ! D9    D(2,4,5,6)           -179.1447         estimate D2E/DX2                !
 ! D10   D(2,4,5,12)             1.5143         estimate D2E/DX2                !
 ! D11   D(9,4,5,6)             -0.6176         estimate D2E/DX2                !
 ! D12   D(9,4,5,12)          -179.9586         estimate D2E/DX2                !
 ! D13   D(2,4,9,7)            178.4963         estimate D2E/DX2                !
 ! D14   D(5,4,9,7)             -0.1265         estimate D2E/DX2                !
 ! D15   D(4,5,6,7)              1.2587         estimate D2E/DX2                !
 ! D16   D(4,5,6,13)          -179.3799         estimate D2E/DX2                !
 ! D17   D(12,5,6,7)          -179.4134         estimate D2E/DX2                !
 ! D18   D(12,5,6,13)           -0.0521         estimate D2E/DX2                !
 ! D19   D(5,6,7,8)            178.7766         estimate D2E/DX2                !
 ! D20   D(5,6,7,9)             -1.3646         estimate D2E/DX2                !
 ! D21   D(13,6,7,8)            -0.5913         estimate D2E/DX2                !
 ! D22   D(13,6,7,9)           179.2675         estimate D2E/DX2                !
 ! D23   D(6,7,9,4)              0.8783         estimate D2E/DX2                !
 ! D24   D(8,7,9,4)           -179.2517         estimate D2E/DX2                !
 --------------------------------------------------------------------------------
 Trust Radius=3.00D-01 FncErr=1.00D-07 GrdErr=1.00D-06
 Number of steps in this run=     66 maximum allowed number of steps=    100.
 GradGradGradGradGradGradGradGradGradGradGradGradGradGradGradGradGradGrad

                          Input orientation:                          
 ---------------------------------------------------------------------
 Center     Atomic      Atomic             Coordinates (Angstroms)
 Number     Number       Type             X           Y           Z
 ---------------------------------------------------------------------
      1          7           0        1.674785   -1.108178   -0.363816
      2          6           0        2.352907    0.053470   -0.118606
      3          8           0        2.313024    0.963107   -0.941302
      4          6           0        3.053262    0.131992    1.149536
      5          6           0        3.425858    1.278587    1.831616
      6          6           0        4.120049    0.990474    3.045419
      7          6           0        4.267860   -0.360657    3.216699
      8         17           0        5.063264   -1.151078    4.516483
      9         16           0        3.566594   -1.279280    1.983992
     10          1           0        1.155799   -1.185704   -1.226536
     11          1           0        1.622972   -1.848570    0.321250
     12          1           0        3.197412    2.277289    1.474617
     13          1           0        4.493027    1.734350    3.738132
 ---------------------------------------------------------------------
                    Distance matrix (angstroms):
                    1          2          3          4          5
     1  N    0.000000
     2  C    1.367261   0.000000
     3  O    2.243003   1.227135   0.000000
     4  C    2.393419   1.450810   2.368610   0.000000
     5  C    3.685488   2.540768   3.004496   1.385186   0.000000
     6  C    4.691113   3.743237   4.377217   2.338674   1.427666
     7  C    4.483627   3.868179   4.781496   2.447675   2.305329
     8  Cl   5.941460   5.502820   6.466917   4.125858   3.974026
     9  S    3.020003   2.769508   3.893210   1.717997   2.566264
    10  H    1.009773   2.048445   2.457217   3.313972   4.536319
    11  H    1.010040   2.084235   3.158439   2.579615   3.912891
    12  H    4.142416   2.863026   2.888924   2.174570   1.084915
    13  H    5.731355   4.720159   5.219610   3.367684   2.231899
                    6          7          8          9         10
     6  C    0.000000
     7  C    1.369941   0.000000
     8  Cl   2.764042   1.716645   0.000000
     9  S    2.566071   1.689737   2.944481   0.000000
    10  H    5.636677   5.487072   6.946348   4.015990   0.000000
    11  H    4.660114   4.194395   5.470108   2.620395   1.747365
    12  H    2.230375   3.337584   4.948540   3.611778   4.843215
    13  H    1.082735   2.170632   3.042482   3.607943   6.656706
                   11         12         13
    11  H    0.000000
    12  H    4.564190   0.000000
    13  H    5.722728   2.664001   0.000000
 Stoichiometry    C5H4ClNOS
 Framework group  C1[X(C5H4ClNOS)]
 Deg. of freedom    33
 Full point group                 C1      NOp   1
 Largest Abelian subgroup         C1      NOp   1
 Largest concise Abelian subgroup C1      NOp   1
                         Standard orientation:                         
 ---------------------------------------------------------------------
 Center     Atomic      Atomic             Coordinates (Angstroms)
 Number     Number       Type             X           Y           Z
 ---------------------------------------------------------------------
      1          7           0       -2.731865   -1.275036    0.290202
      2          6           0       -2.370459   -0.000996   -0.049812
      3          8           0       -3.236180    0.811883   -0.359026
      4          6           0       -0.954105    0.304924    0.022337
      5          6           0       -0.372734    1.553792    0.167514
      6          6           0        1.053584    1.493594    0.182479
      7          6           0        1.491558    0.205738    0.020167
      8         17           0        3.122890   -0.323684   -0.052889
      9         16           0        0.240529   -0.922499   -0.111054
     10          1           0       -3.712892   -1.513777    0.274985
     11          1           0       -2.056453   -1.949026    0.621467
     12          1           0       -0.952048    2.465473    0.268874
     13          1           0        1.709222    2.347827    0.295340
 ---------------------------------------------------------------------
 Rotational constants (GHZ):      3.5039981      0.6633044      0.5640977
 Standard basis: 6-31G(d) (6D, 7F)
 There are   151 symmetry adapted basis functions of A   symmetry.
 Integral buffers will be    131072 words long.
 Raffenetti 2 integral format.
 Two-electron integral symmetry is turned on.
   151 basis functions,   316 primitive gaussians,   151 cartesian basis functions
    41 alpha electrons       41 beta electrons
       nuclear repulsion energy       571.4741295749 Hartrees.
 NAtoms=   13 NActive=   13 NUniq=   13 SFac= 1.00D+00 NAtFMM=   60 NAOKFM=F Big=F
 One-electron integrals computed using PRISM.
 NBasis=   151 RedAO= T  NBF=   151
 NBsUse=   151 1.00D-06 NBFU=   151
 Harris functional with IExCor=  402 diagonalized for initial guess.
 ExpMin= 1.17D-01 ExpMax= 2.52D+04 ExpMxC= 3.78D+03 IAcc=3 IRadAn=         5 AccDes= 0.00D+00
 HarFok:  IExCor=  402 AccDes= 0.00D+00 IRadAn=         5 IDoV= 1
 ScaDFX=  1.000000  1.000000  1.000000  1.000000
 FoFCou: FMM=F IPFlag=           0 FMFlag=      100000 FMFlg1=           0
         NFxFlg=           0 DoJE=T BraDBF=F KetDBF=T FulRan=T
         Omega=  0.000000  0.000000  1.000000  0.000000  0.000000 ICntrl=     500 IOpCl=  0
         NMat0=    1 NMatS0=    1 NMatT0=    0 NMatD0=    1 NMtDS0=    0 NMtDT0=    0
         I1Cent=           4 NGrid=           0.
 Petite list used in FoFCou.
 Initial guess orbital symmetries:
       Occupied  (A) (A) (A) (A) (A) (A) (A) (A) (A) (A) (A) (A)
                 (A) (A) (A) (A) (A) (A) (A) (A) (A) (A) (A) (A)
                 (A) (A) (A) (A) (A) (A) (A) (A) (A) (A) (A) (A)
                 (A) (A) (A) (A) (A)
       Virtual   (A) (A) (A) (A) (A) (A) (A) (A) (A) (A) (A) (A)
                 (A) (A) (A) (A) (A) (A) (A) (A) (A) (A) (A) (A)
                 (A) (A) (A) (A) (A) (A) (A) (A) (A) (A) (A) (A)
                 (A) (A) (A) (A) (A) (A) (A) (A) (A) (A) (A) (A)
                 (A) (A) (A) (A) (A) (A) (A) (A) (A) (A) (A) (A)
                 (A) (A) (A) (A) (A) (A) (A) (A) (A) (A) (A) (A)
                 (A) (A) (A) (A) (A) (A) (A) (A) (A) (A) (A) (A)
                 (A) (A) (A) (A) (A) (A) (A) (A) (A) (A) (A) (A)
                 (A) (A) (A) (A) (A) (A) (A) (A) (A) (A) (A) (A)
                 (A) (A)
 The electronic state of the initial guess is 1-A.
 Requested convergence on RMS density matrix=1.00D-08 within 128 cycles.
 Requested convergence on MAX density matrix=1.00D-06.
 Requested convergence on             energy=1.00D-06.
 No special actions if energy rises.
 Integral accuracy reduced to 1.0D-05 until final iterations.
 Initial convergence to 1.0D-05 achieved.  Increase integral accuracy.
 SCF Done:  E(RB3LYP) =  -1181.28978208     A.U. after   15 cycles
             Convg  =    0.9782D-08             -V/T =  2.0047
 Calling FoFJK, ICntrl=      2127 FMM=F ISym2X=0 I1Cent= 0 IOpClX= 0 NMat=1 NMatS=1 NMatT=0.
 ***** Axes restored to original set *****
 -------------------------------------------------------------------
 Center     Atomic                   Forces (Hartrees/Bohr)
 Number     Number              X              Y              Z
 -------------------------------------------------------------------
      1        7           0.002772990   -0.008843843    0.006350747
      2        6          -0.019639252    0.002975237   -0.026935391
      3        8           0.005523837    0.007530767    0.005608806
      4        6           0.008237846    0.019280936    0.010612373
      5        6           0.000492562   -0.007511453    0.000357305
      6        6          -0.003225439    0.003987055   -0.007882633
      7        6           0.006244928    0.011694452    0.016018032
      8       17           0.004731246   -0.003039016    0.008193872
      9       16          -0.002454327   -0.023036902   -0.009062242
     10        1           0.001124504   -0.000035714    0.000347358
     11        1          -0.004416775   -0.001038683   -0.002889702
     12        1           0.000090367   -0.001628988   -0.000869660
     13        1           0.000517513   -0.000333848    0.000151134
 -------------------------------------------------------------------
 Cartesian Forces:  Max     0.026935391 RMS     0.009123850

 GradGradGradGradGradGradGradGradGradGradGradGradGradGradGradGradGradGrad
 Berny optimization.
 Internal  Forces:  Max     0.023341851 RMS     0.006474802
 Search for a local minimum.
 Step number   1 out of a maximum of   66
 All quantities printed in internal units (Hartrees-Bohrs-Radians)
 Mixed Optimization -- RFO/linear search
 Second derivative matrix not updated -- first step.
 ITU=  0
     Eigenvalues ---    0.01417   0.01750   0.01756   0.01844   0.01973
     Eigenvalues ---    0.02113   0.02125   0.02150   0.02160   0.02312
     Eigenvalues ---    0.15998   0.15999   0.16000   0.16000   0.22735
     Eigenvalues ---    0.24552   0.24991   0.24992   0.25000   0.25000
     Eigenvalues ---    0.32912   0.33959   0.35407   0.35666   0.35829
     Eigenvalues ---    0.38139   0.40280   0.45829   0.45966   0.46010
     Eigenvalues ---    0.49656   0.51507   0.92291
 RFO step:  Lambda=-7.80859291D-03 EMin= 1.41663716D-02
 Linear search not attempted -- first point.
 Iteration  1 RMS(Cart)=  0.06501881 RMS(Int)=  0.00141341
 Iteration  2 RMS(Cart)=  0.00219514 RMS(Int)=  0.00031295
 Iteration  3 RMS(Cart)=  0.00000301 RMS(Int)=  0.00031295
 Iteration  4 RMS(Cart)=  0.00000000 RMS(Int)=  0.00031295
 Variable       Old X    -DE/DX   Delta X   Delta X   Delta X     New X
                                 (Linear)    (Quad)   (Total)
    R1        2.58375   0.00800   0.00000   0.01530   0.01530   2.59905
    R2        1.90820  -0.00087   0.00000  -0.00186  -0.00186   1.90633
    R3        1.90870  -0.00097   0.00000  -0.00208  -0.00208   1.90662
    R4        2.31895   0.00164   0.00000   0.00176   0.00176   2.32071
    R5        2.74163   0.02235   0.00000   0.05741   0.05741   2.79905
    R6        2.61762  -0.00759   0.00000  -0.01744  -0.01744   2.60018
    R7        3.24654   0.01720   0.00000   0.05036   0.05032   3.29686
    R8        2.69790  -0.00297   0.00000  -0.00923  -0.00919   2.68871
    R9        2.05019  -0.00123   0.00000  -0.00341  -0.00341   2.04679
   R10        2.58881   0.00258   0.00000   0.00553   0.00556   2.59438
   R11        2.04607   0.00005   0.00000   0.00013   0.00013   2.04620
   R12        3.24399   0.00980   0.00000   0.02820   0.02820   3.27219
   R13        3.19314   0.02334   0.00000   0.06445   0.06443   3.25757
    A1        2.06390  -0.00334   0.00000  -0.02053  -0.02064   2.04326
    A2        2.12539   0.00626   0.00000   0.03666   0.03655   2.16194
    A3        2.09075  -0.00297   0.00000  -0.01831  -0.01842   2.07232
    A4        2.08684   0.01089   0.00000   0.04263   0.04237   2.12920
    A5        2.02881   0.00313   0.00000   0.01249   0.01224   2.04105
    A6        2.16709  -0.01399   0.00000  -0.05395  -0.05420   2.11289
    A7        2.22064  -0.00873   0.00000  -0.03203  -0.03190   2.18874
    A8        2.12273   0.01032   0.00000   0.04190   0.04198   2.16472
    A9        1.93952  -0.00160   0.00000  -0.01020  -0.01052   1.92901
   A10        1.96318   0.00693   0.00000   0.02143   0.02123   1.98441
   A11        2.14517  -0.00479   0.00000  -0.01858  -0.01848   2.12669
   A12        2.17477  -0.00214   0.00000  -0.00285  -0.00275   2.17202
   A13        1.93671   0.00408   0.00000   0.01407   0.01389   1.95059
   A14        2.18071  -0.00151   0.00000  -0.00379  -0.00375   2.17696
   A15        2.16572  -0.00257   0.00000  -0.01013  -0.01009   2.15563
   A16        2.21278   0.00034   0.00000  -0.00059  -0.00066   2.21212
   A17        1.98253  -0.00607   0.00000  -0.01968  -0.02006   1.96246
   A18        2.08788   0.00574   0.00000   0.02035   0.02026   2.10814
   A19        1.60256  -0.00331   0.00000  -0.00482  -0.00527   1.59729
    D1        0.00222   0.00038   0.00000   0.00658   0.00597   0.00819
    D2        3.11300   0.00113   0.00000   0.04548   0.04611  -3.12408
    D3       -3.05403   0.00127   0.00000   0.03716   0.03654  -3.01749
    D4        0.05675   0.00203   0.00000   0.07607   0.07668   0.13342
    D5       -2.74055  -0.00142   0.00000  -0.05477  -0.05430  -2.79485
    D6        0.42921  -0.00098   0.00000  -0.03838  -0.03760   0.39161
    D7        0.36865  -0.00012   0.00000  -0.01190  -0.01269   0.35597
    D8       -2.74478   0.00032   0.00000   0.00449   0.00402  -2.74075
    D9       -3.12666  -0.00037   0.00000  -0.01056  -0.01104  -3.13771
   D10        0.02643  -0.00041   0.00000  -0.01020  -0.01057   0.01586
   D11       -0.01078  -0.00059   0.00000  -0.02476  -0.02504  -0.03582
   D12       -3.14087  -0.00063   0.00000  -0.02440  -0.02456   3.11775
   D13        3.11535   0.00056   0.00000   0.02729   0.02678  -3.14106
   D14       -0.00221   0.00108   0.00000   0.04177   0.04179   0.03958
   D15        0.02197  -0.00030   0.00000  -0.01107  -0.01138   0.01059
   D16       -3.13077   0.00008   0.00000   0.00346   0.00348  -3.12729
   D17       -3.13135  -0.00028   0.00000  -0.01156  -0.01198   3.13985
   D18       -0.00091   0.00010   0.00000   0.00297   0.00288   0.00197
   D19        3.12024   0.00023   0.00000   0.00842   0.00877   3.12901
   D20       -0.02382   0.00131   0.00000   0.04398   0.04407   0.02026
   D21       -0.01032  -0.00015   0.00000  -0.00601  -0.00592  -0.01624
   D22        3.12881   0.00093   0.00000   0.02955   0.02938  -3.12499
   D23        0.01533  -0.00144   0.00000  -0.05003  -0.04973  -0.03440
   D24       -3.12853  -0.00045   0.00000  -0.01730  -0.01683   3.13783
         Item               Value     Threshold  Converged?
 Maximum Force            0.023342     0.000450     NO 
 RMS     Force            0.006475     0.000300     NO 
 Maximum Displacement     0.188297     0.001800     NO 
 RMS     Displacement     0.065826     0.001200     NO 
 Predicted change in Energy=-4.087189D-03
 GradGradGradGradGradGradGradGradGradGradGradGradGradGradGradGradGradGrad

                          Input orientation:                          
 ---------------------------------------------------------------------
 Center     Atomic      Atomic             Coordinates (Angstroms)
 Number     Number       Type             X           Y           Z
 ---------------------------------------------------------------------
      1          7           0        1.649660   -1.113941   -0.414482
      2          6           0        2.307860    0.055638   -0.113700
      3          8           0        2.295578    1.022432   -0.870873
      4          6           0        3.049482    0.097951    1.167759
      5          6           0        3.434555    1.241767    1.828557
      6          6           0        4.140120    0.992983    3.038786
      7          6           0        4.292034   -0.351351    3.272242
      8         17           0        5.101278   -1.084444    4.616126
      9         16           0        3.612562   -1.318106    2.017134
     10          1           0        1.156854   -1.150283   -1.293955
     11          1           0        1.553749   -1.886300    0.227562
     12          1           0        3.199777    2.228249    1.447942
     13          1           0        4.513307    1.761208    3.704384
 ---------------------------------------------------------------------
                    Distance matrix (angstroms):
                    1          2          3          4          5
     1  N    0.000000
     2  C    1.375358   0.000000
     3  O    2.278067   1.228069   0.000000
     4  C    2.435501   1.481192   2.362003   0.000000
     5  C    3.710314   2.539430   2.938077   1.375955   0.000000
     6  C    4.750429   3.764832   4.323036   2.343356   1.422804
     7  C    4.599523   3.945528   4.799846   2.484886   2.314633
     8  Cl   6.100946   5.610189   6.512913   4.183199   3.994967
     9  S    3.131680   2.851293   3.943748   1.744624   2.572975
    10  H    1.008787   2.042563   2.489253   3.346665   4.545317
    11  H    1.008939   2.110987   3.196497   2.656772   3.985652
    12  H    4.128161   2.820369   2.765588   2.153894   1.083113
    13  H    5.782042   4.727656   5.137810   3.368037   2.225366
                    6          7          8          9         10
     6  C    0.000000
     7  C    1.372885   0.000000
     8  Cl   2.779843   1.731567   0.000000
     9  S    2.581322   1.723831   3.004269   0.000000
    10  H    5.680327   5.596231   7.105763   4.125770   0.000000
    11  H    4.783573   4.373140   5.699774   2.786418   1.736162
    12  H    2.222816   3.342967   4.962562   3.615384   4.806871
    13  H    1.082801   2.167629   3.045442   3.624959   6.687746
                   11         12         13
    11  H    0.000000
    12  H    4.596548   0.000000
    13  H    5.843936   2.652361   0.000000
 Stoichiometry    C5H4ClNOS
 Framework group  C1[X(C5H4ClNOS)]
 Deg. of freedom    33
 Full point group                 C1      NOp   1
 Largest Abelian subgroup         C1      NOp   1
 Largest concise Abelian subgroup C1      NOp   1
                         Standard orientation:                         
 ---------------------------------------------------------------------
 Center     Atomic      Atomic             Coordinates (Angstroms)
 Number     Number       Type             X           Y           Z
 ---------------------------------------------------------------------
      1          7           0       -2.833628   -1.270719    0.271317
      2          6           0       -2.421731    0.008238   -0.022318
      3          8           0       -3.216838    0.895957   -0.318817
      4          6           0       -0.964708    0.270965    0.022286
      5          6           0       -0.381730    1.511169    0.145908
      6          6           0        1.040593    1.475909    0.157179
      7          6           0        1.519032    0.195679    0.027099
      8         17           0        3.180575   -0.289067   -0.024104
      9         16           0        0.255679   -0.965016   -0.141180
     10          1           0       -3.824293   -1.455681    0.226325
     11          1           0       -2.220464   -1.993449    0.617220
     12          1           0       -0.972936    2.414160    0.236550
     13          1           0        1.678428    2.344970    0.258950
 ---------------------------------------------------------------------
 Rotational constants (GHZ):      3.4909625      0.6433835      0.5484831
 Standard basis: 6-31G(d) (6D, 7F)
 There are   151 symmetry adapted basis functions of A   symmetry.
 Integral buffers will be    131072 words long.
 Raffenetti 2 integral format.
 Two-electron integral symmetry is turned on.
   151 basis functions,   316 primitive gaussians,   151 cartesian basis functions
    41 alpha electrons       41 beta electrons
       nuclear repulsion energy       565.3706457810 Hartrees.
 NAtoms=   13 NActive=   13 NUniq=   13 SFac= 1.00D+00 NAtFMM=   60 NAOKFM=F Big=F
 One-electron integrals computed using PRISM.
 NBasis=   151 RedAO= T  NBF=   151
 NBsUse=   151 1.00D-06 NBFU=   151
 Initial guess read from the read-write file.
 B after Tr=     0.000000    0.000000    0.000000
         Rot=    1.000000    0.000000    0.000000    0.000000 Ang=   0.00 deg.
 Initial guess orbital symmetries:
       Occupied  (A) (A) (A) (A) (A) (A) (A) (A) (A) (A) (A) (A)
                 (A) (A) (A) (A) (A) (A) (A) (A) (A) (A) (A) (A)
                 (A) (A) (A) (A) (A) (A) (A) (A) (A) (A) (A) (A)
                 (A) (A) (A) (A) (A)
       Virtual   (A) (A) (A) (A) (A) (A) (A) (A) (A) (A) (A) (A)
                 (A) (A) (A) (A) (A) (A) (A) (A) (A) (A) (A) (A)
                 (A) (A) (A) (A) (A) (A) (A) (A) (A) (A) (A) (A)
                 (A) (A) (A) (A) (A) (A) (A) (A) (A) (A) (A) (A)
                 (A) (A) (A) (A) (A) (A) (A) (A) (A) (A) (A) (A)
                 (A) (A) (A) (A) (A) (A) (A) (A) (A) (A) (A) (A)
                 (A) (A) (A) (A) (A) (A) (A) (A) (A) (A) (A) (A)
                 (A) (A) (A) (A) (A) (A) (A) (A) (A) (A) (A) (A)
                 (A) (A) (A) (A) (A) (A) (A) (A) (A) (A) (A) (A)
                 (A) (A)
 Harris functional with IExCor=  402 diagonalized for initial guess.
 ExpMin= 1.17D-01 ExpMax= 2.52D+04 ExpMxC= 3.78D+03 IAcc=3 IRadAn=         5 AccDes= 0.00D+00
 HarFok:  IExCor=  402 AccDes= 0.00D+00 IRadAn=         5 IDoV= 1
 ScaDFX=  1.000000  1.000000  1.000000  1.000000
 FoFCou: FMM=F IPFlag=           0 FMFlag=      100000 FMFlg1=           0
         NFxFlg=           0 DoJE=T BraDBF=F KetDBF=T FulRan=T
         Omega=  0.000000  0.000000  1.000000  0.000000  0.000000 ICntrl=     500 IOpCl=  0
         NMat0=    1 NMatS0=    1 NMatT0=    0 NMatD0=    1 NMtDS0=    0 NMtDT0=    0
         I1Cent=           4 NGrid=           0.
 Petite list used in FoFCou.
 Requested convergence on RMS density matrix=1.00D-08 within 128 cycles.
 Requested convergence on MAX density matrix=1.00D-06.
 Requested convergence on             energy=1.00D-06.
 No special actions if energy rises.
 Integral accuracy reduced to 1.0D-05 until final iterations.
 Initial convergence to 1.0D-05 achieved.  Increase integral accuracy.
 SCF Done:  E(RB3LYP) =  -1181.29397001     A.U. after   13 cycles
             Convg  =    0.6910D-08             -V/T =  2.0049
 Calling FoFJK, ICntrl=      2127 FMM=F ISym2X=0 I1Cent= 0 IOpClX= 0 NMat=1 NMatS=1 NMatT=0.
 ***** Axes restored to original set *****
 -------------------------------------------------------------------
 Center     Atomic                   Forces (Hartrees/Bohr)
 Number     Number              X              Y              Z
 -------------------------------------------------------------------
      1        7           0.005042717    0.003773546    0.001740385
      2        6          -0.002897517    0.000425325   -0.008597406
      3        8          -0.001429261   -0.003040950    0.004557845
      4        6           0.003286080    0.003412842    0.002452457
      5        6          -0.000723745   -0.001673886   -0.000257008
      6        6          -0.001117353   -0.001600767   -0.000822453
      7        6           0.003473141    0.006878702    0.003507142
      8       17          -0.000037318    0.000071673   -0.000295051
      9       16          -0.003993480   -0.009129879   -0.002187140
     10        1          -0.000721684   -0.000196630   -0.000603683
     11        1          -0.000749882    0.000857731    0.000630129
     12        1          -0.000267469    0.000170940   -0.000434084
     13        1           0.000135771    0.000051353    0.000308868
 -------------------------------------------------------------------
 Cartesian Forces:  Max     0.009129879 RMS     0.003090418

 GradGradGradGradGradGradGradGradGradGradGradGradGradGradGradGradGradGrad
 Berny optimization.
 Using GEDIIS/GDIIS optimizer.
 Internal  Forces:  Max     0.006976312 RMS     0.001834615
 Search for a local minimum.
 Step number   2 out of a maximum of   66
 All quantities printed in internal units (Hartrees-Bohrs-Radians)
 Mixed Optimization -- RFO/linear search
 Update second derivatives using D2CorX and points    1    2
 DE= -4.19D-03 DEPred=-4.09D-03 R= 1.02D+00
 SS=  1.41D+00  RLast= 2.17D-01 DXNew= 5.0454D-01 6.5097D-01
 Trust test= 1.02D+00 RLast= 2.17D-01 DXMaxT set to 5.05D-01
 ITU=  1  0
 Use linear search instead of GDIIS.
     Eigenvalues ---    0.01384   0.01739   0.01793   0.01925   0.01971
     Eigenvalues ---    0.02102   0.02126   0.02159   0.02268   0.02314
     Eigenvalues ---    0.15946   0.15999   0.16000   0.16263   0.22376
     Eigenvalues ---    0.22742   0.24787   0.24988   0.24991   0.26444
     Eigenvalues ---    0.29695   0.33794   0.34371   0.35425   0.35668
     Eigenvalues ---    0.38211   0.40306   0.45818   0.45965   0.46048
     Eigenvalues ---    0.49712   0.53967   0.93105
 RFO step:  Lambda=-1.22645417D-03 EMin= 1.38382130D-02
 Quartic linear search produced a step of  0.11220.
 Iteration  1 RMS(Cart)=  0.03295675 RMS(Int)=  0.00087865
 Iteration  2 RMS(Cart)=  0.00094594 RMS(Int)=  0.00022333
 Iteration  3 RMS(Cart)=  0.00000057 RMS(Int)=  0.00022333
 Variable       Old X    -DE/DX   Delta X   Delta X   Delta X     New X
                                 (Linear)    (Quad)   (Total)
    R1        2.59905  -0.00587   0.00172  -0.01185  -0.01013   2.58892
    R2        1.90633   0.00089  -0.00021   0.00204   0.00183   1.90816
    R3        1.90662  -0.00018  -0.00023  -0.00055  -0.00079   1.90583
    R4        2.32071  -0.00519   0.00020  -0.00616  -0.00596   2.31476
    R5        2.79905   0.00229   0.00644   0.00963   0.01607   2.81512
    R6        2.60018  -0.00244  -0.00196  -0.00698  -0.00894   2.59124
    R7        3.29686   0.00375   0.00565   0.01532   0.02095   3.31781
    R8        2.68871  -0.00138  -0.00103  -0.00494  -0.00595   2.68276
    R9        2.04679   0.00037  -0.00038   0.00097   0.00059   2.04737
   R10        2.59438  -0.00181   0.00062  -0.00367  -0.00304   2.59134
   R11        2.04620   0.00027   0.00001   0.00085   0.00087   2.04707
   R12        3.27219  -0.00028   0.00316   0.00055   0.00372   3.27591
   R13        3.25757   0.00698   0.00723   0.02494   0.03216   3.28973
    A1        2.04326   0.00062  -0.00232   0.00155  -0.00132   2.04194
    A2        2.16194  -0.00083   0.00410  -0.00541  -0.00186   2.16007
    A3        2.07232   0.00010  -0.00207  -0.00190  -0.00453   2.06779
    A4        2.12920   0.00161   0.00475   0.00948   0.01390   2.14311
    A5        2.04105  -0.00195   0.00137  -0.00787  -0.00683   2.03422
    A6        2.11289   0.00034  -0.00608  -0.00120  -0.00761   2.10529
    A7        2.18874  -0.00279  -0.00358  -0.01348  -0.01715   2.17159
    A8        2.16472   0.00087   0.00471   0.00659   0.01121   2.17593
    A9        1.92901   0.00194  -0.00118   0.00830   0.00666   1.93566
   A10        1.98441   0.00053   0.00238   0.00176   0.00384   1.98825
   A11        2.12669  -0.00067  -0.00207  -0.00397  -0.00599   2.12069
   A12        2.17202   0.00014  -0.00031   0.00244   0.00218   2.17420
   A13        1.95059   0.00045   0.00156   0.00176   0.00308   1.95367
   A14        2.17696  -0.00002  -0.00042   0.00074   0.00041   2.17737
   A15        2.15563  -0.00043  -0.00113  -0.00246  -0.00350   2.15213
   A16        2.21212  -0.00029  -0.00007  -0.00166  -0.00173   2.21039
   A17        1.96246   0.00079  -0.00225   0.00390   0.00129   1.96375
   A18        2.10814  -0.00048   0.00227  -0.00139   0.00088   2.10903
   A19        1.59729  -0.00366  -0.00059  -0.01293  -0.01392   1.58337
    D1        0.00819   0.00023   0.00067   0.01622   0.01701   0.02520
    D2       -3.12408  -0.00067   0.00517  -0.03364  -0.02850   3.13060
    D3       -3.01749   0.00140   0.00410   0.07508   0.07921  -2.93828
    D4        0.13342   0.00050   0.00860   0.02521   0.03370   0.16712
    D5       -2.79485  -0.00007  -0.00609  -0.02114  -0.02732  -2.82218
    D6        0.39161  -0.00086  -0.00422  -0.06486  -0.06915   0.32246
    D7        0.35597  -0.00097  -0.00142  -0.07056  -0.07191   0.28406
    D8       -2.74075  -0.00175   0.00045  -0.11428  -0.11374  -2.85449
    D9       -3.13771   0.00007  -0.00124   0.00621   0.00531  -3.13240
   D10        0.01586  -0.00023  -0.00119  -0.01430  -0.01524   0.00062
   D11       -0.03582   0.00076  -0.00281   0.04495   0.04234   0.00652
   D12        3.11775   0.00046  -0.00276   0.02443   0.02179   3.13954
   D13       -3.14106  -0.00045   0.00300  -0.01619  -0.01259   3.12954
   D14        0.03958  -0.00103   0.00469  -0.05374  -0.04895  -0.00936
   D15        0.01059  -0.00010  -0.00128  -0.00826  -0.00948   0.00112
   D16       -3.12729  -0.00029   0.00039  -0.01968  -0.01940   3.13649
   D17        3.13985   0.00020  -0.00134   0.01282   0.01174  -3.13160
   D18        0.00197   0.00001   0.00032   0.00140   0.00181   0.00378
   D19        3.12901  -0.00004   0.00098  -0.00365  -0.00282   3.12619
   D20        0.02026  -0.00066   0.00495  -0.03339  -0.02864  -0.00838
   D21       -0.01624   0.00014  -0.00066   0.00761   0.00695  -0.00929
   D22       -3.12499  -0.00048   0.00330  -0.02213  -0.01887   3.13932
   D23       -0.03440   0.00101  -0.00558   0.05028   0.04458   0.01019
   D24        3.13783   0.00043  -0.00189   0.02256   0.02051  -3.12484
         Item               Value     Threshold  Converged?
 Maximum Force            0.006976     0.000450     NO 
 RMS     Force            0.001835     0.000300     NO 
 Maximum Displacement     0.093418     0.001800     NO 
 RMS     Displacement     0.032780     0.001200     NO 
 Predicted change in Energy=-6.750749D-04
 GradGradGradGradGradGradGradGradGradGradGradGradGradGradGradGradGradGrad

                          Input orientation:                          
 ---------------------------------------------------------------------
 Center     Atomic      Atomic             Coordinates (Angstroms)
 Number     Number       Type             X           Y           Z
 ---------------------------------------------------------------------
      1          7           0        1.675286   -1.114932   -0.437578
      2          6           0        2.308717    0.057223   -0.118666
      3          8           0        2.247736    1.057262   -0.823380
      4          6           0        3.053005    0.082293    1.171527
      5          6           0        3.434564    1.226280    1.824189
      6          6           0        4.143597    0.990982    3.031386
      7          6           0        4.295249   -0.348322    3.283718
      8         17           0        5.115007   -1.060285    4.635105
      9         16           0        3.563127   -1.344634    2.058193
     10          1           0        1.160589   -1.136195   -1.306050
     11          1           0        1.571961   -1.888115    0.201666
     12          1           0        3.208283    2.207912    1.425438
     13          1           0        4.529693    1.766333    3.681936
 ---------------------------------------------------------------------
                    Distance matrix (angstroms):
                    1          2          3          4          5
     1  N    0.000000
     2  C    1.369995   0.000000
     3  O    2.279248   1.224916   0.000000
     4  C    2.433245   1.489695   2.361922   0.000000
     5  C    3.700261   2.531584   2.906330   1.371226   0.000000
     6  C    4.749858   3.763179   4.296266   2.339697   1.419654
     7  C    4.615187   3.960681   4.799608   2.487962   2.313088
     8  Cl   6.129175   5.632267   6.519226   4.189715   3.994185
     9  S    3.137767   2.877058   3.975276   1.755712   2.584741
    10  H    1.009756   2.037725   2.495218   3.347288   4.533283
    11  H    1.008523   2.104699   3.191024   2.648892   3.975089
    12  H    4.106362   2.796237   2.702560   2.146355   1.083424
    13  H    5.780980   4.722115   5.099802   3.364335   2.223103
                    6          7          8          9         10
     6  C    0.000000
     7  C    1.371278   0.000000
     8  Cl   2.779073   1.733534   0.000000
     9  S    2.595988   1.740849   3.021533   0.000000
    10  H    5.677726   5.613627   7.137262   4.139295   0.000000
    11  H    4.786421   4.391618   5.735317   2.776113   1.734305
    12  H    2.221441   3.342010   4.961721   3.625863   4.778821
    13  H    1.083261   2.164557   3.039884   3.639905   6.682479
                   11         12         13
    11  H    0.000000
    12  H    4.577401   0.000000
    13  H    5.849397   2.651961   0.000000
 Stoichiometry    C5H4ClNOS
 Framework group  C1[X(C5H4ClNOS)]
 Deg. of freedom    33
 Full point group                 C1      NOp   1
 Largest Abelian subgroup         C1      NOp   1
 Largest concise Abelian subgroup C1      NOp   1
                         Standard orientation:                         
 ---------------------------------------------------------------------
 Center     Atomic      Atomic             Coordinates (Angstroms)
 Number     Number       Type             X           Y           Z
 ---------------------------------------------------------------------
      1          7           0       -2.849598   -1.267356    0.212672
      2          6           0       -2.432948    0.012263   -0.043973
      3          8           0       -3.211508    0.931411   -0.266302
      4          6           0       -0.964298    0.256880    0.005235
      5          6           0       -0.388528    1.494687    0.134018
      6          6           0        1.030887    1.470956    0.144641
      7          6           0        1.522895    0.197007    0.020597
      8         17           0        3.192389   -0.266803   -0.032428
      9         16           0        0.260982   -0.996349   -0.097854
     10          1           0       -3.844499   -1.438520    0.190714
     11          1           0       -2.244139   -1.994640    0.561379
     12          1           0       -0.988968    2.393280    0.210230
     13          1           0        1.662482    2.346567    0.233232
 ---------------------------------------------------------------------
 Rotational constants (GHZ):      3.4890292      0.6410235      0.5450880
 Standard basis: 6-31G(d) (6D, 7F)
 There are   151 symmetry adapted basis functions of A   symmetry.
 Integral buffers will be    131072 words long.
 Raffenetti 2 integral format.
 Two-electron integral symmetry is turned on.
   151 basis functions,   316 primitive gaussians,   151 cartesian basis functions
    41 alpha electrons       41 beta electrons
       nuclear repulsion energy       564.2872003813 Hartrees.
 NAtoms=   13 NActive=   13 NUniq=   13 SFac= 1.00D+00 NAtFMM=   60 NAOKFM=F Big=F
 One-electron integrals computed using PRISM.
 NBasis=   151 RedAO= T  NBF=   151
 NBsUse=   151 1.00D-06 NBFU=   151
 Initial guess read from the read-write file.
 B after Tr=     0.000000    0.000000    0.000000
         Rot=    1.000000    0.000000    0.000000    0.000000 Ang=   0.00 deg.
 Initial guess orbital symmetries:
       Occupied  (A) (A) (A) (A) (A) (A) (A) (A) (A) (A) (A) (A)
                 (A) (A) (A) (A) (A) (A) (A) (A) (A) (A) (A) (A)
                 (A) (A) (A) (A) (A) (A) (A) (A) (A) (A) (A) (A)
                 (A) (A) (A) (A) (A)
       Virtual   (A) (A) (A) (A) (A) (A) (A) (A) (A) (A) (A) (A)
                 (A) (A) (A) (A) (A) (A) (A) (A) (A) (A) (A) (A)
                 (A) (A) (A) (A) (A) (A) (A) (A) (A) (A) (A) (A)
                 (A) (A) (A) (A) (A) (A) (A) (A) (A) (A) (A) (A)
                 (A) (A) (A) (A) (A) (A) (A) (A) (A) (A) (A) (A)
                 (A) (A) (A) (A) (A) (A) (A) (A) (A) (A) (A) (A)
                 (A) (A) (A) (A) (A) (A) (A) (A) (A) (A) (A) (A)
                 (A) (A) (A) (A) (A) (A) (A) (A) (A) (A) (A) (A)
                 (A) (A) (A) (A) (A) (A) (A) (A) (A) (A) (A) (A)
                 (A) (A)
 Harris functional with IExCor=  402 diagonalized for initial guess.
 ExpMin= 1.17D-01 ExpMax= 2.52D+04 ExpMxC= 3.78D+03 IAcc=3 IRadAn=         5 AccDes= 0.00D+00
 HarFok:  IExCor=  402 AccDes= 0.00D+00 IRadAn=         5 IDoV= 1
 ScaDFX=  1.000000  1.000000  1.000000  1.000000
 FoFCou: FMM=F IPFlag=           0 FMFlag=      100000 FMFlg1=           0
         NFxFlg=           0 DoJE=T BraDBF=F KetDBF=T FulRan=T
         Omega=  0.000000  0.000000  1.000000  0.000000  0.000000 ICntrl=     500 IOpCl=  0
         NMat0=    1 NMatS0=    1 NMatT0=    0 NMatD0=    1 NMtDS0=    0 NMtDT0=    0
         I1Cent=           4 NGrid=           0.
 Petite list used in FoFCou.
 Requested convergence on RMS density matrix=1.00D-08 within 128 cycles.
 Requested convergence on MAX density matrix=1.00D-06.
 Requested convergence on             energy=1.00D-06.
 No special actions if energy rises.
 Integral accuracy reduced to 1.0D-05 until final iterations.
 Initial convergence to 1.0D-05 achieved.  Increase integral accuracy.
 SCF Done:  E(RB3LYP) =  -1181.29449016     A.U. after   13 cycles
             Convg  =    0.4324D-08             -V/T =  2.0049
 Calling FoFJK, ICntrl=      2127 FMM=F ISym2X=0 I1Cent= 0 IOpClX= 0 NMat=1 NMatS=1 NMatT=0.
 ***** Axes restored to original set *****
 -------------------------------------------------------------------
 Center     Atomic                   Forces (Hartrees/Bohr)
 Number     Number              X              Y              Z
 -------------------------------------------------------------------
      1        7           0.003333771    0.000987961   -0.002913194
      2        6          -0.004095946    0.001697864    0.004635683
      3        8           0.000793464   -0.001983879   -0.000793144
      4        6          -0.000896379   -0.001751441   -0.000682797
      5        6           0.000740775    0.000628123   -0.001948349
      6        6           0.001028632   -0.002158429    0.001613211
      7        6          -0.000573550    0.001764176    0.001616057
      8       17          -0.001001100    0.000291382   -0.001283163
      9       16           0.001405113    0.000449620   -0.000783471
     10        1          -0.000881677   -0.000239204    0.000189485
     11        1          -0.000068963    0.000361165    0.000612361
     12        1           0.000048041    0.000057360   -0.000346230
     13        1           0.000167818   -0.000104699    0.000083551
 -------------------------------------------------------------------
 Cartesian Forces:  Max     0.004635683 RMS     0.001580696

 GradGradGradGradGradGradGradGradGradGradGradGradGradGradGradGradGradGrad
 Berny optimization.
 Using GEDIIS/GDIIS optimizer.
 Internal  Forces:  Max     0.001882220 RMS     0.000807460
 Search for a local minimum.
 Step number   3 out of a maximum of   66
 All quantities printed in internal units (Hartrees-Bohrs-Radians)
 Mixed Optimization -- En-DIIS/RFO-DIIS
 Update second derivatives using D2CorX and points    1    2    3
 DE= -5.20D-04 DEPred=-6.75D-04 R= 7.71D-01
 SS=  1.41D+00  RLast= 2.11D-01 DXNew= 8.4853D-01 6.3325D-01
 Trust test= 7.71D-01 RLast= 2.11D-01 DXMaxT set to 6.33D-01
 ITU=  1  1  0
 Use linear search instead of GDIIS.
     Eigenvalues ---    0.00994   0.01717   0.01811   0.01963   0.02039
     Eigenvalues ---    0.02116   0.02125   0.02198   0.02307   0.03475
     Eigenvalues ---    0.15742   0.15999   0.16004   0.16323   0.21976
     Eigenvalues ---    0.22721   0.24780   0.24998   0.25431   0.26548
     Eigenvalues ---    0.29297   0.33816   0.34504   0.35431   0.35669
     Eigenvalues ---    0.38336   0.40699   0.45965   0.45968   0.46104
     Eigenvalues ---    0.49865   0.53907   0.92594
 RFO step:  Lambda=-5.62187172D-04 EMin= 9.93654905D-03
 Quartic linear search produced a step of -0.16760.
 Iteration  1 RMS(Cart)=  0.03200105 RMS(Int)=  0.00074613
 Iteration  2 RMS(Cart)=  0.00127985 RMS(Int)=  0.00019326
 Iteration  3 RMS(Cart)=  0.00000151 RMS(Int)=  0.00019326
 Iteration  4 RMS(Cart)=  0.00000000 RMS(Int)=  0.00019326
 Variable       Old X    -DE/DX   Delta X   Delta X   Delta X     New X
                                 (Linear)    (Quad)   (Total)
    R1        2.58892  -0.00156   0.00170  -0.00821  -0.00651   2.58240
    R2        1.90816   0.00029  -0.00031   0.00157   0.00126   1.90943
    R3        1.90583   0.00012   0.00013  -0.00028  -0.00015   1.90568
    R4        2.31476  -0.00120   0.00100  -0.00455  -0.00355   2.31120
    R5        2.81512  -0.00105  -0.00269   0.00808   0.00539   2.82050
    R6        2.59124   0.00031   0.00150  -0.00484  -0.00335   2.58790
    R7        3.31781  -0.00061  -0.00351   0.01167   0.00815   3.32597
    R8        2.68276   0.00178   0.00100   0.00005   0.00105   2.68381
    R9        2.04737   0.00017  -0.00010   0.00069   0.00059   2.04796
   R10        2.59134  -0.00188   0.00051  -0.00488  -0.00436   2.58698
   R11        2.04707   0.00003  -0.00015   0.00059   0.00045   2.04751
   R12        3.27591  -0.00159  -0.00062  -0.00128  -0.00190   3.27400
   R13        3.28973  -0.00003  -0.00539   0.01967   0.01429   3.30401
    A1        2.04194   0.00094   0.00022   0.00208   0.00189   2.04383
    A2        2.16007  -0.00110   0.00031  -0.00801  -0.00811   2.15196
    A3        2.06779   0.00001   0.00076  -0.00467  -0.00434   2.06346
    A4        2.14311  -0.00138  -0.00233   0.00494   0.00191   2.14502
    A5        2.03422   0.00041   0.00114  -0.00170  -0.00125   2.03297
    A6        2.10529   0.00103   0.00128  -0.00122  -0.00063   2.10466
    A7        2.17159  -0.00011   0.00287  -0.01129  -0.00835   2.16323
    A8        2.17593   0.00036  -0.00188   0.00813   0.00631   2.18224
    A9        1.93566  -0.00024  -0.00112   0.00317   0.00204   1.93770
   A10        1.98825  -0.00029  -0.00064   0.00199   0.00129   1.98955
   A11        2.12069  -0.00009   0.00100  -0.00470  -0.00368   2.11701
   A12        2.17420   0.00038  -0.00037   0.00277   0.00242   2.17662
   A13        1.95367  -0.00010  -0.00052   0.00157   0.00104   1.95471
   A14        2.17737   0.00024  -0.00007   0.00142   0.00136   2.17873
   A15        2.15213  -0.00014   0.00059  -0.00298  -0.00238   2.14975
   A16        2.21039   0.00048   0.00029   0.00071   0.00101   2.21140
   A17        1.96375   0.00035  -0.00022   0.00104   0.00080   1.96455
   A18        2.10903  -0.00083  -0.00015  -0.00178  -0.00192   2.10710
   A19        1.58337   0.00030   0.00233  -0.00754  -0.00528   1.57809
    D1        0.02520  -0.00162  -0.00285  -0.05816  -0.06102  -0.03581
    D2        3.13060   0.00036   0.00478   0.00547   0.01033   3.14094
    D3       -2.93828  -0.00068  -0.01328   0.01212  -0.00125  -2.93953
    D4        0.16712   0.00131  -0.00565   0.07575   0.07010   0.23722
    D5       -2.82218  -0.00165   0.00458  -0.09752  -0.09289  -2.91506
    D6        0.32246  -0.00125   0.01159  -0.10337  -0.09171   0.23074
    D7        0.28406   0.00024   0.01205  -0.03522  -0.02324   0.26082
    D8       -2.85449   0.00064   0.01906  -0.04107  -0.02206  -2.87656
    D9       -3.13240  -0.00057  -0.00089  -0.02130  -0.02229   3.12850
   D10        0.00062  -0.00016   0.00255  -0.01314  -0.01067  -0.01005
   D11        0.00652  -0.00092  -0.00710  -0.01613  -0.02331  -0.01679
   D12        3.13954  -0.00052  -0.00365  -0.00798  -0.01169   3.12785
   D13        3.12954   0.00071   0.00211   0.02324   0.02519  -3.12845
   D14       -0.00936   0.00106   0.00820   0.01810   0.02625   0.01688
   D15        0.00112   0.00020   0.00159   0.00425   0.00581   0.00692
   D16        3.13649   0.00034   0.00325   0.00620   0.00950  -3.13720
   D17       -3.13160  -0.00022  -0.00197  -0.00415  -0.00623  -3.13783
   D18        0.00378  -0.00007  -0.00030  -0.00220  -0.00254   0.00124
   D19        3.12619   0.00010   0.00047   0.00309   0.00362   3.12981
   D20       -0.00838   0.00063   0.00480   0.00990   0.01475   0.00637
   D21       -0.00929  -0.00004  -0.00116   0.00115  -0.00001  -0.00931
   D22        3.13932   0.00049   0.00316   0.00796   0.01112  -3.13274
   D23        0.01019  -0.00096  -0.00747  -0.01604  -0.02345  -0.01326
   D24       -3.12484  -0.00047  -0.00344  -0.00969  -0.01307  -3.13792
         Item               Value     Threshold  Converged?
 Maximum Force            0.001882     0.000450     NO 
 RMS     Force            0.000807     0.000300     NO 
 Maximum Displacement     0.109767     0.001800     NO 
 RMS     Displacement     0.031944     0.001200     NO 
 Predicted change in Energy=-3.134014D-04
 GradGradGradGradGradGradGradGradGradGradGradGradGradGradGradGradGradGrad

                          Input orientation:                          
 ---------------------------------------------------------------------
 Center     Atomic      Atomic             Coordinates (Angstroms)
 Number     Number       Type             X           Y           Z
 ---------------------------------------------------------------------
      1          7           0        1.699730   -1.121029   -0.453967
      2          6           0        2.266347    0.069899   -0.096062
      3          8           0        2.189649    1.076277   -0.786813
      4          6           0        3.039738    0.081981    1.180422
      5          6           0        3.451166    1.223971    1.814454
      6          6           0        4.158148    0.990333    3.023826
      7          6           0        4.284784   -0.345762    3.293815
      8         17           0        5.088468   -1.055566    4.654670
      9         16           0        3.549191   -1.350740    2.066682
     10          1           0        1.173450   -1.139699   -1.316313
     11          1           0        1.610762   -1.903341    0.176139
     12          1           0        3.237115    2.203948    1.404199
     13          1           0        4.558266    1.765530    3.666432
 ---------------------------------------------------------------------
                    Distance matrix (angstroms):
                    1          2          3          4          5
     1  N    0.000000
     2  C    1.366550   0.000000
     3  O    2.275733   1.223036   0.000000
     4  C    2.431888   1.492545   2.362475   0.000000
     5  C    3.703009   2.527004   2.894793   1.369456   0.000000
     6  C    4.753600   3.762953   4.289912   2.339676   1.420209
     7  C    4.618377   3.967131   4.802427   2.489886   2.312464
     8  Cl   6.130742   5.639192   6.523622   4.190669   3.992978
     9  S    3.134796   2.888142   3.985123   1.760026   2.588893
    10  H    1.010426   2.036311   2.494710   3.348017   4.536146
    11  H    1.008445   2.097036   3.184417   2.644251   3.981362
    12  H    4.107530   2.783404   2.677566   2.142843   1.083735
    13  H    5.786288   4.720638   5.090855   3.364596   2.224585
                    6          7          8          9         10
     6  C    0.000000
     7  C    1.368971   0.000000
     8  Cl   2.776842   1.732529   0.000000
     9  S    2.601457   1.748409   3.025588   0.000000
    10  H    5.681748   5.618185   7.140523   4.139243   0.000000
    11  H    4.792896   4.392761   5.733272   2.763518   1.732571
    12  H    2.223591   3.342047   4.961602   3.629336   4.779107
    13  H    1.083498   2.161294   3.035838   3.645350   6.687681
                   11         12         13
    11  H    0.000000
    12  H    4.585082   0.000000
    13  H    5.859227   2.656190   0.000000
 Stoichiometry    C5H4ClNOS
 Framework group  C1[X(C5H4ClNOS)]
 Deg. of freedom    33
 Full point group                 C1      NOp   1
 Largest Abelian subgroup         C1      NOp   1
 Largest concise Abelian subgroup C1      NOp   1
                         Standard orientation:                         
 ---------------------------------------------------------------------
 Center     Atomic      Atomic             Coordinates (Angstroms)
 Number     Number       Type             X           Y           Z
 ---------------------------------------------------------------------
      1          7           0       -2.849759   -1.272953    0.168466
      2          6           0       -2.437804    0.017695   -0.010358
      3          8           0       -3.214172    0.940972   -0.211922
      4          6           0       -0.964195    0.254174    0.005334
      5          6           0       -0.389602    1.493801    0.097934
      6          6           0        1.030385    1.472575    0.111314
      7          6           0        1.525054    0.199462    0.018754
      8         17           0        3.194402   -0.262876   -0.015532
      9         16           0        0.262151   -1.004086   -0.097363
     10          1           0       -3.845626   -1.443656    0.160088
     11          1           0       -2.242784   -2.006987    0.499730
     12          1           0       -0.993959    2.391426    0.157129
     13          1           0        1.661783    2.350153    0.183140
 ---------------------------------------------------------------------
 Rotational constants (GHZ):      3.4895245      0.6409418      0.5438410
 Standard basis: 6-31G(d) (6D, 7F)
 There are   151 symmetry adapted basis functions of A   symmetry.
 Integral buffers will be    131072 words long.
 Raffenetti 2 integral format.
 Two-electron integral symmetry is turned on.
   151 basis functions,   316 primitive gaussians,   151 cartesian basis functions
    41 alpha electrons       41 beta electrons
       nuclear repulsion energy       564.0523211995 Hartrees.
 NAtoms=   13 NActive=   13 NUniq=   13 SFac= 1.00D+00 NAtFMM=   60 NAOKFM=F Big=F
 One-electron integrals computed using PRISM.
 NBasis=   151 RedAO= T  NBF=   151
 NBsUse=   151 1.00D-06 NBFU=   151
 Initial guess read from the read-write file.
 B after Tr=     0.000000    0.000000    0.000000
         Rot=    1.000000    0.000000    0.000000    0.000000 Ang=   0.00 deg.
 Initial guess orbital symmetries:
       Occupied  (A) (A) (A) (A) (A) (A) (A) (A) (A) (A) (A) (A)
                 (A) (A) (A) (A) (A) (A) (A) (A) (A) (A) (A) (A)
                 (A) (A) (A) (A) (A) (A) (A) (A) (A) (A) (A) (A)
                 (A) (A) (A) (A) (A)
       Virtual   (A) (A) (A) (A) (A) (A) (A) (A) (A) (A) (A) (A)
                 (A) (A) (A) (A) (A) (A) (A) (A) (A) (A) (A) (A)
                 (A) (A) (A) (A) (A) (A) (A) (A) (A) (A) (A) (A)
                 (A) (A) (A) (A) (A) (A) (A) (A) (A) (A) (A) (A)
                 (A) (A) (A) (A) (A) (A) (A) (A) (A) (A) (A) (A)
                 (A) (A) (A) (A) (A) (A) (A) (A) (A) (A) (A) (A)
                 (A) (A) (A) (A) (A) (A) (A) (A) (A) (A) (A) (A)
                 (A) (A) (A) (A) (A) (A) (A) (A) (A) (A) (A) (A)
                 (A) (A) (A) (A) (A) (A) (A) (A) (A) (A) (A) (A)
                 (A) (A)
 Harris functional with IExCor=  402 diagonalized for initial guess.
 ExpMin= 1.17D-01 ExpMax= 2.52D+04 ExpMxC= 3.78D+03 IAcc=3 IRadAn=         5 AccDes= 0.00D+00
 HarFok:  IExCor=  402 AccDes= 0.00D+00 IRadAn=         5 IDoV= 1
 ScaDFX=  1.000000  1.000000  1.000000  1.000000
 FoFCou: FMM=F IPFlag=           0 FMFlag=      100000 FMFlg1=           0
         NFxFlg=           0 DoJE=T BraDBF=F KetDBF=T FulRan=T
         Omega=  0.000000  0.000000  1.000000  0.000000  0.000000 ICntrl=     500 IOpCl=  0
         NMat0=    1 NMatS0=    1 NMatT0=    0 NMatD0=    1 NMtDS0=    0 NMtDT0=    0
         I1Cent=           4 NGrid=           0.
 Petite list used in FoFCou.
 Requested convergence on RMS density matrix=1.00D-08 within 128 cycles.
 Requested convergence on MAX density matrix=1.00D-06.
 Requested convergence on             energy=1.00D-06.
 No special actions if energy rises.
 Integral accuracy reduced to 1.0D-05 until final iterations.
 Initial convergence to 1.0D-05 achieved.  Increase integral accuracy.
 SCF Done:  E(RB3LYP) =  -1181.29469889     A.U. after   13 cycles
             Convg  =    0.4791D-08             -V/T =  2.0049
 Calling FoFJK, ICntrl=      2127 FMM=F ISym2X=0 I1Cent= 0 IOpClX= 0 NMat=1 NMatS=1 NMatT=0.
 ***** Axes restored to original set *****
 -------------------------------------------------------------------
 Center     Atomic                   Forces (Hartrees/Bohr)
 Number     Number              X              Y              Z
 -------------------------------------------------------------------
      1        7          -0.000288544   -0.001017289   -0.002527533
      2        6           0.005759059   -0.001238955    0.003023401
      3        8          -0.002087933    0.001454408   -0.000801406
      4        6          -0.002089475   -0.002377388   -0.001401890
      5        6          -0.000295686    0.001388316   -0.000579026
      6        6           0.001102899   -0.000877001    0.001464133
      7        6          -0.000445947   -0.001494450   -0.000730754
      8       17          -0.000625541    0.000153363   -0.001114862
      9       16           0.000299499    0.004076692    0.001382184
     10        1          -0.000658069    0.000002810    0.000617382
     11        1          -0.000572056    0.000018224    0.000666144
     12        1          -0.000104978   -0.000027310    0.000080084
     13        1           0.000006773   -0.000061421   -0.000077858
 -------------------------------------------------------------------
 Cartesian Forces:  Max     0.005759059 RMS     0.001615517

 GradGradGradGradGradGradGradGradGradGradGradGradGradGradGradGradGradGrad
 Berny optimization.
 Using GEDIIS/GDIIS optimizer.
 Internal  Forces:  Max     0.002790255 RMS     0.000910346
 Search for a local minimum.
 Step number   4 out of a maximum of   66
 All quantities printed in internal units (Hartrees-Bohrs-Radians)
 Mixed Optimization -- En-DIIS/RFO-DIIS
 Swaping is turned off.
 Update second derivatives using D2CorX and points    1    2    3    4
 DE= -2.09D-04 DEPred=-3.13D-04 R= 6.66D-01
 SS=  1.41D+00  RLast= 1.77D-01 DXNew= 1.0650D+00 5.3102D-01
 Trust test= 6.66D-01 RLast= 1.77D-01 DXMaxT set to 6.33D-01
 ITU=  1  1  1  0
     Eigenvalues ---    0.00682   0.01729   0.01939   0.01959   0.02019
     Eigenvalues ---    0.02124   0.02183   0.02253   0.02308   0.04950
     Eigenvalues ---    0.15798   0.16001   0.16004   0.16199   0.22718
     Eigenvalues ---    0.23487   0.24783   0.25008   0.25620   0.26012
     Eigenvalues ---    0.32672   0.34012   0.35015   0.35419   0.35668
     Eigenvalues ---    0.38097   0.41243   0.45965   0.46034   0.46374
     Eigenvalues ---    0.49517   0.54472   0.93856
 En-DIIS/RFO-DIIS IScMMF=        0 using points:     4    3
 RFO step:  Lambda=-8.92699323D-05.
 DidBck=T Rises=F RFO-DIIS coefs:    0.75959    0.24041
 Iteration  1 RMS(Cart)=  0.01536682 RMS(Int)=  0.00031058
 Iteration  2 RMS(Cart)=  0.00033800 RMS(Int)=  0.00007451
 Iteration  3 RMS(Cart)=  0.00000009 RMS(Int)=  0.00007451
 Variable       Old X    -DE/DX   Delta X   Delta X   Delta X     New X
                                  (DIIS)     (GDIIS)  (Total)
    R1        2.58240   0.00182   0.00157  -0.00049   0.00107   2.58348
    R2        1.90943  -0.00018  -0.00030   0.00032   0.00001   1.90944
    R3        1.90568   0.00045   0.00004   0.00059   0.00062   1.90631
    R4        2.31120   0.00178   0.00085  -0.00037   0.00048   2.31168
    R5        2.82050  -0.00194  -0.00129  -0.00008  -0.00137   2.81913
    R6        2.58790   0.00139   0.00080   0.00036   0.00117   2.58906
    R7        3.32597  -0.00225  -0.00196   0.00001  -0.00195   3.32402
    R8        2.68381   0.00178  -0.00025   0.00380   0.00354   2.68735
    R9        2.04796  -0.00003  -0.00014   0.00017   0.00003   2.04799
   R10        2.58698  -0.00051   0.00105  -0.00290  -0.00186   2.58512
   R11        2.04751  -0.00009  -0.00011   0.00005  -0.00006   2.04745
   R12        3.27400  -0.00123   0.00046  -0.00313  -0.00267   3.27133
   R13        3.30401  -0.00279  -0.00343   0.00238  -0.00105   3.30296
    A1        2.04383   0.00034  -0.00045  -0.00034  -0.00110   2.04273
    A2        2.15196  -0.00053   0.00195  -0.00833  -0.00669   2.14527
    A3        2.06346  -0.00007   0.00104  -0.00542  -0.00470   2.05876
    A4        2.14502  -0.00149  -0.00046  -0.00263  -0.00307   2.14195
    A5        2.03297   0.00081   0.00030   0.00212   0.00244   2.03541
    A6        2.10466   0.00073   0.00015   0.00099   0.00116   2.10582
    A7        2.16323   0.00102   0.00201  -0.00194   0.00006   2.16330
    A8        2.18224  -0.00022  -0.00152   0.00308   0.00155   2.18380
    A9        1.93770  -0.00080  -0.00049  -0.00115  -0.00162   1.93608
   A10        1.98955  -0.00052  -0.00031   0.00027  -0.00003   1.98952
   A11        2.11701   0.00026   0.00088  -0.00181  -0.00093   2.11608
   A12        2.17662   0.00026  -0.00058   0.00154   0.00096   2.17758
   A13        1.95471  -0.00029  -0.00025   0.00020  -0.00005   1.95466
   A14        2.17873   0.00014  -0.00033   0.00091   0.00058   2.17930
   A15        2.14975   0.00015   0.00057  -0.00110  -0.00053   2.14922
   A16        2.21140   0.00064  -0.00024   0.00257   0.00232   2.21371
   A17        1.96455  -0.00002  -0.00019  -0.00052  -0.00071   1.96384
   A18        2.10710  -0.00062   0.00046  -0.00218  -0.00172   2.10538
   A19        1.57809   0.00162   0.00127   0.00095   0.00224   1.58034
    D1       -0.03581   0.00005   0.01467  -0.02622  -0.01153  -0.04734
    D2        3.14094  -0.00149  -0.00248  -0.04152  -0.04395   3.09698
    D3       -2.93953   0.00133   0.00030   0.04330   0.04355  -2.89598
    D4        0.23722  -0.00021  -0.01685   0.02800   0.01112   0.24835
    D5       -2.91506   0.00044   0.02233  -0.03910  -0.01675  -2.93181
    D6        0.23074   0.00039   0.02205  -0.03810  -0.01604   0.21471
    D7        0.26082  -0.00101   0.00559  -0.05394  -0.04837   0.21245
    D8       -2.87656  -0.00106   0.00530  -0.05295  -0.04766  -2.92422
    D9        3.12850   0.00019   0.00536  -0.00686  -0.00149   3.12701
   D10       -0.01005   0.00007   0.00257  -0.00372  -0.00115  -0.01120
   D11       -0.01679   0.00023   0.00560  -0.00772  -0.00211  -0.01889
   D12        3.12785   0.00011   0.00281  -0.00459  -0.00176   3.12608
   D13       -3.12845  -0.00012  -0.00606   0.01093   0.00489  -3.12356
   D14        0.01688  -0.00017  -0.00631   0.01182   0.00552   0.02240
   D15        0.00692  -0.00016  -0.00140  -0.00239  -0.00379   0.00314
   D16       -3.13720  -0.00012  -0.00228   0.00171  -0.00059  -3.13778
   D17       -3.13783  -0.00004   0.00150  -0.00566  -0.00415   3.14121
   D18        0.00124   0.00000   0.00061  -0.00156  -0.00095   0.00029
   D19        3.12981   0.00000  -0.00087   0.00288   0.00200   3.13181
   D20        0.00637   0.00001  -0.00355   0.01156   0.00801   0.01438
   D21       -0.00931  -0.00003   0.00000  -0.00114  -0.00114  -0.01045
   D22       -3.13274  -0.00002  -0.00267   0.00754   0.00487  -3.12787
   D23       -0.01326   0.00008   0.00564  -0.01343  -0.00781  -0.02107
   D24       -3.13792   0.00007   0.00314  -0.00539  -0.00227  -3.14018
         Item               Value     Threshold  Converged?
 Maximum Force            0.002790     0.000450     NO 
 RMS     Force            0.000910     0.000300     NO 
 Maximum Displacement     0.064821     0.001800     NO 
 RMS     Displacement     0.015349     0.001200     NO 
 Predicted change in Energy=-1.230497D-04
 GradGradGradGradGradGradGradGradGradGradGradGradGradGradGradGradGradGrad

                          Input orientation:                          
 ---------------------------------------------------------------------
 Center     Atomic      Atomic             Coordinates (Angstroms)
 Number     Number       Type             X           Y           Z
 ---------------------------------------------------------------------
      1          7           0        1.715858   -1.126884   -0.465892
      2          6           0        2.270927    0.067125   -0.098126
      3          8           0        2.155347    1.084307   -0.767769
      4          6           0        3.043112    0.080391    1.178229
      5          6           0        3.458405    1.223328    1.809359
      6          6           0        4.162977    0.990542    3.022500
      7          6           0        4.279080   -0.344058    3.299536
      8         17           0        5.071645   -1.055663    4.664167
      9         16           0        3.548604   -1.348982    2.070099
     10          1           0        1.158318   -1.134094   -1.308549
     11          1           0        1.628094   -1.908341    0.165967
     12          1           0        3.248599    2.202368    1.394657
     13          1           0        4.565847    1.765761    3.663303
 ---------------------------------------------------------------------
                    Distance matrix (angstroms):
                    1          2          3          4          5
     1  N    0.000000
     2  C    1.367118   0.000000
     3  O    2.274565   1.223290   0.000000
     4  C    2.433567   1.491820   2.362813   0.000000
     5  C    3.706310   2.526936   2.891172   1.370073   0.000000
     6  C    4.758231   3.764419   4.290164   2.341753   1.422083
     7  C    4.621836   3.968105   4.805563   2.491529   2.313187
     8  Cl   6.130570   5.637739   6.526117   4.190146   3.993279
     9  S    3.136803   2.887736   3.989431   1.758994   2.587065
    10  H    1.010433   2.036161   2.491548   3.348356   4.535327
    11  H    1.008773   2.094146   3.178962   2.642348   3.982226
    12  H    4.110335   2.782715   2.668585   2.142861   1.083750
    13  H    5.791380   4.722327   5.090118   3.366718   2.226605
                    6          7          8          9         10
     6  C    0.000000
     7  C    1.367986   0.000000
     8  Cl   2.776276   1.731115   0.000000
     9  S    2.599596   1.747851   3.022397   0.000000
    10  H    5.683312   5.621188   7.140982   4.144262   0.000000
    11  H    4.794678   4.392489   5.728779   2.761695   1.730418
    12  H    2.225866   3.342864   4.962657   3.627439   4.775832
    13  H    1.083466   2.160069   3.036115   3.643448   6.688776
                   11         12         13
    11  H    0.000000
    12  H    4.586244   0.000000
    13  H    5.861807   2.659422   0.000000
 Stoichiometry    C5H4ClNOS
 Framework group  C1[X(C5H4ClNOS)]
 Deg. of freedom    33
 Full point group                 C1      NOp   1
 Largest Abelian subgroup         C1      NOp   1
 Largest concise Abelian subgroup C1      NOp   1
                         Standard orientation:                         
 ---------------------------------------------------------------------
 Center     Atomic      Atomic             Coordinates (Angstroms)
 Number     Number       Type             X           Y           Z
 ---------------------------------------------------------------------
      1          7           0       -2.850409   -1.277617    0.150008
      2          6           0       -2.437101    0.014752   -0.017234
      3          8           0       -3.217503    0.943498   -0.174856
      4          6           0       -0.964450    0.252723   -0.003189
      5          6           0       -0.390787    1.494066    0.080942
      6          6           0        1.031072    1.474109    0.096387
      7          6           0        1.526451    0.201326    0.018859
      8         17           0        3.193743   -0.263755   -0.005547
      9         16           0        0.264417   -1.002241   -0.098110
     10          1           0       -3.847096   -1.440732    0.181334
     11          1           0       -2.240732   -2.009490    0.482092
     12          1           0       -0.996842    2.391014    0.132892
     13          1           0        1.662141    2.352375    0.161949
 ---------------------------------------------------------------------
 Rotational constants (GHZ):      3.4942656      0.6410007      0.5435176
 Standard basis: 6-31G(d) (6D, 7F)
 There are   151 symmetry adapted basis functions of A   symmetry.
 Integral buffers will be    131072 words long.
 Raffenetti 2 integral format.
 Two-electron integral symmetry is turned on.
   151 basis functions,   316 primitive gaussians,   151 cartesian basis functions
    41 alpha electrons       41 beta electrons
       nuclear repulsion energy       564.1227460774 Hartrees.
 NAtoms=   13 NActive=   13 NUniq=   13 SFac= 1.00D+00 NAtFMM=   60 NAOKFM=F Big=F
 One-electron integrals computed using PRISM.
 NBasis=   151 RedAO= T  NBF=   151
 NBsUse=   151 1.00D-06 NBFU=   151
 Initial guess read from the read-write file.
 B after Tr=     0.000000    0.000000    0.000000
         Rot=    1.000000    0.000000    0.000000    0.000000 Ang=   0.00 deg.
 Initial guess orbital symmetries:
       Occupied  (A) (A) (A) (A) (A) (A) (A) (A) (A) (A) (A) (A)
                 (A) (A) (A) (A) (A) (A) (A) (A) (A) (A) (A) (A)
                 (A) (A) (A) (A) (A) (A) (A) (A) (A) (A) (A) (A)
                 (A) (A) (A) (A) (A)
       Virtual   (A) (A) (A) (A) (A) (A) (A) (A) (A) (A) (A) (A)
                 (A) (A) (A) (A) (A) (A) (A) (A) (A) (A) (A) (A)
                 (A) (A) (A) (A) (A) (A) (A) (A) (A) (A) (A) (A)
                 (A) (A) (A) (A) (A) (A) (A) (A) (A) (A) (A) (A)
                 (A) (A) (A) (A) (A) (A) (A) (A) (A) (A) (A) (A)
                 (A) (A) (A) (A) (A) (A) (A) (A) (A) (A) (A) (A)
                 (A) (A) (A) (A) (A) (A) (A) (A) (A) (A) (A) (A)
                 (A) (A) (A) (A) (A) (A) (A) (A) (A) (A) (A) (A)
                 (A) (A) (A) (A) (A) (A) (A) (A) (A) (A) (A) (A)
                 (A) (A)
 Harris functional with IExCor=  402 diagonalized for initial guess.
 ExpMin= 1.17D-01 ExpMax= 2.52D+04 ExpMxC= 3.78D+03 IAcc=3 IRadAn=         5 AccDes= 0.00D+00
 HarFok:  IExCor=  402 AccDes= 0.00D+00 IRadAn=         5 IDoV= 1
 ScaDFX=  1.000000  1.000000  1.000000  1.000000
 FoFCou: FMM=F IPFlag=           0 FMFlag=      100000 FMFlg1=           0
         NFxFlg=           0 DoJE=T BraDBF=F KetDBF=T FulRan=T
         Omega=  0.000000  0.000000  1.000000  0.000000  0.000000 ICntrl=     500 IOpCl=  0
         NMat0=    1 NMatS0=    1 NMatT0=    0 NMatD0=    1 NMtDS0=    0 NMtDT0=    0
         I1Cent=           4 NGrid=           0.
 Petite list used in FoFCou.
 Requested convergence on RMS density matrix=1.00D-08 within 128 cycles.
 Requested convergence on MAX density matrix=1.00D-06.
 Requested convergence on             energy=1.00D-06.
 No special actions if energy rises.
 Integral accuracy reduced to 1.0D-05 until final iterations.
 Initial convergence to 1.0D-05 achieved.  Increase integral accuracy.
 SCF Done:  E(RB3LYP) =  -1181.29484936     A.U. after   12 cycles
             Convg  =    0.4488D-08             -V/T =  2.0049
 Calling FoFJK, ICntrl=      2127 FMM=F ISym2X=0 I1Cent= 0 IOpClX= 0 NMat=1 NMatS=1 NMatT=0.
 ***** Axes restored to original set *****
 -------------------------------------------------------------------
 Center     Atomic                   Forces (Hartrees/Bohr)
 Number     Number              X              Y              Z
 -------------------------------------------------------------------
      1        7           0.000777961   -0.001865328   -0.002076382
      2        6           0.001099658    0.000441527    0.004189062
      3        8          -0.000043200    0.001032005   -0.001321246
      4        6          -0.000299774   -0.002098424   -0.001576926
      5        6           0.000130349    0.001024803    0.000103890
      6        6           0.000037648    0.000239327    0.000444795
      7        6          -0.000178434   -0.002081885   -0.001595515
      8       17          -0.000314505    0.000060212   -0.000552522
      9       16          -0.000120576    0.003044393    0.001399057
     10        1          -0.000470501    0.000234944    0.000478403
     11        1          -0.000408303   -0.000093355    0.000422731
     12        1          -0.000084214   -0.000005988    0.000195541
     13        1          -0.000126109    0.000067770   -0.000110889
 -------------------------------------------------------------------
 Cartesian Forces:  Max     0.004189062 RMS     0.001219217

 GradGradGradGradGradGradGradGradGradGradGradGradGradGradGradGradGradGrad
 Berny optimization.
 Using GEDIIS/GDIIS optimizer.
 Internal  Forces:  Max     0.002536680 RMS     0.000674704
 Search for a local minimum.
 Step number   5 out of a maximum of   66
 All quantities printed in internal units (Hartrees-Bohrs-Radians)
 Mixed Optimization -- En-DIIS/RFO-DIIS
 Swaping is turned off.
 Update second derivatives using D2CorX and points    1    2    3    4    5
 DE= -1.50D-04 DEPred=-1.23D-04 R= 1.22D+00
 SS=  1.41D+00  RLast= 9.81D-02 DXNew= 1.0650D+00 2.9440D-01
 Trust test= 1.22D+00 RLast= 9.81D-02 DXMaxT set to 6.33D-01
 ITU=  1  1  1  1  0
     Eigenvalues ---    0.00394   0.01729   0.01958   0.01983   0.02051
     Eigenvalues ---    0.02124   0.02136   0.02310   0.03420   0.05403
     Eigenvalues ---    0.15973   0.15996   0.16054   0.16368   0.22721
     Eigenvalues ---    0.23260   0.24799   0.24865   0.25147   0.26785
     Eigenvalues ---    0.31268   0.33839   0.34474   0.35434   0.35669
     Eigenvalues ---    0.38204   0.41415   0.45860   0.46024   0.46047
     Eigenvalues ---    0.49960   0.56074   0.94423
 En-DIIS/RFO-DIIS IScMMF=        0 using points:     5    4    3
 RFO step:  Lambda=-5.36679357D-05.
 DidBck=F Rises=F RFO-DIIS coefs:    1.35037   -0.27136   -0.07901
 Iteration  1 RMS(Cart)=  0.02600060 RMS(Int)=  0.00087435
 Iteration  2 RMS(Cart)=  0.00071717 RMS(Int)=  0.00058167
 Iteration  3 RMS(Cart)=  0.00000059 RMS(Int)=  0.00058167
 Variable       Old X    -DE/DX   Delta X   Delta X   Delta X     New X
                                  (DIIS)     (GDIIS)  (Total)
    R1        2.58348   0.00186  -0.00014   0.00377   0.00364   2.58711
    R2        1.90944  -0.00014   0.00010  -0.00008   0.00002   1.90946
    R3        1.90631   0.00037   0.00021   0.00127   0.00147   1.90778
    R4        2.31168   0.00159  -0.00011   0.00148   0.00137   2.31306
[...]
   A14        2.17898  -0.00002   0.00000  -0.00024  -0.00024   2.17875
   A15        2.15155   0.00001   0.00000   0.00016   0.00016   2.15171
   A16        2.21329   0.00006   0.00000   0.00040   0.00040   2.21369
   A17        1.96551  -0.00002   0.00000  -0.00013  -0.00013   1.96538
   A18        2.10425  -0.00004   0.00000  -0.00026  -0.00026   2.10399
   A19        1.58335   0.00002   0.00000   0.00005   0.00005   1.58340
    D1       -0.15882  -0.00001   0.00000  -0.00061  -0.00061  -0.15943
    D2        3.01161  -0.00001   0.00000  -0.00064  -0.00064   3.01097
    D3       -2.74383   0.00000   0.00000   0.00022   0.00022  -2.74361
    D4        0.42660   0.00000   0.00000   0.00019   0.00019   0.42678
    D5       -2.96374   0.00000   0.00000   0.00065   0.00065  -2.96308
    D6        0.18051   0.00000   0.00000   0.00077   0.00077   0.18128
    D7        0.20621   0.00000   0.00000   0.00062   0.00062   0.20683
    D8       -2.93273   0.00000   0.00000   0.00074   0.00074  -2.93199
    D9        3.13078  -0.00001   0.00000  -0.00015  -0.00015   3.13063
   D10       -0.00721   0.00000   0.00000   0.00006   0.00006  -0.00715
   D11       -0.01314  -0.00001   0.00000  -0.00026  -0.00026  -0.01340
   D12        3.13205   0.00000   0.00000  -0.00004  -0.00004   3.13201
   D13       -3.12901   0.00000   0.00000   0.00001   0.00001  -3.12900
   D14        0.01493   0.00000   0.00000   0.00011   0.00011   0.01505
   D15        0.00314   0.00001   0.00000   0.00030   0.00030   0.00344
   D16       -3.13972   0.00001   0.00000   0.00016   0.00016  -3.13955
   D17        3.14099   0.00000   0.00000   0.00008   0.00008   3.14107
   D18       -0.00187   0.00000   0.00000  -0.00006  -0.00006  -0.00193
   D19        3.13273   0.00000   0.00000  -0.00013  -0.00013   3.13260
   D20        0.00854  -0.00001   0.00000  -0.00021  -0.00021   0.00833
   D21       -0.00762   0.00000   0.00000   0.00001   0.00001  -0.00761
   D22       -3.13181   0.00000   0.00000  -0.00007  -0.00007  -3.13189
   D23       -0.01345   0.00000   0.00000   0.00006   0.00006  -0.01339
   D24       -3.13886   0.00000   0.00000  -0.00003  -0.00003  -3.13889
         Item               Value     Threshold  Converged?
 Maximum Force            0.000058     0.000450     YES
 RMS     Force            0.000018     0.000300     YES
 Maximum Displacement     0.001283     0.001800     YES
 RMS     Displacement     0.000474     0.001200     YES
 Predicted change in Energy=-6.575691D-08
 Optimization completed.
    -- Stationary point found.
                           ----------------------------
                           !   Optimized Parameters   !
                           ! (Angstroms and Degrees)  !
 --------------------------                            --------------------------
 ! Name  Definition              Value          Derivative Info.                !
 --------------------------------------------------------------------------------
 ! R1    R(1,2)                  1.3754         -DE/DX =    0.0                 !
 ! R2    R(1,10)                 1.0117         -DE/DX =    0.0                 !
 ! R3    R(1,11)                 1.0108         -DE/DX =    0.0                 !
 ! R4    R(2,3)                  1.2239         -DE/DX =    0.0                 !
 ! R5    R(2,4)                  1.4861         -DE/DX =    0.0                 !
 ! R6    R(4,5)                  1.3723         -DE/DX =    0.0                 !
 ! R7    R(4,9)                  1.7544         -DE/DX =    0.0                 !
 ! R8    R(5,6)                  1.4216         -DE/DX =    0.0                 !
 ! R9    R(5,12)                 1.0836         -DE/DX =    0.0                 !
 ! R10   R(6,7)                  1.3695         -DE/DX =    0.0                 !
 ! R11   R(6,13)                 1.0833         -DE/DX =    0.0                 !
 ! R12   R(7,8)                  1.7303         -DE/DX =    0.0                 !
 ! R13   R(7,9)                  1.7408         -DE/DX =    0.0                 !
 ! A1    A(2,1,10)             115.2063         -DE/DX =    0.0                 !
 ! A2    A(2,1,11)             120.8153         -DE/DX =    0.0                 !
 ! A3    A(10,1,11)            116.2058         -DE/DX =    0.0                 !
 ! A4    A(1,2,3)              122.4715         -DE/DX =    0.0                 !
 ! A5    A(1,2,4)              116.6163         -DE/DX =    0.0                 !
 ! A6    A(3,2,4)              120.8913         -DE/DX =    0.0                 !
 ! A7    A(2,4,5)              124.2327         -DE/DX =    0.0                 !
 ! A8    A(2,4,9)              124.8441         -DE/DX =    0.0                 !
 ! A9    A(5,4,9)              110.9231         -DE/DX =    0.0                 !
 ! A10   A(4,5,6)              113.8549         -DE/DX =    0.0                 !
 ! A11   A(4,5,12)             121.3677         -DE/DX =    0.0                 !
 ! A12   A(6,5,12)             124.777          -DE/DX =    0.0                 !
 ! A13   A(5,6,7)              111.8788         -DE/DX =    0.0                 !
 ! A14   A(5,6,13)             124.8466         -DE/DX =    0.0                 !
 ! A15   A(7,6,13)             123.2745         -DE/DX =    0.0                 !
 ! A16   A(6,7,8)              126.8121         -DE/DX =    0.0001              !
 ! A17   A(6,7,9)              112.6156         -DE/DX =    0.0                 !
 ! A18   A(8,7,9)              120.5649         -DE/DX =    0.0                 !
 ! A19   A(4,9,7)               90.7191         -DE/DX =    0.0                 !
 ! D1    D(10,1,2,3)            -9.0999         -DE/DX =    0.0                 !
 ! D2    D(10,1,2,4)           172.5524         -DE/DX =    0.0                 !
 ! D3    D(11,1,2,3)          -157.2101         -DE/DX =    0.0                 !
 ! D4    D(11,1,2,4)            24.4423         -DE/DX =    0.0                 !
 ! D5    D(1,2,4,5)           -169.8096         -DE/DX =    0.0                 !
 ! D6    D(1,2,4,9)             10.3425         -DE/DX =    0.0                 !
 ! D7    D(3,2,4,5)             11.8148         -DE/DX =    0.0                 !
 ! D8    D(3,2,4,9)           -168.0331         -DE/DX =    0.0                 !
 ! D9    D(2,4,5,6)            179.3806         -DE/DX =    0.0                 !
 ! D10   D(2,4,5,12)            -0.4131         -DE/DX =    0.0                 !
 ! D11   D(9,4,5,6)             -0.7531         -DE/DX =    0.0                 !
 ! D12   D(9,4,5,12)           179.4533         -DE/DX =    0.0                 !
 ! D13   D(2,4,9,7)           -179.2791         -DE/DX =    0.0                 !
 ! D14   D(5,4,9,7)              0.8555         -DE/DX =    0.0                 !
 ! D15   D(4,5,6,7)              0.1799         -DE/DX =    0.0                 !
 ! D16   D(4,5,6,13)          -179.8926         -DE/DX =    0.0                 !
 ! D17   D(12,5,6,7)           179.9654         -DE/DX =    0.0                 !
 ! D18   D(12,5,6,13)           -0.1071         -DE/DX =    0.0                 !
 ! D19   D(5,6,7,8)            179.4922         -DE/DX =    0.0                 !
 ! D20   D(5,6,7,9)              0.4892         -DE/DX =    0.0                 !
 ! D21   D(13,6,7,8)            -0.4367         -DE/DX =    0.0                 !
 ! D22   D(13,6,7,9)          -179.4397         -DE/DX =    0.0                 !
 ! D23   D(6,7,9,4)             -0.7706         -DE/DX =    0.0                 !
 ! D24   D(8,7,9,4)           -179.8436         -DE/DX =    0.0                 !
 --------------------------------------------------------------------------------
 GradGradGradGradGradGradGradGradGradGradGradGradGradGradGradGradGradGrad

 1\1\GINC-NODE064\Freq\RB3LYP\6-31G(d)\C5H4Cl1N1O1S1\WULSDORT\24-Aug-20
 18\0\\#N Geom=AllCheck Guess=TCheck SCRF=Check GenChk RB3LYP/6-31G(d) 
 Freq\\Optimization for frag41-conf0\\0,1\N,1.7686500842,-1.1549496863,
 -0.4887250888\C,2.2831393843,0.0597079337,-0.0993397278\O,2.1539357665
 ,1.0741087228,-0.7719046271\C,3.0472134846,0.0814235187,1.1751502136\C
 ,3.4545228584,1.2269158475,1.811628935\C,4.159022287,0.9916570855,3.02
 37644601\C,4.2814213029,-0.3457669303,3.29155363\Cl,5.07471019,-1.0623
 470168,4.6520974679\S,3.5526424309,-1.3434400513,2.0652539819\H,1.1557
 047745,-1.1253550045,-1.2930344358\H,1.57865975,-1.8787007655,0.190906
 0986\H,3.239156648,2.2067830756,1.4020905436\H,4.5580350235,1.76576405
 56,3.6680413065\\Version=AM64L-G09RevC.01\HF=-1181.2950939\RMSD=5.392e
 -09\RMSF=3.156e-05\ZeroPoint=0.0846167\Thermal=0.0931636\Dipole=-0.393
 9312,-0.6342837,0.4117969\DipoleDeriv=-0.6329869,-0.0770651,-0.0668801
 ,-0.2748815,-0.9600018,-0.4350104,-0.1667229,-0.4057886,-0.5891443,0.8
 975159,0.2507212,0.8089313,0.3771808,1.3992103,0.1313066,0.7587816,-0.
 0719708,1.5745463,-0.5685451,0.0399678,-0.3111345,0.0279989,-0.9070053
 ,0.300761,-0.2782499,0.3555738,-0.9637513,-0.3294811,-0.0968889,-0.344
 3909,-0.1900672,0.258197,-0.2711569,-0.3101556,-0.1475837,-0.6406619,0
 .0225006,-0.0856218,0.1347372,0.0428777,-0.1045065,0.0651777,0.1148007
 ,-0.1629082,0.1437471,-0.1432318,0.1296086,-0.0749043,0.1362058,-0.256
 2174,0.2223618,-0.0757873,0.2181067,-0.2270532,0.1710592,-0.0672709,0.
 496275,-0.1829505,0.4705779,-0.3143558,0.484144,-0.1184383,0.7191336,-
 0.213485,0.1120507,-0.3374365,0.1367363,-0.1580051,0.233774,-0.3360465
 ,0.1902503,-0.5904517,0.0496542,-0.0361718,-0.1108538,-0.0512298,-0.23
 78659,-0.0634096,-0.0774329,-0.0253926,-0.0065367,0.235289,-0.0652324,
 -0.086068,-0.0055081,0.1960519,0.0797351,-0.0250324,0.0682279,0.261277
 4,0.2661878,-0.090729,-0.024809,-0.0006581,0.2325201,0.0744687,-0.0102
 78,0.1072371,0.1555672,0.1268381,0.0124208,-0.026293,0.0199843,0.02859
 26,0.0335385,-0.0210023,0.0315587,0.1036625,0.118685,-0.0257892,-0.057
 1735,-0.0356885,0.0384524,-0.0571905,-0.0570184,-0.0388723,0.0596652\P
 olar=61.2937308,0.4056083,91.0280713,40.510733,-7.7797936,105.1751714\
 PG=C01 [X(C5H4Cl1N1O1S1)]\NImag=0\\0.32111867,0.21261301,0.64400466,0.
 25927306,-0.18191777,0.66721254,-0.10903037,-0.07282871,-0.05495017,0.
 31728861,-0.10340151,-0.25567600,-0.03924397,0.06191977,0.85822830,-0.
 06802927,-0.04529415,-0.14604765,0.17778785,-0.19546575,0.59434727,0.0
 2029009,-0.02158183,0.01025391,-0.09139411,0.04898773,-0.04919469,0.06
 203532,-0.00701578,-0.08715019,0.03131791,0.04137772,-0.49652812,0.262
 60466,-0.04601876,0.58777529,0.00447421,0.01232576,0.02841877,-0.04654
 920,0.27322243,-0.28013241,0.06552002,-0.32630175,0.29273362,-0.004215
 18,-0.00882159,-0.02074892,-0.10145222,-0.01905948,-0.05897565,0.00712
 748,0.01710887,-0.02131115,0.23669442,-0.02278967,-0.00295566,-0.03484
 205,-0.00247933,-0.08834078,-0.00410454,0.01548616,-0.00408206,0.03606
 684,0.07600703,0.55038400,-0.01555906,-0.01328812,-0.01397339,-0.06129
 256,-0.02414244,-0.15647894,-0.02323231,0.03647069,-0.03525430,0.23020
 332,0.09257044,0.47727821,0.00022412,0.00263864,-0.00128812,-0.0077162
 3,-0.01239535,-0.01558174,0.00031434,-0.00343136,0.00225825,-0.0891935
 4,-0.06563793,-0.05129867,0.25934612,0.00255644,0.00336751,0.00473215,
 -0.00715509,0.01020971,-0.01440635,0.00135084,-0.00609461,0.00358184,-
 0.07927778,-0.31864151,-0.12052077,-0.00424499,0.78996867,-0.00218619,
 0.00481136,-0.00130670,-0.01378070,-0.02153953,-0.02212854,0.00098875,
 -0.00587376,0.00242571,-0.05162619,-0.09909360,-0.14084887,0.22262160,
 -0.03595629,0.50809816,-0.00095370,-0.00071735,-0.00115342,0.00640730,
 -0.00306636,0.00142035,-0.00025008,0.00170048,-0.00074493,-0.00773465,
 -0.02643992,-0.02748546,-0.11723256,0.02518449,-0.10011693,0.26009097,
 -0.00053739,0.00351620,0.00059613,-0.00570359,-0.00627461,-0.00816867,
 0.00165858,-0.00001088,0.00216708,-0.00186086,0.02020702,-0.00445917,0
 .00042426,-0.11724795,0.00400906,0.05823820,0.75431644,-0.00133151,-0.
 00102932,-0.00266898,0.00051497,-0.00546970,0.00780071,-0.00029353,0.0
 0279181,-0.00078928,-0.02790738,-0.04450062,-0.03605624,-0.09869847,0.
 04454597,-0.23071617,0.24189520,0.07124443,0.52540620,0.00055182,-0.00
 130003,-0.00009531,-0.00052001,0.00130803,0.00152274,0.00024107,-0.000
 45993,0.00004557,-0.00448428,0.00367242,-0.02233766,0.00231243,0.01343
 672,-0.01056235,-0.06375836,0.02668157,-0.02016856,0.17023972,-0.00130
 694,-0.00239546,-0.00285570,0.00401866,-0.00737407,0.00669607,0.000022
 63,0.00098414,0.00110768,-0.00465028,-0.02105528,-0.00636656,0.0409366
 8,-0.00612462,0.06904558,0.00423081,-0.39109915,0.02323723,-0.03455855
 ,0.59089503,0.00037056,-0.00126924,-0.00007188,0.00271468,0.00266092,0
 .00141194,-0.00075939,-0.00088236,0.00011066,-0.02217119,0.00739746,-0
 .02970095,-0.01133026,0.02326745,-0.01218169,-0.01954793,0.06031826,-0
 .08785279,0.15750909,-0.07868496,0.34931083,-0.00042453,-0.00091876,-0
 .00043449,0.00377434,0.00133859,0.00152901,-0.00150464,0.00072874,-0.0
 0135007,-0.00224182,-0.00047954,-0.00421748,0.00332084,0.00056542,-0.0
 0176639,-0.00198618,0.00278274,-0.00855361,-0.05384914,0.03208667,-0.0
 6524440,0.06183885,0.00027592,0.00081575,0.00065139,-0.00133532,0.0003
 3655,-0.00192323,0.00037915,-0.00005748,0.00043907,0.00065795,-0.00330
 968,0.00124333,-0.00142137,-0.00445437,-0.00192083,0.01750599,-0.00516
 998,0.02962730,0.02712897,-0.06536346,0.04741802,-0.04161167,0.0680824
 5,-0.00058816,-0.00154529,-0.00113585,0.00177013,0.00217746,0.00519259
 ,-0.00087795,0.00095084,-0.00264815,-0.00451927,-0.00066882,-0.0069567
 4,-0.00149681,0.00166655,0.00178761,-0.00956371,0.00546144,-0.01298020
 ,-0.06457028,0.05507761,-0.12736846,0.08876834,-0.07216865,0.16259535,
 -0.00058193,0.00020754,-0.00136446,-0.00531585,0.01333997,-0.00062818,
 0.00097012,-0.00107864,-0.00357740,-0.04366917,0.03473489,-0.02133634,
 0.00267124,0.00448493,-0.00721360,0.00246817,-0.01701019,-0.00696194,-
 0.05432737,-0.04402125,-0.03816427,-0.00710516,-0.00225731,-0.01024954
 ,0.09671339,-0.00052579,-0.00103074,-0.00129830,0.00399977,-0.00258329
 ,0.00826080,-0.00097070,0.00503893,-0.00324162,0.01453749,-0.10822735,
 0.02626960,-0.01173110,-0.06238453,-0.01745395,0.00211225,-0.05388442,
 0.00567788,-0.02485403,-0.08226508,-0.04122865,0.00539200,0.00737513,0
 .00909501,0.01386491,0.30288784,-0.00040691,-0.00117504,0.00003737,-0.
 00079465,0.02314893,-0.00772850,-0.00388180,-0.00122836,-0.00411350,-0
 .02025831,0.06040425,-0.06562967,-0.00740358,0.01023662,-0.00578120,-0
 .00645123,-0.02722912,-0.00461041,-0.04043816,-0.07438524,-0.09568320,
 -0.01004892,-0.00404600,-0.01819309,0.09643422,0.01523636,0.19835368,-
 0.18188355,-0.01562134,-0.22113687,-0.00734682,0.00677561,-0.01061519,
 -0.00138468,0.00106410,0.00444008,0.00331830,-0.00335793,-0.00145042,0
 .00008639,0.00043360,-0.00091158,-0.00026426,-0.00032843,0.00019707,0.
 00024382,0.00008766,-0.00011851,0.00000204,0.00001472,-0.00000506,-0.0
 0015052,-0.00000228,0.00066007,0.18254693,-0.00726588,-0.06278255,0.03
 180243,-0.02376772,0.00801750,-0.03347816,0.00525301,0.00219447,0.0033
 5527,-0.00265077,-0.00569325,0.00015092,-0.00071974,0.00074901,-0.0009
 6329,0.00005896,-0.00018458,-0.00017897,-0.00016509,-0.00019572,-0.000
 47083,0.00005076,0.00000239,0.00010561,0.00011534,-0.00017753,0.000181
 57,0.00944746,0.05516251,-0.19718339,0.02491986,-0.28814548,-0.0098565
 0,-0.00444823,-0.00906077,0.00408513,0.00298097,-0.00129053,-0.0017419
 6,-0.00108348,0.00190755,-0.00066348,0.00013630,-0.00014286,0.00018555
 ,-0.00043534,-0.00003163,-0.00013480,0.00011813,0.00017866,0.00009300,
 -0.00007122,0.00021596,0.00035024,0.00017527,-0.00046446,0.21664987,-0
 .01749281,0.30868197,-0.04484141,-0.09417088,0.03203409,-0.00267784,0.
 00577981,0.01824523,0.00409335,-0.00464982,-0.00297294,-0.00126700,-0.
 00135732,-0.00133605,0.00037544,0.00092213,0.00102728,0.00015047,0.001
 24150,0.00008033,-0.00085592,-0.00058796,-0.00167704,-0.00002709,0.000
 11520,0.00010139,-0.00141546,-0.00106569,-0.00190830,0.00486249,0.0197
 2669,-0.01180357,0.04148792,-0.07259249,-0.24048654,0.19088751,0.00127
 440,-0.01852285,0.02321846,-0.00497142,-0.00447030,-0.00276492,0.00141
 390,0.00102998,-0.00026317,-0.00007269,-0.00079125,-0.00088290,0.00025
 976,-0.00049169,0.00068578,0.00050802,0.00061804,-0.00001121,0.0001984
 8,-0.00011036,0.00025166,-0.00117416,0.00120577,-0.00023168,0.00148143
 ,0.00284181,-0.00474497,0.07370087,0.25916926,0.02111573,0.20256458,-0
 .24186738,0.00258407,-0.00866591,0.01216500,-0.00216161,-0.00406222,0.
 00174076,-0.00024599,-0.00072314,-0.00081103,0.00028621,0.00061218,0.0
 0045016,-0.00023174,0.00036021,-0.00004936,0.00011680,-0.00023593,-0.0
 0128917,0.00000454,-0.00002473,-0.00002083,-0.00187513,-0.00060003,0.0
 0000407,0.01235338,0.01707408,-0.01176211,-0.03190890,-0.20632685,0.24
 133771,0.00008222,0.00048034,-0.00021257,-0.00326160,-0.00084761,0.002
 66369,-0.00037874,0.00054144,-0.00020751,0.00673557,-0.00803250,0.0028
 5180,-0.05240073,0.05260120,-0.03176149,0.00076946,0.01319784,-0.00288
 420,0.00015824,-0.00002721,-0.00305174,0.00017746,0.00070009,-0.000536
 20,0.00482606,-0.00189187,-0.00323654,0.00012067,-0.00004232,-0.000087
 38,0.00013242,0.00005273,0.00007566,0.04430699,-0.00004335,0.00066598,
 0.00000253,0.00077009,-0.00200685,0.00212925,0.00041480,0.00238669,0.0
 0013522,0.00501606,-0.01844374,0.00944060,0.05228995,-0.29902564,0.100
 50841,-0.00107345,0.00396959,-0.00186366,-0.00050845,-0.00026653,-0.00
 079766,-0.00018673,0.00049002,-0.00030545,-0.00069884,-0.00246783,-0.0
 0060942,-0.00003367,-0.00002311,-0.00007183,0.00017996,0.00002815,-0.0
 0002198,-0.05640796,0.31463523,0.00022369,0.00104358,0.00016018,0.0021
 0941,-0.00107239,-0.00031621,-0.00045169,0.00104901,-0.00103594,0.0027
 6404,-0.01289631,0.01011260,-0.03201693,0.10115244,-0.09228921,-0.0023
 9952,0.02234911,-0.00300030,-0.00305013,-0.00025474,-0.00327262,-0.000
 52176,0.00120036,-0.00045365,-0.00312440,-0.00312855,0.00160746,-0.000
 06029,0.00003802,-0.00001110,0.00019143,0.00007010,0.00007820,0.035084
 75,-0.10891631,0.08825375,-0.00033627,0.00002096,-0.00017674,0.0012448
 0,-0.00067918,-0.00014414,-0.00015951,0.00013294,-0.00002493,0.0003820
 8,0.00067362,-0.00350913,-0.00210787,-0.01085791,-0.00471221,-0.077706
 58,-0.07878421,-0.07588836,0.00404798,0.00376908,0.00147041,-0.0019749
 9,-0.00015232,0.00176712,0.00491646,0.00113504,-0.00226588,-0.00015083
 ,-0.00004071,0.00010729,-0.00001737,-0.00007882,-0.00011303,-0.0012680
 2,0.00028159,0.00125141,0.07313013,0.00003342,0.00010703,0.00016774,-0
 .00009063,0.00051451,-0.00006837,-0.00001018,0.00001412,-0.00009291,0.
 00157947,-0.00087169,0.00289464,0.00336502,0.01046959,0.00530972,-0.07
 799387,-0.20764599,-0.12476813,-0.01088965,-0.01635784,-0.01771721,0.0
 0005329,0.00136304,-0.00009797,-0.00050720,-0.00348690,-0.00030287,0.0
 0003907,0.00008907,0.00001734,0.00016552,-0.00002003,0.00004974,-0.000
 32417,0.00005803,-0.00063432,0.08457991,0.21576708,-0.00017275,-0.0001
 4622,-0.00061156,-0.00025732,-0.00116184,0.00097551,0.00000516,0.00018
 256,-0.00016541,-0.00346136,0.00147357,-0.00358823,-0.00538801,-0.0190
 4810,-0.00736640,-0.07580623,-0.12621343,-0.15445155,0.00216306,0.0075
 0083,0.00640865,0.00174224,-0.00042481,-0.00003454,-0.00228921,0.00223
 617,0.00220145,-0.00000254,-0.00012383,-0.00007520,-0.00007295,0.00011
 219,0.00002399,0.00130173,0.00037029,0.00016684,0.08223818,0.13524260,
 0.15651643\\0.00000775,-0.00000202,0.00004561,-0.00002864,-0.00001647,
 -0.00004834,0.00000321,0.00001914,0.00001228,0.00000346,0.00001898,-0.
 00003107,0.00000813,-0.00000463,0.00006314,0.00000798,0.00006148,-0.00
 003314,-0.00006270,-0.00007359,-0.00008150,0.00002282,0.00001076,0.000
 03923,0.00002495,-0.00000891,0.00005017,0.00001511,0.00001136,-0.00000
 277,-0.00000042,0.00000189,-0.00000682,-0.00000849,-0.00000449,-0.0000
 1472,0.00000683,-0.00001351,0.00000793\\\@


 A leading authority is anyone who has guessed right more than once.
 -- Frank A. Clark
 Job cpu time:  0 days  0 hours 23 minutes 60.0 seconds.
 File lengths (MBytes):  RWF=     50 Int=      0 D2E=      0 Chk=      3 Scr=      1
 Normal termination of Gaussian 09 at Fri Aug 24 15:06:41 2018.
