 Entering Gaussian System, Link 0=g09
 Initial command:
 /home/fb_chem/chemsoft/lx24-amd64/Gaussian_09_C.01_NBO_3.1_64_istanbul-64/g09/l1.exe /local/2659149.1.parallel/Gau-16432.inp -scrdir=/local/2659149.1.parallel/
 Entering Link 1 = /home/fb_chem/chemsoft/lx24-amd64/Gaussian_09_C.01_NBO_3.1_64_istanbul-64/g09/l1.exe PID=     16437.
  
 Copyright (c) 1988,1990,1992,1993,1995,1998,2003,2009,2011,
            Gaussian, Inc.  All Rights Reserved.
  
 This is part of the Gaussian(R) 09 program.  It is based on
 the Gaussian(R) 03 system (copyright 2003, Gaussian, Inc.),
 the Gaussian(R) 98 system (copyright 1998, Gaussian, Inc.),
 the Gaussian(R) 94 system (copyright 1995, Gaussian, Inc.),
 the Gaussian 92(TM) system (copyright 1992, Gaussian, Inc.),
 the Gaussian 90(TM) system (copyright 1990, Gaussian, Inc.),
 the Gaussian 88(TM) system (copyright 1988, Gaussian, Inc.),
 the Gaussian 86(TM) system (copyright 1986, Carnegie Mellon
 University), and the Gaussian 82(TM) system (copyright 1983,
 Carnegie Mellon University). Gaussian is a federally registered
 trademark of Gaussian, Inc.
  
 This software contains proprietary and confidential information,
 including trade secrets, belonging to Gaussian, Inc.
  
 This software is provided under written license and may be
 used, copied, transmitted, or stored only in accord with that
 written license.
  
 The following legend is applicable only to US Government
 contracts under FAR:
  
                    RESTRICTED RIGHTS LEGEND
  
 Use, reproduction and disclosure by the US Government is
 subject to restrictions as set forth in subparagraphs (a)
 and (c) of the Commercial Computer Software - Restricted
 Rights clause in FAR 52.227-19.
  
 Gaussian, Inc.
 340 Quinnipiac St., Bldg. 40, Wallingford CT 06492
  
  
 ---------------------------------------------------------------
 Warning -- This program may not be used in any manner that
 competes with the business of Gaussian, Inc. or will provide
 assistance to any competitor of Gaussian, Inc.  The licensee
 of this program is prohibited from giving any competitor of
 Gaussian, Inc. access to this program.  By using this program,
 the user acknowledges that Gaussian, Inc. is engaged in the
 business of creating and licensing software in the field of
 computational chemistry and represents and warrants to the
 licensee that it is not a competitor of Gaussian, Inc. and that
 it will not use this program in any manner prohibited above.
 ---------------------------------------------------------------
  

 Cite this work as:
 Gaussian 09, Revision C.01,
 M. J. Frisch, G. W. Trucks, H. B. Schlegel, G. E. Scuseria, 
 M. A. Robb, J. R. Cheeseman, G. Scalmani, V. Barone, B. Mennucci, 
 G. A. Petersson, H. Nakatsuji, M. Caricato, X. Li, H. P. Hratchian, 
 A. F. Izmaylov, J. Bloino, G. Zheng, J. L. Sonnenberg, M. Hada, 
 M. Ehara, K. Toyota, R. Fukuda, J. Hasegawa, M. Ishida, T. Nakajima, 
 Y. Honda, O. Kitao, H. Nakai, T. Vreven, J. A. Montgomery, Jr., 
 J. E. Peralta, F. Ogliaro, M. Bearpark, J. J. Heyd, E. Brothers, 
 K. N. Kudin, V. N. Staroverov, T. Keith, R. Kobayashi, J. Normand, 
 K. Raghavachari, A. Rendell, J. C. Burant, S. S. Iyengar, J. Tomasi, 
 M. Cossi, N. Rega, J. M. Millam, M. Klene, J. E. Knox, J. B. Cross, 
 V. Bakken, C. Adamo, J. Jaramillo, R. Gomperts, R. E. Stratmann, 
 O. Yazyev, A. J. Austin, R. Cammi, C. Pomelli, J. W. Ochterski, 
 R. L. Martin, K. Morokuma, V. G. Zakrzewski, G. A. Voth, 
 P. Salvador, J. J. Dannenberg, S. Dapprich, A. D. Daniels, 
 O. Farkas, J. B. Foresman, J. V. Ortiz, J. Cioslowski, 
 and D. J. Fox, Gaussian, Inc., Wallingford CT, 2010.
 
 ******************************************
 Gaussian 09:  AM64L-G09RevC.01 23-Sep-2011
                24-Aug-2018 
 ******************************************
 %nprocs=2
 Will use up to    2 processors via shared memory.
 %chk=frag41-conf0.chk
 ----------------------------------------------------------------------
 #HF/6-31G* Geom=AllCheck Guess=Read Pop=(MK,ReadRadii) Integral=(Grid=
 UltraFine) iop(6/33=2)
 ----------------------------------------------------------------------
 1/29=7,38=1/1;
 2/12=2,40=1/2;
 3/5=1,6=6,7=1,11=9,14=-4,16=1,25=1,30=1,75=-5,116=-2/1,2,3;
 4/5=1/1;
 5/5=2,38=6/2;
 6/7=2,8=2,9=2,10=2,15=8,20=101,28=1,33=2/1,2;
 99/5=1,9=1/99;
 Structure from the checkpoint file:  frag41-conf0.chk
 -----------------------------
 Optimization for frag41-conf0
 -----------------------------
 Charge =  0 Multiplicity = 1
 Redundant internal coordinates found in file.
 N,0,1.7686500842,-1.1549496863,-0.4887250888
 C,0,2.2831393843,0.0597079337,-0.0993397278
 O,0,2.1539357665,1.0741087228,-0.7719046271
 C,0,3.0472134846,0.0814235187,1.1751502136
 C,0,3.4545228584,1.2269158475,1.811628935
 C,0,4.159022287,0.9916570855,3.0237644601
 C,0,4.2814213029,-0.3457669303,3.29155363
 Cl,0,5.07471019,-1.0623470168,4.6520974679
 S,0,3.5526424309,-1.3434400513,2.0652539819
 H,0,1.1557047745,-1.1253550045,-1.2930344358
 H,0,1.57865975,-1.8787007655,0.1909060986
 H,0,3.239156648,2.2067830756,1.4020905436
 H,0,4.5580350235,1.7657640556,3.6680413065
 Recover connectivity data from disk.
                          Input orientation:                          
 ---------------------------------------------------------------------
 Center     Atomic      Atomic             Coordinates (Angstroms)
 Number     Number       Type             X           Y           Z
 ---------------------------------------------------------------------
      1          7           0        1.768650   -1.154950   -0.488725
      2          6           0        2.283139    0.059708   -0.099340
      3          8           0        2.153936    1.074109   -0.771905
      4          6           0        3.047213    0.081424    1.175150
      5          6           0        3.454523    1.226916    1.811629
      6          6           0        4.159022    0.991657    3.023764
      7          6           0        4.281421   -0.345767    3.291554
      8         17           0        5.074710   -1.062347    4.652097
      9         16           0        3.552642   -1.343440    2.065254
     10          1           0        1.155705   -1.125355   -1.293034
     11          1           0        1.578660   -1.878701    0.190906
     12          1           0        3.239157    2.206783    1.402091
     13          1           0        4.558035    1.765764    3.668041
 ---------------------------------------------------------------------
                    Distance matrix (angstroms):
                    1          2          3          4          5
     1  N    0.000000
     2  C    1.375396   0.000000
     3  O    2.279767   1.223947   0.000000
     4  C    2.435534   1.486138   2.361015   0.000000
     5  C    3.715788   2.527116   2.896467   1.372282   0.000000
     6  C    4.760187   3.760485   4.293515   2.341371   1.421597
     7  C    4.610781   3.956728   4.801451   2.486951   2.312416
     8  Cl   6.112828   5.623880   6.520365   4.184270   3.991741
     9  S    3.121052   2.875053   3.981255   1.754417   2.584702
    10  H    1.011677   2.024942   2.470968   3.335574   4.522906
    11  H    1.010846   2.082778   3.158644   2.639597   3.973721
    12  H    4.127811   2.788941   2.680841   2.146042   1.083625
    13  H    5.795683   4.720057   5.096195   3.366614   2.225840
                    6          7          8          9         10
     6  C    0.000000
     7  C    1.369451   0.000000
     8  Cl   2.776488   1.730281   0.000000
     9  S    2.595981   1.740770   3.014542   0.000000
    10  H    5.668898   5.603241   7.120896   4.131703   0.000000
    11  H    4.787725   4.389627   5.726345   2.774219   1.717120
    12  H    2.225424   3.342439   4.961755   3.625209   4.765251
    13  H    1.083303   2.162596   3.038673   3.639628   6.674331
                   11         12         13
    11  H    0.000000
    12  H    4.573335   0.000000
    13  H    5.852288   2.658660   0.000000
 Stoichiometry    C5H4ClNOS
 Framework group  C1[X(C5H4ClNOS)]
 Deg. of freedom    33
 Full point group                 C1      NOp   1
 Largest Abelian subgroup         C1      NOp   1
 Largest concise Abelian subgroup C1      NOp   1
                         Standard orientation:                         
 ---------------------------------------------------------------------
 Center     Atomic      Atomic             Coordinates (Angstroms)
 Number     Number       Type             X           Y           Z
 ---------------------------------------------------------------------
      1          7           0       -2.838051   -1.292905    0.114252
      2          6           0       -2.429349    0.013831   -0.016587
      3          8           0       -3.218306    0.936818   -0.170491
      4          6           0       -0.963458    0.257769   -0.000362
      5          6           0       -0.388630    1.501091    0.082592
      6          6           0        1.032720    1.477681    0.095063
      7          6           0        1.522795    0.201339    0.016494
      8         17           0        3.187347   -0.270284   -0.010230
      9         16           0        0.262129   -0.994537   -0.087814
     10          1           0       -3.835753   -1.423882    0.218782
     11          1           0       -2.248081   -1.977054    0.567777
     12          1           0       -0.992493    2.399286    0.135872
     13          1           0        1.665703    2.354598    0.157470
 ---------------------------------------------------------------------
 Rotational constants (GHZ):      3.4906912      0.6435501      0.5451256
 Standard basis: 6-31G(d) (6D, 7F)
 There are   151 symmetry adapted basis functions of A   symmetry.
 Integral buffers will be    131072 words long.
 Raffenetti 1 integral format.
 Two-electron integral symmetry is turned on.
   151 basis functions,   316 primitive gaussians,   151 cartesian basis functions
    41 alpha electrons       41 beta electrons
       nuclear repulsion energy       564.7118779775 Hartrees.
 NAtoms=   13 NActive=   13 NUniq=   13 SFac= 1.00D+00 NAtFMM=   60 NAOKFM=F Big=F
 One-electron integrals computed using PRISM.
 NBasis=   151 RedAO= T  NBF=   151
 NBsUse=   151 1.00D-06 NBFU=   151
 Initial guess read from the checkpoint file:  frag41-conf0.chk
 B after Tr=     0.000000    0.000000    0.000000
         Rot=    1.000000    0.000000    0.000000    0.000000 Ang=   0.00 deg.
 Initial guess orbital symmetries:
       Occupied  (A) (A) (A) (A) (A) (A) (A) (A) (A) (A) (A) (A)
                 (A) (A) (A) (A) (A) (A) (A) (A) (A) (A) (A) (A)
                 (A) (A) (A) (A) (A) (A) (A) (A) (A) (A) (A) (A)
                 (A) (A) (A) (A) (A)
       Virtual   (A) (A) (A) (A) (A) (A) (A) (A) (A) (A) (A) (A)
                 (A) (A) (A) (A) (A) (A) (A) (A) (A) (A) (A) (A)
                 (A) (A) (A) (A) (A) (A) (A) (A) (A) (A) (A) (A)
                 (A) (A) (A) (A) (A) (A) (A) (A) (A) (A) (A) (A)
                 (A) (A) (A) (A) (A) (A) (A) (A) (A) (A) (A) (A)
                 (A) (A) (A) (A) (A) (A) (A) (A) (A) (A) (A) (A)
                 (A) (A) (A) (A) (A) (A) (A) (A) (A) (A) (A) (A)
                 (A) (A) (A) (A) (A) (A) (A) (A) (A) (A) (A) (A)
                 (A) (A) (A) (A) (A) (A) (A) (A) (A) (A) (A) (A)
                 (A) (A)
 Requested convergence on RMS density matrix=1.00D-08 within 128 cycles.
 Requested convergence on MAX density matrix=1.00D-06.
 Requested convergence on             energy=1.00D-06.
 No special actions if energy rises.
 SCF Done:  E(RHF) =  -1177.96490594     A.U. after   15 cycles
             Convg  =    0.5751D-08             -V/T =  2.0011

 **********************************************************************

            Population analysis using the SCF density.

 **********************************************************************

 Orbital symmetries:
 BldTbl:  Degeneracy threshold= 1.00D-02
       Occupied  (A) (A) (A) (A) (A) (A) (A) (A) (A) (A) (A) (A)
                 (A) (A) (A) (A) (A) (A) (A) (A) (A) (A) (A) (A)
                 (A) (A) (A) (A) (A) (A) (A) (A) (A) (A) (A) (A)
                 (A) (A) (A) (A) (A)
       Virtual   (A) (A) (A) (A) (A) (A) (A) (A) (A) (A) (A) (A)
                 (A) (A) (A) (A) (A) (A) (A) (A) (A) (A) (A) (A)
                 (A) (A) (A) (A) (A) (A) (A) (A) (A) (A) (A) (A)
                 (A) (A) (A) (A) (A) (A) (A) (A) (A) (A) (A) (A)
                 (A) (A) (A) (A) (A) (A) (A) (A) (A) (A) (A) (A)
                 (A) (A) (A) (A) (A) (A) (A) (A) (A) (A) (A) (A)
                 (A) (A) (A) (A) (A) (A) (A) (A) (A) (A) (A) (A)
                 (A) (A) (A) (A) (A) (A) (A) (A) (A) (A) (A) (A)
                 (A) (A) (A) (A) (A) (A) (A) (A) (A) (A) (A) (A)
                 (A) (A)
 The electronic state is 1-A.
 Alpha  occ. eigenvalues -- -104.85740 -92.00470 -20.53757 -15.59946 -11.37755
 Alpha  occ. eigenvalues --  -11.35061 -11.28918 -11.27248 -11.26914 -10.59016
 Alpha  occ. eigenvalues --   -9.01387  -8.05966  -8.05607  -8.05599  -6.69638
 Alpha  occ. eigenvalues --   -6.69541  -6.69365  -1.38810  -1.22414  -1.21277
 Alpha  occ. eigenvalues --   -1.14116  -1.01845  -0.99533  -0.86571  -0.76931
 Alpha  occ. eigenvalues --   -0.75985  -0.72691  -0.69039  -0.64194  -0.60054
 Alpha  occ. eigenvalues --   -0.59154  -0.58843  -0.56353  -0.55784  -0.50654
 Alpha  occ. eigenvalues --   -0.48564  -0.47333  -0.43856  -0.42289  -0.37272
 Alpha  occ. eigenvalues --   -0.33854
 Alpha virt. eigenvalues --    0.07070   0.14613   0.18190   0.18611   0.21381
 Alpha virt. eigenvalues --    0.25151   0.27302   0.28110   0.29589   0.31065
 Alpha virt. eigenvalues --    0.36062   0.41373   0.42727   0.46252   0.48428
 Alpha virt. eigenvalues --    0.50044   0.52783   0.54535   0.56586   0.60222
 Alpha virt. eigenvalues --    0.63339   0.65675   0.66115   0.69907   0.74662
 Alpha virt. eigenvalues --    0.75030   0.76912   0.79402   0.80737   0.84634
 Alpha virt. eigenvalues --    0.86437   0.87636   0.88561   0.90349   0.93884
 Alpha virt. eigenvalues --    0.95470   0.97497   0.99660   1.03566   1.04671
 Alpha virt. eigenvalues --    1.07288   1.08954   1.10178   1.10763   1.12670
 Alpha virt. eigenvalues --    1.13288   1.15494   1.17461   1.19433   1.20953
 Alpha virt. eigenvalues --    1.22506   1.24725   1.26780   1.30356   1.32700
 Alpha virt. eigenvalues --    1.33757   1.36336   1.37664   1.43328   1.46303
 Alpha virt. eigenvalues --    1.52742   1.52853   1.57408   1.57696   1.61821
 Alpha virt. eigenvalues --    1.64164   1.67186   1.74321   1.76469   1.87332
 Alpha virt. eigenvalues --    1.96883   1.99087   2.05420   2.10707   2.12543
 Alpha virt. eigenvalues --    2.13763   2.16936   2.20286   2.24756   2.27633
 Alpha virt. eigenvalues --    2.32952   2.42506   2.44626   2.47498   2.52306
 Alpha virt. eigenvalues --    2.53512   2.54824   2.56978   2.63547   2.74252
 Alpha virt. eigenvalues --    2.78745   2.80584   2.88862   2.95524   2.98244
 Alpha virt. eigenvalues --    3.05717   3.13534   3.24456   3.32024   3.40676
 Alpha virt. eigenvalues --    3.49681   4.22275   4.32506   4.41643   4.48292
 Alpha virt. eigenvalues --    4.52081   4.66690   4.75739   4.83958   4.96206
          Condensed to atoms (all electrons):
              1          2          3          4          5          6
     1  N    7.205328   0.316542  -0.093905  -0.128768   0.003180  -0.000017
     2  C    0.316542   4.001513   0.638786   0.321673  -0.020511   0.002859
     3  O   -0.093905   0.638786   8.148927  -0.103556   0.004967   0.000604
     4  C   -0.128768   0.321673  -0.103556   5.581807   0.582528  -0.064638
     5  C    0.003180  -0.020511   0.004967   0.582528   4.848601   0.478530
     6  C   -0.000017   0.002859   0.000604  -0.064638   0.478530   4.974366
     7  C   -0.000030   0.000913  -0.000060  -0.070960  -0.059706   0.554662
     8  Cl   0.000000   0.000001   0.000000   0.002892   0.001912  -0.052776
     9  S    0.003489  -0.027607   0.001602   0.271967  -0.072378  -0.091525
    10  H    0.312347  -0.015698   0.005464   0.006426  -0.000071   0.000000
    11  H    0.310022  -0.014551   0.002301   0.002268  -0.000334   0.000000
    12  H    0.000153  -0.001716   0.004675  -0.028578   0.377932  -0.025859
    13  H    0.000001  -0.000026   0.000001   0.003165  -0.022000   0.381736
              7          8          9         10         11         12
     1  N   -0.000030   0.000000   0.003489   0.312347   0.310022   0.000153
     2  C    0.000913   0.000001  -0.027607  -0.015698  -0.014551  -0.001716
     3  O   -0.000060   0.000000   0.001602   0.005464   0.002301   0.004675
     4  C   -0.070960   0.002892   0.271967   0.006426   0.002268  -0.028578
     5  C   -0.059706   0.001912  -0.072378  -0.000071  -0.000334   0.377932
     6  C    0.554662  -0.052776  -0.091525   0.000000   0.000000  -0.025859
     7  C    5.441020   0.188470   0.312349   0.000001  -0.000057   0.003438
     8  Cl   0.188470  16.848772  -0.044377   0.000000   0.000000  -0.000039
     9  S    0.312349  -0.044377  15.262259  -0.000105   0.002093   0.003064
    10  H    0.000001   0.000000  -0.000105   0.304288  -0.013969  -0.000001
    11  H   -0.000057   0.000000   0.002093  -0.013969   0.317494  -0.000011
    12  H    0.003438  -0.000039   0.003064  -0.000001  -0.000011   0.403252
    13  H   -0.031965  -0.000081   0.002585   0.000000   0.000000  -0.000432
             13
     1  N    0.000001
     2  C   -0.000026
     3  O    0.000001
     4  C    0.003165
     5  C   -0.022000
     6  C    0.381736
     7  C   -0.031965
     8  Cl  -0.000081
     9  S    0.002585
    10  H    0.000000
    11  H    0.000000
    12  H   -0.000432
    13  H    0.423793
 Mulliken atomic charges:
              1
     1  N   -0.928341
     2  C    0.797823
     3  O   -0.609807
     4  C   -0.376227
     5  C   -0.122648
     6  C   -0.157943
     7  C   -0.338075
     8  Cl   0.055225
     9  S    0.376584
    10  H    0.401318
    11  H    0.394745
    12  H    0.264121
    13  H    0.243226
 Sum of Mulliken atomic charges =   0.00000
 Mulliken charges with hydrogens summed into heavy atoms:
              1
     1  N   -0.132278
     2  C    0.797823
     3  O   -0.609807
     4  C   -0.376227
     5  C    0.141473
     6  C    0.085283
     7  C   -0.338075
     8  Cl   0.055225
     9  S    0.376584
 Sum of Mulliken charges with hydrogens summed into heavy atoms =   0.00000
 DipInt: DoE/N= T F RetVal/Mat= T F Init=T NMatP=  1 IDeriv=0 Min/MaxMlt=  0  4
 Entering OneElI...
 OneElI was handed    33493598 working-precision words.
 Multipole integrals L=0 to 4 MinM= 0 MaxM= 0.
 Requested accuracy = 0.1000D-12
 PrsmSu:  NPrtUS=   1 ThrOK=F IAlg=1 NPAlg=1 LenDen=           0.
 Prism:   IPart=     0 DynPar=F LinDyn=F Incr=           9.
 PRISM was handed    33384879 working-precision words and   983 shell-pairs
 IPart=  0 NShTot=         983 NBatch=          58 AvBLen=        16.9
 PrSmSu:  NxtVal=             10.
 Electronic moments (au):
        -82.00000000          0.38277059         -0.57746025          0.55383667
      -1477.11511092       -330.74873873        -54.04685691          8.83017061
         -2.85691597         -0.90524915         42.17748519       -209.22282956
         -1.13267266        351.55509417        278.45035740         33.71139104
          8.46891918          0.55438793        -28.04200947        -76.10270679
     -50412.75156578      -3372.17947032       -207.48830757       1253.85713914
       -175.00106734       -758.54085768        -32.06266949          1.84902063
         -2.72874984      -4385.20250896       -947.99830199       -269.00046287
        341.26456027         35.92470354        -22.91008058
 Electronic spatial extent (au):  <R**2>=           1861.9107
 DipInt: DoE/N= F T RetVal/Mat= T F Init=T NMatP=  1 IDeriv=0 Min/MaxMlt=  0  4
 Nuclear    moments (au):
         82.00000000          0.00000000          0.00000000          0.00000000
       1424.04138007        286.72308202          3.43180026          0.00000000
          0.00000000          0.00000000        -27.12994121        212.10458529
          1.13639397       -354.15828850       -334.35843055        -17.31685896
        -12.25810223         -3.26881736         36.58552042         82.26881559
      45539.67414734       2344.38018170          1.49005010       -889.13572766
         72.69242138        830.64383186         12.31856489         -4.44360150
         -4.95729713       3421.04706759         72.29444906         29.21009398
       -367.87325482        -70.14705212         17.94698600
 Total      moments (au):
          0.00000000          0.38277059         -0.57746025          0.55383667
        -53.07373085        -44.02565671        -50.61505664          8.83017061
         -2.85691597         -0.90524915         15.04754398          2.88175573
          0.00372131         -2.60319433        -55.90807315         16.39453208
         -3.78918305         -2.71442943          8.54351095          6.16610880
      -4873.07741844      -1027.79928862       -205.99825747        364.72141148
       -102.30864596         72.10297417        -19.74410460         -2.59458087
         -7.68604697       -964.15544136       -875.70385293       -239.79036888
        -26.60869455        -34.22234858         -4.96309459
 Traceless Quadrup. (au):
         -3.83558279          5.21249136         -1.37690858          8.83017061
         -2.85691597         -0.90524915
 Charge=              0.0000 electrons
 Dipole moment (field-independent basis, Debye):
    X=              0.9729    Y=             -1.4678    Z=              1.4077  Tot=              2.2544
 Quadrupole moment (field-independent basis, Debye-Ang):
   XX=            -71.3860   YY=            -59.2160   ZZ=            -68.0790
   XY=             11.8769   XZ=             -3.8426   YZ=             -1.2176
 Traceless Quadrupole moment (field-independent basis, Debye-Ang):
   XX=             -5.1590   YY=              7.0110   ZZ=             -1.8520
   XY=             11.8769   XZ=             -3.8426   YZ=             -1.2176
 Octapole moment (field-independent basis, Debye-Ang**2):
  XXX=             10.7103  YYY=              2.0511  ZZZ=              0.0026  XYY=             -1.8529
  XXY=            -39.7932  XXZ=             11.6690  XZZ=             -2.6970  YZZ=             -1.9320
  YYZ=              6.0809  XYZ=              4.3888
 Hexadecapole moment (field-independent basis, Debye-Ang**3):
 XXXX=          -1835.4345 YYYY=           -387.1185 ZZZZ=            -77.5888 XXXY=            137.3716
 XXXZ=            -38.5343 YYYX=             27.1574 YYYZ=             -7.4366 ZZZX=             -0.9772
 ZZZY=             -2.8949 XXYY=           -363.1471 XXZZ=           -329.8320 YYZZ=            -90.3165
 XXYZ=            -10.0221 YYXZ=            -12.8898 ZZXY=             -1.8693
 N-N= 5.647118779775D+02 E-N=-3.920415116323D+03  KE= 1.176648422186D+03
 Entering OneElI...
 OneElI was handed    33447520 working-precision words.
 Calculate electrostatic properties
    NBasis =   151  MinDer = 0  MaxDer = 0
    NGrid  =    13  NMatD  =   1
 Requested accuracy = 0.1000D-12
 PrsmSu:  NPrtUS=   2 ThrOK=T IAlg=1 NPAlg=1 LenDen=           0.
 Prism:   IPart=     0 DynPar=F LinDyn=F Incr=          60.
 PRISM was handed    16652988 working-precision words and   928 shell-pairs
 PRISM was handed    16652988 working-precision words and   928 shell-pairs
 IPart=  0 NShTot=        6214 NBatch=         478 AvBLen=        13.0
 IPart=  1 NShTot=        5850 NBatch=         450 AvBLen=        13.0
 PrSmSu:  NxtVal=            121.
 --------------------------------------------------------
       Center         ----      EFG at Nuclei      ----
                      3XX-RR        3YY-RR        3ZZ-RR
 --------------------------------------------------------
     1   Atom       -0.433299     -0.386389      0.819688
     2   Atom        0.302348      0.203253     -0.505601
     3   Atom        0.568116      0.093814     -0.661930
     4   Atom        0.014614      0.024047     -0.038661
     5   Atom        0.174003      0.190606     -0.364609
     6   Atom        0.136179      0.090670     -0.226849
     7   Atom       -0.236168      0.239536     -0.003368
     8   Atom       -3.559299      1.627674      1.931625
     9   Atom       -2.108464      0.184551      1.923913
    10   Atom       -0.379169      0.159581      0.219587
    11   Atom       -0.032188     -0.081897      0.114085
    12   Atom        0.012900     -0.171282      0.158382
    13   Atom       -0.011363     -0.155123      0.166487
 --------------------------------------------------------
                        XY            XZ            YZ
 --------------------------------------------------------
     1   Atom       -0.068431     -0.155900      0.434677
     2   Atom       -0.074240      0.036885     -0.126552
     3   Atom        1.290169     -0.195853     -0.154250
     4   Atom        0.196512      0.018100      0.008331
     5   Atom       -0.019323      0.007997      0.044988
     6   Atom        0.025986      0.005237      0.022564
     7   Atom       -0.039240     -0.006668      0.010082
     8   Atom        1.483121      0.080263     -0.019665
     9   Atom       -0.104244     -0.056546     -0.137684
    10   Atom       -0.076644      0.061029      0.029648
    11   Atom        0.214285     -0.158186      0.196548
    12   Atom        0.207777      0.014075     -0.019858
    13   Atom       -0.215574     -0.015604     -0.022956
 --------------------------------------------------------


 ---------------------------------------------------------------------------------
              Nuclear Quadrupole in Principal Axis System
 ---------------------------------------------------------------------------------

       Atom             a.u.   MegaHertz   Gauss  10(-4) cm-1        Axes

              Baa    -0.5305   -20.461    -7.301    -6.825  0.2156  0.9365 -0.2766
     1 N(14)  Bbb    -0.4498   -17.348    -6.190    -5.787  0.9692 -0.1707  0.1775
              Bcc     0.9803    37.809    13.491    12.612 -0.1190  0.3063  0.9445
 
              Baa    -0.5282   -70.879   -25.291   -23.643 -0.0288  0.1676  0.9854
     2 C(13)  Bbb     0.1757    23.572     8.411     7.863  0.5288  0.8392 -0.1273
              Bcc     0.3525    47.307    16.880    15.780  0.8483 -0.5174  0.1128
 
              Baa    -0.9810    70.983    25.328    23.677 -0.6415  0.7668 -0.0231
     3 O(17)  Bbb    -0.6884    49.813    17.775    16.616  0.0668  0.0858  0.9941
              Bcc     1.6694  -120.796   -43.103   -40.293  0.7642  0.6362 -0.1063
 
              Baa    -0.1776   -23.833    -8.504    -7.950  0.7163 -0.6959 -0.0516
     4 C(13)  Bbb    -0.0396    -5.320    -1.898    -1.775 -0.0137 -0.0880  0.9960
              Bcc     0.2173    29.153    10.403     9.724  0.6977  0.7127  0.0725
 
              Baa    -0.3684   -49.435   -17.640   -16.490 -0.0176 -0.0808  0.9966
     5 C(13)  Bbb     0.1631    21.880     7.807     7.298  0.8584  0.5098  0.0565
              Bcc     0.2053    27.555     9.832     9.191 -0.5126  0.8565  0.0604
 
              Baa    -0.2285   -30.659   -10.940   -10.227 -0.0094 -0.0698  0.9975
     6 C(13)  Bbb     0.0800    10.732     3.829     3.580 -0.4235  0.9040  0.0593
              Bcc     0.1485    19.927     7.111     6.647  0.9059  0.4219  0.0380
 
              Baa    -0.2395   -32.142   -11.469   -10.721  0.9964  0.0811  0.0247
     7 C(13)  Bbb    -0.0037    -0.494    -0.176    -0.165 -0.0211 -0.0448  0.9988
              Bcc     0.2432    32.636    11.645    10.886 -0.0821  0.9957  0.0429
 
              Baa    -3.9546  -206.974   -73.853   -69.039  0.9664 -0.2568 -0.0140
     8 Cl(35) Bbb     1.9328   101.156    36.095    33.742  0.0089 -0.0211  0.9997
              Bcc     2.0218   105.818    37.758    35.297  0.2570  0.9662  0.0181
 
              Baa    -2.1142   -86.679   -30.929   -28.913  0.9988  0.0462  0.0156
     9 S(33)  Bbb     0.1788     7.333     2.616     2.446 -0.0473  0.9959  0.0770
              Bcc     1.9353    79.346    28.313    26.467 -0.0119 -0.0777  0.9969
 
              Baa    -0.3966  -211.622   -75.512   -70.589  0.9845  0.1412 -0.1043
    10 H(1)   Bbb     0.1634    87.181    31.108    29.080 -0.1672  0.9353 -0.3119
              Bcc     0.2332   124.441    44.404    41.509  0.0535  0.3245  0.9444
 
              Baa    -0.3971  -211.850   -75.593   -70.666 -0.5890  0.6763 -0.4423
    11 H(1)   Bbb     0.1572    83.853    29.921    27.970  0.7861  0.6065 -0.1194
              Bcc     0.2399   127.997    45.673    42.695 -0.1876  0.4180  0.8889
 
              Baa    -0.3077  -164.191   -58.587   -54.768 -0.5447  0.8370  0.0521
    12 H(1)   Bbb     0.1480    78.965    28.177    26.340  0.8329  0.5472 -0.0826
              Bcc     0.1597    85.225    30.410    28.428  0.0977  0.0016  0.9952
 
              Baa    -0.3121  -166.518   -59.418   -55.545  0.5836  0.8100  0.0579
    13 H(1)   Bbb     0.1440    76.818    27.410    25.624  0.8120 -0.5828 -0.0315
              Bcc     0.1681    89.700    32.007    29.921 -0.0082 -0.0654  0.9978
 

 ---------------------------------------------------------------------------------

 No NMR shielding tensors so no spin-rotation constants.
 Leave Link  601 at Fri Aug 24 15:35:56 2018, MaxMem=   33554432 cpu:       0.4
 Merz-Kollman atomic radii used.
 Read replacement radii for each type of atom:
 Atom Element Radius
    1     7    1.50
    2     6    1.50
    3     8    1.40
    4     6    1.50
    5     6    1.50
    6     6    1.50
    7     6    1.50
    8    17    1.70
    9    16    1.75
   10     1    1.20
   11     1    1.20
   12     1    1.20
   13     1    1.20
 Generate VDW surfaces: Layer= 4 Dens= 1 Start= 1.400 Inc= 0.200

 **********************************************************************

            Electrostatic Properties Using The SCF Density

 **********************************************************************

       Atomic Center    1 is at  -2.838051 -1.292905  0.114252
       Atomic Center    2 is at  -2.429349  0.013831 -0.016587
       Atomic Center    3 is at  -3.218306  0.936818 -0.170491
       Atomic Center    4 is at  -0.963458  0.257769 -0.000362
       Atomic Center    5 is at  -0.388630  1.501091  0.082592
       Atomic Center    6 is at   1.032720  1.477681  0.095063
       Atomic Center    7 is at   1.522795  0.201339  0.016494
       Atomic Center    8 is at   3.187347 -0.270284 -0.010230
       Atomic Center    9 is at   0.262129 -0.994537 -0.087814
       Atomic Center   10 is at  -3.835753 -1.423882  0.218782
       Atomic Center   11 is at  -2.248081 -1.977054  0.567777
       Atomic Center   12 is at  -0.992493  2.399286  0.135872
       Atomic Center   13 is at   1.665703  2.354598  0.157470
      ESP Fit Center   14 is at  -2.838051 -1.292905  2.214252
      ESP Fit Center   15 is at  -3.363051 -0.383578  1.932906
      ESP Fit Center   16 is at  -3.888051 -1.292905  1.932906
      ESP Fit Center   17 is at  -3.363051 -2.202231  1.932906
      ESP Fit Center   18 is at  -3.582721 -3.256439  0.114252
      ESP Fit Center   19 is at  -4.029016 -2.667351 -0.935748
      ESP Fit Center   20 is at  -3.096872 -3.093047 -0.935748
      ESP Fit Center   21 is at  -2.082555 -2.947210 -0.935748
      ESP Fit Center   22 is at  -1.788051 -1.292905 -1.704401
      ESP Fit Center   23 is at  -3.888051 -1.292905 -1.704401
      ESP Fit Center   24 is at  -3.363051 -2.202231 -1.704401
      ESP Fit Center   25 is at  -2.313051 -2.202231 -1.704401
      ESP Fit Center   26 is at  -2.838051 -1.292905 -1.985748
      ESP Fit Center   27 is at  -2.429349  0.013831  2.083413
      ESP Fit Center   28 is at  -1.904349  0.923157  1.802067
      ESP Fit Center   29 is at  -2.954349  0.923157  1.802067
      ESP Fit Center   30 is at  -3.479349  0.013831  1.802067
      ESP Fit Center   31 is at  -1.904349  0.923157 -1.835240
      ESP Fit Center   32 is at  -1.904349 -0.895496 -1.835240
      ESP Fit Center   33 is at  -2.429349  0.013831 -2.116587
      ESP Fit Center   34 is at  -3.218306  0.936818  1.789509
      ESP Fit Center   35 is at  -2.728306  1.785523  1.526919
      ESP Fit Center   36 is at  -3.708306  1.785523  1.526919
      ESP Fit Center   37 is at  -4.198306  0.936818  1.526919
      ESP Fit Center   38 is at  -2.693777  2.551151  0.809509
      ESP Fit Center   39 is at  -3.742834  2.551151  0.809509
      ESP Fit Center   40 is at  -4.591539  1.934531  0.809509
      ESP Fit Center   41 is at  -4.915716  0.936818  0.809509
      ESP Fit Center   42 is at  -3.218306  2.896818 -0.170491
      ESP Fit Center   43 is at  -4.198306  2.634228 -0.170491
      ESP Fit Center   44 is at  -4.915716  1.916818 -0.170491
      ESP Fit Center   45 is at  -5.178306  0.936818 -0.170491
      ESP Fit Center   46 is at  -4.915716 -0.043182 -0.170491
      ESP Fit Center   47 is at  -2.693777  2.551151 -1.150491
      ESP Fit Center   48 is at  -3.742834  2.551151 -1.150491
      ESP Fit Center   49 is at  -4.591539  1.934531 -1.150491
      ESP Fit Center   50 is at  -4.915716  0.936818 -1.150491
      ESP Fit Center   51 is at  -4.591539 -0.060894 -1.150491
      ESP Fit Center   52 is at  -2.728306  1.785523 -1.867901
      ESP Fit Center   53 is at  -3.708306  1.785523 -1.867901
      ESP Fit Center   54 is at  -4.198306  0.936818 -1.867901
      ESP Fit Center   55 is at  -3.708306  0.088113 -1.867901
      ESP Fit Center   56 is at  -3.218306  0.936818 -2.130491
      ESP Fit Center   57 is at  -0.963458  0.257769  2.099638
      ESP Fit Center   58 is at  -1.488458 -0.651558  1.818291
      ESP Fit Center   59 is at  -1.488458  1.167095 -1.819015
      ESP Fit Center   60 is at  -1.488458 -0.651558 -1.819015
      ESP Fit Center   61 is at  -0.963458  0.257769 -2.100362
      ESP Fit Center   62 is at  -0.388630  1.501091  2.182592
      ESP Fit Center   63 is at   0.136370  2.410418  1.901245
      ESP Fit Center   64 is at  -0.913630  2.410418  1.901245
      ESP Fit Center   65 is at  -1.438630  1.501091  1.901245
      ESP Fit Center   66 is at   0.136370  0.591764  1.901245
      ESP Fit Center   67 is at   0.136370  2.410418 -1.736062
      ESP Fit Center   68 is at  -0.913630  2.410418 -1.736062
      ESP Fit Center   69 is at  -1.438630  1.501091 -1.736062
      ESP Fit Center   70 is at  -0.388630  1.501091 -2.017408
      ESP Fit Center   71 is at   1.032720  1.477681  2.195063
      ESP Fit Center   72 is at   2.082720  1.477681  1.913717
      ESP Fit Center   73 is at   1.557720  2.387008  1.913717
      ESP Fit Center   74 is at   0.507720  2.387008  1.913717
      ESP Fit Center   75 is at   0.507720  0.568354  1.913717
      ESP Fit Center   76 is at   0.773899  3.277823 -0.954937
      ESP Fit Center   77 is at   2.082720  1.477681 -1.723590
      ESP Fit Center   78 is at   1.557720  2.387008 -1.723590
      ESP Fit Center   79 is at   0.507720  2.387008 -1.723590
      ESP Fit Center   80 is at   1.032720  1.477681 -2.004937
      ESP Fit Center   81 is at   1.522795  0.201339  2.116494
      ESP Fit Center   82 is at   2.047795  1.110666 -1.802160
      ESP Fit Center   83 is at   1.522795  0.201339 -2.083506
      ESP Fit Center   84 is at   3.187347 -0.270284  2.369770
      ESP Fit Center   85 is at   4.219990 -0.270284  2.134075
      ESP Fit Center   86 is at   3.703668  0.624011  2.134075
      ESP Fit Center   87 is at   2.671025  0.624011  2.134075
      ESP Fit Center   88 is at   2.154703 -0.270284  2.134075
      ESP Fit Center   89 is at   2.671025 -1.164580  2.134075
      ESP Fit Center   90 is at   3.703668 -1.164580  2.134075
      ESP Fit Center   91 is at   5.048106 -0.270284  1.473675
      ESP Fit Center   92 is at   4.692732  0.823442  1.473675
      ESP Fit Center   93 is at   3.762353  1.499403  1.473675
      ESP Fit Center   94 is at   2.612341 -2.039971  1.473675
      ESP Fit Center   95 is at   3.762353 -2.039971  1.473675
      ESP Fit Center   96 is at   4.692732 -1.364011  1.473675
      ESP Fit Center   97 is at   5.507675 -0.270284  0.519369
      ESP Fit Center   98 is at   5.241896  0.808026  0.519369
      ESP Fit Center   99 is at   4.505444  1.639309  0.519369
      ESP Fit Center  100 is at   3.467031  2.033126  0.519369
      ESP Fit Center  101 is at   2.364547 -2.439829  0.519369
      ESP Fit Center  102 is at   3.467031 -2.573695  0.519369
      ESP Fit Center  103 is at   4.505444 -2.179877  0.519369
      ESP Fit Center  104 is at   5.241896 -1.348595  0.519369
      ESP Fit Center  105 is at   5.507675 -0.270284 -0.539830
      ESP Fit Center  106 is at   5.241896  0.808026 -0.539830
      ESP Fit Center  107 is at   4.505444  1.639309 -0.539830
      ESP Fit Center  108 is at   3.467031  2.033126 -0.539830
      ESP Fit Center  109 is at   2.364547 -2.439829 -0.539830
      ESP Fit Center  110 is at   3.467031 -2.573695 -0.539830
      ESP Fit Center  111 is at   4.505444 -2.179877 -0.539830
      ESP Fit Center  112 is at   5.241896 -1.348595 -0.539830
      ESP Fit Center  113 is at   5.048106 -0.270284 -1.494136
      ESP Fit Center  114 is at   4.692732  0.823442 -1.494136
      ESP Fit Center  115 is at   3.762353  1.499403 -1.494136
      ESP Fit Center  116 is at   2.612341  1.499403 -1.494136
      ESP Fit Center  117 is at   2.612341 -2.039971 -1.494136
      ESP Fit Center  118 is at   3.762353 -2.039971 -1.494136
      ESP Fit Center  119 is at   4.692732 -1.364011 -1.494136
      ESP Fit Center  120 is at   4.219990 -0.270284 -2.154536
      ESP Fit Center  121 is at   3.703668  0.624011 -2.154536
      ESP Fit Center  122 is at   2.671025  0.624011 -2.154536
      ESP Fit Center  123 is at   2.154703 -0.270284 -2.154536
      ESP Fit Center  124 is at   2.671025 -1.164580 -2.154536
      ESP Fit Center  125 is at   3.703668 -1.164580 -2.154536
      ESP Fit Center  126 is at   3.187347 -0.270284 -2.390230
      ESP Fit Center  127 is at   0.262129 -0.994537  2.362186
      ESP Fit Center  128 is at   1.325144 -0.994537  2.119560
      ESP Fit Center  129 is at   0.793636 -0.073939  2.119560
      ESP Fit Center  130 is at  -0.269379 -0.073939  2.119560
      ESP Fit Center  131 is at  -0.800887 -0.994537  2.119560
      ESP Fit Center  132 is at  -0.269379 -1.915135  2.119560
      ESP Fit Center  133 is at   0.793636 -1.915135  2.119560
      ESP Fit Center  134 is at  -0.010474 -2.890527  1.439736
      ESP Fit Center  135 is at   1.057851 -2.736925  1.439736
      ESP Fit Center  136 is at   1.873539 -2.030127  1.439736
      ESP Fit Center  137 is at  -0.269379 -3.323224  0.457362
      ESP Fit Center  138 is at   0.793636 -3.323224  0.457362
      ESP Fit Center  139 is at   1.751380 -2.861999  0.457362
      ESP Fit Center  140 is at  -1.227123 -2.861999 -0.632990
      ESP Fit Center  141 is at  -0.269379 -3.323224 -0.632990
      ESP Fit Center  142 is at   0.793636 -3.323224 -0.632990
      ESP Fit Center  143 is at   1.751380 -2.861999 -0.632990
      ESP Fit Center  144 is at  -1.575768 -1.534192 -1.615364
      ESP Fit Center  145 is at  -0.992249 -2.442165 -1.615364
      ESP Fit Center  146 is at  -0.010474 -2.890527 -1.615364
      ESP Fit Center  147 is at   1.057851 -2.736925 -1.615364
      ESP Fit Center  148 is at   1.873539 -2.030127 -1.615364
      ESP Fit Center  149 is at   1.325144 -0.994537 -2.295188
      ESP Fit Center  150 is at   0.793636 -0.073939 -2.295188
      ESP Fit Center  151 is at  -0.269379 -0.073939 -2.295188
      ESP Fit Center  152 is at  -0.800887 -0.994537 -2.295188
      ESP Fit Center  153 is at  -0.269379 -1.915135 -2.295188
      ESP Fit Center  154 is at   0.793636 -1.915135 -2.295188
      ESP Fit Center  155 is at   0.262129 -0.994537 -2.537814
      ESP Fit Center  156 is at  -4.634641 -0.843457  1.577931
      ESP Fit Center  157 is at  -4.634641 -2.004308  1.577931
      ESP Fit Center  158 is at  -5.337170 -0.877411  0.737931
      ESP Fit Center  159 is at  -5.337170 -1.970354  0.737931
      ESP Fit Center  160 is at  -4.634641 -2.807596  0.737931
      ESP Fit Center  161 is at  -5.337170 -0.877411 -0.300366
      ESP Fit Center  162 is at  -5.337170 -1.970354 -0.300366
      ESP Fit Center  163 is at  -4.634641 -2.807596 -0.300366
      ESP Fit Center  164 is at  -4.634641 -0.843457 -1.140366
      ESP Fit Center  165 is at  -4.634641 -2.004308 -1.140366
      ESP Fit Center  166 is at  -2.248081 -1.977054  2.247777
      ESP Fit Center  167 is at  -1.260602 -1.977054  1.926926
      ESP Fit Center  168 is at  -3.046968 -2.557480  1.926926
      ESP Fit Center  169 is at  -1.942933 -2.916203  1.926926
      ESP Fit Center  170 is at  -3.046968 -3.360768  1.086926
      ESP Fit Center  171 is at  -1.970630 -3.550556  1.086926
      ESP Fit Center  172 is at  -1.024114 -3.004084  1.086926
      ESP Fit Center  173 is at  -1.970630 -3.550556  0.048629
      ESP Fit Center  174 is at  -0.687346  3.338434  1.495020
      ESP Fit Center  175 is at  -1.791381  2.979711  1.495020
      ESP Fit Center  176 is at   0.231473  3.426316  0.655020
      ESP Fit Center  177 is at  -0.715043  3.972787  0.655020
      ESP Fit Center  178 is at  -1.791381  3.782999  0.655020
      ESP Fit Center  179 is at  -2.493911  2.945757  0.655020
      ESP Fit Center  180 is at  -0.715043  3.972787 -0.383277
      ESP Fit Center  181 is at  -1.791381  3.782999 -0.383277
      ESP Fit Center  182 is at  -2.493911  2.945757 -0.383277
      ESP Fit Center  183 is at  -0.687346  3.338434 -1.223277
      ESP Fit Center  184 is at  -1.791381  2.979711 -1.223277
      ESP Fit Center  185 is at   2.653182  2.354598  1.516619
      ESP Fit Center  186 is at   1.970851  3.293747  1.516619
      ESP Fit Center  187 is at   3.263478  2.354598  0.676619
      ESP Fit Center  188 is at   2.889669  3.381628  0.676619
      ESP Fit Center  189 is at   1.943154  3.928099  0.676619
      ESP Fit Center  190 is at   0.866815  3.738312  0.676619
      ESP Fit Center  191 is at   3.263478  2.354598 -0.361678
      ESP Fit Center  192 is at   2.889669  3.381628 -0.361678
      ESP Fit Center  193 is at   1.943154  3.928099 -0.361678
      ESP Fit Center  194 is at   0.866815  3.738312 -0.361678
      ESP Fit Center  195 is at   2.653182  2.354598 -1.201678
      ESP Fit Center  196 is at   1.970851  3.293747 -1.201678
      ESP Fit Center  197 is at  -2.838051 -1.292905  2.514252
      ESP Fit Center  198 is at  -3.358711 -0.391094  2.276578
      ESP Fit Center  199 is at  -3.879372 -1.292905  2.276578
      ESP Fit Center  200 is at  -3.358711 -2.194715  2.276578
      ESP Fit Center  201 is at  -3.358711 -3.574067  0.648303
      ESP Fit Center  202 is at  -3.358711 -3.574067 -0.419798
      ESP Fit Center  203 is at  -4.066829 -2.710990 -1.382123
      ESP Fit Center  204 is at  -3.105090 -3.150201 -1.382123
      ESP Fit Center  205 is at  -2.058568 -2.999734 -1.382123
      ESP Fit Center  206 is at  -1.796730 -1.292905 -2.048073
      ESP Fit Center  207 is at  -3.879372 -1.292905 -2.048073
      ESP Fit Center  208 is at  -3.358711 -2.194715 -2.048073
      ESP Fit Center  209 is at  -2.317390 -2.194715 -2.048073
      ESP Fit Center  210 is at  -2.838051 -1.292905 -2.285748
      ESP Fit Center  211 is at  -2.429349  0.013831  2.383413
      ESP Fit Center  212 is at  -1.908688  0.915641  2.145739
      ESP Fit Center  213 is at  -2.950009  0.915641  2.145739
      ESP Fit Center  214 is at  -3.470670  0.013831  2.145739
      ESP Fit Center  215 is at  -1.908688  0.915641 -2.178912
      ESP Fit Center  216 is at  -1.908688 -0.887980 -2.178912
      ESP Fit Center  217 is at  -2.429349  0.013831 -2.416587
      ESP Fit Center  218 is at  -3.218306  0.936818  2.069509
      ESP Fit Center  219 is at  -2.732356  1.778508  1.847679
      ESP Fit Center  220 is at  -3.704256  1.778508  1.847679
      ESP Fit Center  221 is at  -4.190205  0.936818  1.847679
      ESP Fit Center  222 is at  -2.677124  2.602406  1.226126
      ESP Fit Center  223 is at  -3.759488  2.602406  1.226126
      ESP Fit Center  224 is at  -4.635139  1.966208  1.226126
      ESP Fit Center  225 is at  -4.969608  0.936818  1.226126
      ESP Fit Center  226 is at  -2.955073  3.104734  0.327956
      ESP Fit Center  227 is at  -3.992706  2.978743  0.327956
      ESP Fit Center  228 is at  -4.852932  2.384971  0.327956
      ESP Fit Center  229 is at  -5.338686  1.459445  0.327956
      ESP Fit Center  230 is at  -5.338686  0.414191  0.327956
      ESP Fit Center  231 is at  -2.955073  3.104734 -0.668938
      ESP Fit Center  232 is at  -3.992706  2.978743 -0.668938
      ESP Fit Center  233 is at  -4.852932  2.384971 -0.668938
      ESP Fit Center  234 is at  -5.338686  1.459445 -0.668938
      ESP Fit Center  235 is at  -5.338686  0.414191 -0.668938
      ESP Fit Center  236 is at  -2.677124  2.602406 -1.567108
      ESP Fit Center  237 is at  -3.759488  2.602406 -1.567108
      ESP Fit Center  238 is at  -4.635139  1.966208 -1.567108
      ESP Fit Center  239 is at  -4.969608  0.936818 -1.567108
      ESP Fit Center  240 is at  -4.635139 -0.092572 -1.567108
      ESP Fit Center  241 is at  -2.732356  1.778508 -2.188661
      ESP Fit Center  242 is at  -3.704256  1.778508 -2.188661
      ESP Fit Center  243 is at  -4.190205  0.936818 -2.188661
      ESP Fit Center  244 is at  -3.704256  0.095128 -2.188661
      ESP Fit Center  245 is at  -3.218306  0.936818 -2.410491
      ESP Fit Center  246 is at  -0.963458  0.257769  2.399638
      ESP Fit Center  247 is at  -1.484118 -0.644042  2.161963
      ESP Fit Center  248 is at  -1.484118  1.159579 -2.162687
      ESP Fit Center  249 is at  -0.963458  0.257769 -2.400362
      ESP Fit Center  250 is at  -0.388630  1.501091  2.482592
      ESP Fit Center  251 is at   0.132031  2.402901  2.244917
      ESP Fit Center  252 is at  -0.909290  2.402901  2.244917
      ESP Fit Center  253 is at  -1.429951  1.501091  2.244917
      ESP Fit Center  254 is at   0.132031  0.599281  2.244917
      ESP Fit Center  255 is at   0.132031  2.402901 -2.079734
      ESP Fit Center  256 is at  -0.909290  2.402901 -2.079734
      ESP Fit Center  257 is at  -1.429951  1.501091 -2.079734
      ESP Fit Center  258 is at  -0.388630  1.501091 -2.317408
      ESP Fit Center  259 is at   1.032720  1.477681  2.495063
      ESP Fit Center  260 is at   2.074041  1.477681  2.257389
      ESP Fit Center  261 is at   1.553381  2.379492  2.257389
      ESP Fit Center  262 is at   0.512060  2.379492  2.257389
      ESP Fit Center  263 is at   0.512060  0.575871  2.257389
      ESP Fit Center  264 is at   0.765681  3.334978  1.591439
      ESP Fit Center  265 is at   0.765681  3.334978 -1.401312
      ESP Fit Center  266 is at   2.074041  1.477681 -2.067262
      ESP Fit Center  267 is at   1.553381  2.379492 -2.067262
      ESP Fit Center  268 is at   0.512060  2.379492 -2.067262
      ESP Fit Center  269 is at   1.032720  1.477681 -2.304937
      ESP Fit Center  270 is at   1.522795  0.201339  2.416494
      ESP Fit Center  271 is at   2.043456  1.103150 -2.145832
      ESP Fit Center  272 is at   1.522795  0.201339 -2.383506
      ESP Fit Center  273 is at   3.187347 -0.270284  2.709770
      ESP Fit Center  274 is at   4.228246 -0.270284  2.502722
      ESP Fit Center  275 is at   3.707796  0.631161  2.502722
      ESP Fit Center  276 is at   2.666897  0.631161  2.502722
      ESP Fit Center  277 is at   2.146448 -0.270284  2.502722
      ESP Fit Center  278 is at   2.666897 -1.171729  2.502722
      ESP Fit Center  279 is at   3.707796 -1.171729  2.502722
      ESP Fit Center  280 is at   5.110677 -0.270284  1.913100
      ESP Fit Center  281 is at   4.853000  0.691381  1.913100
      ESP Fit Center  282 is at   4.149012  1.395369  1.913100
      ESP Fit Center  283 is at   3.187347  1.653046  1.913100
      ESP Fit Center  284 is at   2.225682 -1.935937  1.913100
      ESP Fit Center  285 is at   3.187347 -2.193615  1.913100
      ESP Fit Center  286 is at   4.149012 -1.935937  1.913100
      ESP Fit Center  287 is at   4.853000 -1.231949  1.913100
      ESP Fit Center  288 is at   5.700299 -0.270284  1.030669
      ESP Fit Center  289 is at   5.483043  0.751826  1.030669
      ESP Fit Center  290 is at   4.868840  1.597203  1.030669
      ESP Fit Center  291 is at   3.963892  2.119675  1.030669
      ESP Fit Center  292 is at   2.924672 -2.769470  1.030669
      ESP Fit Center  293 is at   3.963892 -2.660244  1.030669
      ESP Fit Center  294 is at   4.868840 -2.137772  1.030669
      ESP Fit Center  295 is at   5.483043 -1.292394  1.030669
      ESP Fit Center  296 is at   5.907347 -0.270284 -0.010230
      ESP Fit Center  297 is at   5.723671  0.712293 -0.010230
      ESP Fit Center  298 is at   5.197451  1.562168 -0.010230
      ESP Fit Center  299 is at   4.399755  2.164560 -0.010230
      ESP Fit Center  300 is at   2.442983 -2.886450 -0.010230
      ESP Fit Center  301 is at   3.438317 -2.978681 -0.010230
      ESP Fit Center  302 is at   4.399755 -2.705128 -0.010230
      ESP Fit Center  303 is at   5.197451 -2.102736 -0.010230
      ESP Fit Center  304 is at   5.723671 -1.252862 -0.010230
      ESP Fit Center  305 is at   5.700299 -0.270284 -1.051129
      ESP Fit Center  306 is at   5.483043  0.751826 -1.051129
      ESP Fit Center  307 is at   4.868840  1.597203 -1.051129
      ESP Fit Center  308 is at   3.963892  2.119675 -1.051129
      ESP Fit Center  309 is at   2.924672 -2.769470 -1.051129
      ESP Fit Center  310 is at   3.963892 -2.660244 -1.051129
      ESP Fit Center  311 is at   4.868840 -2.137772 -1.051129
      ESP Fit Center  312 is at   5.483043 -1.292394 -1.051129
      ESP Fit Center  313 is at   5.110677 -0.270284 -1.933561
      ESP Fit Center  314 is at   4.853000  0.691381 -1.933561
      ESP Fit Center  315 is at   4.149012  1.395369 -1.933561
      ESP Fit Center  316 is at   3.187347  1.653046 -1.933561
      ESP Fit Center  317 is at   2.225682 -1.935937 -1.933561
      ESP Fit Center  318 is at   3.187347 -2.193615 -1.933561
      ESP Fit Center  319 is at   4.149012 -1.935937 -1.933561
      ESP Fit Center  320 is at   4.853000 -1.231949 -1.933561
      ESP Fit Center  321 is at   4.228246 -0.270284 -2.523183
      ESP Fit Center  322 is at   3.707796  0.631161 -2.523183
      ESP Fit Center  323 is at   2.666897  0.631161 -2.523183
      ESP Fit Center  324 is at   2.146448 -0.270284 -2.523183
      ESP Fit Center  325 is at   2.666897 -1.171729 -2.523183
      ESP Fit Center  326 is at   3.707796 -1.171729 -2.523183
      ESP Fit Center  327 is at   3.187347 -0.270284 -2.730230
      ESP Fit Center  328 is at   0.262129 -0.994537  2.712186
      ESP Fit Center  329 is at   1.333642 -0.994537  2.499049
      ESP Fit Center  330 is at   0.797885 -0.066579  2.499049
      ESP Fit Center  331 is at  -0.273628 -0.066579  2.499049
      ESP Fit Center  332 is at  -0.809385 -0.994537  2.499049
      ESP Fit Center  333 is at  -0.273628 -1.922495  2.499049
      ESP Fit Center  334 is at   0.797885 -1.922495  2.499049
      ESP Fit Center  335 is at  -0.727821 -2.709180  1.892085
      ESP Fit Center  336 is at   0.262129 -2.974436  1.892085
      ESP Fit Center  337 is at   1.252078 -2.709180  1.892085
      ESP Fit Center  338 is at   1.976771 -1.984486  1.892085
      ESP Fit Center  339 is at  -0.008272 -3.567228  0.983700
      ESP Fit Center  340 is at   1.061513 -3.454790  0.983700
      ESP Fit Center  341 is at   1.993078 -2.916951  0.983700
      ESP Fit Center  342 is at  -0.504128 -3.687649 -0.087814
      ESP Fit Center  343 is at   0.520480 -3.782593 -0.087814
      ESP Fit Center  344 is at   1.510196 -3.500994 -0.087814
      ESP Fit Center  345 is at   2.331353 -2.880885 -0.087814
      ESP Fit Center  346 is at  -1.031303 -3.234826 -1.159327
      ESP Fit Center  347 is at  -0.008272 -3.567228 -1.159327
      ESP Fit Center  348 is at   1.061513 -3.454790 -1.159327
      ESP Fit Center  349 is at   1.993078 -2.916951 -1.159327
      ESP Fit Center  350 is at  -1.452514 -1.984486 -2.067713
      ESP Fit Center  351 is at  -0.727821 -2.709180 -2.067713
      ESP Fit Center  352 is at   0.262129 -2.974436 -2.067713
      ESP Fit Center  353 is at   1.252078 -2.709180 -2.067713
      ESP Fit Center  354 is at   1.976771 -1.984486 -2.067713
      ESP Fit Center  355 is at   1.333642 -0.994537 -2.674677
      ESP Fit Center  356 is at   0.797885 -0.066579 -2.674677
      ESP Fit Center  357 is at  -0.273628 -0.066579 -2.674677
      ESP Fit Center  358 is at  -0.809385 -0.994537 -2.674677
      ESP Fit Center  359 is at  -0.273628 -1.922495 -2.674677
      ESP Fit Center  360 is at   0.797885 -1.922495 -2.674677
      ESP Fit Center  361 is at   0.262129 -0.994537 -2.887814
      ESP Fit Center  362 is at  -4.315753 -0.592498  1.881551
      ESP Fit Center  363 is at  -4.795753 -1.423882  1.881551
      ESP Fit Center  364 is at  -4.315753 -2.255267  1.881551
      ESP Fit Center  365 is at  -5.180961 -0.446531  1.178782
      ESP Fit Center  366 is at  -5.498522 -1.423882  1.178782
      ESP Fit Center  367 is at  -5.180961 -2.401233  1.178782
      ESP Fit Center  368 is at  -4.349577 -3.005269  1.178782
      ESP Fit Center  369 is at  -5.498522 -0.463882  0.218782
      ESP Fit Center  370 is at  -5.755753 -1.423882  0.218782
      ESP Fit Center  371 is at  -5.498522 -2.383882  0.218782
      ESP Fit Center  372 is at  -4.795753 -3.086651  0.218782
      ESP Fit Center  373 is at  -5.180961 -0.446531 -0.741218
      ESP Fit Center  374 is at  -5.498522 -1.423882 -0.741218
      ESP Fit Center  375 is at  -5.180961 -2.401233 -0.741218
      ESP Fit Center  376 is at  -4.349577 -3.005269 -0.741218
      ESP Fit Center  377 is at  -4.795753 -1.423882 -1.443987
      ESP Fit Center  378 is at  -2.248081 -1.977054  2.487777
      ESP Fit Center  379 is at  -1.288081 -1.977054  2.230546
      ESP Fit Center  380 is at  -2.728081 -2.808439  2.230546
      ESP Fit Center  381 is at  -1.768081 -2.808439  2.230546
      ESP Fit Center  382 is at  -2.761905 -3.558442  1.527777
      ESP Fit Center  383 is at  -1.734257 -3.558442  1.527777
      ESP Fit Center  384 is at  -3.208081 -3.639823  0.567777
      ESP Fit Center  385 is at  -2.248081 -3.897054  0.567777
      ESP Fit Center  386 is at  -1.288081 -3.639823  0.567777
      ESP Fit Center  387 is at  -1.734257 -3.558442 -0.392223
      ESP Fit Center  388 is at  -0.512493  3.230670  1.798640
      ESP Fit Center  389 is at  -1.472493  3.230670  1.798640
      ESP Fit Center  390 is at  -1.952493  2.399286  1.798640
      ESP Fit Center  391 is at  -0.478670  3.980673  1.095872
      ESP Fit Center  392 is at  -1.506317  3.980673  1.095872
      ESP Fit Center  393 is at  -2.337702  3.376637  1.095872
      ESP Fit Center  394 is at  -0.032493  4.062055  0.135872
      ESP Fit Center  395 is at  -0.992493  4.319286  0.135872
      ESP Fit Center  396 is at  -1.952493  4.062055  0.135872
      ESP Fit Center  397 is at  -2.655262  3.359286  0.135872
      ESP Fit Center  398 is at  -0.478670  3.980673 -0.824128
      ESP Fit Center  399 is at  -1.506317  3.980673 -0.824128
      ESP Fit Center  400 is at  -2.337702  3.376637 -0.824128
      ESP Fit Center  401 is at  -1.472493  3.230670 -1.526897
      ESP Fit Center  402 is at  -1.952493  2.399286 -1.526897
      ESP Fit Center  403 is at   2.625703  2.354598  1.820239
      ESP Fit Center  404 is at   2.145703  3.185983  1.820239
      ESP Fit Center  405 is at   1.185703  3.185983  1.820239
      ESP Fit Center  406 is at   3.328472  2.354598  1.117470
      ESP Fit Center  407 is at   3.010911  3.331949  1.117470
      ESP Fit Center  408 is at   2.179527  3.935985  1.117470
      ESP Fit Center  409 is at   1.151879  3.935985  1.117470
      ESP Fit Center  410 is at   3.328472  3.314598  0.157470
      ESP Fit Center  411 is at   2.625703  4.017367  0.157470
      ESP Fit Center  412 is at   1.665703  4.274598  0.157470
      ESP Fit Center  413 is at   0.705703  4.017367  0.157470
      ESP Fit Center  414 is at   3.328472  2.354598 -0.802530
      ESP Fit Center  415 is at   3.010911  3.331949 -0.802530
      ESP Fit Center  416 is at   2.179527  3.935985 -0.802530
      ESP Fit Center  417 is at   1.151879  3.935985 -0.802530
      ESP Fit Center  418 is at   2.625703  2.354598 -1.505299
      ESP Fit Center  419 is at   2.145703  3.185983 -1.505299
      ESP Fit Center  420 is at  -2.838051 -1.292905  2.814252
      ESP Fit Center  421 is at  -1.804806 -1.292905  2.608727
      ESP Fit Center  422 is at  -3.354674 -0.398088  2.608727
      ESP Fit Center  423 is at  -3.871296 -1.292905  2.608727
      ESP Fit Center  424 is at  -3.354674 -2.187721  2.608727
      ESP Fit Center  425 is at  -4.088303 -2.735773  2.023441
      ESP Fit Center  426 is at  -3.393124 -3.724838  1.147498
      ESP Fit Center  427 is at  -3.871296 -3.787379  0.114252
      ESP Fit Center  428 is at  -4.393330 -3.243164 -0.918993
      ESP Fit Center  429 is at  -3.393124 -3.724838 -0.918993
      ESP Fit Center  430 is at  -2.282978 -3.724838 -0.918993
      ESP Fit Center  431 is at  -4.669904 -0.755024 -1.794936
      ESP Fit Center  432 is at  -4.669904 -1.830785 -1.794936
      ESP Fit Center  433 is at  -4.088303 -2.735773 -1.794936
      ESP Fit Center  434 is at  -3.109757 -3.182660 -1.794936
      ESP Fit Center  435 is at  -2.044945 -3.029564 -1.794936
      ESP Fit Center  436 is at  -3.871296 -1.292905 -2.380222
      ESP Fit Center  437 is at  -3.354674 -2.187721 -2.380222
      ESP Fit Center  438 is at  -2.321428 -2.187721 -2.380222
      ESP Fit Center  439 is at  -2.838051 -1.292905 -2.585748
      ESP Fit Center  440 is at  -2.429349  0.013831  2.683413
      ESP Fit Center  441 is at  -1.912726  0.908647  2.477888
      ESP Fit Center  442 is at  -2.945971  0.908647  2.477888
      ESP Fit Center  443 is at  -3.462594  0.013831  2.477888
      ESP Fit Center  444 is at  -1.912726  0.908647 -2.511061
      ESP Fit Center  445 is at  -3.462594  0.013831 -2.511061
      ESP Fit Center  446 is at  -1.912726 -0.880986 -2.511061
      ESP Fit Center  447 is at  -2.429349  0.013831 -2.716587
      ESP Fit Center  448 is at  -2.671612  1.883719  2.099950
      ESP Fit Center  449 is at  -3.764999  1.883719  2.099950
      ESP Fit Center  450 is at  -4.311693  0.936818  2.099950
      ESP Fit Center  451 is at  -3.498697  2.886980  1.400703
      ESP Fit Center  452 is at  -4.508523  2.425808  1.400703
      ESP Fit Center  453 is at  -5.108714  1.491892  1.400703
      ESP Fit Center  454 is at  -5.108714  0.381744  1.400703
      ESP Fit Center  455 is at  -3.764999  3.332039  0.390262
      ESP Fit Center  456 is at  -4.750107  2.857636  0.390262
      ESP Fit Center  457 is at  -5.431823  2.002792  0.390262
      ESP Fit Center  458 is at  -5.675124  0.936818  0.390262
      ESP Fit Center  459 is at  -3.764999  3.332039 -0.731244
      ESP Fit Center  460 is at  -4.750107  2.857636 -0.731244
      ESP Fit Center  461 is at  -5.431823  2.002792 -0.731244
      ESP Fit Center  462 is at  -5.675124  0.936818 -0.731244
      ESP Fit Center  463 is at  -5.431823 -0.129155 -0.731244
      ESP Fit Center  464 is at  -2.399849  2.728989 -1.741686
      ESP Fit Center  465 is at  -3.498697  2.886980 -1.741686
      ESP Fit Center  466 is at  -4.508523  2.425808 -1.741686
      ESP Fit Center  467 is at  -5.108714  1.491892 -1.741686
      ESP Fit Center  468 is at  -5.108714  0.381744 -1.741686
      ESP Fit Center  469 is at  -2.671612  1.883719 -2.440933
      ESP Fit Center  470 is at  -3.764999  1.883719 -2.440933
      ESP Fit Center  471 is at  -4.311693  0.936818 -2.440933
      ESP Fit Center  472 is at  -3.764999 -0.010083 -2.440933
      ESP Fit Center  473 is at  -3.218306  0.936818 -2.690491
      ESP Fit Center  474 is at  -0.963458  0.257769  2.699638
      ESP Fit Center  475 is at  -1.480080  1.152585 -2.494837
      ESP Fit Center  476 is at  -0.388630  1.501091  2.782592
      ESP Fit Center  477 is at   0.127993  2.395908  2.577067
      ESP Fit Center  478 is at  -0.905252  2.395908  2.577067
      ESP Fit Center  479 is at  -1.421875  1.501091  2.577067
      ESP Fit Center  480 is at  -2.220482  2.038971  1.991780
      ESP Fit Center  481 is at   0.166443  3.933024 -0.950653
      ESP Fit Center  482 is at  -0.660335  3.390846 -1.826597
      ESP Fit Center  483 is at   0.127993  2.395908 -2.411883
      ESP Fit Center  484 is at  -0.905252  2.395908 -2.411883
      ESP Fit Center  485 is at  -1.421875  1.501091 -2.411883
      ESP Fit Center  486 is at  -0.388630  1.501091 -2.617408
      ESP Fit Center  487 is at   1.032720  1.477681  2.795063
      ESP Fit Center  488 is at   2.065965  1.477681  2.589538
      ESP Fit Center  489 is at   1.549343  2.372498  2.589538
      ESP Fit Center  490 is at   0.516098  2.372498  2.589538
      ESP Fit Center  491 is at   0.761014  3.367437  2.004252
      ESP Fit Center  492 is at   0.477647  3.909614  1.128309
      ESP Fit Center  493 is at   0.477647  3.909614 -0.938182
      ESP Fit Center  494 is at   2.638832  2.509866 -1.814125
      ESP Fit Center  495 is at   0.761014  3.367437 -1.814125
      ESP Fit Center  496 is at   2.065965  1.477681 -2.399411
      ESP Fit Center  497 is at   1.549343  2.372498 -2.399411
      ESP Fit Center  498 is at   0.516098  2.372498 -2.399411
      ESP Fit Center  499 is at   1.032720  1.477681 -2.604937
      ESP Fit Center  500 is at   1.522795  0.201339  2.716494
      ESP Fit Center  501 is at   3.187347 -0.270284  3.049770
      ESP Fit Center  502 is at   4.233928 -0.270284  2.865229
      ESP Fit Center  503 is at   3.710638  0.636082  2.865229
      ESP Fit Center  504 is at   2.664056  0.636082  2.865229
      ESP Fit Center  505 is at   2.140765 -0.270284  2.865229
      ESP Fit Center  506 is at   2.664056 -1.176651  2.865229
      ESP Fit Center  507 is at   3.710638 -1.176651  2.865229
      ESP Fit Center  508 is at   5.154277 -0.270284  2.333866
      ESP Fit Center  509 is at   4.890758  0.713181  2.333866
      ESP Fit Center  510 is at   4.170812  1.433127  2.333866
      ESP Fit Center  511 is at   3.187347  1.696646  2.333866
      ESP Fit Center  512 is at   2.203882 -1.973696  2.333866
      ESP Fit Center  513 is at   3.187347 -2.237214  2.333866
      ESP Fit Center  514 is at   4.170812 -1.973696  2.333866
      ESP Fit Center  515 is at   4.890758 -1.253749  2.333866
      ESP Fit Center  516 is at   5.837384 -0.270284  1.519770
      ESP Fit Center  517 is at   5.635662  0.743841  1.519770
      ESP Fit Center  518 is at   5.061206  1.603575  1.519770
      ESP Fit Center  519 is at   4.201472  2.178031  1.519770
      ESP Fit Center  520 is at   3.187347 -2.920322  1.519770
      ESP Fit Center  521 is at   4.201472 -2.718600  1.519770
      ESP Fit Center  522 is at   5.061206 -2.144144  1.519770
      ESP Fit Center  523 is at   5.635662 -1.284410  1.519770
      ESP Fit Center  524 is at   6.200858 -0.270284  0.521133
      ESP Fit Center  525 is at   6.019121  0.760397  0.521133
      ESP Fit Center  526 is at   5.495831  1.666764  0.521133
      ESP Fit Center  527 is at   4.694103  2.339493  0.521133
      ESP Fit Center  528 is at   2.664056 -3.238014  0.521133
      ESP Fit Center  529 is at   3.710638 -3.238014  0.521133
      ESP Fit Center  530 is at   4.694103 -2.880062  0.521133
      ESP Fit Center  531 is at   5.495831 -2.207332  0.521133
      ESP Fit Center  532 is at   6.019121 -1.300966  0.521133
      ESP Fit Center  533 is at   6.200858 -0.270284 -0.541594
      ESP Fit Center  534 is at   6.019121  0.760397 -0.541594
      ESP Fit Center  535 is at   5.495831  1.666764 -0.541594
      ESP Fit Center  536 is at   4.694103  2.339493 -0.541594
      ESP Fit Center  537 is at   3.710638  2.697445 -0.541594
      ESP Fit Center  538 is at   2.664056 -3.238014 -0.541594
      ESP Fit Center  539 is at   3.710638 -3.238014 -0.541594
      ESP Fit Center  540 is at   4.694103 -2.880062 -0.541594
      ESP Fit Center  541 is at   5.495831 -2.207332 -0.541594
      ESP Fit Center  542 is at   6.019121 -1.300966 -0.541594
      ESP Fit Center  543 is at   5.837384 -0.270284 -1.540230
      ESP Fit Center  544 is at   5.635662  0.743841 -1.540230
      ESP Fit Center  545 is at   5.061206  1.603575 -1.540230
      ESP Fit Center  546 is at   4.201472  2.178031 -1.540230
      ESP Fit Center  547 is at   3.187347  2.379753 -1.540230
      ESP Fit Center  548 is at   3.187347 -2.920322 -1.540230
      ESP Fit Center  549 is at   4.201472 -2.718600 -1.540230
      ESP Fit Center  550 is at   5.061206 -2.144144 -1.540230
      ESP Fit Center  551 is at   5.635662 -1.284410 -1.540230
      ESP Fit Center  552 is at   5.154277 -0.270284 -2.354326
      ESP Fit Center  553 is at   4.890758  0.713181 -2.354326
      ESP Fit Center  554 is at   4.170812  1.433127 -2.354326
      ESP Fit Center  555 is at   3.187347  1.696646 -2.354326
      ESP Fit Center  556 is at   2.203882  1.433127 -2.354326
      ESP Fit Center  557 is at   3.187347 -2.237214 -2.354326
      ESP Fit Center  558 is at   4.170812 -1.973696 -2.354326
      ESP Fit Center  559 is at   4.890758 -1.253749 -2.354326
      ESP Fit Center  560 is at   4.233928 -0.270284 -2.885690
      ESP Fit Center  561 is at   3.710638  0.636082 -2.885690
      ESP Fit Center  562 is at   2.664056  0.636082 -2.885690
      ESP Fit Center  563 is at   2.140765 -0.270284 -2.885690
      ESP Fit Center  564 is at   2.664056 -1.176651 -2.885690
      ESP Fit Center  565 is at   3.710638 -1.176651 -2.885690
      ESP Fit Center  566 is at   3.187347 -0.270284 -3.070230
      ESP Fit Center  567 is at   0.262129 -0.994537  3.062186
      ESP Fit Center  568 is at   1.339492 -0.994537  2.872218
      ESP Fit Center  569 is at   0.800810 -0.061513  2.872218
      ESP Fit Center  570 is at  -0.276553 -0.061513  2.872218
      ESP Fit Center  571 is at  -0.815235 -0.994537  2.872218
      ESP Fit Center  572 is at  -0.276553 -1.927561  2.872218
      ESP Fit Center  573 is at   0.800810 -1.927561  2.872218
      ESP Fit Center  574 is at  -0.750262 -2.748049  2.325226
      ESP Fit Center  575 is at   0.262129 -3.019318  2.325226
      ESP Fit Center  576 is at   1.274519 -2.748049  2.325226
      ESP Fit Center  577 is at   2.015640 -2.006927  2.325226
      ESP Fit Center  578 is at  -0.781824 -3.514862  1.487186
      ESP Fit Center  579 is at   0.262129 -3.722517  1.487186
      ESP Fit Center  580 is at   1.306081 -3.514862  1.487186
      ESP Fit Center  581 is at   2.191102 -2.923510  1.487186
      ESP Fit Center  582 is at  -0.276553 -4.049553  0.459178
      ESP Fit Center  583 is at   0.800810 -4.049553  0.459178
      ESP Fit Center  584 is at   1.813201 -3.681073  0.459178
      ESP Fit Center  585 is at  -1.288944 -3.681073 -0.634806
      ESP Fit Center  586 is at  -0.276553 -4.049553 -0.634806
      ESP Fit Center  587 is at   0.800810 -4.049553 -0.634806
      ESP Fit Center  588 is at   1.813201 -3.681073 -0.634806
      ESP Fit Center  589 is at  -0.781824 -3.514862 -1.662814
      ESP Fit Center  590 is at   0.262129 -3.722517 -1.662814
      ESP Fit Center  591 is at   1.306081 -3.514862 -1.662814
      ESP Fit Center  592 is at   2.191102 -2.923510 -1.662814
      ESP Fit Center  593 is at   0.262129  1.030244 -2.500854
      ESP Fit Center  594 is at  -1.762652 -0.994537 -2.500854
      ESP Fit Center  595 is at  -1.491383 -2.006927 -2.500854
      ESP Fit Center  596 is at  -0.750262 -2.748049 -2.500854
      ESP Fit Center  597 is at   0.262129 -3.019318 -2.500854
      ESP Fit Center  598 is at   1.274519 -2.748049 -2.500854
      ESP Fit Center  599 is at   2.015640 -2.006927 -2.500854
      ESP Fit Center  600 is at   1.339492 -0.994537 -3.047846
      ESP Fit Center  601 is at   0.800810 -0.061513 -3.047846
      ESP Fit Center  602 is at  -0.276553 -0.061513 -3.047846
      ESP Fit Center  603 is at  -0.815235 -0.994537 -3.047846
      ESP Fit Center  604 is at  -0.276553 -1.927561 -3.047846
      ESP Fit Center  605 is at   0.800810 -1.927561 -3.047846
      ESP Fit Center  606 is at   0.262129 -0.994537 -3.237814
      ESP Fit Center  607 is at  -4.915753 -1.423882  2.089397
      ESP Fit Center  608 is at  -4.375753 -2.359190  2.089397
      ESP Fit Center  609 is at  -5.060745 -0.010166  1.298782
      ESP Fit Center  610 is at  -5.630595 -0.896869  1.298782
      ESP Fit Center  611 is at  -5.630595 -1.950896  1.298782
      ESP Fit Center  612 is at  -5.060745 -2.837599  1.298782
      ESP Fit Center  613 is at  -5.932987 -0.906961  0.218782
      ESP Fit Center  614 is at  -5.932987 -1.940804  0.218782
      ESP Fit Center  615 is at  -5.452536 -2.856227  0.218782
      ESP Fit Center  616 is at  -4.601700 -3.443517  0.218782
      ESP Fit Center  617 is at  -5.630595 -0.896869 -0.861218
      ESP Fit Center  618 is at  -5.630595 -1.950896 -0.861218
      ESP Fit Center  619 is at  -5.060745 -2.837599 -0.861218
      ESP Fit Center  620 is at  -4.915753 -1.423882 -1.651833
      ESP Fit Center  621 is at  -2.248081 -1.977054  2.727777
      ESP Fit Center  622 is at  -2.788081 -2.912362  2.438392
      ESP Fit Center  623 is at  -1.708081 -2.912362  2.438392
      ESP Fit Center  624 is at  -2.514297 -3.828629  1.647777
      ESP Fit Center  625 is at  -1.470999 -3.678626  1.647777
      ESP Fit Center  626 is at  -3.014027 -3.996690  0.567777
      ESP Fit Center  627 is at  -1.987722 -4.121306  0.567777
      ESP Fit Center  628 is at  -1.470999 -3.678626 -0.512223
      ESP Fit Center  629 is at  -1.532493  3.334593  2.006486
      ESP Fit Center  630 is at  -2.072493  2.399286  2.006486
      ESP Fit Center  631 is at  -0.215412  4.100857  1.215872
      ESP Fit Center  632 is at  -1.258710  4.250860  1.215872
      ESP Fit Center  633 is at  -2.217486  3.813002  1.215872
      ESP Fit Center  634 is at   0.234526  4.176931  0.135872
      ESP Fit Center  635 is at  -0.732134  4.543537  0.135872
      ESP Fit Center  636 is at  -1.758440  4.418921  0.135872
      ESP Fit Center  637 is at  -2.609277  3.831631  0.135872
      ESP Fit Center  638 is at  -0.215412  4.100857 -0.944128
      ESP Fit Center  639 is at  -1.258710  4.250860 -0.944128
      ESP Fit Center  640 is at  -2.217486  3.813002 -0.944128
      ESP Fit Center  641 is at  -1.532493  3.334593 -1.734743
      ESP Fit Center  642 is at   2.745703  2.354598  2.028085
      ESP Fit Center  643 is at   2.205703  3.289906  2.028085
      ESP Fit Center  644 is at   3.239364  3.365929  1.237470
      ESP Fit Center  645 is at   2.442784  4.056169  1.237470
      ESP Fit Center  646 is at   1.399487  4.206173  1.237470
      ESP Fit Center  647 is at   3.578288  3.358400  0.157470
      ESP Fit Center  648 is at   2.892723  4.132243  0.157470
      ESP Fit Center  649 is at   1.926062  4.498849  0.157470
      ESP Fit Center  650 is at   0.899756  4.374233  0.157470
      ESP Fit Center  651 is at   3.239364  3.365929 -0.922530
      ESP Fit Center  652 is at   2.442784  4.056169 -0.922530
      ESP Fit Center  653 is at   1.399487  4.206173 -0.922530
      ESP Fit Center  654 is at   2.205703  3.289906 -1.713145
      ESP Fit Center  655 is at  -2.838051 -1.292905  3.114252
      ESP Fit Center  656 is at  -1.811990 -1.292905  2.933330
      ESP Fit Center  657 is at  -3.351081 -0.404310  2.933330
      ESP Fit Center  658 is at  -3.864111 -1.292905  2.933330
      ESP Fit Center  659 is at  -3.351081 -2.181499  2.933330
      ESP Fit Center  660 is at  -4.688301 -0.749622  2.412386
      ESP Fit Center  661 is at  -4.100860 -2.750264  2.412386
      ESP Fit Center  662 is at  -4.137089 -3.542905  1.614252
      ESP Fit Center  663 is at  -3.646567 -4.134545  0.635197
      ESP Fit Center  664 is at  -4.618489 -3.650585 -0.406692
      ESP Fit Center  665 is at  -3.646567 -4.134545 -0.406692
      ESP Fit Center  666 is at  -2.565451 -4.234725 -0.406692
      ESP Fit Center  667 is at  -4.137089 -3.542905 -1.385748
      ESP Fit Center  668 is at  -3.109624 -3.876748 -1.385748
      ESP Fit Center  669 is at  -2.035201 -3.763822 -1.385748
      ESP Fit Center  670 is at  -4.688301 -0.749622 -2.183881
      ESP Fit Center  671 is at  -4.688301 -1.836187 -2.183881
      ESP Fit Center  672 is at  -4.100860 -2.750264 -2.183881
      ESP Fit Center  673 is at  -3.112486 -3.201640 -2.183881
      ESP Fit Center  674 is at  -2.036980 -3.047005 -2.183881
      ESP Fit Center  675 is at  -3.864111 -1.292905 -2.704826
      ESP Fit Center  676 is at  -3.351081 -2.181499 -2.704826
      ESP Fit Center  677 is at  -2.325021 -2.181499 -2.704826
      ESP Fit Center  678 is at  -2.838051 -1.292905 -2.885748
      ESP Fit Center  679 is at  -2.429349  0.013831  2.983413
      ESP Fit Center  680 is at  -1.916319  0.902425  2.802491
      ESP Fit Center  681 is at  -2.942379  0.902425  2.802491
      ESP Fit Center  682 is at  -3.455409  0.013831  2.802491
      ESP Fit Center  683 is at  -1.916319  0.902425 -2.835665
      ESP Fit Center  684 is at  -3.455409  0.013831 -2.835665
      ESP Fit Center  685 is at  -1.916319 -0.874764 -2.835665
      ESP Fit Center  686 is at  -2.429349  0.013831 -3.016587
      ESP Fit Center  687 is at  -2.682549  1.864776  2.416371
      ESP Fit Center  688 is at  -3.754063  1.864776  2.416371
      ESP Fit Center  689 is at  -4.289819  0.936818  2.416371
      ESP Fit Center  690 is at  -3.218306  2.916717  1.809408
      ESP Fit Center  691 is at  -4.208255  2.651461  1.809408
      ESP Fit Center  692 is at  -4.932949  1.926768  1.809408
      ESP Fit Center  693 is at  -5.198205  0.936818  1.809408
      ESP Fit Center  694 is at  -3.488707  3.509510  0.901022
      ESP Fit Center  695 is at  -4.511737  3.177107  0.901022
      ESP Fit Center  696 is at  -5.311122  2.457338  0.901022
      ESP Fit Center  697 is at  -5.748639  1.474657  0.901022
      ESP Fit Center  698 is at  -5.748639  0.398979  0.901022
      ESP Fit Center  699 is at  -3.984562  3.629930 -0.170491
      ESP Fit Center  700 is at  -4.905683  3.171266 -0.170491
      ESP Fit Center  701 is at  -5.598914  2.410828 -0.170491
      ESP Fit Center  702 is at  -5.970631  1.451317 -0.170491
      ESP Fit Center  703 is at  -5.970631  0.422320 -0.170491
      ESP Fit Center  704 is at  -3.488707  3.509510 -1.242005
      ESP Fit Center  705 is at  -4.511737  3.177107 -1.242005
      ESP Fit Center  706 is at  -5.311122  2.457338 -1.242005
      ESP Fit Center  707 is at  -5.748639  1.474657 -1.242005
      ESP Fit Center  708 is at  -5.748639  0.398979 -1.242005
      ESP Fit Center  709 is at  -2.228356  2.651461 -2.150390
      ESP Fit Center  710 is at  -3.218306  2.916717 -2.150390
      ESP Fit Center  711 is at  -4.208255  2.651461 -2.150390
      ESP Fit Center  712 is at  -4.932949  1.926768 -2.150390
      ESP Fit Center  713 is at  -5.198205  0.936818 -2.150390
      ESP Fit Center  714 is at  -4.932949 -0.053131 -2.150390
      ESP Fit Center  715 is at  -2.682549  1.864776 -2.757354
      ESP Fit Center  716 is at  -3.754063  1.864776 -2.757354
      ESP Fit Center  717 is at  -4.289819  0.936818 -2.757354
      ESP Fit Center  718 is at  -3.754063  0.008860 -2.757354
      ESP Fit Center  719 is at  -3.218306  0.936818 -2.970491
      ESP Fit Center  720 is at  -0.963458  0.257769  2.999638
      ESP Fit Center  721 is at  -1.476488  1.146363 -2.819440
      ESP Fit Center  722 is at  -0.388630  1.501091  3.082592
      ESP Fit Center  723 is at   0.124401  2.389685  2.901670
      ESP Fit Center  724 is at  -0.901660  2.389685  2.901670
      ESP Fit Center  725 is at  -1.414690  1.501091  2.901670
      ESP Fit Center  726 is at  -0.663064  3.409826  2.380725
      ESP Fit Center  727 is at  -1.651439  2.958450  2.380725
      ESP Fit Center  728 is at  -2.238880  2.044374  2.380725
      ESP Fit Center  729 is at  -0.663064  3.409826 -2.215542
      ESP Fit Center  730 is at  -1.651439  2.958450 -2.215542
      ESP Fit Center  731 is at   0.124401  2.389685 -2.736486
      ESP Fit Center  732 is at  -0.901660  2.389685 -2.736486
      ESP Fit Center  733 is at  -1.414690  1.501091 -2.736486
      ESP Fit Center  734 is at  -0.388630  1.501091 -2.917408
      ESP Fit Center  735 is at   1.032720  1.477681  3.095063
      ESP Fit Center  736 is at   2.058781  1.477681  2.914141
      ESP Fit Center  737 is at   1.545750  2.366276  2.914141
      ESP Fit Center  738 is at   0.519690  2.366276  2.914141
      ESP Fit Center  739 is at   2.654962  2.520233  2.393197
      ESP Fit Center  740 is at   1.833791  3.231782  2.393197
      ESP Fit Center  741 is at   0.758286  3.386416  2.393197
      ESP Fit Center  742 is at   0.761147  4.061525  1.595063
      ESP Fit Center  743 is at   0.761147  4.061525 -1.404937
      ESP Fit Center  744 is at   2.654962  2.520233 -2.203070
      ESP Fit Center  745 is at   1.833791  3.231782 -2.203070
      ESP Fit Center  746 is at   0.758286  3.386416 -2.203070
      ESP Fit Center  747 is at   2.058781  1.477681 -2.724014
      ESP Fit Center  748 is at   1.545750  2.366276 -2.724014
      ESP Fit Center  749 is at   0.519690  2.366276 -2.724014
      ESP Fit Center  750 is at   1.032720  1.477681 -2.904937
      ESP Fit Center  751 is at   1.522795  0.201339  3.016494
      ESP Fit Center  752 is at   3.187347 -0.270284  3.389770
      ESP Fit Center  753 is at   4.238005 -0.270284  3.223362
      ESP Fit Center  754 is at   3.712676  0.639612  3.223362
      ESP Fit Center  755 is at   2.662018  0.639612  3.223362
      ESP Fit Center  756 is at   2.136689 -0.270284  3.223362
      ESP Fit Center  757 is at   2.662018 -1.180181  3.223362
      ESP Fit Center  758 is at   3.712676 -1.180181  3.223362
      ESP Fit Center  759 is at   5.185817 -0.270284  2.740427
      ESP Fit Center  760 is at   4.918072  0.728951  2.740427
      ESP Fit Center  761 is at   4.186582  1.460441  2.740427
      ESP Fit Center  762 is at   3.187347  1.728186  2.740427
      ESP Fit Center  763 is at   2.188112 -2.001010  2.740427
      ESP Fit Center  764 is at   3.187347 -2.268754  2.740427
      ESP Fit Center  765 is at   4.186582 -2.001010  2.740427
      ESP Fit Center  766 is at   4.918072 -1.269519  2.740427
      ESP Fit Center  767 is at   5.938005 -0.270284  1.988239
      ESP Fit Center  768 is at   5.728623  0.782347  1.988239
      ESP Fit Center  769 is at   5.132356  1.674724  1.988239
      ESP Fit Center  770 is at   4.239978  2.270992  1.988239
      ESP Fit Center  771 is at   3.187347 -3.020942  1.988239
      ESP Fit Center  772 is at   4.239978 -2.811561  1.988239
      ESP Fit Center  773 is at   5.132356 -2.215293  1.988239
      ESP Fit Center  774 is at   5.728623 -1.322915  1.988239
      ESP Fit Center  775 is at   6.420939 -0.270284  1.040427
      ESP Fit Center  776 is at   6.245734  0.779661  1.040427
      ESP Fit Center  777 is at   5.739105  1.715829  1.040427
      ESP Fit Center  778 is at   4.955954  2.436771  1.040427
      ESP Fit Center  779 is at   3.981147  2.864361  1.040427
      ESP Fit Center  780 is at   2.920319 -3.492832  1.040427
      ESP Fit Center  781 is at   3.981147 -3.404929  1.040427
      ESP Fit Center  782 is at   4.955954 -2.977339  1.040427
      ESP Fit Center  783 is at   5.739105 -2.256398  1.040427
      ESP Fit Center  784 is at   6.245734 -1.320230  1.040427
      ESP Fit Center  785 is at   6.587347 -0.270284 -0.010230
      ESP Fit Center  786 is at   6.436294  0.731883 -0.010230
      ESP Fit Center  787 is at   5.996559  1.645004 -0.010230
      ESP Fit Center  788 is at   5.307212  2.387943 -0.010230
      ESP Fit Center  789 is at   4.429506  2.894686 -0.010230
      ESP Fit Center  790 is at   3.441429 -3.660777 -0.010230
      ESP Fit Center  791 is at   4.429506 -3.435255 -0.010230
      ESP Fit Center  792 is at   5.307212 -2.928511 -0.010230
      ESP Fit Center  793 is at   5.996559 -2.185572 -0.010230
[...]
  185 Fit       0.015456
  186 Fit       0.020894
  187 Fit       0.017297
  188 Fit       0.023894
  189 Fit       0.025787
  190 Fit       0.026479
  191 Fit       0.016455
  192 Fit       0.023002
  193 Fit       0.024791
  194 Fit       0.025291
  195 Fit       0.013136
  196 Fit       0.018079
  197 Fit       0.016015
  198 Fit       0.005357
  199 Fit       0.015242
  200 Fit       0.025366
  201 Fit       0.032667
  202 Fit       0.017463
  203 Fit       0.003375
  204 Fit      -0.000522
  205 Fit       0.000666
  206 Fit      -0.006346
  207 Fit      -0.012608
  208 Fit      -0.012143
  209 Fit      -0.012034
  210 Fit      -0.014808
  211 Fit       0.008267
  212 Fit      -0.000124
  213 Fit      -0.009284
  214 Fit      -0.000424
  215 Fit      -0.017996
  216 Fit      -0.005343
  217 Fit      -0.012095
  218 Fit      -0.014317
  219 Fit      -0.019304
  220 Fit      -0.029536
  221 Fit      -0.024733
  222 Fit      -0.022292
  223 Fit      -0.035963
  224 Fit      -0.038459
  225 Fit      -0.031343
  226 Fit      -0.029264
  227 Fit      -0.040658
  228 Fit      -0.043189
  229 Fit      -0.040621
  230 Fit      -0.027267
  231 Fit      -0.033903
  232 Fit      -0.042939
  233 Fit      -0.044970
  234 Fit      -0.042846
  235 Fit      -0.032101
  236 Fit      -0.034980
  237 Fit      -0.042861
  238 Fit      -0.044235
  239 Fit      -0.039871
  240 Fit      -0.026328
  241 Fit      -0.034558
  242 Fit      -0.040520
  243 Fit      -0.037805
  244 Fit      -0.027122
  245 Fit      -0.032139
  246 Fit       0.001247
  247 Fit       0.017051
  248 Fit      -0.016903
  249 Fit      -0.010246
  250 Fit      -0.000898
  251 Fit       0.005272
  252 Fit       0.002969
  253 Fit      -0.002686
  254 Fit      -0.001650
  255 Fit      -0.001590
  256 Fit      -0.007104
  257 Fit      -0.017364
  258 Fit      -0.009659
  259 Fit      -0.000558
  260 Fit       0.001368
  261 Fit       0.006778
  262 Fit       0.005392
  263 Fit      -0.001857
  264 Fit       0.016835
  265 Fit       0.011741
  266 Fit      -0.002382
  267 Fit       0.001731
  268 Fit      -0.000712
  269 Fit      -0.005530
  270 Fit      -0.001612
  271 Fit      -0.003721
  272 Fit      -0.004531
  273 Fit      -0.004611
  274 Fit      -0.005219
  275 Fit      -0.004320
  276 Fit      -0.001800
  277 Fit      -0.001260
  278 Fit      -0.003061
  279 Fit      -0.005339
  280 Fit      -0.001797
  281 Fit      -0.003383
  282 Fit      -0.002513
  283 Fit       0.002654
  284 Fit       0.000172
  285 Fit      -0.003639
  286 Fit      -0.003767
  287 Fit      -0.001881
  288 Fit       0.002888
  289 Fit      -0.000270
  290 Fit      -0.001921
  291 Fit       0.003259
  292 Fit      -0.001336
  293 Fit      -0.002708
  294 Fit       0.000377
  295 Fit       0.003321
  296 Fit       0.005003
  297 Fit       0.001441
  298 Fit      -0.001479
  299 Fit       0.000904
  300 Fit       0.003018
  301 Fit      -0.002341
  302 Fit      -0.001031
  303 Fit       0.003009
  304 Fit       0.005775
  305 Fit       0.002726
  306 Fit      -0.000666
  307 Fit      -0.002821
  308 Fit       0.001046
  309 Fit      -0.001927
  310 Fit      -0.003100
  311 Fit       0.000194
  312 Fit       0.003222
  313 Fit      -0.002393
  314 Fit      -0.004440
  315 Fit      -0.004560
  316 Fit      -0.001126
  317 Fit      -0.001630
  318 Fit      -0.004915
  319 Fit      -0.004535
  320 Fit      -0.002396
  321 Fit      -0.006609
  322 Fit      -0.006553
  323 Fit      -0.004753
  324 Fit      -0.004176
  325 Fit      -0.005493
  326 Fit      -0.006862
  327 Fit      -0.006952
  328 Fit       0.000983
  329 Fit      -0.000404
  330 Fit      -0.000933
  331 Fit       0.000890
  332 Fit       0.009645
  333 Fit       0.008041
  334 Fit       0.000795
  335 Fit       0.022918
  336 Fit       0.007491
  337 Fit       0.002485
  338 Fit       0.001262
  339 Fit       0.012760
  340 Fit       0.005685
  341 Fit       0.004205
  342 Fit       0.015754
  343 Fit       0.007371
  344 Fit       0.005351
  345 Fit       0.004122
  346 Fit       0.009334
  347 Fit       0.004751
  348 Fit       0.002579
  349 Fit       0.002687
  350 Fit      -0.004632
  351 Fit      -0.001466
  352 Fit      -0.002354
  353 Fit      -0.002226
  354 Fit      -0.001755
  355 Fit      -0.005825
  356 Fit      -0.006829
  357 Fit      -0.008857
  358 Fit      -0.007681
  359 Fit      -0.007125
  360 Fit      -0.006748
  361 Fit      -0.008697
  362 Fit       0.008614
  363 Fit       0.021432
  364 Fit       0.028283
  365 Fit       0.006944
  366 Fit       0.022645
  367 Fit       0.029398
  368 Fit       0.032843
  369 Fit       0.003789
  370 Fit       0.020423
  371 Fit       0.026849
  372 Fit       0.028341
  373 Fit      -0.005941
  374 Fit       0.014243
  375 Fit       0.019914
  376 Fit       0.017201
  377 Fit       0.003543
  378 Fit       0.027033
  379 Fit       0.027872
  380 Fit       0.032365
  381 Fit       0.032999
  382 Fit       0.035313
  383 Fit       0.035277
  384 Fit       0.032247
  385 Fit       0.032107
  386 Fit       0.032108
  387 Fit       0.023132
  388 Fit       0.011594
  389 Fit       0.005824
  390 Fit      -0.003883
  391 Fit       0.016086
  392 Fit       0.009291
  393 Fit      -0.004048
  394 Fit       0.020039
  395 Fit       0.013319
  396 Fit       0.004162
  397 Fit      -0.016107
  398 Fit       0.013203
  399 Fit       0.005246
  400 Fit      -0.012620
  401 Fit      -0.002787
  402 Fit      -0.021522
  403 Fit       0.010918
  404 Fit       0.015220
  405 Fit       0.014805
  406 Fit       0.012036
  407 Fit       0.017566
  408 Fit       0.019688
  409 Fit       0.020125
  410 Fit       0.017527
  411 Fit       0.020197
  412 Fit       0.020880
  413 Fit       0.022489
  414 Fit       0.010537
  415 Fit       0.016185
  416 Fit       0.018197
  417 Fit       0.018299
  418 Fit       0.008239
  419 Fit       0.012359
  420 Fit       0.014218
  421 Fit       0.018734
  422 Fit       0.005381
  423 Fit       0.012890
  424 Fit       0.020896
  425 Fit       0.025889
  426 Fit       0.029578
  427 Fit       0.021904
  428 Fit       0.012982
  429 Fit       0.010191
  430 Fit       0.011414
  431 Fit      -0.010849
  432 Fit       0.000254
  433 Fit       0.000197
  434 Fit      -0.001604
  435 Fit      -0.001321
  436 Fit      -0.011480
  437 Fit      -0.009329
  438 Fit      -0.009097
  439 Fit      -0.012038
  440 Fit       0.006120
  441 Fit      -0.000354
  442 Fit      -0.006219
  443 Fit       0.000526
  444 Fit      -0.016575
  445 Fit      -0.020887
  446 Fit      -0.007366
  447 Fit      -0.012798
  448 Fit      -0.014025
  449 Fit      -0.022727
  450 Fit      -0.018253
  451 Fit      -0.025952
  452 Fit      -0.030696
  453 Fit      -0.028228
  454 Fit      -0.015437
  455 Fit      -0.030515
  456 Fit      -0.034763
  457 Fit      -0.034201
  458 Fit      -0.027586
  459 Fit      -0.032991
  460 Fit      -0.036547
  461 Fit      -0.036077
  462 Fit      -0.030604
  463 Fit      -0.014894
  464 Fit      -0.024833
  465 Fit      -0.033250
  466 Fit      -0.036245
  467 Fit      -0.034694
  468 Fit      -0.027309
  469 Fit      -0.027726
  470 Fit      -0.032961
  471 Fit      -0.030630
  472 Fit      -0.022239
  473 Fit      -0.026227
  474 Fit       0.001957
  475 Fit      -0.015032
  476 Fit      -0.000190
  477 Fit       0.003856
  478 Fit       0.001761
  479 Fit      -0.001815
  480 Fit      -0.008930
  481 Fit       0.013761
  482 Fit       0.001864
  483 Fit      -0.002861
  484 Fit      -0.007809
  485 Fit      -0.015393
  486 Fit      -0.008832
  487 Fit       0.000288
  488 Fit       0.001208
  489 Fit       0.005161
  490 Fit       0.004107
  491 Fit       0.011903
  492 Fit       0.018180
  493 Fit       0.014859
  494 Fit       0.005764
  495 Fit       0.006978
  496 Fit      -0.002656
  497 Fit       0.000436
  498 Fit      -0.001862
  499 Fit      -0.004836
  500 Fit      -0.001125
  501 Fit      -0.002931
  502 Fit      -0.003466
  503 Fit      -0.002611
  504 Fit      -0.001244
  505 Fit      -0.001184
  506 Fit      -0.002023
  507 Fit      -0.003446
  508 Fit      -0.001833
  509 Fit      -0.002316
  510 Fit      -0.001188
  511 Fit       0.001994
  512 Fit      -0.000171
  513 Fit      -0.002203
  514 Fit      -0.002684
  515 Fit      -0.001920
  516 Fit       0.000939
  517 Fit      -0.000455
  518 Fit      -0.000910
  519 Fit       0.002207
  520 Fit      -0.001166
  521 Fit      -0.001677
  522 Fit      -0.000180
  523 Fit       0.001169
  524 Fit       0.002979
  525 Fit       0.001058
  526 Fit      -0.000326
  527 Fit       0.001660
  528 Fit       0.001290
  529 Fit      -0.001220
  530 Fit      -0.000310
  531 Fit       0.001970
  532 Fit       0.003449
  533 Fit       0.002871
  534 Fit       0.000878
  535 Fit      -0.000654
  536 Fit       0.000990
  537 Fit       0.009118
  538 Fit       0.000907
  539 Fit      -0.001502
  540 Fit      -0.000484
  541 Fit       0.001861
  542 Fit       0.003363
  543 Fit       0.000534
  544 Fit      -0.001078
  545 Fit      -0.001997
  546 Fit       0.000080
  547 Fit       0.005421
  548 Fit      -0.002232
  549 Fit      -0.002358
  550 Fit      -0.000622
  551 Fit       0.000818
  552 Fit      -0.002741
  553 Fit      -0.003608
  554 Fit      -0.003317
  555 Fit      -0.001464
  556 Fit      -0.002493
  557 Fit      -0.003968
  558 Fit      -0.003829
  559 Fit      -0.002787
  560 Fit      -0.005113
  561 Fit      -0.004936
  562 Fit      -0.004344
  563 Fit      -0.004618
  564 Fit      -0.004864
  565 Fit      -0.005286
  566 Fit      -0.005472
  567 Fit       0.002089
  568 Fit      -0.000004
  569 Fit      -0.000311
  570 Fit       0.001560
  571 Fit       0.008200
  572 Fit       0.007776
  573 Fit       0.002044
  574 Fit       0.018379
  575 Fit       0.007555
  576 Fit       0.002670
  577 Fit       0.000329
  578 Fit       0.022837
  579 Fit       0.009670
  580 Fit       0.004604
  581 Fit       0.002072
  582 Fit       0.013549
  583 Fit       0.006781
  584 Fit       0.004248
  585 Fit       0.016152
  586 Fit       0.008963
  587 Fit       0.004860
  588 Fit       0.003283
  589 Fit       0.003933
  590 Fit       0.002027
  591 Fit       0.000889
  592 Fit      -0.000003
  593 Fit      -0.007399
  594 Fit      -0.006894
  595 Fit      -0.005573
  596 Fit      -0.002593
  597 Fit      -0.002498
  598 Fit      -0.002681
  599 Fit      -0.003144
  600 Fit      -0.005518
  601 Fit      -0.006403
  602 Fit      -0.008127
  603 Fit      -0.007377
  604 Fit      -0.006067
  605 Fit      -0.005587
  606 Fit      -0.007197
  607 Fit       0.017026
  608 Fit       0.024047
  609 Fit      -0.006563
  610 Fit       0.011794
  611 Fit       0.021017
  612 Fit       0.025415
  613 Fit       0.009187
  614 Fit       0.018657
  615 Fit       0.022461
  616 Fit       0.023809
  617 Fit       0.002823
  618 Fit       0.013233
  619 Fit       0.015561
  620 Fit       0.000362
  621 Fit       0.022368
  622 Fit       0.027202
  623 Fit       0.026994
  624 Fit       0.029558
  625 Fit       0.028573
  626 Fit       0.026761
  627 Fit       0.026552
  628 Fit       0.018771
  629 Fit       0.003516
  630 Fit      -0.005567
  631 Fit       0.014416
  632 Fit       0.008506
  633 Fit      -0.000897
  634 Fit       0.018752
  635 Fit       0.011718
  636 Fit       0.004477
  637 Fit      -0.009106
  638 Fit       0.011683
  639 Fit       0.005077
  640 Fit      -0.006951
  641 Fit      -0.004931
  642 Fit       0.008366
  643 Fit       0.012396
  644 Fit       0.013732
  645 Fit       0.015927
  646 Fit       0.016583
  647 Fit       0.013521
  648 Fit       0.016155
  649 Fit       0.017063
  650 Fit       0.018016
  651 Fit       0.012413
  652 Fit       0.014555
  653 Fit       0.014923
  654 Fit       0.009652
  655 Fit       0.012339
  656 Fit       0.014848
  657 Fit       0.005195
  658 Fit       0.011051
  659 Fit       0.017383
  660 Fit       0.007443
  661 Fit       0.020856
  662 Fit       0.023841
  663 Fit       0.021787
  664 Fit       0.016277
  665 Fit       0.014818
  666 Fit       0.015996
  667 Fit       0.006923
  668 Fit       0.006050
  669 Fit       0.006578
  670 Fit      -0.011698
  671 Fit      -0.002725
  672 Fit      -0.001284
  673 Fit      -0.001934
  674 Fit      -0.002081
  675 Fit      -0.010359
  676 Fit      -0.007592
  677 Fit      -0.007378
  678 Fit      -0.010310
  679 Fit       0.004946
  680 Fit      -0.000109
  681 Fit      -0.004157
  682 Fit       0.001216
  683 Fit      -0.014921
  684 Fit      -0.017927
  685 Fit      -0.008073
  686 Fit      -0.012446
  687 Fit      -0.010333
  688 Fit      -0.016749
  689 Fit      -0.013011
  690 Fit      -0.017547
  691 Fit      -0.022905
  692 Fit      -0.022909
  693 Fit      -0.017096
  694 Fit      -0.021225
  695 Fit      -0.026747
  696 Fit      -0.027582
  697 Fit      -0.024244
  698 Fit      -0.014046
  699 Fit      -0.026493
  700 Fit      -0.029643
  701 Fit      -0.029688
  702 Fit      -0.026525
  703 Fit      -0.017933
  704 Fit      -0.025734
  705 Fit      -0.029901
  706 Fit      -0.030575
  707 Fit      -0.028097
  708 Fit      -0.020965
  709 Fit      -0.019884
  710 Fit      -0.025954
  711 Fit      -0.029316
  712 Fit      -0.029397
  713 Fit      -0.026056
  714 Fit      -0.019261
  715 Fit      -0.022836
  716 Fit      -0.026814
  717 Fit      -0.025036
  718 Fit      -0.019115
  719 Fit      -0.021872
  720 Fit       0.002349
  721 Fit      -0.013333
  722 Fit       0.000356
  723 Fit       0.003067
  724 Fit       0.001216
  725 Fit      -0.001052
  726 Fit       0.005884
  727 Fit       0.000168
  728 Fit      -0.006738
  729 Fit      -0.000902
  730 Fit      -0.010423
  731 Fit      -0.003496
  732 Fit      -0.007846
  733 Fit      -0.013569
  734 Fit      -0.008094
  735 Fit       0.000832
  736 Fit       0.001247
  737 Fit       0.004166
  738 Fit       0.003365
  739 Fit       0.006794
  740 Fit       0.009408
  741 Fit       0.008768
  742 Fit       0.013761
  743 Fit       0.010233
  744 Fit       0.003179
  745 Fit       0.005292
  746 Fit       0.003981
  747 Fit      -0.002693
  748 Fit      -0.000376
  749 Fit      -0.002479
  750 Fit      -0.004394
  751 Fit      -0.000571
  752 Fit      -0.001757
  753 Fit      -0.002205
  754 Fit      -0.001475
  755 Fit      -0.000641
  756 Fit      -0.000713
  757 Fit      -0.001163
  758 Fit      -0.002137
  759 Fit      -0.001439
  760 Fit      -0.001448
  761 Fit      -0.000374
  762 Fit       0.001695
  763 Fit       0.000090
  764 Fit      -0.001195
  765 Fit      -0.001767
  766 Fit      -0.001518
  767 Fit       0.000165
  768 Fit      -0.000422
  769 Fit      -0.000216
  770 Fit       0.002310
  771 Fit      -0.000404
  772 Fit      -0.001068
  773 Fit      -0.000448
  774 Fit       0.000246
  775 Fit       0.001687
  776 Fit       0.000720
  777 Fit       0.000191
  778 Fit       0.001743
  779 Fit       0.007478
  780 Fit       0.000779
  781 Fit      -0.000543
  782 Fit      -0.000038
  783 Fit       0.001181
  784 Fit       0.001949
  785 Fit       0.002237
  786 Fit       0.001167
  787 Fit       0.000304
  788 Fit       0.000992
  789 Fit       0.004975
  790 Fit      -0.000119
  791 Fit      -0.000436
  792 Fit       0.000600
  793 Fit       0.001912
  794 Fit       0.002587
  795 Fit       0.001421
  796 Fit       0.000358
  797 Fit      -0.000370
  798 Fit       0.000755
  799 Fit       0.005318
  800 Fit      -0.000091
  801 Fit      -0.001112
  802 Fit      -0.000417
  803 Fit       0.000906
  804 Fit       0.001709
  805 Fit      -0.000460
  806 Fit      -0.001251
  807 Fit      -0.001492
  808 Fit       0.000092
  809 Fit       0.003153
  810 Fit      -0.001942
  811 Fit      -0.002063
  812 Fit      -0.001149
  813 Fit      -0.000340
  814 Fit      -0.002579
  815 Fit      -0.002910
  816 Fit      -0.002549
  817 Fit      -0.001563
  818 Fit      -0.002577
  819 Fit      -0.003345
  820 Fit      -0.003207
  821 Fit      -0.002650
  822 Fit      -0.004041
  823 Fit      -0.003881
  824 Fit      -0.003879
  825 Fit      -0.004479
  826 Fit      -0.004292
  827 Fit      -0.004216
  828 Fit      -0.004462
  829 Fit       0.002687
  830 Fit       0.000541
  831 Fit       0.000380
  832 Fit       0.002067
  833 Fit       0.007108
  834 Fit       0.007234
  835 Fit       0.002737
  836 Fit       0.014885
  837 Fit       0.007276
  838 Fit       0.002933
  839 Fit       0.000386
  840 Fit       0.019157
  841 Fit       0.009077
  842 Fit       0.004339
  843 Fit       0.001499
  844 Fit       0.022162
  845 Fit       0.010973
  846 Fit       0.005854
  847 Fit       0.003221
  848 Fit       0.011681
  849 Fit       0.006664
  850 Fit       0.004094
  851 Fit       0.002209
  852 Fit       0.008378
  853 Fit       0.005223
  854 Fit       0.002997
  855 Fit       0.001608
  856 Fit      -0.001387
  857 Fit       0.001634
  858 Fit       0.000889
  859 Fit      -0.000032
  860 Fit      -0.001119
  861 Fit      -0.005035
  862 Fit      -0.006738
  863 Fit      -0.007708
  864 Fit      -0.005527
  865 Fit      -0.002936
  866 Fit      -0.002455
  867 Fit      -0.002704
  868 Fit      -0.003420
  869 Fit      -0.005007
  870 Fit      -0.005813
  871 Fit      -0.007339
  872 Fit      -0.006830
  873 Fit      -0.005260
  874 Fit      -0.004742
  875 Fit      -0.006137
  876 Fit       0.013785
  877 Fit      -0.004437
  878 Fit       0.009130
  879 Fit       0.016992
  880 Fit       0.021380
  881 Fit       0.001074
  882 Fit       0.012305
  883 Fit       0.017936
  884 Fit       0.020813
  885 Fit      -0.003390
  886 Fit       0.009178
  887 Fit       0.014836
  888 Fit       0.016912
  889 Fit      -0.001636
  890 Fit       0.007591
  891 Fit       0.009870
  892 Fit       0.022672
  893 Fit       0.022164
  894 Fit       0.025018
  895 Fit       0.023801
  896 Fit       0.024314
  897 Fit       0.023647
  898 Fit       0.019802
  899 Fit       0.002057
  900 Fit       0.011223
  901 Fit       0.006114
  902 Fit      -0.001714
  903 Fit       0.011008
  904 Fit       0.005243
  905 Fit      -0.003614
  906 Fit       0.009851
  907 Fit       0.003745
  908 Fit      -0.006125
  909 Fit       0.001872
  910 Fit      -0.008872
  911 Fit       0.009746
  912 Fit       0.010773
  913 Fit       0.012696
  914 Fit       0.013290
  915 Fit       0.010718
  916 Fit       0.013180
  917 Fit       0.014192
  918 Fit       0.014846
  919 Fit       0.010156
  920 Fit       0.012645
  921 Fit       0.013600
  922 Fit       0.014105
  923 Fit       0.009141
  924 Fit       0.011003
  925 Fit       0.011218
 -----------------------------------------------------------------
 Leave Link  602 at Fri Aug 24 15:35:58 2018, MaxMem=   33554432 cpu:       0.2

 Test job not archived.
 1\1\GINC-NODE043\SP\RHF\6-31G(d)\C5H4Cl1N1O1S1\WULSDORT\24-Aug-2018\0\
 \#HF/6-31G* Geom=AllCheck Guess=Read Pop=(MK,ReadRadii) Integral=(Grid
 =UltraFine) iop(6/33=2)\\Optimization for frag41-conf0\\0,1\N,0,1.7686
 500842,-1.1549496863,-0.4887250888\C,0,2.2831393843,0.0597079337,-0.09
 93397278\O,0,2.1539357665,1.0741087228,-0.7719046271\C,0,3.0472134846,
 0.0814235187,1.1751502136\C,0,3.4545228584,1.2269158475,1.811628935\C,
 0,4.159022287,0.9916570855,3.0237644601\C,0,4.2814213029,-0.3457669303
 ,3.29155363\Cl,0,5.07471019,-1.0623470168,4.6520974679\S,0,3.552642430
 9,-1.3434400513,2.0652539819\H,0,1.1557047745,-1.1253550045,-1.2930344
 358\H,0,1.57865975,-1.8787007655,0.1909060986\H,0,3.239156648,2.206783
 0756,1.4020905436\H,0,4.5580350235,1.7657640556,3.6680413065\\Version=
 AM64L-G09RevC.01\State=1-A\HF=-1177.9649059\RMSD=5.751e-09\Dipole=-0.3
 639071,-0.5790233,0.5648118\Quadrupole=2.1736875,2.2719389,-4.4456264,
 5.6201705,1.8376374,7.6846497\PG=C01 [X(C5H4Cl1N1O1S1)]\\@


 NATURE WILL TELL YOU A DIRECT LIE IF SHE CAN.

                                -- CHARLES DARWIN
 Job cpu time:  0 days  0 hours  0 minutes 48.9 seconds.
 File lengths (MBytes):  RWF=     16 Int=      0 D2E=      0 Chk=      3 Scr=      1
 Normal termination of Gaussian 09 at Fri Aug 24 15:36:03 2018.
