 Entering Gaussian System, Link 0=g09
 Initial command:
 /home/fb_chem/chemsoft/lx24-amd64/Gaussian_09_C.01_NBO_3.1_64_istanbul-64/g09/l1.exe /local/2397345.1.parallel_long/Gau-17461.inp -scrdir=/local/2397345.1.parallel_long/
 Entering Link 1 = /home/fb_chem/chemsoft/lx24-amd64/Gaussian_09_C.01_NBO_3.1_64_istanbul-64/g09/l1.exe PID=     17462.
  
 Copyright (c) 1988,1990,1992,1993,1995,1998,2003,2009,2011,
            Gaussian, Inc.  All Rights Reserved.
  
 This is part of the Gaussian(R) 09 program.  It is based on
 the Gaussian(R) 03 system (copyright 2003, Gaussian, Inc.),
 the Gaussian(R) 98 system (copyright 1998, Gaussian, Inc.),
 the Gaussian(R) 94 system (copyright 1995, Gaussian, Inc.),
 the Gaussian 92(TM) system (copyright 1992, Gaussian, Inc.),
 the Gaussian 90(TM) system (copyright 1990, Gaussian, Inc.),
 the Gaussian 88(TM) system (copyright 1988, Gaussian, Inc.),
 the Gaussian 86(TM) system (copyright 1986, Carnegie Mellon
 University), and the Gaussian 82(TM) system (copyright 1983,
 Carnegie Mellon University). Gaussian is a federally registered
 trademark of Gaussian, Inc.
  
 This software contains proprietary and confidential information,
 including trade secrets, belonging to Gaussian, Inc.
  
 This software is provided under written license and may be
 used, copied, transmitted, or stored only in accord with that
 written license.
  
 The following legend is applicable only to US Government
 contracts under FAR:
  
                    RESTRICTED RIGHTS LEGEND
  
 Use, reproduction and disclosure by the US Government is
 subject to restrictions as set forth in subparagraphs (a)
 and (c) of the Commercial Computer Software - Restricted
 Rights clause in FAR 52.227-19.
  
 Gaussian, Inc.
 340 Quinnipiac St., Bldg. 40, Wallingford CT 06492
  
  
 ---------------------------------------------------------------
 Warning -- This program may not be used in any manner that
 competes with the business of Gaussian, Inc. or will provide
 assistance to any competitor of Gaussian, Inc.  The licensee
 of this program is prohibited from giving any competitor of
 Gaussian, Inc. access to this program.  By using this program,
 the user acknowledges that Gaussian, Inc. is engaged in the
 business of creating and licensing software in the field of
 computational chemistry and represents and warrants to the
 licensee that it is not a competitor of Gaussian, Inc. and that
 it will not use this program in any manner prohibited above.
 ---------------------------------------------------------------
  

 Cite this work as:
 Gaussian 09, Revision C.01,
 M. J. Frisch, G. W. Trucks, H. B. Schlegel, G. E. Scuseria, 
 M. A. Robb, J. R. Cheeseman, G. Scalmani, V. Barone, B. Mennucci, 
 G. A. Petersson, H. Nakatsuji, M. Caricato, X. Li, H. P. Hratchian, 
 A. F. Izmaylov, J. Bloino, G. Zheng, J. L. Sonnenberg, M. Hada, 
 M. Ehara, K. Toyota, R. Fukuda, J. Hasegawa, M. Ishida, T. Nakajima, 
 Y. Honda, O. Kitao, H. Nakai, T. Vreven, J. A. Montgomery, Jr., 
 J. E. Peralta, F. Ogliaro, M. Bearpark, J. J. Heyd, E. Brothers, 
 K. N. Kudin, V. N. Staroverov, T. Keith, R. Kobayashi, J. Normand, 
 K. Raghavachari, A. Rendell, J. C. Burant, S. S. Iyengar, J. Tomasi, 
 M. Cossi, N. Rega, J. M. Millam, M. Klene, J. E. Knox, J. B. Cross, 
 V. Bakken, C. Adamo, J. Jaramillo, R. Gomperts, R. E. Stratmann, 
 O. Yazyev, A. J. Austin, R. Cammi, C. Pomelli, J. W. Ochterski, 
 R. L. Martin, K. Morokuma, V. G. Zakrzewski, G. A. Voth, 
 P. Salvador, J. J. Dannenberg, S. Dapprich, A. D. Daniels, 
 O. Farkas, J. B. Foresman, J. V. Ortiz, J. Cioslowski, 
 and D. J. Fox, Gaussian, Inc., Wallingford CT, 2010.
 
 ******************************************
 Gaussian 09:  AM64L-G09RevC.01 23-Sep-2011
                16-Feb-2018 
 ******************************************
 %nprocs=4
 Will use up to    4 processors via shared memory.
 %chk=frag18-conf2.chk
 ---------------------------------------------------------
 #B3LYP/6-31G* Integral=(Grid=UltraFine) freq Opt pop=none
 ---------------------------------------------------------
 1/14=-1,18=20,19=15,26=3,38=1/1,3;
 2/9=110,12=2,17=6,18=5,40=1/2;
 3/5=1,6=6,7=1,11=2,16=1,25=1,30=1,71=1,74=-5,75=-5/1,2,3;
 4//1;
 5/5=2,38=5/2;
 7//1,2,3,16;
 1/14=-1,18=20,19=15/3(2);
 2/9=110/2;
 99//99;
 2/9=110/2;
 3/5=1,6=6,7=1,11=2,16=1,25=1,30=1,71=1,74=-5,75=-5/1,2,3;
 4/5=5,16=3/1;
 5/5=2,38=5/2;
 7//1,2,3,16;
 1/14=-1,18=20,19=15/3(-5);
 2/9=110/2;
 99/9=1/99;
 -----------------------------
 Optimization for frag18-conf2
 -----------------------------
 Charge =  1 Multiplicity = 1
 Symbolic Z-Matrix:
 C                     0.78254  -1.39481   0.71703 
 C                     2.02877  -1.71871   0.19525 
 C                     0.69413  -0.90045   2.0121 
 C                     3.02461  -1.04875   2.27354 
 C                     3.17236  -1.54067   0.9759 
 C                     6.03004  -3.86211   0.39276 
 C                     6.08419  -5.357     0.55132 
 C                     1.68474  -0.22485   4.13029 
 C                     4.53222  -1.90755   0.4569 
 N                     1.80497  -0.73241   2.75763 
 N                     4.78653  -3.32266   0.60437 
 O                     7.01168  -3.19358   0.07544 
 H                    -0.11851  -1.52834   0.12488 
 H                     2.10426  -2.11237  -0.81732 
 H                    -0.25608  -0.6403    2.46518 
 H                     3.86826  -0.90587   2.94048 
 H                     5.82099  -5.8289   -0.39895 
 H                     7.09588  -5.65576   0.83923 
 H                     5.38978  -5.69292   1.32665 
 H                     1.60988  -1.08919   4.79491 
 H                     2.56734   0.37452   4.36908 
 H                     0.79344   0.40301   4.20941 
 H                     4.61773  -1.65475  -0.60663 
 H                     5.31737  -1.3472    0.9785 
 H                     4.00625  -3.94491   0.79744 
 

 GradGradGradGradGradGradGradGradGradGradGradGradGradGradGradGradGradGrad
 Berny optimization.
 Initialization pass.
                           ----------------------------
                           !    Initial Parameters    !
                           ! (Angstroms and Degrees)  !
 --------------------------                            --------------------------
 ! Name  Definition              Value          Derivative Info.                !
 --------------------------------------------------------------------------------
 ! R1    R(1,2)                  1.3893         estimate D2E/DX2                !
 ! R2    R(1,3)                  1.389          estimate D2E/DX2                !
 ! R3    R(1,13)                 1.0865         estimate D2E/DX2                !
 ! R4    R(2,5)                  1.396          estimate D2E/DX2                !
 ! R5    R(2,14)                 1.089          estimate D2E/DX2                !
 ! R6    R(3,10)                 1.3483         estimate D2E/DX2                !
 ! R7    R(3,15)                 1.0844         estimate D2E/DX2                !
 ! R8    R(4,5)                  1.3956         estimate D2E/DX2                !
 ! R9    R(4,10)                 1.3498         estimate D2E/DX2                !
 ! R10   R(4,16)                 1.0849         estimate D2E/DX2                !
 ! R11   R(5,9)                  1.5011         estimate D2E/DX2                !
 ! R12   R(6,7)                  1.5042         estimate D2E/DX2                !
 ! R13   R(6,11)                 1.3719         estimate D2E/DX2                !
 ! R14   R(6,12)                 1.2293         estimate D2E/DX2                !
 ! R15   R(7,17)                 1.0932         estimate D2E/DX2                !
 ! R16   R(7,18)                 1.0935         estimate D2E/DX2                !
 ! R17   R(7,19)                 1.0937         estimate D2E/DX2                !
 ! R18   R(8,10)                 1.4684         estimate D2E/DX2                !
 ! R19   R(8,20)                 1.0929         estimate D2E/DX2                !
 ! R20   R(8,21)                 1.0933         estimate D2E/DX2                !
 ! R21   R(8,22)                 1.0931         estimate D2E/DX2                !
 ! R22   R(9,11)                 1.4453         estimate D2E/DX2                !
 ! R23   R(9,23)                 1.0965         estimate D2E/DX2                !
 ! R24   R(9,24)                 1.0966         estimate D2E/DX2                !
 ! R25   R(11,25)                1.0165         estimate D2E/DX2                !
 ! A1    A(2,1,3)              119.3555         estimate D2E/DX2                !
 ! A2    A(2,1,13)             120.7022         estimate D2E/DX2                !
 ! A3    A(3,1,13)             119.9418         estimate D2E/DX2                !
 ! A4    A(1,2,5)              119.673          estimate D2E/DX2                !
 ! A5    A(1,2,14)             119.7131         estimate D2E/DX2                !
 ! A6    A(5,2,14)             120.6135         estimate D2E/DX2                !
 ! A7    A(1,3,10)             120.4932         estimate D2E/DX2                !
 ! A8    A(1,3,15)             122.0544         estimate D2E/DX2                !
 ! A9    A(10,3,15)            117.4518         estimate D2E/DX2                !
 ! A10   A(5,4,10)             120.7799         estimate D2E/DX2                !
 ! A11   A(5,4,16)             122.3915         estimate D2E/DX2                !
 ! A12   A(10,4,16)            116.8279         estimate D2E/DX2                !
 ! A13   A(2,5,4)              118.5656         estimate D2E/DX2                !
 ! A14   A(2,5,9)              121.1715         estimate D2E/DX2                !
 ! A15   A(4,5,9)              120.2353         estimate D2E/DX2                !
 ! A16   A(7,6,11)             114.0255         estimate D2E/DX2                !
 ! A17   A(7,6,12)             122.6089         estimate D2E/DX2                !
 ! A18   A(11,6,12)            123.3506         estimate D2E/DX2                !
 ! A19   A(6,7,17)             109.1898         estimate D2E/DX2                !
 ! A20   A(6,7,18)             109.4257         estimate D2E/DX2                !
 ! A21   A(6,7,19)             110.9218         estimate D2E/DX2                !
 ! A22   A(17,7,18)            109.4937         estimate D2E/DX2                !
 ! A23   A(17,7,19)            109.3165         estimate D2E/DX2                !
 ! A24   A(18,7,19)            108.4739         estimate D2E/DX2                !
 ! A25   A(10,8,20)            107.5005         estimate D2E/DX2                !
 ! A26   A(10,8,21)            109.1211         estimate D2E/DX2                !
 ! A27   A(10,8,22)            109.448          estimate D2E/DX2                !
 ! A28   A(20,8,21)            110.8587         estimate D2E/DX2                !
 ! A29   A(20,8,22)            110.7567         estimate D2E/DX2                !
 ! A30   A(21,8,22)            109.1202         estimate D2E/DX2                !
 ! A31   A(5,9,11)             111.3114         estimate D2E/DX2                !
 ! A32   A(5,9,23)             110.4662         estimate D2E/DX2                !
 ! A33   A(5,9,24)             111.0561         estimate D2E/DX2                !
 ! A34   A(11,9,23)            108.1183         estimate D2E/DX2                !
 ! A35   A(11,9,24)            109.0138         estimate D2E/DX2                !
 ! A36   A(23,9,24)            106.7203         estimate D2E/DX2                !
 ! A37   A(3,10,4)             121.1251         estimate D2E/DX2                !
 ! A38   A(3,10,8)             119.5041         estimate D2E/DX2                !
 ! A39   A(4,10,8)             119.3567         estimate D2E/DX2                !
 ! A40   A(6,11,9)             121.9211         estimate D2E/DX2                !
 ! A41   A(6,11,25)            118.9703         estimate D2E/DX2                !
 ! A42   A(9,11,25)            118.9246         estimate D2E/DX2                !
 ! D1    D(3,1,2,5)             -0.1476         estimate D2E/DX2                !
 ! D2    D(3,1,2,14)           179.6338         estimate D2E/DX2                !
 ! D3    D(13,1,2,5)          -179.8911         estimate D2E/DX2                !
 ! D4    D(13,1,2,14)           -0.1097         estimate D2E/DX2                !
 ! D5    D(2,1,3,10)             0.1445         estimate D2E/DX2                !
 ! D6    D(2,1,3,15)          -179.5639         estimate D2E/DX2                !
 ! D7    D(13,1,3,10)          179.8899         estimate D2E/DX2                !
 ! D8    D(13,1,3,15)            0.1816         estimate D2E/DX2                !
 ! D9    D(1,2,5,4)              0.5575         estimate D2E/DX2                !
 ! D10   D(1,2,5,9)            178.651          estimate D2E/DX2                !
 ! D11   D(14,2,5,4)          -179.222          estimate D2E/DX2                !
 ! D12   D(14,2,5,9)            -1.1284         estimate D2E/DX2                !
 ! D13   D(1,3,10,4)            -0.5785         estimate D2E/DX2                !
 ! D14   D(1,3,10,8)          -179.2025         estimate D2E/DX2                !
 ! D15   D(15,3,10,4)          179.143          estimate D2E/DX2                !
 ! D16   D(15,3,10,8)            0.519          estimate D2E/DX2                !
 ! D17   D(10,4,5,2)            -0.9896         estimate D2E/DX2                !
 ! D18   D(10,4,5,9)          -179.1016         estimate D2E/DX2                !
 ! D19   D(16,4,5,2)           178.7145         estimate D2E/DX2                !
 ! D20   D(16,4,5,9)             0.6026         estimate D2E/DX2                !
 ! D21   D(5,4,10,3)             1.0107         estimate D2E/DX2                !
 ! D22   D(5,4,10,8)           179.6368         estimate D2E/DX2                !
 ! D23   D(16,4,10,3)         -178.7093         estimate D2E/DX2                !
 ! D24   D(16,4,10,8)           -0.0833         estimate D2E/DX2                !
 ! D25   D(2,5,9,11)           -81.9383         estimate D2E/DX2                !
 ! D26   D(2,5,9,23)            38.1868         estimate D2E/DX2                !
 ! D27   D(2,5,9,24)           156.3988         estimate D2E/DX2                !
 ! D28   D(4,5,9,11)            96.1236         estimate D2E/DX2                !
 ! D29   D(4,5,9,23)          -143.7512         estimate D2E/DX2                !
 ! D30   D(4,5,9,24)           -25.5392         estimate D2E/DX2                !
 ! D31   D(11,6,7,17)           86.7943         estimate D2E/DX2                !
 ! D32   D(11,6,7,18)         -153.3774         estimate D2E/DX2                !
 ! D33   D(11,6,7,19)          -33.738          estimate D2E/DX2                !
 ! D34   D(12,6,7,17)          -91.8368         estimate D2E/DX2                !
 ! D35   D(12,6,7,18)           27.9915         estimate D2E/DX2                !
 ! D36   D(12,6,7,19)          147.6309         estimate D2E/DX2                !
 ! D37   D(7,6,11,9)          -178.0969         estimate D2E/DX2                !
 ! D38   D(7,6,11,25)           -3.0825         estimate D2E/DX2                !
 ! D39   D(12,6,11,9)            0.5226         estimate D2E/DX2                !
 ! D40   D(12,6,11,25)         175.537          estimate D2E/DX2                !
 ! D41   D(20,8,10,3)           92.2888         estimate D2E/DX2                !
 ! D42   D(20,8,10,4)          -86.3598         estimate D2E/DX2                !
 ! D43   D(21,8,10,3)         -147.4156         estimate D2E/DX2                !
 ! D44   D(21,8,10,4)           33.9358         estimate D2E/DX2                !
 ! D45   D(22,8,10,3)          -28.0704         estimate D2E/DX2                !
 ! D46   D(22,8,10,4)          153.281          estimate D2E/DX2                !
 ! D47   D(5,9,11,6)          -169.8756         estimate D2E/DX2                !
 ! D48   D(5,9,11,25)           15.1078         estimate D2E/DX2                !
 ! D49   D(23,9,11,6)           68.6212         estimate D2E/DX2                !
 ! D50   D(23,9,11,25)        -106.3954         estimate D2E/DX2                !
 ! D51   D(24,9,11,6)          -47.0325         estimate D2E/DX2                !
 ! D52   D(24,9,11,25)         137.9509         estimate D2E/DX2                !
 --------------------------------------------------------------------------------
 Trust Radius=3.00D-01 FncErr=1.00D-07 GrdErr=1.00D-06
 Number of steps in this run=    129 maximum allowed number of steps=    150.
 GradGradGradGradGradGradGradGradGradGradGradGradGradGradGradGradGradGrad

                          Input orientation:                          
 ---------------------------------------------------------------------
 Center     Atomic      Atomic             Coordinates (Angstroms)
 Number     Number       Type             X           Y           Z
 ---------------------------------------------------------------------
      1          6           0        0.782544   -1.394809    0.717034
      2          6           0        2.028768   -1.718705    0.195248
      3          6           0        0.694131   -0.900453    2.012100
      4          6           0        3.024608   -1.048746    2.273537
      5          6           0        3.172364   -1.540666    0.975896
      6          6           0        6.030041   -3.862112    0.392762
      7          6           0        6.084193   -5.356999    0.551323
      8          6           0        1.684741   -0.224851    4.130293
      9          6           0        4.532220   -1.907553    0.456899
     10          7           0        1.804973   -0.732409    2.757629
     11          7           0        4.786535   -3.322659    0.604369
     12          8           0        7.011678   -3.193575    0.075444
     13          1           0       -0.118510   -1.528343    0.124878
     14          1           0        2.104264   -2.112368   -0.817321
     15          1           0       -0.256079   -0.640301    2.465180
     16          1           0        3.868261   -0.905868    2.940483
     17          1           0        5.820989   -5.828897   -0.398954
     18          1           0        7.095880   -5.655759    0.839225
     19          1           0        5.389776   -5.692916    1.326651
     20          1           0        1.609877   -1.089190    4.794909
     21          1           0        2.567340    0.374520    4.369079
     22          1           0        0.793442    0.403013    4.209406
     23          1           0        4.617732   -1.654747   -0.606629
     24          1           0        5.317365   -1.347202    0.978495
     25          1           0        4.006250   -3.944915    0.797435
 ---------------------------------------------------------------------
                    Distance matrix (angstroms):
                    1          2          3          4          5
     1  C    0.000000
     2  C    1.389332   0.000000
     3  C    1.389029   2.398280   0.000000
     4  C    2.751239   2.399964   2.349780   0.000000
     5  C    2.408220   1.396037   2.761382   1.395596   0.000000
     6  C    5.807664   4.543500   6.313923   4.526033   3.727664
     7  C    6.620717   5.459894   7.144750   5.557709   4.819068
     8  C    3.719287   4.223095   2.434027   2.433432   3.727547
     9  C    3.793501   2.524162   4.261904   2.512094   1.501057
    10  N    2.376587   2.754753   1.348341   1.349786   2.386966
    11  N    4.445362   3.216415   4.959492   3.325836   2.432916
    12  O    6.515314   5.197979   6.994316   5.032756   4.275893
    13  H    1.086452   2.156848   2.148543   3.837439   3.399152
    14  H    2.148507   1.089021   3.385682   3.395840   2.164095
    15  H    2.168879   3.396480   1.084371   3.311566   3.844847
    16  H    3.834637   3.403051   3.307117   1.084887   2.178726
    17  H    6.803859   5.623851   7.509156   6.149130   5.224400
    18  H    7.617666   6.449087   8.060457   6.313246   5.687412
    19  H    6.330241   5.326425   6.744378   5.297069   4.720289
    20  H    4.172163   4.661399   2.935683   2.891439   4.150910
    21  H    4.433222   4.700268   3.269529   2.574117   3.943055
    22  H    3.927970   4.705442   2.556764   3.291398   4.460129
    23  H    4.065503   2.711057   4.777169   3.346735   2.146273
    24  H    4.542602   3.400935   4.758384   2.650084   2.153710
    25  H    4.111178   3.037939   4.659860   3.395628   2.551005
                    6          7          8          9         10
     6  C    0.000000
     7  C    1.504248   0.000000
     8  C    6.788258   7.648735   0.000000
     9  C    2.463307   3.783678   4.943020   0.000000
    10  N    5.765313   6.675803   1.468426   3.756620   0.000000
    11  N    1.371895   2.413560   5.625805   1.445319   4.498403
    12  O    1.229326   2.401478   7.323345   2.819056   6.353049
    13  H    6.582015   7.301643   4.581938   4.677962   3.356289
    14  H    4.465157   5.314193   5.312025   2.749646   3.843714
    15  H    7.361406   8.130754   2.590749   5.344804   2.083735
    16  H    4.461341   5.516432   2.578214   2.759059   2.078624
    17  H    2.130437   1.093156   8.308307   4.215490   7.215719
    18  H    2.133662   1.093460   8.343040   4.557146   7.477523
    19  H    2.152657   1.093704   7.175474   3.977543   6.285312
    20  H    6.826848   7.499448   1.092886   5.294160   2.077466
    21  H    6.763908   7.732648   1.093273   4.936979   2.098396
    22  H    7.757580   8.634314   1.093109   5.779143   2.102388
    23  H    2.804614   4.147051   5.751997   1.096501   4.481132
    24  H    2.678761   4.104750   4.938569   1.096590   3.984995
    25  H    2.065514   2.524362   5.507832   2.131537   4.359836
                   11         12         13         14         15
    11  N    0.000000
    12  O    2.290783   0.000000
    13  H    5.244897   7.322228   0.000000
    14  H    3.268116   5.103797   2.483858   0.000000
    15  H    6.007131   8.065380   2.506902   4.302676   0.000000
    16  H    3.484471   4.829403   4.920310   4.323011   4.160123
    17  H    2.891018   2.930481   7.351654   5.272728   8.488555
    18  H    3.291138   2.579303   8.342259   6.341608   9.047091
    19  H    2.550238   3.231531   7.009219   5.311453   7.661649
    20  H    5.713157   7.475376   4.998936   5.726119   3.018431
    21  H    5.724247   7.135738   5.371026   5.770425   3.553363
    22  H    6.543830   8.288037   4.609248   5.771775   2.287427
    23  H    2.068076   2.926465   4.794065   2.563460   5.849713
    24  H    2.079466   2.663699   5.505471   3.759581   5.811474
    25  H    1.016524   3.180940   4.827608   3.095677   5.645290
                   16         17         18         19         20
    16  H    0.000000
    17  H    6.261087   0.000000
    18  H    6.115087   1.785612   0.000000
    19  H    5.275917   1.783857   1.774755   0.000000
    20  H    2.927934   8.196005   8.160712   6.892804   0.000000
    21  H    2.317903   8.473651   8.326573   7.350939   1.800143
    22  H    3.574611   9.238502   9.369502   8.160694   1.798902
    23  H    3.701963   4.349079   4.923394   4.543175   6.208353
    24  H    2.478725   4.715569   4.663279   4.360239   5.327012
    25  H    3.721223   2.876459   3.531933   2.291228   5.466037
                   21         22         23         24         25
    21  H    0.000000
    22  H    1.781298   0.000000
    23  H    5.751496   6.484887   0.000000
    24  H    4.692870   5.828201   1.759741   0.000000
    25  H    5.786590   6.392821   2.755027   2.915461   0.000000
 Stoichiometry    C9H13N2O(1+)
 Framework group  C1[X(C9H13N2O)]
 Deg. of freedom    69
 Full point group                 C1      NOp   1
 Largest Abelian subgroup         C1      NOp   1
 Largest concise Abelian subgroup C1      NOp   1
                         Standard orientation:                         
 ---------------------------------------------------------------------
 Center     Atomic      Atomic             Coordinates (Angstroms)
 Number     Number       Type             X           Y           Z
 ---------------------------------------------------------------------
      1          6           0        2.301790    1.750320    0.187484
      2          6           0        0.988432    1.607846   -0.242675
      3          6           0        3.089586    0.618820    0.356260
      4          6           0        1.313368   -0.769147   -0.307113
      5          6           0        0.480433    0.333588   -0.501756
      6          6           0       -3.162669   -0.212935    0.067976
      7          6           0       -3.950437   -0.095202    1.344034
      8          6           0        3.435575   -1.789964    0.305879
      9          6           0       -0.942211    0.138439   -0.938991
     10          7           0        2.589029   -0.607342    0.103291
     11          7           0       -1.844687    0.147833    0.189900
     12          8           0       -3.668815   -0.575633   -0.991982
     13          1           0        2.713718    2.733863    0.395656
     14          1           0        0.363761    2.490588   -0.371202
     15          1           0        4.117454    0.678728    0.696492
     16          1           0        0.976766   -1.787607   -0.469650
     17          1           0       -4.335273    0.923832    1.436012
     18          1           0       -4.785998   -0.800188    1.321950
     19          1           0       -3.325458   -0.325576    2.211512
     20          1           0        3.262758   -2.147310    1.324132
     21          1           0        3.163608   -2.554766   -0.426486
     22          1           0        4.484163   -1.515513    0.164368
     23          1           0       -1.245683    0.938348   -1.624823
     24          1           0       -1.061011   -0.805962   -1.483511
     25          1           0       -1.511871    0.502612    1.082473
 ---------------------------------------------------------------------
 Rotational constants (GHZ):      2.1111025      0.4112029      0.3828746
 Standard basis: 6-31G(d) (6D, 7F)
 There are   206 symmetry adapted basis functions of A   symmetry.
 Integral buffers will be    131072 words long.
 Raffenetti 2 integral format.
 Two-electron integral symmetry is turned on.
   206 basis functions,   388 primitive gaussians,   206 cartesian basis functions
    44 alpha electrons       44 beta electrons
       nuclear repulsion energy       671.7404353554 Hartrees.
 NAtoms=   25 NActive=   25 NUniq=   25 SFac= 1.00D+00 NAtFMM=   60 NAOKFM=F Big=F
 One-electron integrals computed using PRISM.
 NBasis=   206 RedAO= T  NBF=   206
 NBsUse=   206 1.00D-06 NBFU=   206
 Harris functional with IExCor=  402 diagonalized for initial guess.
 ExpMin= 1.61D-01 ExpMax= 5.48D+03 ExpMxC= 8.25D+02 IAcc=3 IRadAn=         5 AccDes= 0.00D+00
 HarFok:  IExCor=  402 AccDes= 0.00D+00 IRadAn=         5 IDoV= 1
 ScaDFX=  1.000000  1.000000  1.000000  1.000000
 FoFCou: FMM=F IPFlag=           0 FMFlag=      100000 FMFlg1=           0
         NFxFlg=           0 DoJE=T BraDBF=F KetDBF=T FulRan=T
         Omega=  0.000000  0.000000  1.000000  0.000000  0.000000 ICntrl=     500 IOpCl=  0
         NMat0=    1 NMatS0=    1 NMatT0=    0 NMatD0=    1 NMtDS0=    0 NMtDT0=    0
         I1Cent=           4 NGrid=           0.
 Petite list used in FoFCou.
 Initial guess orbital symmetries:
       Occupied  (A) (A) (A) (A) (A) (A) (A) (A) (A) (A) (A) (A)
                 (A) (A) (A) (A) (A) (A) (A) (A) (A) (A) (A) (A)
                 (A) (A) (A) (A) (A) (A) (A) (A) (A) (A) (A) (A)
                 (A) (A) (A) (A) (A) (A) (A) (A)
       Virtual   (A) (A) (A) (A) (A) (A) (A) (A) (A) (A) (A) (A)
                 (A) (A) (A) (A) (A) (A) (A) (A) (A) (A) (A) (A)
                 (A) (A) (A) (A) (A) (A) (A) (A) (A) (A) (A) (A)
                 (A) (A) (A) (A) (A) (A) (A) (A) (A) (A) (A) (A)
                 (A) (A) (A) (A) (A) (A) (A) (A) (A) (A) (A) (A)
                 (A) (A) (A) (A) (A) (A) (A) (A) (A) (A) (A) (A)
                 (A) (A) (A) (A) (A) (A) (A) (A) (A) (A) (A) (A)
                 (A) (A) (A) (A) (A) (A) (A) (A) (A) (A) (A) (A)
                 (A) (A) (A) (A) (A) (A) (A) (A) (A) (A) (A) (A)
                 (A) (A) (A) (A) (A) (A) (A) (A) (A) (A) (A) (A)
                 (A) (A) (A) (A) (A) (A) (A) (A) (A) (A) (A) (A)
                 (A) (A) (A) (A) (A) (A) (A) (A) (A) (A) (A) (A)
                 (A) (A) (A) (A) (A) (A) (A) (A) (A) (A) (A) (A)
                 (A) (A) (A) (A) (A) (A)
 The electronic state of the initial guess is 1-A.
 Requested convergence on RMS density matrix=1.00D-08 within 128 cycles.
 Requested convergence on MAX density matrix=1.00D-06.
 Requested convergence on             energy=1.00D-06.
 No special actions if energy rises.
 Integral accuracy reduced to 1.0D-05 until final iterations.
 EnCoef did     2 forward-backward iterations
 Initial convergence to 1.0D-05 achieved.  Increase integral accuracy.
 SCF Done:  E(RB3LYP) =  -535.293835564     A.U. after   17 cycles
             Convg  =    0.7717D-08             -V/T =  2.0095
 Calling FoFJK, ICntrl=      2127 FMM=F ISym2X=0 I1Cent= 0 IOpClX= 0 NMat=1 NMatS=1 NMatT=0.
 ***** Axes restored to original set *****
 -------------------------------------------------------------------
 Center     Atomic                   Forces (Hartrees/Bohr)
 Number     Number              X              Y              Z
 -------------------------------------------------------------------
      1        6          -0.004912511    0.000294243    0.002614547
      2        6          -0.002532795   -0.000424898   -0.002433206
      3        6          -0.006501486   -0.002258236   -0.008612613
      4        6           0.001735928   -0.003336342   -0.008769318
      5        6           0.005154782   -0.001063217    0.005337317
      6        6           0.022005844    0.002566127   -0.006800693
      7        6           0.000143505   -0.004173618    0.005608131
      8        6          -0.000215134    0.002229686    0.007460615
      9        6           0.009929720    0.002649669   -0.007572870
     10        7          -0.000058128    0.001655252   -0.004211882
     11        7          -0.011443186   -0.005146767    0.009534960
     12        8          -0.017522932    0.000980907    0.005198115
     13        1           0.000146920    0.001157239    0.002320172
     14        1           0.001536370    0.001469996    0.001569379
     15        1           0.001639516    0.000972243    0.001079803
     16        1          -0.000546726    0.000693681   -0.000660097
     17        1           0.000604927   -0.002952263   -0.000682508
     18        1          -0.001050426    0.000718793   -0.002845680
     19        1          -0.001371006   -0.003680552   -0.000697798
     20        1          -0.000251690    0.002744047    0.003644601
     21        1          -0.001704848   -0.001781611    0.000784522
     22        1           0.001540899   -0.001985473    0.000529083
     23        1          -0.001495819    0.006384361   -0.000519569
     24        1           0.000087009   -0.000270703   -0.000809086
     25        1           0.005081268    0.002557435   -0.001065924
 -------------------------------------------------------------------
 Cartesian Forces:  Max     0.022005844 RMS     0.005023201

 GradGradGradGradGradGradGradGradGradGradGradGradGradGradGradGradGradGrad
 Berny optimization.
 Internal  Forces:  Max     0.016982707 RMS     0.003781527
 Search for a local minimum.
 Step number   1 out of a maximum of  129
 All quantities printed in internal units (Hartrees-Bohrs-Radians)
 Mixed Optimization -- RFO/linear search
 Second derivative matrix not updated -- first step.
 ITU=  0
     Eigenvalues ---    0.00710   0.00752   0.00787   0.01092   0.01258
     Eigenvalues ---    0.01493   0.01583   0.01739   0.02064   0.02161
     Eigenvalues ---    0.02185   0.02232   0.02239   0.02245   0.02301
     Eigenvalues ---    0.02348   0.05224   0.06618   0.07349   0.07512
     Eigenvalues ---    0.07635   0.07762   0.09928   0.13220   0.15960
     Eigenvalues ---    0.16000   0.16000   0.16000   0.16000   0.16000
     Eigenvalues ---    0.16000   0.16000   0.16000   0.16000   0.16000
     Eigenvalues ---    0.21950   0.22000   0.22009   0.23459   0.23509
     Eigenvalues ---    0.24985   0.24993   0.24993   0.25000   0.31936
     Eigenvalues ---    0.32267   0.34062   0.34072   0.34388   0.34416
     Eigenvalues ---    0.34437   0.34450   0.34456   0.34481   0.34926
     Eigenvalues ---    0.35226   0.35410   0.35471   0.35929   0.38865
     Eigenvalues ---    0.42875   0.43935   0.44897   0.46722   0.47199
     Eigenvalues ---    0.50614   0.53048   0.54591   0.91368
 RFO step:  Lambda=-6.49859269D-03 EMin= 7.09753261D-03
 Linear search not attempted -- first point.
 Iteration  1 RMS(Cart)=  0.07579711 RMS(Int)=  0.00206794
 Iteration  2 RMS(Cart)=  0.00342733 RMS(Int)=  0.00011938
 Iteration  3 RMS(Cart)=  0.00000832 RMS(Int)=  0.00011932
 Iteration  4 RMS(Cart)=  0.00000000 RMS(Int)=  0.00011932
 Variable       Old X    -DE/DX   Delta X   Delta X   Delta X     New X
                                 (Linear)    (Quad)   (Total)
    R1        2.62546   0.00628   0.00000   0.01312   0.01312   2.63858
    R2        2.62488  -0.00364   0.00000  -0.00732  -0.00734   2.61754
    R3        2.05310  -0.00153   0.00000  -0.00426  -0.00426   2.04884
    R4        2.63813   0.00557   0.00000   0.01168   0.01170   2.64983
    R5        2.05795  -0.00188   0.00000  -0.00530  -0.00530   2.05266
    R6        2.54800   0.00491   0.00000   0.00891   0.00889   2.55689
    R7        2.04916  -0.00075   0.00000  -0.00208  -0.00208   2.04708
    R8        2.63729  -0.00449   0.00000  -0.00980  -0.00978   2.62752
    R9        2.55073   0.00574   0.00000   0.01025   0.01025   2.56098
   R10        2.05014  -0.00074   0.00000  -0.00205  -0.00205   2.04809
   R11        2.83659   0.00482   0.00000   0.01463   0.01463   2.85122
   R12        2.84262   0.01011   0.00000   0.03103   0.03103   2.87365
   R13        2.59251   0.00515   0.00000   0.01005   0.01005   2.60256
   R14        2.32309  -0.01480   0.00000  -0.01608  -0.01608   2.30701
   R15        2.06577   0.00172   0.00000   0.00490   0.00490   2.07067
   R16        2.06634  -0.00192   0.00000  -0.00547  -0.00547   2.06087
   R17        2.06680   0.00151   0.00000   0.00430   0.00430   2.07110
   R18        2.77492   0.01208   0.00000   0.03302   0.03302   2.80794
   R19        2.06526   0.00006   0.00000   0.00018   0.00018   2.06543
   R20        2.06599  -0.00218   0.00000  -0.00622  -0.00622   2.05977
   R21        2.06568  -0.00236   0.00000  -0.00672  -0.00672   2.05896
   R22        2.73126   0.00916   0.00000   0.02317   0.02317   2.75443
   R23        2.07209   0.00186   0.00000   0.00536   0.00536   2.07744
   R24        2.07225  -0.00046   0.00000  -0.00133  -0.00133   2.07093
   R25        1.92095  -0.00567   0.00000  -0.01244  -0.01244   1.90851
    A1        2.08315  -0.00015   0.00000  -0.00050  -0.00054   2.08261
    A2        2.10665   0.00221   0.00000   0.01311   0.01306   2.11971
    A3        2.09338  -0.00206   0.00000  -0.01254  -0.01259   2.08079
    A4        2.08869   0.00211   0.00000   0.00861   0.00861   2.09729
    A5        2.08939   0.00058   0.00000   0.00554   0.00546   2.09484
    A6        2.10510  -0.00269   0.00000  -0.01408  -0.01416   2.09095
    A7        2.10300  -0.00060   0.00000  -0.00229  -0.00230   2.10070
    A8        2.13025   0.00229   0.00000   0.01311   0.01310   2.14335
    A9        2.04992  -0.00169   0.00000  -0.01079  -0.01079   2.03913
   A10        2.10801   0.00374   0.00000   0.01540   0.01544   2.12345
   A11        2.13614  -0.00177   0.00000  -0.00708  -0.00712   2.12901
   A12        2.03903  -0.00197   0.00000  -0.00828  -0.00832   2.03071
   A13        2.06936  -0.00399   0.00000  -0.01647  -0.01653   2.05283
   A14        2.11484   0.00442   0.00000   0.01810   0.01793   2.13277
   A15        2.09850  -0.00041   0.00000  -0.00075  -0.00092   2.09758
   A16        1.99012   0.00913   0.00000   0.03566   0.03563   2.02575
   A17        2.13993   0.00786   0.00000   0.03075   0.03073   2.17066
   A18        2.15287  -0.01698   0.00000  -0.06614  -0.06616   2.08671
   A19        1.90572   0.00228   0.00000   0.00985   0.00968   1.91540
   A20        1.90984  -0.00199   0.00000  -0.01320  -0.01326   1.89658
   A21        1.93595   0.00502   0.00000   0.03529   0.03511   1.97106
   A22        1.91103  -0.00223   0.00000  -0.02386  -0.02391   1.88711
   A23        1.90793  -0.00321   0.00000  -0.01674  -0.01701   1.89092
   A24        1.89323   0.00003   0.00000   0.00785   0.00779   1.90102
   A25        1.87624   0.00650   0.00000   0.03988   0.03976   1.91599
   A26        1.90452   0.00048   0.00000   0.00261   0.00251   1.90703
   A27        1.91023  -0.00051   0.00000  -0.00365  -0.00369   1.90654
   A28        1.93485  -0.00313   0.00000  -0.01752  -0.01770   1.91715
   A29        1.93307  -0.00287   0.00000  -0.01673  -0.01680   1.91627
   A30        1.90451  -0.00034   0.00000  -0.00378  -0.00379   1.90071
   A31        1.94275  -0.00161   0.00000  -0.00428  -0.00448   1.93827
   A32        1.92800  -0.00296   0.00000  -0.01643  -0.01684   1.91116
   A33        1.93829   0.00074   0.00000  -0.00951  -0.00978   1.92851
   A34        1.88702   0.00649   0.00000   0.06108   0.06114   1.94816
   A35        1.90265  -0.00122   0.00000  -0.01519  -0.01525   1.88740
   A36        1.86262  -0.00125   0.00000  -0.01421  -0.01432   1.84830
   A37        2.11403  -0.00112   0.00000  -0.00459  -0.00458   2.10945
   A38        2.08574   0.00086   0.00000   0.00345   0.00344   2.08918
   A39        2.08317   0.00026   0.00000   0.00111   0.00111   2.08427
   A40        2.12792  -0.00972   0.00000  -0.04314  -0.04319   2.08473
   A41        2.07642   0.00379   0.00000   0.01459   0.01455   2.09097
   A42        2.07563   0.00588   0.00000   0.02722   0.02716   2.10279
    D1       -0.00258   0.00016   0.00000   0.00711   0.00714   0.00457
    D2        3.13520   0.00070   0.00000   0.02602   0.02623  -3.12175
    D3       -3.13969  -0.00032   0.00000  -0.01051  -0.01068   3.13281
    D4       -0.00191   0.00022   0.00000   0.00840   0.00841   0.00649
    D5        0.00252  -0.00020   0.00000  -0.00640  -0.00640  -0.00388
    D6       -3.13398  -0.00038   0.00000  -0.01383  -0.01388   3.13533
    D7        3.13967   0.00029   0.00000   0.01115   0.01109  -3.13242
    D8        0.00317   0.00011   0.00000   0.00373   0.00362   0.00679
    D9        0.00973  -0.00018   0.00000  -0.00875  -0.00867   0.00106
   D10        3.11805   0.00050   0.00000   0.02144   0.02149   3.13954
   D11       -3.12801  -0.00074   0.00000  -0.02788  -0.02776   3.12741
   D12       -0.01969  -0.00005   0.00000   0.00230   0.00240  -0.01730
   D13       -0.01010   0.00028   0.00000   0.00751   0.00746  -0.00264
   D14       -3.12767   0.00031   0.00000   0.00886   0.00885  -3.11883
   D15        3.12663   0.00046   0.00000   0.01467   0.01456   3.14120
   D16        0.00906   0.00049   0.00000   0.01602   0.01595   0.02501
   D17       -0.01727   0.00022   0.00000   0.00966   0.00960  -0.00768
   D18       -3.12591  -0.00055   0.00000  -0.02061  -0.02031   3.13696
   D19        3.11916   0.00056   0.00000   0.02030   0.02016   3.13932
   D20        0.01052  -0.00021   0.00000  -0.00996  -0.00974   0.00077
   D21        0.01764  -0.00024   0.00000  -0.00901  -0.00902   0.00862
   D22        3.13525  -0.00026   0.00000  -0.01033  -0.01037   3.12488
   D23       -3.11907  -0.00055   0.00000  -0.01908  -0.01902  -3.13808
   D24       -0.00145  -0.00058   0.00000  -0.02040  -0.02037  -0.02183
   D25       -1.43009  -0.00300   0.00000  -0.06427  -0.06428  -1.49437
   D26        0.66649   0.00213   0.00000  -0.00116  -0.00147   0.66502
   D27        2.72967  -0.00085   0.00000  -0.03528  -0.03532   2.69436
   D28        1.67767  -0.00237   0.00000  -0.03388  -0.03364   1.64403
   D29       -2.50893   0.00276   0.00000   0.02924   0.02916  -2.47977
   D30       -0.44574  -0.00022   0.00000  -0.00488  -0.00468  -0.45043
   D31        1.51485   0.00115   0.00000   0.02205   0.02230   1.53714
   D32       -2.67694  -0.00139   0.00000  -0.00905  -0.00890  -2.68584
   D33       -0.58884   0.00050   0.00000   0.01422   0.01429  -0.57455
   D34       -1.60285   0.00107   0.00000   0.01076   0.01070  -1.59216
   D35        0.48854  -0.00147   0.00000  -0.02034  -0.02050   0.46804
   D36        2.57664   0.00042   0.00000   0.00293   0.00270   2.57934
   D37       -3.10838   0.00085   0.00000   0.03567   0.03586  -3.07251
   D38       -0.05380   0.00052   0.00000   0.01914   0.01943  -0.03437
   D39        0.00912   0.00132   0.00000   0.04858   0.04829   0.05741
   D40        3.06370   0.00098   0.00000   0.03205   0.03186   3.09556
   D41        1.61074  -0.00009   0.00000  -0.00159  -0.00165   1.60909
   D42       -1.50726  -0.00004   0.00000  -0.00018  -0.00020  -1.50746
   D43       -2.57289   0.00022   0.00000   0.00220   0.00225  -2.57064
   D44        0.59229   0.00027   0.00000   0.00361   0.00370   0.59599
   D45       -0.48992  -0.00021   0.00000  -0.00302  -0.00306  -0.49298
   D46        2.67526  -0.00016   0.00000  -0.00160  -0.00161   2.67365
   D47       -2.96489   0.00034   0.00000   0.02701   0.02710  -2.93779
   D48        0.26368   0.00078   0.00000   0.04414   0.04429   0.30797
   D49        1.19767   0.00075   0.00000   0.00987   0.00963   1.20729
   D50       -1.85695   0.00119   0.00000   0.02700   0.02681  -1.83014
   D51       -0.82087  -0.00063   0.00000   0.00175   0.00182  -0.81905
   D52        2.40770  -0.00019   0.00000   0.01888   0.01901   2.42670
         Item               Value     Threshold  Converged?
 Maximum Force            0.016983     0.000450     NO 
 RMS     Force            0.003782     0.000300     NO 
 Maximum Displacement     0.323695     0.001800     NO 
 RMS     Displacement     0.077220     0.001200     NO 
 Predicted change in Energy=-3.401387D-03
 GradGradGradGradGradGradGradGradGradGradGradGradGradGradGradGradGradGrad

                          Input orientation:                          
 ---------------------------------------------------------------------
 Center     Atomic      Atomic             Coordinates (Angstroms)
 Number     Number       Type             X           Y           Z
 ---------------------------------------------------------------------
      1          6           0        0.737591   -1.329394    0.707896
      2          6           0        1.976557   -1.695973    0.178586
      3          6           0        0.670603   -0.840906    2.002313
      4          6           0        3.000647   -1.083799    2.248293
      5          6           0        3.138129   -1.574535    0.954635
      6          6           0        6.022589   -3.876347    0.430559
      7          6           0        6.179926   -5.383403    0.558845
      8          6           0        1.700936   -0.225838    4.144984
      9          6           0        4.499433   -1.959324    0.429975
     10          7           0        1.793431   -0.724213    2.748216
     11          7           0        4.751269   -3.382210    0.621067
     12          8           0        6.933428   -3.108573    0.163569
     13          1           0       -0.172475   -1.407088    0.123749
     14          1           0        2.044721   -2.062980   -0.841477
     15          1           0       -0.258968   -0.534823    2.466729
     16          1           0        3.850609   -0.963038    2.909813
     17          1           0        5.992281   -5.859003   -0.410311
     18          1           0        7.207197   -5.603438    0.851482
     19          1           0        5.498487   -5.822693    1.296298
     20          1           0        1.594081   -1.069001    4.832199
     21          1           0        2.602862    0.336471    4.386649
     22          1           0        0.838825    0.434415    4.234192
     23          1           0        4.579473   -1.672319   -0.628212
     24          1           0        5.284084   -1.400732    0.952723
     25          1           0        3.987664   -4.017765    0.802599
 ---------------------------------------------------------------------
                    Distance matrix (angstroms):
                    1          2          3          4          5
     1  C    0.000000
     2  C    1.396276   0.000000
     3  C    1.385144   2.400548   0.000000
     4  C    2.748556   2.388975   2.355548   0.000000
     5  C    2.425605   1.402230   2.779303   1.390422   0.000000
     6  C    5.873252   4.603031   6.350438   4.498290   3.727345
     7  C    6.787946   5.604467   7.284951   5.607909   4.890465
     8  C    3.736234   4.239054   2.455796   2.454136   3.750045
     9  C    3.824331   2.549010   4.287545   2.513799   1.508800
    10  N    2.375700   2.753335   1.353045   1.355211   2.397540
    11  N    4.509014   3.276921   5.001790   3.315907   2.445645
    12  O    6.469171   5.154244   6.909868   4.890047   4.169335
    13  H    1.084197   2.169056   2.135496   3.832350   3.417384
    14  H    2.155758   1.086219   3.386563   3.379241   2.158736
    15  H    2.172088   3.403151   1.083269   3.312729   3.861049
    16  H    3.830605   3.392471   3.309215   1.083802   2.168934
    17  H    7.027056   5.814092   7.702098   6.230620   5.325967
    18  H    7.755248   6.563586   8.169038   6.330346   5.727129
    19  H    6.572829   5.539232   6.973172   5.440829   4.871844
    20  H    4.220339   4.711210   2.985481   2.941975   4.204183
    21  H    4.448322   4.714963   3.287081   2.597685   3.964490
    22  H    3.944114   4.720268   2.576049   3.304882   4.480868
    23  H    4.082014   2.725189   4.784368   3.333666   2.142998
    24  H    4.553639   3.409719   4.764373   2.644434   2.152982
    25  H    4.218920   3.134432   4.747067   3.416488   2.591177
                    6          7          8          9         10
     6  C    0.000000
     7  C    1.520667   0.000000
     8  C    6.767559   7.715065   0.000000
     9  C    2.448465   3.816409   4.963654   0.000000
    10  N    5.761360   6.763338   1.485898   3.771232   0.000000
    11  N    1.377214   2.459614   5.628962   1.457582   4.509825
    12  O    1.220815   2.428757   7.179193   2.704825   6.227773
    13  H    6.676091   7.506890   4.590790   4.714389   3.349468
    14  H    4.553000   5.485073   5.325231   2.766396   3.839446
    15  H    7.400657   8.283000   2.598698   5.368421   2.080251
    16  H    4.399041   5.521991   2.586543   2.750119   2.077289
    17  H    2.153813   1.095752   8.420149   4.259363   7.346612
    18  H    2.136192   1.090567   8.371658   4.559520   7.530823
    19  H    2.193730   1.095979   7.339019   4.083411   6.467612
    20  H    6.845970   7.609572   1.092981   5.349143   2.121699
    21  H    6.715133   7.756573   1.089983   4.952063   2.112982
    22  H    7.740911   8.711058   1.089554   5.796733   2.112301
    23  H    2.839246   4.212208   5.758619   1.099335   4.478974
    24  H    2.635662   4.101138   4.940634   1.095886   3.983232
    25  H    2.073483   2.594300   5.547917   2.153587   4.409941
                   11         12         13         14         15
    11  N    0.000000
    12  O    2.246331   0.000000
    13  H    5.328385   7.306880   0.000000
    14  H    3.347358   5.099298   2.505557   0.000000
    15  H    6.051161   7.978678   2.501576   4.311204   0.000000
    16  H    3.449919   4.652844   4.913709   4.306191   4.155515
    17  H    2.956071   2.963100   7.622925   5.493535   8.700711
    18  H    3.319417   2.602408   8.520476   6.484760   9.167524
    19  H    2.640119   3.272397   7.282325   5.534801   7.904414
    20  H    5.749122   7.380013   5.040290   5.777688   3.051980
    21  H    5.711730   6.961073   5.377249   5.779463   3.554619
    22  H    6.551986   8.140450   4.616233   5.783908   2.295320
    23  H    2.124603   2.868945   4.818382   2.573532   5.855175
    24  H    2.078495   2.501963   5.519173   3.761808   5.810975
    25  H    1.009939   3.148415   4.958148   3.209237   5.738824
                   16         17         18         19         20
    16  H    0.000000
    17  H    6.291300   0.000000
    18  H    6.085780   1.770157   0.000000
    19  H    5.379143   1.776982   1.779219   0.000000
    20  H    2.966262   8.352976   8.241013   7.095391   0.000000
    21  H    2.329515   8.537148   8.305409   7.474638   1.786478
    22  H    3.574591   9.366784   9.405028   8.336371   1.785577
    23  H    3.681297   4.424006   4.954606   4.666254   6.252412
    24  H    2.465082   4.715462   4.622916   4.440467   5.364373
    25  H    3.713555   2.979899   3.589170   2.405013   5.537339
                   21         22         23         24         25
    21  H    0.000000
    22  H    1.773320   0.000000
    23  H    5.752484   6.486429   0.000000
    24  H    4.690275   5.822039   1.752025   0.000000
    25  H    5.807105   6.443053   2.810441   2.924398   0.000000
 Stoichiometry    C9H13N2O(1+)
 Framework group  C1[X(C9H13N2O)]
 Deg. of freedom    69
 Full point group                 C1      NOp   1
 Largest Abelian subgroup         C1      NOp   1
 Largest concise Abelian subgroup C1      NOp   1
                         Standard orientation:                         
 ---------------------------------------------------------------------
 Center     Atomic      Atomic             Coordinates (Angstroms)
 Number     Number       Type             X           Y           Z
 ---------------------------------------------------------------------
      1          6           0        2.368645    1.737033    0.217985
      2          6           0        1.037629    1.638332   -0.192186
      3          6           0        3.124450    0.584043    0.352136
      4          6           0        1.284849   -0.735433   -0.298602
      5          6           0        0.473881    0.382506   -0.459277
      6          6           0       -3.168810   -0.213934    0.058571
      7          6           0       -4.062502   -0.153174    1.287413
      8          6           0        3.393224   -1.855603    0.269519
      9          6           0       -0.959486    0.222486   -0.902370
     10          7           0        2.577683   -0.626142    0.092849
     11          7           0       -1.858915    0.169137    0.243372
     12          8           0       -3.543997   -0.561478   -1.049957
     13          1           0        2.827890    2.697684    0.422258
     14          1           0        0.439917    2.536408   -0.318950
     15          1           0        4.162757    0.595513    0.660776
     16          1           0        0.921430   -1.739613   -0.483468
     17          1           0       -4.505047    0.845466    1.374265
     18          1           0       -4.872156   -0.873652    1.166136
     19          1           0       -3.525967   -0.374687    2.217054
     20          1           0        3.252133   -2.251179    1.278587
     21          1           0        3.086388   -2.599429   -0.465762
     22          1           0        4.444038   -1.615182    0.111046
     23          1           0       -1.225037    1.039667   -1.588107
     24          1           0       -1.082677   -0.702977   -1.476225
     25          1           0       -1.554351    0.495299    1.149372
 ---------------------------------------------------------------------
 Rotational constants (GHZ):      2.0911546      0.4104891      0.3804146
 Standard basis: 6-31G(d) (6D, 7F)
 There are   206 symmetry adapted basis functions of A   symmetry.
 Integral buffers will be    131072 words long.
 Raffenetti 2 integral format.
 Two-electron integral symmetry is turned on.
   206 basis functions,   388 primitive gaussians,   206 cartesian basis functions
    44 alpha electrons       44 beta electrons
       nuclear repulsion energy       670.1069482087 Hartrees.
 NAtoms=   25 NActive=   25 NUniq=   25 SFac= 1.00D+00 NAtFMM=   60 NAOKFM=F Big=F
 One-electron integrals computed using PRISM.
 NBasis=   206 RedAO= T  NBF=   206
 NBsUse=   206 1.00D-06 NBFU=   206
 Initial guess read from the read-write file.
 B after Tr=     0.000000    0.000000    0.000000
         Rot=    1.000000    0.000000    0.000000    0.000000 Ang=   0.00 deg.
 Initial guess orbital symmetries:
       Occupied  (A) (A) (A) (A) (A) (A) (A) (A) (A) (A) (A) (A)
                 (A) (A) (A) (A) (A) (A) (A) (A) (A) (A) (A) (A)
                 (A) (A) (A) (A) (A) (A) (A) (A) (A) (A) (A) (A)
                 (A) (A) (A) (A) (A) (A) (A) (A)
       Virtual   (A) (A) (A) (A) (A) (A) (A) (A) (A) (A) (A) (A)
                 (A) (A) (A) (A) (A) (A) (A) (A) (A) (A) (A) (A)
                 (A) (A) (A) (A) (A) (A) (A) (A) (A) (A) (A) (A)
                 (A) (A) (A) (A) (A) (A) (A) (A) (A) (A) (A) (A)
                 (A) (A) (A) (A) (A) (A) (A) (A) (A) (A) (A) (A)
                 (A) (A) (A) (A) (A) (A) (A) (A) (A) (A) (A) (A)
                 (A) (A) (A) (A) (A) (A) (A) (A) (A) (A) (A) (A)
                 (A) (A) (A) (A) (A) (A) (A) (A) (A) (A) (A) (A)
                 (A) (A) (A) (A) (A) (A) (A) (A) (A) (A) (A) (A)
                 (A) (A) (A) (A) (A) (A) (A) (A) (A) (A) (A) (A)
                 (A) (A) (A) (A) (A) (A) (A) (A) (A) (A) (A) (A)
                 (A) (A) (A) (A) (A) (A) (A) (A) (A) (A) (A) (A)
                 (A) (A) (A) (A) (A) (A) (A) (A) (A) (A) (A) (A)
                 (A) (A) (A) (A) (A) (A)
 Harris functional with IExCor=  402 diagonalized for initial guess.
 ExpMin= 1.61D-01 ExpMax= 5.48D+03 ExpMxC= 8.25D+02 IAcc=3 IRadAn=         5 AccDes= 0.00D+00
 HarFok:  IExCor=  402 AccDes= 0.00D+00 IRadAn=         5 IDoV= 1
 ScaDFX=  1.000000  1.000000  1.000000  1.000000
 FoFCou: FMM=F IPFlag=           0 FMFlag=      100000 FMFlg1=           0
         NFxFlg=           0 DoJE=T BraDBF=F KetDBF=T FulRan=T
         Omega=  0.000000  0.000000  1.000000  0.000000  0.000000 ICntrl=     500 IOpCl=  0
         NMat0=    1 NMatS0=    1 NMatT0=    0 NMatD0=    1 NMtDS0=    0 NMtDT0=    0
         I1Cent=           4 NGrid=           0.
 Petite list used in FoFCou.
 Requested convergence on RMS density matrix=1.00D-08 within 128 cycles.
 Requested convergence on MAX density matrix=1.00D-06.
 Requested convergence on             energy=1.00D-06.
 No special actions if energy rises.
 Integral accuracy reduced to 1.0D-05 until final iterations.
 Initial convergence to 1.0D-05 achieved.  Increase integral accuracy.
 SCF Done:  E(RB3LYP) =  -535.296933188     A.U. after   12 cycles
             Convg  =    0.7264D-08             -V/T =  2.0097
 Calling FoFJK, ICntrl=      2127 FMM=F ISym2X=0 I1Cent= 0 IOpClX= 0 NMat=1 NMatS=1 NMatT=0.
 ***** Axes restored to original set *****
 -------------------------------------------------------------------
 Center     Atomic                   Forces (Hartrees/Bohr)
 Number     Number              X              Y              Z
 -------------------------------------------------------------------
      1        6           0.001042341    0.000049696    0.000152506
      2        6          -0.001226467    0.001060834    0.000362969
      3        6          -0.001360602   -0.000618349   -0.001626881
      4        6          -0.000408559   -0.000356729   -0.000112367
      5        6          -0.000511724   -0.000933224    0.000727025
      6        6           0.005467888    0.001628587   -0.000542643
      7        6          -0.000854330    0.001682398    0.001189547
      8        6           0.000108930    0.000864325    0.000952975
      9        6           0.002631124   -0.000549916   -0.000247971
     10        7           0.001111270    0.000115911    0.001496911
     11        7          -0.006646263   -0.000467220    0.002718255
     12        8           0.001340715   -0.001941497   -0.000358671
     13        1          -0.000037557   -0.000041761    0.000080995
     14        1           0.000125609   -0.000098786   -0.000120520
     15        1           0.000282565    0.000289002    0.000435800
     16        1           0.000042862    0.000275938    0.000353741
     17        1           0.000054203    0.000117074   -0.000312906
     18        1           0.000679174    0.000438613   -0.000431813
     19        1          -0.000405935    0.000648277   -0.000767091
     20        1           0.000048919   -0.000570259   -0.000950962
     21        1           0.000549594   -0.000272562   -0.000541422
     22        1          -0.000530100   -0.000138569   -0.000589269
     23        1          -0.000360895   -0.001265412    0.000038027
     24        1           0.000097910   -0.000374690   -0.000667779
     25        1          -0.001240670    0.000458318   -0.001238455
 -------------------------------------------------------------------
 Cartesian Forces:  Max     0.006646263 RMS     0.001313294

 GradGradGradGradGradGradGradGradGradGradGradGradGradGradGradGradGradGrad
 Berny optimization.
 Using GEDIIS/GDIIS optimizer.
 Internal  Forces:  Max     0.005045995 RMS     0.000924546
 Search for a local minimum.
 Step number   2 out of a maximum of  129
 All quantities printed in internal units (Hartrees-Bohrs-Radians)
 Mixed Optimization -- En-DIIS/RFO-DIIS
 Update second derivatives using D2CorX and points    1    2
 DE= -3.10D-03 DEPred=-3.40D-03 R= 9.11D-01
 SS=  1.41D+00  RLast= 2.18D-01 DXNew= 5.0454D-01 6.5410D-01
 Trust test= 9.11D-01 RLast= 2.18D-01 DXMaxT set to 5.05D-01
 ITU=  1  0
 Use linear search instead of GDIIS.
     Eigenvalues ---    0.00709   0.00747   0.00787   0.01076   0.01220
     Eigenvalues ---    0.01491   0.01572   0.01737   0.02076   0.02161
     Eigenvalues ---    0.02189   0.02233   0.02240   0.02245   0.02300
     Eigenvalues ---    0.02349   0.05224   0.06645   0.07049   0.07498
     Eigenvalues ---    0.07503   0.07623   0.10003   0.13235   0.15650
     Eigenvalues ---    0.15955   0.15998   0.15999   0.16000   0.16000
     Eigenvalues ---    0.16000   0.16000   0.16000   0.16000   0.16596
     Eigenvalues ---    0.20507   0.21915   0.22000   0.23418   0.23510
     Eigenvalues ---    0.24947   0.24992   0.24999   0.27369   0.32145
     Eigenvalues ---    0.32884   0.34054   0.34098   0.34394   0.34422
     Eigenvalues ---    0.34441   0.34446   0.34479   0.34535   0.34936
     Eigenvalues ---    0.35225   0.35414   0.35472   0.36307   0.40065
     Eigenvalues ---    0.42938   0.43905   0.44930   0.46649   0.47161
     Eigenvalues ---    0.50476   0.53235   0.54665   0.91107
 RFO step:  Lambda=-5.37951553D-04 EMin= 7.09358065D-03
 Quartic linear search produced a step of -0.04803.
 Iteration  1 RMS(Cart)=  0.03635587 RMS(Int)=  0.00031477
 Iteration  2 RMS(Cart)=  0.00067233 RMS(Int)=  0.00001804
 Iteration  3 RMS(Cart)=  0.00000023 RMS(Int)=  0.00001804
 Variable       Old X    -DE/DX   Delta X   Delta X   Delta X     New X
                                 (Linear)    (Quad)   (Total)
    R1        2.63858  -0.00073  -0.00063   0.00005  -0.00058   2.63799
    R2        2.61754  -0.00058   0.00035  -0.00205  -0.00170   2.61585
    R3        2.04884  -0.00001   0.00020  -0.00053  -0.00033   2.04851
    R4        2.64983   0.00038  -0.00056   0.00212   0.00156   2.65139
    R5        2.05266   0.00015   0.00025  -0.00021   0.00004   2.05270
    R6        2.55689   0.00094  -0.00043   0.00270   0.00227   2.55916
    R7        2.04708   0.00003   0.00010  -0.00018  -0.00008   2.04700
    R8        2.62752  -0.00011   0.00047  -0.00138  -0.00091   2.62660
    R9        2.56098  -0.00065  -0.00049   0.00014  -0.00035   2.56062
   R10        2.04809   0.00028   0.00010   0.00051   0.00060   2.04869
   R11        2.85122   0.00081  -0.00070   0.00413   0.00343   2.85465
   R12        2.87365  -0.00294  -0.00149  -0.00504  -0.00653   2.86712
   R13        2.60256   0.00505  -0.00048   0.01067   0.01018   2.61274
   R14        2.30701  -0.00014   0.00077  -0.00206  -0.00129   2.30572
   R15        2.07067   0.00022  -0.00024   0.00118   0.00095   2.07162
   R16        2.06087   0.00044   0.00026   0.00055   0.00081   2.06168
   R17        2.07110  -0.00052  -0.00021  -0.00093  -0.00114   2.06996
   R18        2.80794  -0.00111  -0.00159   0.00101  -0.00058   2.80736
   R19        2.06543  -0.00016  -0.00001  -0.00043  -0.00044   2.06500
   R20        2.05977   0.00019   0.00030  -0.00021   0.00009   2.05986
   R21        2.05896   0.00029   0.00032  -0.00001   0.00031   2.05927
   R22        2.75443  -0.00275  -0.00111  -0.00395  -0.00506   2.74937
   R23        2.07744  -0.00039  -0.00026  -0.00046  -0.00071   2.07673
   R24        2.07093  -0.00044   0.00006  -0.00138  -0.00132   2.06960
   R25        1.90851   0.00043   0.00060  -0.00058   0.00002   1.90852
    A1        2.08261   0.00008   0.00003   0.00018   0.00020   2.08281
    A2        2.11971   0.00003  -0.00063   0.00186   0.00123   2.12095
    A3        2.08079  -0.00011   0.00060  -0.00205  -0.00145   2.07934
    A4        2.09729   0.00022  -0.00041   0.00180   0.00139   2.09869
    A5        2.09484   0.00001  -0.00026   0.00100   0.00074   2.09559
    A6        2.09095  -0.00024   0.00068  -0.00283  -0.00215   2.08879
    A7        2.10070  -0.00018   0.00011  -0.00099  -0.00088   2.09982
    A8        2.14335   0.00068  -0.00063   0.00540   0.00477   2.14813
    A9        2.03913  -0.00049   0.00052  -0.00442  -0.00390   2.03522
   A10        2.12345  -0.00003  -0.00074   0.00183   0.00109   2.12454
   A11        2.12901   0.00035   0.00034   0.00111   0.00145   2.13046
   A12        2.03071  -0.00032   0.00040  -0.00296  -0.00256   2.02815
   A13        2.05283  -0.00017   0.00079  -0.00272  -0.00194   2.05089
   A14        2.13277   0.00059  -0.00086   0.00440   0.00352   2.13629
   A15        2.09758  -0.00041   0.00004  -0.00165  -0.00162   2.09596
   A16        2.02575  -0.00224  -0.00171  -0.00427  -0.00599   2.01976
   A17        2.17066  -0.00161  -0.00148  -0.00245  -0.00393   2.16673
   A18        2.08671   0.00385   0.00318   0.00663   0.00980   2.09651
   A19        1.91540  -0.00027  -0.00046  -0.00181  -0.00227   1.91313
   A20        1.89658  -0.00053   0.00064  -0.00401  -0.00337   1.89321
   A21        1.97106  -0.00057  -0.00169   0.00148  -0.00020   1.97087
   A22        1.88711   0.00014   0.00115  -0.00346  -0.00233   1.88479
   A23        1.89092   0.00023   0.00082  -0.00202  -0.00120   1.88972
   A24        1.90102   0.00105  -0.00037   0.00970   0.00933   1.91035
   A25        1.91599  -0.00143  -0.00191  -0.00459  -0.00652   1.90948
   A26        1.90703  -0.00063  -0.00012  -0.00303  -0.00315   1.90388
   A27        1.90654  -0.00056   0.00018  -0.00327  -0.00310   1.90343
   A28        1.91715   0.00084   0.00085   0.00186   0.00270   1.91985
   A29        1.91627   0.00083   0.00081   0.00202   0.00281   1.91908
   A30        1.90071   0.00095   0.00018   0.00706   0.00724   1.90795
   A31        1.93827  -0.00008   0.00022  -0.00148  -0.00125   1.93702
   A32        1.91116   0.00059   0.00081   0.00275   0.00357   1.91473
   A33        1.92851   0.00017   0.00047   0.00085   0.00132   1.92984
   A34        1.94816  -0.00068  -0.00294   0.00118  -0.00176   1.94640
   A35        1.88740  -0.00019   0.00073  -0.00432  -0.00358   1.88381
   A36        1.84830   0.00019   0.00069   0.00107   0.00175   1.85005
   A37        2.10945   0.00008   0.00022  -0.00008   0.00014   2.10960
   A38        2.08918   0.00012  -0.00017   0.00080   0.00063   2.08982
   A39        2.08427  -0.00021  -0.00005  -0.00074  -0.00079   2.08348
   A40        2.08473  -0.00331   0.00207  -0.01984  -0.01783   2.06690
   A41        2.09097   0.00277  -0.00070   0.01483   0.01405   2.10502
   A42        2.10279   0.00050  -0.00130   0.00295   0.00158   2.10437
    D1        0.00457   0.00001  -0.00034   0.00220   0.00186   0.00642
    D2       -3.12175   0.00001  -0.00126   0.00427   0.00301  -3.11874
    D3        3.13281   0.00003   0.00051   0.00021   0.00072   3.13353
    D4        0.00649   0.00002  -0.00040   0.00228   0.00188   0.00837
    D5       -0.00388   0.00001   0.00031   0.00002   0.00033  -0.00356
    D6        3.13533  -0.00006   0.00067  -0.00445  -0.00379   3.13154
    D7       -3.13242   0.00000  -0.00053   0.00194   0.00141  -3.13101
    D8        0.00679  -0.00008  -0.00017  -0.00253  -0.00271   0.00408
    D9        0.00106  -0.00004   0.00042  -0.00444  -0.00403  -0.00297
   D10        3.13954   0.00013  -0.00103   0.01004   0.00902  -3.13462
   D11        3.12741  -0.00004   0.00133  -0.00648  -0.00515   3.12226
   D12       -0.01730   0.00014  -0.00012   0.00801   0.00790  -0.00939
   D13       -0.00264  -0.00001  -0.00036   0.00016  -0.00020  -0.00284
   D14       -3.11883   0.00001  -0.00042   0.00101   0.00059  -3.11824
   D15        3.14120   0.00006  -0.00070   0.00435   0.00365  -3.13834
   D16        0.02501   0.00008  -0.00077   0.00520   0.00443   0.02945
   D17       -0.00768   0.00005  -0.00046   0.00468   0.00422  -0.00346
   D18        3.13696  -0.00012   0.00098  -0.00951  -0.00853   3.12844
   D19        3.13932   0.00012  -0.00097   0.00875   0.00778  -3.13608
   D20        0.00077  -0.00005   0.00047  -0.00544  -0.00496  -0.00419
   D21        0.00862  -0.00002   0.00043  -0.00259  -0.00216   0.00647
   D22        3.12488  -0.00004   0.00050  -0.00342  -0.00292   3.12196
   D23       -3.13808  -0.00009   0.00091  -0.00643  -0.00551   3.13959
   D24       -0.02183  -0.00010   0.00098  -0.00726  -0.00628  -0.02810
   D25       -1.49437  -0.00028   0.00309  -0.04814  -0.04506  -1.53943
   D26        0.66502  -0.00078   0.00007  -0.04572  -0.04565   0.61937
   D27        2.69436  -0.00010   0.00170  -0.04231  -0.04061   2.65374
   D28        1.64403  -0.00010   0.00162  -0.03329  -0.03168   1.61235
   D29       -2.47977  -0.00060  -0.00140  -0.03088  -0.03227  -2.51204
   D30       -0.45043   0.00008   0.00023  -0.02746  -0.02724  -0.47766
   D31        1.53714   0.00004  -0.00107   0.00981   0.00873   1.54588
   D32       -2.68584  -0.00026   0.00043   0.00224   0.00268  -2.68317
   D33       -0.57455   0.00032  -0.00069   0.01268   0.01200  -0.56255
   D34       -1.59216   0.00016  -0.00051   0.01764   0.01711  -1.57505
   D35        0.46804  -0.00014   0.00098   0.01007   0.01105   0.47910
   D36        2.57934   0.00044  -0.00013   0.02051   0.02037   2.59971
   D37       -3.07251   0.00029  -0.00172   0.01966   0.01800  -3.05451
   D38       -0.03437  -0.00013  -0.00093  -0.00272  -0.00370  -0.03807
   D39        0.05741   0.00014  -0.00232   0.01217   0.00989   0.06730
   D40        3.09556  -0.00028  -0.00153  -0.01022  -0.01181   3.08375
   D41        1.60909   0.00000   0.00008  -0.00113  -0.00105   1.60804
   D42       -1.50746   0.00001   0.00001  -0.00030  -0.00029  -1.50775
   D43       -2.57064  -0.00024  -0.00011  -0.00357  -0.00368  -2.57431
   D44        0.59599  -0.00023  -0.00018  -0.00274  -0.00292   0.59308
   D45       -0.49298   0.00020   0.00015   0.00126   0.00140  -0.49158
   D46        2.67365   0.00022   0.00008   0.00209   0.00216   2.67581
   D47       -2.93779   0.00043  -0.00130   0.03627   0.03500  -2.90279
   D48        0.30797   0.00071  -0.00213   0.05811   0.05594   0.36391
   D49        1.20729   0.00020  -0.00046   0.03295   0.03254   1.23983
   D50       -1.83014   0.00049  -0.00129   0.05479   0.05347  -1.77666
   D51       -0.81905   0.00046  -0.00009   0.03359   0.03354  -0.78551
   D52        2.42670   0.00075  -0.00091   0.05543   0.05448   2.48118
         Item               Value     Threshold  Converged?
 Maximum Force            0.005046     0.000450     NO 
 RMS     Force            0.000925     0.000300     NO 
 Maximum Displacement     0.117984     0.001800     NO 
 RMS     Displacement     0.036588     0.001200     NO 
 Predicted change in Energy=-2.824923D-04
 GradGradGradGradGradGradGradGradGradGradGradGradGradGradGradGradGradGrad

                          Input orientation:                          
 ---------------------------------------------------------------------
 Center     Atomic      Atomic             Coordinates (Angstroms)
 Number     Number       Type             X           Y           Z
 ---------------------------------------------------------------------
      1          6           0        0.722865   -1.296157    0.704729
      2          6           0        1.952827   -1.679315    0.167044
      3          6           0        0.669199   -0.819960    2.003380
      4          6           0        2.996513   -1.106733    2.237017
      5          6           0        3.120674   -1.589221    0.939434
      6          6           0        6.025185   -3.864757    0.460154
      7          6           0        6.202741   -5.366158    0.587445
      8          6           0        1.721740   -0.246043    4.148056
      9          6           0        4.477538   -1.981943    0.404040
     10          7           0        1.798254   -0.730773    2.745856
     11          7           0        4.734232   -3.397222    0.622763
     12          8           0        6.931140   -3.086814    0.209599
     13          1           0       -0.191002   -1.350227    0.124185
     14          1           0        2.011848   -2.034593   -0.857755
     15          1           0       -0.249959   -0.497789    2.477443
     16          1           0        3.850743   -1.001778    2.896256
     17          1           0        6.054716   -5.838460   -0.390711
     18          1           0        7.226199   -5.567334    0.907347
     19          1           0        5.502749   -5.819877    1.297374
     20          1           0        1.602561   -1.098734    4.820973
     21          1           0        2.637517    0.293842    4.388983
     22          1           0        0.870206    0.426853    4.245969
     23          1           0        4.545734   -1.719744   -0.660999
     24          1           0        5.268300   -1.414273    0.905919
     25          1           0        3.970863   -4.039299    0.780872
 ---------------------------------------------------------------------
                    Distance matrix (angstroms):
                    1          2          3          4          5
     1  C    0.000000
     2  C    1.395967   0.000000
     3  C    1.384247   2.399651   0.000000
     4  C    2.748321   2.387870   2.356527   0.000000
     5  C    2.427027   1.403058   2.780912   1.389939   0.000000
     6  C    5.896790   4.631001   6.351293   4.465064   3.720747
     7  C    6.826984   5.641926   7.300198   5.580654   4.887565
     8  C    3.735906   4.237467   2.457002   2.453142   3.749186
     9  C    3.828614   2.553804   4.290867   2.513808   1.510615
    10  N    2.375357   2.752072   1.354249   1.355023   2.397684
    11  N    4.529046   3.300772   5.007282   3.297245   2.443914
    12  O    6.480300   5.173632   6.896969   4.848962   4.158738
    13  H    1.084024   2.169364   2.133660   3.831919   3.418910
    14  H    2.155951   1.086241   3.385873   3.377589   2.158180
    15  H    2.174004   3.403853   1.083227   3.311827   3.862364
    16  H    3.830545   3.392601   3.309457   1.084122   2.169618
    17  H    7.089509   5.868140   7.740853   6.216655   5.332347
    18  H    7.783146   6.593420   8.169032   6.289294   5.716795
    19  H    6.607765   5.569905   6.990051   5.420136   4.868352
    20  H    4.213823   4.703065   2.981226   2.935983   4.196616
    21  H    4.446090   4.710299   3.287238   2.592575   3.959640
    22  H    3.940920   4.716529   2.573742   3.302871   4.479099
    23  H    4.081540   2.722216   4.789160   3.342808   2.146910
    24  H    4.551419   3.407131   4.765434   2.650928   2.155001
    25  H    4.252073   3.165246   4.770708   3.416089   2.598239
                    6          7          8          9         10
     6  C    0.000000
     7  C    1.517213   0.000000
     8  C    6.724236   7.679382   0.000000
     9  C    2.437898   3.803009   4.962401   0.000000
    10  N    5.737006   6.748707   1.485591   3.772014   0.000000
    11  N    1.382603   2.456518   5.606489   1.454903   4.498604
    12  O    1.220134   2.422548   7.121746   2.697909   6.191127
    13  H    6.713920   7.564541   4.590136   4.719391   3.348735
    14  H    4.603613   5.545405   5.323647   2.770293   3.838175
    15  H    7.401578   8.301232   2.596521   5.371307   2.078823
    16  H    4.342746   5.469033   2.582787   2.750406   2.075759
    17  H    2.149499   1.096252   8.405368   4.241679   7.351462
    18  H    2.131005   1.090997   8.313687   4.545710   7.499001
    19  H    2.190062   1.095377   7.313688   4.071712   6.459130
    20  H    6.799061   7.569368   1.092750   5.343673   2.116554
    21  H    6.648754   7.694031   1.090032   4.944152   2.110465
    22  H    7.702215   8.682149   1.089719   5.794442   2.109907
    23  H    2.836696   4.195310   5.768340   1.098958   4.487023
    24  H    2.603162   4.073328   4.945129   1.095188   3.986698
    25  H    2.086520   2.603699   5.548448   2.152077   4.419020
                   11         12         13         14         15
    11  N    0.000000
    12  O    2.256870   0.000000
    13  H    5.356930   7.331299   0.000000
    14  H    3.385271   5.142552   2.507013   0.000000
    15  H    6.057120   7.963313   2.503587   4.312898   0.000000
    16  H    3.418695   4.588502   4.913400   4.305908   4.152730
    17  H    2.954734   2.949584   7.708330   5.570665   8.746313
    18  H    3.316666   2.593624   8.568092   6.541046   9.168338
    19  H    2.629634   3.270044   7.333004   5.582055   7.925328
    20  H    5.719736   7.321952   5.033879   5.769862   3.047146
    21  H    5.674907   6.879773   5.375127   5.774195   3.552209
    22  H    6.533136   8.085361   4.612296   5.780144   2.288541
    23  H    2.120733   2.883918   4.815571   2.560942   5.860176
    24  H    2.073039   2.459124   5.515359   3.754972   5.810406
    25  H    1.009948   3.161775   4.998347   3.246796   5.765066
                   16         17         18         19         20
    16  H    0.000000
    17  H    6.249411   0.000000
    18  H    6.016125   1.769417   0.000000
    19  H    5.338504   1.776132   1.784987   0.000000
    20  H    2.961124   8.333567   8.179863   7.065154   0.000000
    21  H    2.319220   8.492811   8.217735   7.425978   1.788020
    22  H    3.570198   9.361201   9.352824   8.317229   1.787285
    23  H    3.694936   4.394759   4.944547   4.643511   6.252994
    24  H    2.478117   4.676871   4.591435   4.429170   5.372602
    25  H    3.703487   2.991994   3.598346   2.404975   5.529755
                   21         22         23         24         25
    21  H    0.000000
    22  H    1.778070   0.000000
    23  H    5.761783   6.495823   0.000000
    24  H    4.687261   5.821418   1.752325   0.000000
    25  H    5.794168   6.447285   2.791023   2.930826   0.000000
 Stoichiometry    C9H13N2O(1+)
 Framework group  C1[X(C9H13N2O)]
 Deg. of freedom    69
 Full point group                 C1      NOp   1
 Largest Abelian subgroup         C1      NOp   1
 Largest concise Abelian subgroup C1      NOp   1
                         Standard orientation:                         
 ---------------------------------------------------------------------
 Center     Atomic      Atomic             Coordinates (Angstroms)
 Number     Number       Type             X           Y           Z
 ---------------------------------------------------------------------
      1          6           0        2.405098    1.721019    0.233028
      2          6           0        1.068941    1.654914   -0.165763
      3          6           0        3.136871    0.551750    0.349034
      4          6           0        1.262544   -0.721394   -0.298438
      5          6           0        0.473292    0.414147   -0.438292
      6          6           0       -3.160412   -0.219084    0.050762
      7          6           0       -4.067569   -0.187966    1.266507
      8          6           0        3.349247   -1.893609    0.239601
      9          6           0       -0.965262    0.286743   -0.881335
     10          7           0        2.560718   -0.644434    0.082232
     11          7           0       -1.856458    0.187915    0.264416
     12          8           0       -3.522420   -0.553351   -1.065456
     13          1           0        2.888050    2.668826    0.441656
     14          1           0        0.489701    2.566542   -0.281233
     15          1           0        4.178851    0.533264    0.644530
     16          1           0        0.879392   -1.716379   -0.494701
     17          1           0       -4.534729    0.800084    1.351876
     18          1           0       -4.860095   -0.924353    1.125405
     19          1           0       -3.536097   -0.398479    2.200890
     20          1           0        3.204026   -2.290079    1.247482
     21          1           0        3.014570   -2.621794   -0.499254
     22          1           0        4.403489   -1.671983    0.075460
     23          1           0       -1.230851    1.135744   -1.526601
     24          1           0       -1.101441   -0.611472   -1.492973
     25          1           0       -1.561821    0.513398    1.173946
 ---------------------------------------------------------------------
 Rotational constants (GHZ):      2.0797239      0.4124636      0.3809762
 Standard basis: 6-31G(d) (6D, 7F)
 There are   206 symmetry adapted basis functions of A   symmetry.
 Integral buffers will be    131072 words long.
 Raffenetti 2 integral format.
 Two-electron integral symmetry is turned on.
   206 basis functions,   388 primitive gaussians,   206 cartesian basis functions
    44 alpha electrons       44 beta electrons
       nuclear repulsion energy       670.3481220853 Hartrees.
 NAtoms=   25 NActive=   25 NUniq=   25 SFac= 1.00D+00 NAtFMM=   60 NAOKFM=F Big=F
 One-electron integrals computed using PRISM.
 NBasis=   206 RedAO= T  NBF=   206
 NBsUse=   206 1.00D-06 NBFU=   206
 Initial guess read from the read-write file.
 B after Tr=     0.000000    0.000000    0.000000
         Rot=    1.000000    0.000000    0.000000    0.000000 Ang=   0.00 deg.
 Initial guess orbital symmetries:
       Occupied  (A) (A) (A) (A) (A) (A) (A) (A) (A) (A) (A) (A)
                 (A) (A) (A) (A) (A) (A) (A) (A) (A) (A) (A) (A)
                 (A) (A) (A) (A) (A) (A) (A) (A) (A) (A) (A) (A)
                 (A) (A) (A) (A) (A) (A) (A) (A)
       Virtual   (A) (A) (A) (A) (A) (A) (A) (A) (A) (A) (A) (A)
                 (A) (A) (A) (A) (A) (A) (A) (A) (A) (A) (A) (A)
                 (A) (A) (A) (A) (A) (A) (A) (A) (A) (A) (A) (A)
                 (A) (A) (A) (A) (A) (A) (A) (A) (A) (A) (A) (A)
                 (A) (A) (A) (A) (A) (A) (A) (A) (A) (A) (A) (A)
                 (A) (A) (A) (A) (A) (A) (A) (A) (A) (A) (A) (A)
                 (A) (A) (A) (A) (A) (A) (A) (A) (A) (A) (A) (A)
                 (A) (A) (A) (A) (A) (A) (A) (A) (A) (A) (A) (A)
                 (A) (A) (A) (A) (A) (A) (A) (A) (A) (A) (A) (A)
                 (A) (A) (A) (A) (A) (A) (A) (A) (A) (A) (A) (A)
                 (A) (A) (A) (A) (A) (A) (A) (A) (A) (A) (A) (A)
                 (A) (A) (A) (A) (A) (A) (A) (A) (A) (A) (A) (A)
                 (A) (A) (A) (A) (A) (A) (A) (A) (A) (A) (A) (A)
                 (A) (A) (A) (A) (A) (A)
 Harris functional with IExCor=  402 diagonalized for initial guess.
 ExpMin= 1.61D-01 ExpMax= 5.48D+03 ExpMxC= 8.25D+02 IAcc=3 IRadAn=         5 AccDes= 0.00D+00
 HarFok:  IExCor=  402 AccDes= 0.00D+00 IRadAn=         5 IDoV= 1
 ScaDFX=  1.000000  1.000000  1.000000  1.000000
 FoFCou: FMM=F IPFlag=           0 FMFlag=      100000 FMFlg1=           0
         NFxFlg=           0 DoJE=T BraDBF=F KetDBF=T FulRan=T
         Omega=  0.000000  0.000000  1.000000  0.000000  0.000000 ICntrl=     500 IOpCl=  0
         NMat0=    1 NMatS0=    1 NMatT0=    0 NMatD0=    1 NMtDS0=    0 NMtDT0=    0
[...]
 228,-0.00368595,-0.00132226,0.00166753,0.00000259,-0.00000234,-0.00000
 359,-0.00001179,0.00000310,-0.00000154,-0.00000251,-0.00000354,0.00000
 105,-0.00000495,-0.00002291,0.00000988,0.01877353,0.05074291,0.0000114
 8,-0.00000199,-0.00002059,-0.00002185,0.00000245,0.00000669,0.00001522
 ,0.00000283,0.00001464,0.00001336,-0.00002421,-0.00002364,0.00011052,-
 0.00011325,-0.00001772,-0.00585102,0.00012094,-0.00023254,0.06414749,0
 .00328940,-0.05951485,-0.00000085,0.00000054,0.00000269,0.00048487,0.0
 0025844,-0.00054575,-0.00001903,0.00000411,0.00001985,0.00003555,0.001
 47885,-0.00085949,-0.00025954,-0.00147735,0.00022212,-0.00000064,0.000
 00021,0.00000064,0.00000428,-0.00000433,0.00000395,0.00000182,0.000002
 80,0.00000075,-0.00003338,0.00005234,0.00000817,-0.06958457,-0.0055090
 0,0.06203786,0.00001012,-0.00003434,-0.00002737,-0.00010845,0.00001222
 ,0.00003733,-0.00001307,0.00002440,0.00003710,-0.00004283,0.00002055,-
 0.00003205,0.00009859,0.00014693,-0.00017980,-0.00145217,0.00699320,-0
 .01761414,-0.04414914,-0.00614089,0.01418637,-0.00001003,0.00000446,-0
 .00000854,-0.00107860,0.00019364,-0.00010569,-0.00002440,0.00000141,0.
 00002636,-0.00092595,0.00284793,0.00034491,-0.00009082,-0.00257363,0.0
 0058645,-0.00000446,0.00000660,0.00000099,0.00001069,0.00001420,-0.000
 00138,0.00000145,0.00000607,0.00000034,-0.00002767,0.00003839,0.000012
 00,-0.00042966,-0.01001263,0.03177766,0.04751929,-0.00000335,0.0000397
 2,0.00000296,0.00009129,-0.00003897,-0.00007974,0.00004651,-0.00002364
 ,-0.00002567,0.00010027,-0.00002902,0.00007922,-0.00003032,-0.00016457
 ,0.00023308,-0.00296702,-0.00880735,0.03285942,-0.00597432,-0.07332596
 ,0.07477731,0.00003645,-0.00000032,0.00004993,0.00114017,0.00022905,0.
 00025389,-0.00001534,-0.00000547,-0.00003141,0.00209968,-0.00416813,-0
 .00107572,0.00074800,0.00279469,-0.00272171,0.00000697,-0.00000425,-0.
 00000773,-0.00001403,-0.00001887,-0.00000150,-0.00000222,0.00000161,0.
 00000026,0.00001394,0.00003470,0.00000355,-0.00045217,-0.00084630,0.00
 177332,0.00255854,0.07622640,0.00000341,-0.00000820,-0.00000808,-0.000
 02374,0.00001498,0.00001398,0.00000488,0.00000694,0.00001069,-0.000036
 48,0.00000087,-0.00003584,0.00002375,0.00006581,-0.00004285,-0.0016672
 2,-0.00000880,-0.00251696,0.01394533,0.07721770,-0.30129510,-0.0000029
 6,0.00000228,-0.00000139,-0.00004837,-0.00021590,0.00008205,-0.0000101
 9,0.00000696,0.00002275,0.00049892,0.00100478,0.00056177,0.00035542,-0
 .00111589,0.00136913,-0.00000176,0.00000111,0.00000094,0.00000782,0.00
 000043,-0.00000094,0.00000217,0.00000148,0.00000125,-0.00005045,0.0000
 4612,0.00000868,0.00009484,0.00170864,-0.00671089,-0.01535263,-0.08406
 795,0.32299595,-0.00001205,0.00000462,0.00000734,0.00001746,0.00000069
 ,-0.00001782,-0.00001138,0.00000383,-0.00000037,-0.00002876,0.00003363
 ,0.00004768,-0.00003451,0.00001104,0.00003933,0.00649013,0.00888642,0.
 01124306,-0.09963443,-0.08071648,-0.07145127,0.00000087,0.00000143,0.0
 0000192,0.00016222,-0.00026508,0.00032688,-0.00002072,-0.00001095,-0.0
 0001907,-0.00053365,-0.00041333,-0.00020781,-0.00050355,0.00508565,0.0
 0017280,-0.00000048,0.00000123,-0.00000175,-0.00000491,0.00000392,-0.0
 0000629,-0.00000566,0.00000253,-0.00000183,0.00012545,-0.00003668,-0.0
 0006009,-0.01130721,-0.02181652,-0.02011290,0.00025014,0.00258137,0.00
 178521,0.10456334,0.00004160,-0.00003588,-0.00006779,-0.00012542,0.000
 01745,0.00002295,0.00008274,0.00000711,0.00003284,0.00001136,-0.000167
 59,-0.00022859,0.00012399,0.00005650,-0.00000600,-0.01914296,-0.013524
 95,-0.02054428,-0.07836207,-0.17702748,-0.10505847,-0.00001892,0.00000
 585,0.00001798,0.00007639,0.00028071,-0.00001645,0.00002959,-0.0000034
 0,0.00012394,0.00079311,0.00196855,0.00082913,0.00476235,-0.00766202,0
 .00003811,-0.00000172,-0.00000179,-0.00000022,0.00001766,-0.00000747,0
 .00000943,0.00001646,0.00001218,0.00000490,-0.00039319,0.00029321,0.00
 016287,-0.00054458,-0.00078218,0.00006073,0.00579492,0.00859206,0.0054
 4484,0.08583984,0.18893976,0.00000363,0.00000519,-0.00000321,0.0000156
 6,-0.00000356,-0.00000954,0.00001050,-0.00000984,-0.00000049,-0.000007
 31,0.00004015,-0.00002811,-0.00002372,-0.00004557,0.00004900,0.0039441
 8,0.00323083,-0.00068305,-0.07063628,-0.10763018,-0.14420851,-0.000012
 29,-0.00000096,-0.00000920,0.00041386,-0.00021134,0.00030441,-0.000022
 06,-0.00001588,0.00000791,-0.00007530,0.00067890,-0.00050014,-0.000901
 36,0.00047598,0.00279470,0.00000170,-0.00000438,0.00000017,-0.00000570
 ,-0.00000693,0.00000558,-0.00000194,0.00000052,-0.00000122,-0.00000861
 ,-0.00002172,0.00000131,0.00336754,0.00708070,0.00523015,-0.01396579,-
 0.02218481,-0.01478805,0.07853745,0.11771716,0.15120837,0.00028107,0.0
 0053007,0.00052285,0.00047371,-0.00003871,-0.00031950,0.00059461,-0.00
 001245,-0.00211441,-0.00097999,0.00030586,0.00013567,-0.00002113,-0.00
 028669,-0.00045329,-0.00005975,-0.00009329,-0.00007329,0.00000432,0.00
 001549,0.00001256,-0.19161156,-0.08574519,0.11444121,-0.00008235,-0.00
 006060,-0.00002811,0.00603360,0.00455816,-0.00739209,0.00005768,0.0000
 2221,0.00004369,0.00000809,0.00014240,0.00006704,-0.00002297,-0.000057
 14,0.00003495,0.00000392,-0.00014468,0.00007642,-0.00005392,-0.0003520
 6,-0.00028813,0.00034120,-0.00030306,-0.00002974,0.00000284,0.00000158
 ,-0.00000193,-0.00000836,0.00000341,0.00000085,-0.00000312,0.00000838,
 0.00000128,0.19875114,0.00013652,-0.00018862,0.00011436,0.00031091,-0.
 00000579,-0.00006721,0.00016552,0.00091242,0.00025094,-0.00051800,0.00
 002099,-0.00187529,0.00017748,-0.00079679,-0.00048868,-0.00005338,0.00
 002934,-0.00009907,0.00000009,-0.00000952,0.00000325,-0.08805061,-0.10
 422359,0.07304628,-0.00016864,0.00004251,-0.00008759,0.01017302,0.0043
 4286,-0.01120223,0.00006684,-0.00006126,0.00005605,0.00004295,-0.00004
 556,0.00004641,-0.00001007,-0.00000559,0.00002081,0.00001253,0.0000415
 2,-0.00003396,0.00030868,0.00010443,0.00039975,-0.00007446,0.00029189,
 -0.00015178,-0.00000168,-0.00000449,0.00000248,0.00001152,-0.00000757,
 0.00000178,0.00000304,-0.00000324,-0.00000190,0.09327300,0.10483274,-0
 .00019010,-0.00052320,0.00006495,0.00038209,0.00011285,0.00002431,0.00
 270637,-0.00026433,0.00098940,-0.00333341,0.00137154,-0.00261089,0.000
 45461,-0.00131890,-0.00073453,-0.00009514,-0.00002210,-0.00013987,0.00
 000300,-0.00000309,0.00000846,0.10479909,0.06680410,-0.13616871,-0.000
 35351,0.00003012,-0.00022138,0.02302675,0.00912930,-0.02863413,0.00010
 226,-0.00005655,0.00013021,0.00008273,0.00001365,0.00009462,-0.0000235
 7,-0.00005921,-0.00000022,-0.00002921,0.00010198,0.00000295,-0.0007533
 9,0.00059365,-0.00009759,0.00002340,0.00021223,-0.00019833,0.00000014,
 -0.00000314,0.00000101,0.00000547,-0.00000764,0.00000222,0.00000121,0.
 00000086,0.00000040,-0.11868281,-0.07067434,0.15656535,0.00006045,0.00
 017538,0.00002641,-0.00007101,-0.00000892,0.00010953,0.00060473,0.0002
 0147,-0.00043740,0.00062246,0.00047330,0.00249999,0.00033185,-0.000388
 55,0.00008560,0.00008014,0.00007074,0.00006563,-0.00000023,-0.00001408
 ,-0.00000996,-0.28880651,0.08385854,-0.07052046,0.00001751,0.00001001,
 -0.00002537,-0.00399414,-0.00014666,-0.00056272,-0.00006579,-0.0000298
 2,-0.00004516,-0.00008721,-0.00009725,-0.00008753,0.00000951,-0.000033
 41,-0.00003255,0.00005187,0.00005873,-0.00003347,0.00031668,-0.0001166
 9,0.00003858,0.00086182,0.00038023,0.00071590,-0.00000296,-0.00000010,
 0.00000481,0.00001098,0.00000157,0.00000047,0.00000152,-0.00000627,-0.
 00000475,-0.01662551,0.00783470,-0.00601307,0.30500007,-0.00054111,0.0
 0028893,-0.00067138,-0.00032072,0.00009029,0.00009833,0.00042557,0.000
 08823,-0.00208478,-0.00065662,0.00036567,-0.00049089,0.00001653,0.0000
 1749,0.00021673,-0.00004816,-0.00007474,-0.00021278,-0.00001034,-0.000
 00172,-0.00000991,0.08925063,-0.08192367,0.02680383,-0.00002117,0.0000
 5418,0.00002353,-0.01256415,0.00163609,-0.00560167,0.00007106,-0.00006
 619,0.00009033,-0.00008885,-0.00001820,0.00022976,-0.00002321,-0.00014
 846,-0.00012568,-0.00000085,-0.00001699,-0.00000156,-0.00006061,-0.000
 21635,-0.00004152,0.00003987,0.00053476,-0.00035343,-0.00000161,0.0000
 0196,0.00000652,0.00002156,-0.00001672,0.00000095,0.00000358,0.0000000
 1,0.00000296,-0.01373826,0.00554398,-0.00520096,-0.09170740,0.08086061
 ,-0.00160740,-0.00030269,-0.00045079,-0.00033120,0.00020012,0.00019614
 ,0.00227664,-0.00153942,-0.00515428,-0.00297620,0.00067317,0.00058646,
 0.00027600,0.00001772,0.00042840,-0.00008315,-0.00024037,-0.00025303,-
 0.00000337,0.00003814,0.00002335,-0.05650349,0.02071698,-0.06811492,-0
 .00000025,0.00000524,0.00001400,-0.03435046,0.00940209,-0.01618079,0.0
 0007537,0.00003259,0.00009097,-0.00011702,0.00029719,0.00020628,0.0000
 0735,-0.00015509,-0.00039981,0.00006287,-0.00000469,0.00002075,-0.0001
 8058,0.00013342,-0.00015212,0.00101308,-0.00055320,-0.00097303,0.00000
 359,0.00000464,0.00000388,0.00000472,0.00000295,0.00000477,-0.00000436
 ,0.00001953,-0.00000134,0.01684736,-0.00786074,0.00769211,0.07298771,-
 0.02131631,0.08092122,-0.00021625,0.00059690,0.00087108,0.00093717,-0.
 00028413,-0.00019965,0.00027877,-0.00068097,-0.00157865,-0.00096172,0.
 00036711,0.00183358,-0.00066337,-0.00049430,-0.00082776,-0.00001615,-0
 .00002714,-0.00009292,0.00000635,0.00000082,-0.00000487,-0.05265214,0.
 01584410,0.00105587,-0.00003437,0.00011984,-0.00003042,0.00038029,-0.0
 0640187,-0.00250998,0.00003041,-0.00002680,0.00007682,-0.00005905,-0.0
 0001257,0.00008557,-0.00001108,0.00002081,-0.00003027,0.00001942,0.000
 07124,0.00000895,-0.00032904,-0.00020872,-0.00001931,0.00019872,0.0003
 9112,-0.00009622,-0.00000015,0.00000099,0.00000291,0.00000600,-0.00000
 489,0.00000032,-0.00000006,0.00000202,0.00000134,0.00291017,-0.0237117
 6,-0.00220508,0.00167971,0.02995486,0.00259277,0.04850165,-0.00014387,
 0.00011998,-0.00070961,-0.00012868,0.00013413,0.00033210,0.00130288,0.
 00060060,0.00064240,-0.00096227,0.00001399,0.00037652,0.00007346,-0.00
 000118,-0.00028892,0.00001444,0.00000668,0.00004690,-0.00000152,-0.000
 00003,-0.00000035,0.01449233,-0.32696233,-0.01422292,-0.00001939,0.000
 00713,-0.00004271,-0.00008129,-0.00323339,-0.00566133,-0.00001809,0.00
 001567,-0.00001008,0.00001951,0.00000173,-0.00003364,0.00000468,0.0000
 1070,-0.00003639,-0.00003965,-0.00009874,0.00002527,-0.00033385,-0.000
 38099,0.00000823,-0.00010907,-0.00018097,-0.00001844,0.00000015,0.0000
 0071,-0.00000139,-0.00000404,0.00000239,-0.00000049,-0.00000034,-0.000
 00041,0.00000039,0.00196394,-0.01078087,-0.00021225,-0.00051909,-0.006
 98116,0.00044814,-0.01552263,0.34770322,0.00023669,0.00069485,-0.00084
 013,0.00011267,-0.00024075,0.00004488,0.00232938,-0.00110934,0.0009743
 0,-0.00314664,-0.00091398,-0.00023743,0.00039800,0.00111084,-0.0012875
 9,-0.00016433,-0.00000717,-0.00021735,0.00000510,-0.00000811,0.0000090
 6,-0.00004844,-0.00670026,-0.04834758,-0.00028622,0.00018354,-0.000185
 66,0.00108020,-0.03883930,-0.01493038,0.00016883,-0.00006885,0.0001215
 2,0.00010892,0.00000632,0.00011802,0.00000004,0.00006475,-0.00007300,-
 0.00002770,-0.00010808,0.00005330,-0.00032486,-0.00011072,0.00027617,-
 0.00003428,-0.00047393,0.00004540,-0.00000028,-0.00000545,0.00000221,0
 .00000870,-0.00001324,0.00000120,0.00000071,-0.00000033,0.00000205,-0.
 00281058,0.01863360,0.00326326,0.00124175,0.00863342,0.00150283,0.0010
 4682,0.01936588,0.05972852,0.00025264,-0.00012419,-0.00008148,0.001761
 18,0.00019674,0.00145018,0.00015504,0.00000049,0.00012132,-0.00434415,
 0.00101994,0.00153528,0.00450039,0.00112738,0.02831778,0.00065014,0.00
 100852,-0.00087616,-0.00024649,-0.00006227,-0.00029417,-0.00032490,0.0
 0005207,-0.00006490,-0.06850913,-0.00138732,-0.06656648,0.00046935,0.0
 0095418,0.00136928,-0.00488690,0.00106114,-0.01144190,-0.00032055,0.00
 125477,-0.00068948,0.00001924,-0.00002716,-0.00002592,-0.00042560,-0.0
 0011515,-0.00057259,-0.00001642,-0.00001909,-0.00005273,-0.00033879,0.
 00000929,0.00024628,-0.00002383,0.00008382,-0.00006179,-0.00006541,0.0
 0011233,0.00000632,0.00004174,0.00002284,0.00003486,0.00000722,0.00004
 480,0.00007857,0.00000069,-0.00000606,-0.00001446,-0.00000219,0.000012
 02,0.00006892,0.07513280,0.00014387,-0.00012437,-0.00012305,-0.0004416
 7,-0.00005888,-0.00021505,0.00003781,0.00007527,0.00010915,0.00161483,
 0.00053290,-0.00070045,-0.00217678,0.00036571,-0.00817904,-0.00262954,
 -0.00741914,-0.00286552,0.00127485,0.00053530,0.00053842,0.00011996,-0
 .00014098,0.00012464,-0.00366119,-0.05075886,-0.00724400,-0.00023064,-
 0.00021117,-0.00065355,0.01583005,-0.00736745,0.03869135,-0.00061885,0
 .00289394,-0.00016874,0.00002005,-0.00001853,-0.00002465,0.00011312,0.
 00022931,0.00015275,0.00001232,0.00000234,0.00001313,0.00006385,-0.000
 06045,0.00016182,0.00014812,-0.00035388,0.00013332,0.00009630,-0.00018
 669,0.00002687,-0.00008140,0.00005025,-0.00003891,0.00000727,-0.000013
 78,-0.00001846,-0.00000082,-0.00000399,0.00001147,-0.00000422,-0.00000
 189,-0.00007736,-0.00689740,0.05892014,0.00015665,-0.00012817,0.000046
 20,-0.00236875,0.00047247,0.00094246,0.00007949,0.00005168,0.00017716,
 0.00312268,-0.00066991,-0.00101366,-0.00329688,-0.00242588,-0.01758758
 ,0.00091034,0.00085550,0.00043388,-0.00013699,-0.00009079,-0.00017488,
 0.00019410,0.00002574,0.00007144,-0.06555960,0.00041571,-0.30422023,-0
 .00073974,-0.00015259,-0.00065525,-0.00317268,0.00095093,-0.00542268,-
 0.00006951,0.00043191,0.00031687,0.00000125,0.00001561,-0.00000909,0.0
 0099847,0.00008429,0.00051712,0.00004260,0.00003079,0.00005173,0.00005
 062,0.00003267,0.00012351,-0.00001374,0.00006157,-0.00003411,-0.000046
 68,0.00006328,0.00000373,0.00000604,0.00000891,0.00000459,0.00000448,-
 0.00002998,-0.00004688,-0.00000024,0.00000196,0.00002288,0.00001176,-0
 .00000774,-0.00002903,0.07099457,0.00056359,0.32698879,-0.00055121,0.0
 0075470,-0.00095622,-0.00212062,0.00084557,0.00321599,0.00040159,-0.00
 009865,0.00026082,0.00091407,-0.00031147,-0.00187606,-0.02326752,-0.01
 267588,-0.00178858,0.00232593,0.00175810,0.00071281,-0.00054965,-0.000
 12432,0.00029639,-0.00001506,-0.00004264,-0.00010351,-0.20240210,-0.13
 201298,-0.02677141,-0.00073201,0.00084410,0.00006485,0.01197677,0.0104
 3428,0.00051319,-0.00103414,-0.00048851,-0.00045746,-0.00019068,0.0000
 8261,0.00019603,0.00000888,-0.00038000,0.00020030,0.00001109,-0.000109
 80,0.00007630,-0.00009715,-0.00024223,0.00065189,-0.00009556,0.0001066
 3,-0.00006962,0.00005364,0.00002099,0.00003530,0.00006046,-0.00010230,
 0.00000210,0.00000878,0.00001168,0.00001070,-0.00000069,-0.00001299,0.
 00002533,0.00000183,0.00000456,0.00002829,-0.00389138,-0.00313196,-0.0
 0076379,0.21942150,-0.00001497,-0.00095741,0.00009900,0.00097820,-0.00
 048029,-0.00067006,0.00041648,-0.00002347,-0.00013599,0.00073894,0.000
 32394,-0.00050919,0.00680446,0.00812295,0.00077821,-0.00419284,-0.0020
 5805,-0.00689822,0.00054545,-0.00005575,-0.00037187,0.00001577,0.00004
 721,0.00015928,-0.12605954,-0.15094114,-0.02306243,-0.00013988,0.00003
 701,0.00024200,-0.01291901,-0.03605422,-0.00269983,0.00068452,0.003866
 46,0.00162327,0.00007055,-0.00003164,-0.00005755,0.00003297,0.00036124
 ,-0.00017653,-0.00002670,0.00007011,-0.00001468,-0.00007286,-0.0000981
 5,0.00013434,0.00009425,-0.00006685,0.00016351,-0.00006478,0.00006758,
 0.00004614,-0.00002628,0.00020650,0.00011475,0.00000345,-0.00001662,-0
 .00000439,0.00000053,-0.00000533,-0.00001821,0.00001205,0.00000371,-0.
 00002288,0.00159954,0.00192905,-0.00072172,0.13314982,0.17916027,0.000
 19973,-0.00055331,0.00090405,0.00136726,-0.00081084,-0.00218974,0.0001
 1022,0.00000094,-0.00029877,0.00089591,0.00013180,0.00058716,0.0180201
 4,0.01117807,0.00228721,0.00125347,0.00251400,0.00162740,-0.00041441,-
 0.00035073,0.00019589,-0.00000728,0.00000668,0.00009219,-0.02929418,-0
 .02502595,-0.05839882,-0.00022519,-0.00032548,0.00038841,0.00461317,0.
 00670111,0.00250997,-0.00068601,-0.00148675,-0.00050313,0.00013364,-0.
 00009170,-0.00012342,0.00022376,0.00015064,0.00014459,-0.00004456,0.00
 006351,-0.00001744,0.00031921,-0.00001370,-0.00060950,-0.00005794,0.00
 002295,-0.00004569,0.00007023,-0.00002118,0.00002202,0.00008484,-0.000
 15589,0.00000373,-0.00000314,0.00000028,0.00000859,0.00000537,0.000009
 27,-0.00003756,0.00000677,0.00000059,-0.00000294,-0.02337501,-0.020506
 00,-0.00169008,0.02712504,0.02795973,0.05552411,-0.00016397,-0.0003360
 1,-0.00008330,-0.00036144,0.00017582,0.00065995,-0.00018528,0.00013130
 ,0.00012960,-0.00031196,0.00011703,0.00071351,-0.00053593,0.00313239,-
 0.00119445,-0.00316193,-0.02223491,-0.00695634,-0.00202016,-0.00047259
 ,0.00177895,-0.00001576,0.00002239,-0.00002787,-0.00250867,0.00657547,
 0.01039996,0.00013979,-0.00032072,0.00004898,-0.02698702,-0.01440681,-
 0.05711787,0.00148832,0.00225215,-0.00746416,-0.00004915,0.00005577,0.
 00003509,-0.00003399,0.00028421,-0.00021183,0.00002025,0.00004992,-0.0
 0002805,-0.00012086,0.00016872,-0.00002040,-0.00039657,0.00032943,-0.0
 0059284,0.00047011,-0.00009781,0.00042879,0.00038715,0.00107417,-0.000
 66900,-0.00000968,0.00001531,0.00000290,0.00000407,0.00001846,-0.00000
 083,-0.00000490,-0.00000421,0.00000829,0.00040532,0.00039207,-0.000404
 46,-0.00023674,-0.00163013,-0.00032106,0.03418899,0.00001947,-0.000001
 23,0.00001170,-0.00005062,-0.00007688,-0.00024249,-0.00002640,-0.00002
 160,-0.00002848,0.00015141,0.00000888,0.00005645,-0.00063278,-0.001109
 23,0.00087926,-0.00454925,0.00758613,0.00277286,0.00047198,0.00007771,
 0.00172267,0.00001798,0.00002015,-0.00000121,-0.00581270,-0.01506113,-
 0.01646051,0.00004605,0.00012042,-0.00002071,-0.02105143,-0.27095576,-
 0.19535155,0.00384799,0.00355992,0.00306242,0.00000231,0.00001588,-0.0
 0000920,0.00008480,-0.00002286,-0.00000097,-0.00000792,-0.00001021,0.0
 0000697,0.00024071,-0.00029363,-0.00004826,-0.00020030,-0.00016324,-0.
 00022129,0.00003747,-0.00034438,-0.00018146,0.00090426,-0.00121372,0.0
 0082847,-0.00000307,0.00000061,-0.00000173,0.00000385,-0.00000868,-0.0
 0001265,-0.00000186,0.00000131,0.00000654,0.00007879,0.00118586,0.0001
 6013,0.00172068,-0.00340711,0.00060196,0.02470858,0.28011279,0.0000535
 6,0.00001782,-0.00003551,-0.00007681,-0.00007289,0.00023977,-0.0000567
 5,0.00000822,0.00001370,-0.00021327,-0.00005331,-0.00005000,0.00100348
 ,-0.00016454,-0.00076854,0.00713726,-0.02248374,-0.01300102,0.00041746
 ,-0.00040593,-0.00054579,-0.00003909,-0.00001737,-0.00007928,0.0041613
 1,0.01398576,0.00838625,0.00010527,0.00000761,0.00004992,-0.06508585,-
 0.20077429,-0.22687287,-0.00756771,0.00115334,-0.00282909,-0.00000745,
 -0.00000055,0.00002298,-0.00002332,0.00003367,0.00005882,0.00001462,-0
 .00001638,0.00000039,-0.00026277,0.00017809,0.00005017,0.00042391,0.00
 008894,0.00045064,0.00023543,0.00013913,0.00029896,-0.00037090,0.00158
 384,0.00062049,0.00000865,-0.00000320,0.00000468,-0.00000908,-0.000006
 70,0.00000365,0.00000055,-0.00000018,0.00000838,-0.00010627,0.00028826
 ,0.00118311,-0.00062867,0.00404332,-0.00037823,0.06088644,0.20247107,0
 .23316844\\0.00000183,-0.00000583,-0.00000570,-0.00000829,0.00000275,0
 .00000099,0.00000976,-0.00000083,0.00000466,0.00000792,-0.00000075,-0.
 00000829,0.00000421,-0.00000277,0.00000522,0.00000091,-0.00000307,-0.0
 0000304,-0.00000298,0.00000064,0.00000125,0.00000626,-0.00000891,0.000
 00040,-0.00000224,0.00000065,0.00000022,-0.00002052,0.00001489,0.00000
 087,0.00000017,0.00000005,0.00000158,0.00000136,0.00000048,0.00000129,
 -0.00000029,0.00000088,0.00000023,-0.00000074,-0.00000099,0.00000046,-
 0.00000038,0.00000143,-0.00000121,0.00000039,-0.00000099,0.00000156,0.
 00000058,0.00000019,0.,0.00000027,0.00000011,0.00000056,0.00000035,0.0
 0000018,0.00000002,-0.00000096,0.00000236,0.00000100,0.00000194,0.0000
 0206,0.00000049,-0.00000003,-0.00000149,-0.00000196,0.00000061,-0.0000
 0056,0.00000002,0.00000030,0.00000053,-0.00000060,-0.00000044,-0.00000
 102,-0.00000003\\\@


 TELEVISION IS CALLED A MEDIUM BECAUSE IT ISN'T
 RARE, AND IT ISN'T WELL DONE.
 Job cpu time:  0 days  1 hours  3 minutes  8.3 seconds.
 File lengths (MBytes):  RWF=    138 Int=      0 D2E=      0 Chk=      4 Scr=      1
 Normal termination of Gaussian 09 at Fri Feb 16 19:37:32 2018.
