 Entering Gaussian System, Link 0=g09
 Initial command:
 /home/fb_chem/chemsoft/lx24-amd64/Gaussian_09_C.01_NBO_3.1_64_istanbul-64/g09/l1.exe /local/2400010.1.parallel_long/Gau-8869.inp -scrdir=/local/2400010.1.parallel_long/
 Entering Link 1 = /home/fb_chem/chemsoft/lx24-amd64/Gaussian_09_C.01_NBO_3.1_64_istanbul-64/g09/l1.exe PID=      8870.
  
 Copyright (c) 1988,1990,1992,1993,1995,1998,2003,2009,2011,
            Gaussian, Inc.  All Rights Reserved.
  
 This is part of the Gaussian(R) 09 program.  It is based on
 the Gaussian(R) 03 system (copyright 2003, Gaussian, Inc.),
 the Gaussian(R) 98 system (copyright 1998, Gaussian, Inc.),
 the Gaussian(R) 94 system (copyright 1995, Gaussian, Inc.),
 the Gaussian 92(TM) system (copyright 1992, Gaussian, Inc.),
 the Gaussian 90(TM) system (copyright 1990, Gaussian, Inc.),
 the Gaussian 88(TM) system (copyright 1988, Gaussian, Inc.),
 the Gaussian 86(TM) system (copyright 1986, Carnegie Mellon
 University), and the Gaussian 82(TM) system (copyright 1983,
 Carnegie Mellon University). Gaussian is a federally registered
 trademark of Gaussian, Inc.
  
 This software contains proprietary and confidential information,
 including trade secrets, belonging to Gaussian, Inc.
  
 This software is provided under written license and may be
 used, copied, transmitted, or stored only in accord with that
 written license.
  
 The following legend is applicable only to US Government
 contracts under FAR:
  
                    RESTRICTED RIGHTS LEGEND
  
 Use, reproduction and disclosure by the US Government is
 subject to restrictions as set forth in subparagraphs (a)
 and (c) of the Commercial Computer Software - Restricted
 Rights clause in FAR 52.227-19.
  
 Gaussian, Inc.
 340 Quinnipiac St., Bldg. 40, Wallingford CT 06492
  
  
 ---------------------------------------------------------------
 Warning -- This program may not be used in any manner that
 competes with the business of Gaussian, Inc. or will provide
 assistance to any competitor of Gaussian, Inc.  The licensee
 of this program is prohibited from giving any competitor of
 Gaussian, Inc. access to this program.  By using this program,
 the user acknowledges that Gaussian, Inc. is engaged in the
 business of creating and licensing software in the field of
 computational chemistry and represents and warrants to the
 licensee that it is not a competitor of Gaussian, Inc. and that
 it will not use this program in any manner prohibited above.
 ---------------------------------------------------------------
  

 Cite this work as:
 Gaussian 09, Revision C.01,
 M. J. Frisch, G. W. Trucks, H. B. Schlegel, G. E. Scuseria, 
 M. A. Robb, J. R. Cheeseman, G. Scalmani, V. Barone, B. Mennucci, 
 G. A. Petersson, H. Nakatsuji, M. Caricato, X. Li, H. P. Hratchian, 
 A. F. Izmaylov, J. Bloino, G. Zheng, J. L. Sonnenberg, M. Hada, 
 M. Ehara, K. Toyota, R. Fukuda, J. Hasegawa, M. Ishida, T. Nakajima, 
 Y. Honda, O. Kitao, H. Nakai, T. Vreven, J. A. Montgomery, Jr., 
 J. E. Peralta, F. Ogliaro, M. Bearpark, J. J. Heyd, E. Brothers, 
 K. N. Kudin, V. N. Staroverov, T. Keith, R. Kobayashi, J. Normand, 
 K. Raghavachari, A. Rendell, J. C. Burant, S. S. Iyengar, J. Tomasi, 
 M. Cossi, N. Rega, J. M. Millam, M. Klene, J. E. Knox, J. B. Cross, 
 V. Bakken, C. Adamo, J. Jaramillo, R. Gomperts, R. E. Stratmann, 
 O. Yazyev, A. J. Austin, R. Cammi, C. Pomelli, J. W. Ochterski, 
 R. L. Martin, K. Morokuma, V. G. Zakrzewski, G. A. Voth, 
 P. Salvador, J. J. Dannenberg, S. Dapprich, A. D. Daniels, 
 O. Farkas, J. B. Foresman, J. V. Ortiz, J. Cioslowski, 
 and D. J. Fox, Gaussian, Inc., Wallingford CT, 2010.
 
 ******************************************
 Gaussian 09:  AM64L-G09RevC.01 23-Sep-2011
                17-Feb-2018 
 ******************************************
 %nprocs=2
 Will use up to    2 processors via shared memory.
 %chk=frag18-conf2.chk
 ----------------------------------------------------------------------
 #HF/6-31G* Geom=AllCheck Guess=Read Pop=(MK,ReadRadii) Integral=(Grid=
 UltraFine) iop(6/33=2)
 ----------------------------------------------------------------------
 1/29=7,38=1/1;
 2/12=2,40=1/2;
 3/5=1,6=6,7=1,11=9,14=-4,16=1,25=1,30=1,75=-5,116=-2/1,2,3;
 4/5=1/1;
 5/5=2,38=6/2;
 6/7=2,8=2,9=2,10=2,15=8,20=101,28=1,33=2/1,2;
 99/5=1,9=1/99;
 Structure from the checkpoint file:  frag18-conf2.chk
 -----------------------------
 Optimization for frag18-conf2
 -----------------------------
 Charge =  1 Multiplicity = 1
 Redundant internal coordinates found in file.
 C,0,0.6055584185,-1.1626959367,0.8516727891
 C,0,1.6636352016,-1.5888228643,0.0419869955
 C,0,0.8543014487,-0.8255852726,2.1674096081
 C,0,3.1471024589,-1.3115545484,1.8962893668
 C,0,2.9578070353,-1.6710298593,0.5611289662
 C,0,5.4688596529,-3.6517008887,1.136518018
 C,0,6.093406568,-5.0239952436,1.2593705697
 C,0,2.3582992331,-0.5101364939,4.0759021241
 C,0,4.1550156709,-2.1200960612,-0.2695129145
 N,0,2.1142299334,-0.9055983852,2.6658814082
 N,0,4.6323786749,-3.4549512428,0.0665649715
 O,0,5.6933464676,-2.7438279374,1.9351560196
 H,0,-0.4059711321,-1.0922103068,0.4679369615
 H,0,1.474816618,-1.85331076,-0.9947999523
 H,0,0.0841358792,-0.4890418213,2.8512905028
 H,0,4.1291653061,-1.3816163681,2.3529311156
 H,0,7.1540286071,-4.9518191703,0.9942142284
 H,0,6.0389449682,-5.3479899134,2.3014594943
 H,0,5.6236585198,-5.7761949466,0.6193611892
 H,0,1.6015603652,-0.971718822,4.7120451524
 H,0,3.3471224038,-0.8560998594,4.373787575
 H,0,2.3051730235,0.5779678756,4.1581950101
 H,0,3.8820186438,-2.1101819317,-1.3274070589
 H,0,4.9740143752,-1.4072834044,-0.1256054365
 H,0,4.5007735095,-4.1970158941,-0.6064051667
 Recover connectivity data from disk.
                          Input orientation:                          
 ---------------------------------------------------------------------
 Center     Atomic      Atomic             Coordinates (Angstroms)
 Number     Number       Type             X           Y           Z
 ---------------------------------------------------------------------
      1          6           0        0.605558   -1.162696    0.851673
      2          6           0        1.663635   -1.588823    0.041987
      3          6           0        0.854301   -0.825585    2.167410
      4          6           0        3.147102   -1.311555    1.896289
      5          6           0        2.957807   -1.671030    0.561129
      6          6           0        5.468860   -3.651701    1.136518
      7          6           0        6.093407   -5.023995    1.259371
      8          6           0        2.358299   -0.510136    4.075902
      9          6           0        4.155016   -2.120096   -0.269513
     10          7           0        2.114230   -0.905598    2.665881
     11          7           0        4.632379   -3.454951    0.066565
     12          8           0        5.693346   -2.743828    1.935156
     13          1           0       -0.405971   -1.092210    0.467937
     14          1           0        1.474817   -1.853311   -0.994800
     15          1           0        0.084136   -0.489042    2.851291
     16          1           0        4.129165   -1.381616    2.352931
     17          1           0        7.154029   -4.951819    0.994214
     18          1           0        6.038945   -5.347990    2.301459
     19          1           0        5.623659   -5.776195    0.619361
     20          1           0        1.601560   -0.971719    4.712045
     21          1           0        3.347122   -0.856100    4.373788
     22          1           0        2.305173    0.577968    4.158195
     23          1           0        3.882019   -2.110182   -1.327407
     24          1           0        4.974014   -1.407283   -0.125605
     25          1           0        4.500774   -4.197016   -0.606405
 ---------------------------------------------------------------------
                    Distance matrix (angstroms):
                    1          2          3          4          5
     1  C    0.000000
     2  C    1.398822   0.000000
     3  C    1.380826   2.398953   0.000000
     4  C    2.751877   2.390814   2.359366   0.000000
     5  C    2.424024   1.396835   2.778426   1.395603   0.000000
     6  C    5.470647   4.464661   5.508522   3.382912   3.249541
     7  C    6.722524   5.736315   6.774910   4.782111   4.643480
     8  C    3.727410   4.233036   2.450278   2.452589   3.749762
     9  C    3.843477   2.566371   4.302216   2.521969   1.524774
    10  N    2.373508   2.748573   1.357312   1.350518   2.393218
    11  N    4.699586   3.506633   5.059741   3.185606   2.496229
    12  O    5.436865   4.599641   5.210562   2.921691   3.243767
    13  H    1.084165   2.170559   2.132506   3.835705   3.414487
    14  H    2.154535   1.086524   3.382429   3.383554   2.157174
    15  H    2.173514   3.405367   1.083563   3.312147   3.860042
    16  H    3.836340   3.385592   3.326909   1.085301   2.160184
    17  H    7.567049   6.508525   7.621598   5.488235   5.344101
    18  H    7.010011   6.195150   6.881180   4.981940   5.103156
    19  H    6.820533   5.792170   7.046400   5.262783   4.895154
    20  H    3.991362   4.711063   2.656110   3.229964   4.422505
    21  H    4.473865   4.704839   3.329143   2.526944   3.918168
    22  H    4.105081   4.695713   2.835175   3.065185   4.292180
    23  H    4.047383   2.658624   4.799063   3.401489   2.147927
    24  H    4.483113   3.319586   4.750613   2.726688   2.146220
    25  H    5.148377   3.907997   5.688352   4.052381   3.181900
                    6          7          8          9         10
     6  C    0.000000
     7  C    1.512727   0.000000
     8  C    5.308954   6.500677   0.000000
     9  C    2.459456   3.811492   4.970190   0.000000
    10  N    4.597126   5.896890   1.484627   3.775758   0.000000
    11  N    1.372301   2.453423   5.469749   1.456936   4.426818
    12  O    1.229817   2.411617   4.549144   2.759722   4.089391
    13  H    6.442952   7.637225   4.582293   4.733179   3.349208
    14  H    4.871253   6.038700   5.319462   2.789388   3.835048
    15  H    6.475964   7.694891   2.583009   5.382547   2.080668
    16  H    2.903055   4.280309   2.619938   2.724561   2.093919
    17  H    2.133155   1.095644   7.226643   4.313901   6.675773
    18  H    2.135294   1.092652   6.332505   4.536341   5.938942
    19  H    2.192006   1.093654   7.095183   4.039068   6.342479
    20  H    5.909543   6.965529   1.091050   5.714440   2.110447
    21  H    4.774628   5.883283   1.089127   4.879612   2.106993
    22  H    6.085190   7.357709   1.092504   5.505094   2.112919
    23  H    3.311385   4.480174   5.837604   1.092596   4.530171
    24  H    2.622067   4.031352   5.029861   1.095249   4.027711
    25  H    2.066964   2.588724   6.333031   2.132285   5.218896
                   11         12         13         14         15
    11  N    0.000000
    12  O    2.263400   0.000000
    13  H    5.579302   6.487083   0.000000
    14  H    3.696207   5.212836   2.501247   0.000000
    15  H    6.102281   6.114459   2.506869   4.311338   0.000000
    16  H    3.127205   2.115849   4.919799   4.298298   4.172207
    17  H    3.075689   2.809660   8.504537   6.768337   8.564374
    18  H    3.249120   2.652410   7.937910   6.626415   7.705287
    19  H    2.583871   3.306270   7.636693   5.933585   7.976328
    20  H    6.077235   5.253018   4.696505   5.775928   2.449074
    21  H    5.192117   3.874946   5.421912   5.772494   3.619366
    22  H    6.198529   5.239842   4.874198   5.757948   2.789178
    23  H    2.077162   3.785067   4.758822   2.443610   5.874821
    24  H    2.084847   2.559400   5.421790   3.633019   5.797930
    25  H    1.010380   3.161253   5.905097   3.847105   6.723944
                   16         17         18         19         20
    16  H    0.000000
    17  H    4.872603   0.000000
    18  H    4.402502   1.763307   0.000000
    19  H    4.954906   1.778241   1.784734   0.000000
    20  H    3.481698   7.777748   6.682294   7.484005   0.000000
    21  H    2.229713   6.533679   5.631832   6.594367   1.781789
    22  H    3.228916   8.006293   7.246068   7.994440   1.789790
    23  H    3.759891   4.916389   5.320188   4.501429   6.555270
    24  H    2.618697   4.309315   4.749094   4.479330   5.913208
    25  H    4.101492   3.189275   3.485167   2.292854   6.862499
                   21         22         23         24         25
    21  H    0.000000
    22  H    1.785690   0.000000
    23  H    5.861950   6.309075   0.000000
    24  H    4.816131   5.423549   1.769420   0.000000
    25  H    6.106959   7.093839   2.292941   2.870145   0.000000
 Stoichiometry    C9H13N2O(1+)
 Framework group  C1[X(C9H13N2O)]
 Deg. of freedom    69
 Full point group                 C1      NOp   1
 Largest Abelian subgroup         C1      NOp   1
 Largest concise Abelian subgroup C1      NOp   1
                         Standard orientation:                         
 ---------------------------------------------------------------------
 Center     Atomic      Atomic             Coordinates (Angstroms)
 Number     Number       Type             X           Y           Z
 ---------------------------------------------------------------------
      1          6           0        2.597685    1.395125    0.519858
      2          6           0        1.334749    1.820456    0.094667
      3          6           0        2.910160    0.050987    0.471543
      4          6           0        0.777550   -0.450327   -0.404396
      5          6           0        0.401186    0.893231   -0.374226
      6          6           0       -2.569721   -0.344696    0.073846
      7          6           0       -3.824272   -0.557410    0.891891
      8          6           0        2.371926   -2.280836   -0.054544
      9          6           0       -0.988420    1.291779   -0.859086
     10          7           0        1.999673   -0.845231    0.013174
     11          7           0       -2.056232    0.927869    0.062873
     12          8           0       -2.028920   -1.247082   -0.563088
     13          1           0        3.336179    2.098740    0.887234
     14          1           0        1.083590    2.877025    0.128056
     15          1           0        3.867060   -0.349144    0.785146
     16          1           0        0.079466   -1.211813   -0.737106
     17          1           0       -4.671303   -0.684587    0.208664
     18          1           0       -3.724064   -1.483385    1.463220
     19          1           0       -4.046139    0.268580    1.573502
     20          1           0        2.843602   -2.571862    0.885252
     21          1           0        1.470884   -2.872521   -0.210204
     22          1           0        3.064637   -2.433553   -0.885444
     23          1           0       -1.019620    2.373511   -1.009579
     24          1           0       -1.178618    0.811068   -1.824649
     25          1           0       -2.543453    1.666274    0.550973
 ---------------------------------------------------------------------
 Rotational constants (GHZ):      1.6680587      0.5721357      0.4620136
 Standard basis: 6-31G(d) (6D, 7F)
 There are   206 symmetry adapted basis functions of A   symmetry.
 Integral buffers will be    131072 words long.
 Raffenetti 1 integral format.
 Two-electron integral symmetry is turned on.
   206 basis functions,   388 primitive gaussians,   206 cartesian basis functions
    44 alpha electrons       44 beta electrons
       nuclear repulsion energy       691.0458486353 Hartrees.
 NAtoms=   25 NActive=   25 NUniq=   25 SFac= 1.00D+00 NAtFMM=   60 NAOKFM=F Big=F
 One-electron integrals computed using PRISM.
 NBasis=   206 RedAO= T  NBF=   206
 NBsUse=   206 1.00D-06 NBFU=   206
 Initial guess read from the checkpoint file:  frag18-conf2.chk
 B after Tr=     0.000000    0.000000    0.000000
         Rot=    1.000000    0.000000    0.000000    0.000000 Ang=   0.00 deg.
 Initial guess orbital symmetries:
       Occupied  (A) (A) (A) (A) (A) (A) (A) (A) (A) (A) (A) (A)
                 (A) (A) (A) (A) (A) (A) (A) (A) (A) (A) (A) (A)
                 (A) (A) (A) (A) (A) (A) (A) (A) (A) (A) (A) (A)
                 (A) (A) (A) (A) (A) (A) (A) (A)
       Virtual   (A) (A) (A) (A) (A) (A) (A) (A) (A) (A) (A) (A)
                 (A) (A) (A) (A) (A) (A) (A) (A) (A) (A) (A) (A)
                 (A) (A) (A) (A) (A) (A) (A) (A) (A) (A) (A) (A)
                 (A) (A) (A) (A) (A) (A) (A) (A) (A) (A) (A) (A)
                 (A) (A) (A) (A) (A) (A) (A) (A) (A) (A) (A) (A)
                 (A) (A) (A) (A) (A) (A) (A) (A) (A) (A) (A) (A)
                 (A) (A) (A) (A) (A) (A) (A) (A) (A) (A) (A) (A)
                 (A) (A) (A) (A) (A) (A) (A) (A) (A) (A) (A) (A)
                 (A) (A) (A) (A) (A) (A) (A) (A) (A) (A) (A) (A)
                 (A) (A) (A) (A) (A) (A) (A) (A) (A) (A) (A) (A)
                 (A) (A) (A) (A) (A) (A) (A) (A) (A) (A) (A) (A)
                 (A) (A) (A) (A) (A) (A) (A) (A) (A) (A) (A) (A)
                 (A) (A) (A) (A) (A) (A) (A) (A) (A) (A) (A) (A)
                 (A) (A) (A) (A) (A) (A)
 Requested convergence on RMS density matrix=1.00D-08 within 128 cycles.
 Requested convergence on MAX density matrix=1.00D-06.
 Requested convergence on             energy=1.00D-06.
 No special actions if energy rises.
 SCF Done:  E(RHF) =  -531.963802134     A.U. after   14 cycles
             Convg  =    0.3515D-08             -V/T =  2.0026

 **********************************************************************

            Population analysis using the SCF density.

 **********************************************************************

 Orbital symmetries:
 BldTbl:  Degeneracy threshold= 1.00D-02
       Occupied  (A) (A) (A) (A) (A) (A) (A) (A) (A) (A) (A) (A)
                 (A) (A) (A) (A) (A) (A) (A) (A) (A) (A) (A) (A)
                 (A) (A) (A) (A) (A) (A) (A) (A) (A) (A) (A) (A)
                 (A) (A) (A) (A) (A) (A) (A) (A)
       Virtual   (A) (A) (A) (A) (A) (A) (A) (A) (A) (A) (A) (A)
                 (A) (A) (A) (A) (A) (A) (A) (A) (A) (A) (A) (A)
                 (A) (A) (A) (A) (A) (A) (A) (A) (A) (A) (A) (A)
                 (A) (A) (A) (A) (A) (A) (A) (A) (A) (A) (A) (A)
                 (A) (A) (A) (A) (A) (A) (A) (A) (A) (A) (A) (A)
                 (A) (A) (A) (A) (A) (A) (A) (A) (A) (A) (A) (A)
                 (A) (A) (A) (A) (A) (A) (A) (A) (A) (A) (A) (A)
                 (A) (A) (A) (A) (A) (A) (A) (A) (A) (A) (A) (A)
                 (A) (A) (A) (A) (A) (A) (A) (A) (A) (A) (A) (A)
                 (A) (A) (A) (A) (A) (A) (A) (A) (A) (A) (A) (A)
                 (A) (A) (A) (A) (A) (A) (A) (A) (A) (A) (A) (A)
                 (A) (A) (A) (A) (A) (A) (A) (A) (A) (A) (A) (A)
                 (A) (A) (A) (A) (A) (A) (A) (A) (A) (A) (A) (A)
                 (A) (A) (A) (A) (A) (A)
 The electronic state is 1-A.
 Alpha  occ. eigenvalues --  -20.64850 -15.84528 -15.71939 -11.47836 -11.47814
 Alpha  occ. eigenvalues --  -11.47118 -11.44063 -11.43682 -11.42299 -11.42134
 Alpha  occ. eigenvalues --  -11.42024 -11.34238  -1.50681  -1.50018  -1.35893
 Alpha  occ. eigenvalues --   -1.29093  -1.23666  -1.14956  -1.13434  -1.08659
 Alpha  occ. eigenvalues --   -1.03887  -1.01085  -0.91471  -0.89663  -0.87095
 Alpha  occ. eigenvalues --   -0.83029  -0.81449  -0.80744  -0.79497  -0.78519
 Alpha  occ. eigenvalues --   -0.77377  -0.73340  -0.72513  -0.70982  -0.70512
 Alpha  occ. eigenvalues --   -0.69582  -0.69084  -0.67716  -0.65912  -0.62100
 Alpha  occ. eigenvalues --   -0.56676  -0.54601  -0.52386  -0.51751
 Alpha virt. eigenvalues --   -0.08664  -0.04299   0.06478   0.08144   0.09242
 Alpha virt. eigenvalues --    0.11106   0.13347   0.13624   0.13952   0.15184
 Alpha virt. eigenvalues --    0.16396   0.17056   0.18722   0.18911   0.20371
 Alpha virt. eigenvalues --    0.20652   0.22003   0.23724   0.26254   0.27108
 Alpha virt. eigenvalues --    0.30178   0.31061   0.33293   0.34142   0.36971
 Alpha virt. eigenvalues --    0.38010   0.43530   0.46214   0.49365   0.53425
 Alpha virt. eigenvalues --    0.56072   0.57804   0.59280   0.59343   0.61101
 Alpha virt. eigenvalues --    0.62153   0.63802   0.64414   0.64599   0.65411
 Alpha virt. eigenvalues --    0.68103   0.69622   0.70193   0.71678   0.73387
 Alpha virt. eigenvalues --    0.75956   0.76922   0.79184   0.80457   0.82662
 Alpha virt. eigenvalues --    0.84031   0.85105   0.88621   0.90094   0.92152
 Alpha virt. eigenvalues --    0.92538   0.92782   0.95430   0.96485   0.97930
 Alpha virt. eigenvalues --    0.98464   0.99385   1.01774   1.02700   1.03240
 Alpha virt. eigenvalues --    1.05155   1.05564   1.06203   1.08108   1.08559
 Alpha virt. eigenvalues --    1.11183   1.12906   1.14376   1.15430   1.19067
 Alpha virt. eigenvalues --    1.21408   1.23645   1.24926   1.28790   1.30520
 Alpha virt. eigenvalues --    1.32589   1.37012   1.41074   1.42939   1.44667
 Alpha virt. eigenvalues --    1.45732   1.47987   1.52904   1.54510   1.55240
 Alpha virt. eigenvalues --    1.57417   1.59460   1.60472   1.62777   1.71721
 Alpha virt. eigenvalues --    1.72428   1.79921   1.83529   1.88641   1.93923
 Alpha virt. eigenvalues --    1.94482   1.97332   1.98795   2.00670   2.02335
 Alpha virt. eigenvalues --    2.04705   2.05044   2.05834   2.07106   2.09728
 Alpha virt. eigenvalues --    2.13218   2.14949   2.15897   2.19993   2.21748
 Alpha virt. eigenvalues --    2.24594   2.27271   2.28744   2.31469   2.32315
 Alpha virt. eigenvalues --    2.36114   2.39911   2.42030   2.43107   2.43833
 Alpha virt. eigenvalues --    2.45329   2.49116   2.50172   2.50945   2.52809
 Alpha virt. eigenvalues --    2.55000   2.60657   2.66327   2.67187   2.74309
 Alpha virt. eigenvalues --    2.77154   2.79323   2.82869   2.88198   2.89431
 Alpha virt. eigenvalues --    2.90772   2.95492   2.97822   2.99405   3.04142
 Alpha virt. eigenvalues --    3.11364   3.24843   3.27962   3.37741   3.61399
 Alpha virt. eigenvalues --    4.23672   4.27985   4.33915   4.35597   4.40728
 Alpha virt. eigenvalues --    4.48284   4.50435   4.55722   4.62922   4.67846
 Alpha virt. eigenvalues --    4.79971   4.93055
          Condensed to atoms (all electrons):
              1          2          3          4          5          6
     1  C    4.936304   0.503493   0.582105  -0.026526  -0.031642  -0.000001
     2  C    0.503493   4.861539  -0.048741  -0.047959   0.540106   0.000108
     3  C    0.582105  -0.048741   4.719443  -0.059597  -0.021784  -0.000004
     4  C   -0.026526  -0.047959  -0.059597   4.805482   0.559776   0.002410
     5  C   -0.031642   0.540106  -0.021784   0.559776   4.977481  -0.003643
     6  C   -0.000001   0.000108  -0.000004   0.002410  -0.003643   4.188356
     7  C    0.000000  -0.000005   0.000000   0.000022  -0.000409   0.358547
     8  C    0.001786  -0.000093  -0.035686  -0.034403   0.002739   0.000006
     9  C    0.002881  -0.030332   0.000077  -0.032687   0.292089  -0.027793
    10  N   -0.028152  -0.034106   0.350856   0.328273  -0.028416  -0.000024
    11  N   -0.000053   0.000184   0.000008  -0.003529  -0.067267   0.270607
    12  O   -0.000002  -0.000019   0.000000  -0.009359  -0.007604   0.552592
    13  H    0.375620  -0.018991  -0.023127   0.000062   0.001791   0.000000
    14  H   -0.023810   0.374489   0.002327   0.002909  -0.026305   0.000004
    15  H   -0.019090   0.002175   0.383341   0.001828  -0.000192   0.000000
    16  H   -0.000307   0.002251   0.001442   0.350415  -0.016610  -0.002651
    17  H    0.000000   0.000000   0.000000   0.000000  -0.000002  -0.026575
    18  H    0.000000   0.000000   0.000000   0.000001   0.000023  -0.029688
    19  H    0.000000   0.000000   0.000000  -0.000005   0.000007  -0.038955
    20  H    0.000172   0.000009  -0.002978   0.001764  -0.000083   0.000000
    21  H   -0.000040  -0.000015   0.002557  -0.000476   0.000580   0.000009
    22  H   -0.000105   0.000046  -0.002315  -0.000443  -0.000170   0.000000
    23  H    0.000237  -0.001512  -0.000011   0.003166  -0.054619   0.003032
    24  H   -0.000063   0.001747  -0.000002  -0.002949  -0.052469   0.000314
    25  H    0.000002   0.000132  -0.000001   0.000016   0.002373  -0.012983
              7          8          9         10         11         12
     1  C    0.000000   0.001786   0.002881  -0.028152  -0.000053  -0.000002
     2  C   -0.000005  -0.000093  -0.030332  -0.034106   0.000184  -0.000019
     3  C    0.000000  -0.035686   0.000077   0.350856   0.000008   0.000000
     4  C    0.000022  -0.034403  -0.032687   0.328273  -0.003529  -0.009359
     5  C   -0.000409   0.002739   0.292089  -0.028416  -0.067267  -0.007604
     6  C    0.358547   0.000006  -0.027793  -0.000024   0.270607   0.552592
     7  C    5.235631   0.000000   0.004652   0.000002  -0.094197  -0.062334
     8  C    0.000000   5.056005  -0.000054   0.161567   0.000001  -0.000008
     9  C    0.004652  -0.000054   4.922371   0.002059   0.207945   0.012292
    10  N    0.000002   0.161567   0.002059   7.013056  -0.000078   0.000419
    11  N   -0.094197   0.000001   0.207945  -0.000078   7.332961  -0.101169
    12  O   -0.062334  -0.000008   0.012292   0.000419  -0.101169   8.232541
    13  H    0.000000  -0.000061  -0.000063   0.002155   0.000001   0.000000
    14  H    0.000000   0.000004  -0.001587  -0.000146   0.000117   0.000000
    15  H    0.000000  -0.001149   0.000003  -0.036645   0.000000   0.000000
    16  H    0.000231  -0.002042   0.000334  -0.028132  -0.000167   0.022212
    17  H    0.379231   0.000000  -0.000172   0.000000   0.000563  -0.000109
    18  H    0.382314   0.000000  -0.000103   0.000000   0.002743   0.000723
    19  H    0.378301   0.000000   0.000077   0.000000   0.003751   0.002323
    20  H    0.000000   0.394586   0.000001  -0.035032   0.000000   0.000000
    21  H    0.000000   0.396001  -0.000005  -0.032063  -0.000001   0.000014
    22  H    0.000000   0.392402   0.000001  -0.036548   0.000000   0.000000
    23  H   -0.000013   0.000001   0.416978  -0.000041  -0.036243   0.000431
    24  H    0.000064   0.000000   0.416177   0.000018  -0.044200   0.003805
    25  H    0.001093   0.000000  -0.022490   0.000002   0.320848   0.002194
             13         14         15         16         17         18
     1  C    0.375620  -0.023810  -0.019090  -0.000307   0.000000   0.000000
     2  C   -0.018991   0.374489   0.002175   0.002251   0.000000   0.000000
     3  C   -0.023127   0.002327   0.383341   0.001442   0.000000   0.000000
     4  C    0.000062   0.002909   0.001828   0.350415   0.000000   0.000001
     5  C    0.001791  -0.026305  -0.000192  -0.016610  -0.000002   0.000023
     6  C    0.000000   0.000004   0.000000  -0.002651  -0.026575  -0.029688
     7  C    0.000000   0.000000   0.000000   0.000231   0.379231   0.382314
     8  C   -0.000061   0.000004  -0.001149  -0.002042   0.000000   0.000000
     9  C   -0.000063  -0.001587   0.000003   0.000334  -0.000172  -0.000103
    10  N    0.002155  -0.000146  -0.036645  -0.028132   0.000000   0.000000
    11  N    0.000001   0.000117   0.000000  -0.000167   0.000563   0.002743
    12  O    0.000000   0.000000   0.000000   0.022212  -0.000109   0.000723
    13  H    0.377729  -0.000959  -0.000380   0.000004   0.000000   0.000000
    14  H   -0.000959   0.392798  -0.000059  -0.000050   0.000000   0.000000
    15  H   -0.000380  -0.000059   0.376020  -0.000032   0.000000   0.000000
    16  H    0.000004  -0.000050  -0.000032   0.310733  -0.000002  -0.000006
    17  H    0.000000   0.000000   0.000000  -0.000002   0.449957  -0.016644
    18  H    0.000000   0.000000   0.000000  -0.000006  -0.016644   0.453257
    19  H    0.000000   0.000000   0.000000  -0.000008  -0.020567  -0.021297
    20  H    0.000000   0.000000   0.000313   0.000024   0.000000   0.000000
    21  H    0.000001   0.000000   0.000032   0.000656   0.000000   0.000000
    22  H    0.000000   0.000000   0.000179   0.000082   0.000000   0.000000
    23  H   -0.000002   0.001815   0.000000  -0.000014   0.000004   0.000000
    24  H    0.000002   0.000014   0.000000   0.000340   0.000019  -0.000011
    25  H    0.000000  -0.000013   0.000000  -0.000033  -0.000038  -0.000014
             19         20         21         22         23         24
     1  C    0.000000   0.000172  -0.000040  -0.000105   0.000237  -0.000063
     2  C    0.000000   0.000009  -0.000015   0.000046  -0.001512   0.001747
     3  C    0.000000  -0.002978   0.002557  -0.002315  -0.000011  -0.000002
     4  C   -0.000005   0.001764  -0.000476  -0.000443   0.003166  -0.002949
     5  C    0.000007  -0.000083   0.000580  -0.000170  -0.054619  -0.052469
     6  C   -0.038955   0.000000   0.000009   0.000000   0.003032   0.000314
     7  C    0.378301   0.000000   0.000000   0.000000  -0.000013   0.000064
     8  C    0.000000   0.394586   0.396001   0.392402   0.000001   0.000000
     9  C    0.000077   0.000001  -0.000005   0.000001   0.416978   0.416177
    10  N    0.000000  -0.035032  -0.032063  -0.036548  -0.000041   0.000018
    11  N    0.003751   0.000000  -0.000001   0.000000  -0.036243  -0.044200
    12  O    0.002323   0.000000   0.000014   0.000000   0.000431   0.003805
    13  H    0.000000   0.000000   0.000001   0.000000  -0.000002   0.000002
    14  H    0.000000   0.000000   0.000000   0.000000   0.001815   0.000014
    15  H    0.000000   0.000313   0.000032   0.000179   0.000000   0.000000
    16  H   -0.000008   0.000024   0.000656   0.000082  -0.000014   0.000340
    17  H   -0.020567   0.000000   0.000000   0.000000   0.000004   0.000019
    18  H   -0.021297   0.000000   0.000000   0.000000   0.000000  -0.000011
    19  H    0.506693   0.000000   0.000000   0.000000  -0.000021   0.000002
    20  H    0.000000   0.445723  -0.018792  -0.023999   0.000000   0.000000
    21  H    0.000000  -0.018792   0.422309  -0.019252   0.000000   0.000001
    22  H    0.000000  -0.023999  -0.019252   0.443890   0.000000   0.000000
    23  H   -0.000021   0.000000   0.000000   0.000000   0.464889  -0.016545
    24  H    0.000002   0.000000   0.000001   0.000000  -0.016545   0.446475
    25  H    0.001293   0.000000   0.000000   0.000000  -0.003137   0.001744
             25
     1  C    0.000002
     2  C    0.000132
     3  C   -0.000001
     4  C    0.000016
     5  C    0.002373
     6  C   -0.012983
     7  C    0.001093
     8  C    0.000000
     9  C   -0.022490
    10  N    0.000002
    11  N    0.320848
    12  O    0.002194
    13  H    0.000000
    14  H   -0.000013
    15  H    0.000000
    16  H   -0.000033
    17  H   -0.000038
    18  H   -0.000014
    19  H    0.001293
    20  H    0.000000
    21  H    0.000000
    22  H    0.000000
    23  H   -0.003137
    24  H    0.001744
    25  H    0.299241
 Mulliken atomic charges:
              1
     1  C   -0.272809
     2  C   -0.104508
     3  C    0.152091
     4  C    0.161810
     5  C   -0.065751
     6  C    0.766334
     7  C   -0.583130
     8  C   -0.331601
     9  C   -0.162651
    10  N   -0.599023
    11  N   -0.792825
    12  O   -0.648942
    13  H    0.286217
    14  H    0.278455
    15  H    0.293656
    16  H    0.361330
    17  H    0.234336
    18  H    0.228700
    19  H    0.188404
    20  H    0.238293
    21  H    0.248485
    22  H    0.246234
    23  H    0.221607
    24  H    0.245516
    25  H    0.409771
 Sum of Mulliken atomic charges =   1.00000
 Mulliken charges with hydrogens summed into heavy atoms:
              1
     1  C    0.013409
     2  C    0.173947
     3  C    0.445747
     4  C    0.523140
     5  C   -0.065751
     6  C    0.766334
     7  C    0.068310
     8  C    0.401410
     9  C    0.304472
    10  N   -0.599023
    11  N   -0.383054
    12  O   -0.648942
 Sum of Mulliken charges with hydrogens summed into heavy atoms =   1.00000
 DipInt: DoE/N= T F RetVal/Mat= T F Init=T NMatP=  1 IDeriv=0 Min/MaxMlt=  0  4
 Entering OneElI...
 OneElI was handed    33442981 working-precision words.
 Multipole integrals L=0 to 4 MinM= 0 MaxM= 0.
 Requested accuracy = 0.1000D-12
 PrsmSu:  NPrtUS=   1 ThrOK=F IAlg=1 NPAlg=1 LenDen=           0.
 Prism:   IPart=     0 DynPar=F LinDyn=F Incr=          24.
 PRISM was handed    33230933 working-precision words and  2450 shell-pairs
 IPart=  0 NShTot=        2450 NBatch=          55 AvBLen=        44.5
 PrSmSu:  NxtVal=             25.
 Electronic moments (au):
        -88.00000000          2.07156045          0.82788582          0.64735388
      -1706.97771545       -579.69671939       -156.35044096         -7.71305736
         -0.69971114         -0.51973083       1722.41537260        187.62266606
         -8.46681114       -881.11498925        915.46185424      -1120.76326464
        215.74630974        -20.32316672         65.11314415       -234.01766011
     -59740.79173977      -9074.18673059       -967.35391944      -2792.06805092
       3622.08872271       1870.27780005       -106.15635095        280.99168856
        168.42278591      -9801.45720738      -3816.64053532       -985.03075870
        -48.68899084       -410.33428907       -184.10988752
 Electronic spatial extent (au):  <R**2>=           2443.0249
 DipInt: DoE/N= F T RetVal/Mat= T F Init=T NMatP=  1 IDeriv=0 Min/MaxMlt=  0  4
 Nuclear    moments (au):
         89.00000000          0.00000000          0.00000000          0.00000000
       1685.39423194        541.81396018        105.47405404          0.00000000
          0.00000000          0.00000000      -1701.09518106       -178.14473249
          4.51330180        920.62360897       -921.75538045       1166.96640344
       -221.13207303         16.64046658        -57.63613004        245.91044861
      55176.80463534       7428.26008841        437.92439830       2695.07591852
      -3577.98743693      -2003.40997616        125.67999239       -277.05335135
       -170.44217443       8724.15883273       2788.94165779        580.21489735
         72.13952056        403.68966552        155.98546156
 Total      moments (au):
          1.00000000          2.07156045          0.82788582          0.64735388
        -21.58348351        -37.88275921        -50.87638692         -7.71305736
         -0.69971114         -0.51973083         21.32019154          9.47793356
         -3.95350934         39.50861972         -6.29352621         46.20313880
         -5.38576329         -3.68270014          7.47701411         11.89278850
      -4563.98710443      -1645.92664218       -529.42952114        -96.99213240
         44.10128578       -133.13217610         19.52364144          3.93833721
         -2.01938852      -1077.29837465      -1027.69887754       -404.81586135
         23.45052973         -6.64462355        -28.12442596
 Traceless Quadrup. (au):
         15.19739304         -1.10188267        -14.09551037         -7.71305736
         -0.69971114         -0.51973083
 Charge=              1.0000 electrons
 Dipole moment (field-independent basis, Debye):
    X=              5.2654    Y=              2.1043    Z=              1.6454  Tot=              5.9042
 Quadrupole moment (field-independent basis, Debye-Ang):
   XX=            -29.0305   YY=            -50.9536   ZZ=            -68.4305
   XY=            -10.3743   XZ=             -0.9411   YZ=             -0.6991
 Traceless Quadrupole moment (field-independent basis, Debye-Ang):
   XX=             20.4410   YY=             -1.4821   ZZ=            -18.9589
   XY=            -10.3743   XZ=             -0.9411   YZ=             -0.6991
 Octapole moment (field-independent basis, Debye-Ang**2):
  XXX=             15.1749  YYY=              6.7460  ZZZ=             -2.8140  XYY=             28.1207
  XXY=             -4.4795  XXZ=             32.8856  XZZ=             -3.8334  YZZ=             -2.6212
  YYZ=              5.3219  XYZ=              8.4648
 Hexadecapole moment (field-independent basis, Debye-Ang**3):
 XXXX=          -1719.0163 YYYY=           -619.9349 ZZZZ=           -199.4085 XXXY=            -36.5319
 XXXZ=             16.6107 YYYX=            -50.1440 YYYZ=              7.3535 ZZZX=              1.4834
 ZZZY=             -0.7606 XXYY=           -405.7622 XXZZ=           -387.0807 YYZZ=           -152.4731
 XXYZ=              8.8326 YYXZ=             -2.5027 ZZXY=            -10.5930
 N-N= 6.910458486353D+02 E-N=-2.610031624274D+03  KE= 5.306102927783D+02
 Entering OneElI...
 OneElI was handed    33357278 working-precision words.
 Calculate electrostatic properties
    NBasis =   206  MinDer = 0  MaxDer = 0
    NGrid  =    25  NMatD  =   1
 Requested accuracy = 0.1000D-12
 PrsmSu:  NPrtUS=   2 ThrOK=T IAlg=1 NPAlg=1 LenDen=           0.
 Prism:   IPart=     0 DynPar=F LinDyn=F Incr=         283.
 PRISM was handed    16545561 working-precision words and  2271 shell-pairs
 PRISM was handed    16545561 working-precision words and  2271 shell-pairs
 IPart=  1 NShTot=       28125 NBatch=        1125 AvBLen=        25.0
 IPart=  0 NShTot=       28650 NBatch=        1146 AvBLen=        25.0
 PrSmSu:  NxtVal=            567.
 --------------------------------------------------------
       Center         ----      EFG at Nuclei      ----
                      3XX-RR        3YY-RR        3ZZ-RR
 --------------------------------------------------------
     1   Atom        0.113774      0.128563     -0.242337
     2   Atom        0.171721      0.252270     -0.423991
     3   Atom        0.077941      0.219150     -0.297091
     4   Atom       -0.018593      0.391712     -0.373118
     5   Atom        0.133378      0.118477     -0.251855
     6   Atom        0.064111      0.151891     -0.216003
     7   Atom       -0.052090      0.054477     -0.002387
     8   Atom        0.193036     -0.416650      0.223614
     9   Atom       -0.165701      0.146297      0.019404
    10   Atom       -0.085501     -0.074157      0.159659
    11   Atom        0.039046     -0.412776      0.373730
    12   Atom        0.384060      0.119063     -0.503123
    13   Atom       -0.062992     -0.047507      0.110499
    14   Atom        0.118089     -0.270717      0.152628
    15   Atom       -0.196365      0.073651      0.122714
    16   Atom       -0.013219     -0.089175      0.102394
    17   Atom       -0.118270      0.147255     -0.028985
    18   Atom        0.138941     -0.166787      0.027846
    19   Atom        0.128464     -0.110671     -0.017793
    20   Atom        0.074655      0.099632     -0.174287
    21   Atom       -0.157609      0.005146      0.152463
    22   Atom       -0.022327      0.121640     -0.099313
    23   Atom        0.133399     -0.277888      0.144489
    24   Atom        0.118445      0.069634     -0.188080
    25   Atom        0.058242     -0.138189      0.079947
 --------------------------------------------------------
                        XY            XZ            YZ
 --------------------------------------------------------
     1   Atom        0.006818      0.160928      0.058308
     2   Atom       -0.025113      0.258934      0.083442
     3   Atom       -0.202443      0.140452     -0.004878
     4   Atom        0.099068      0.168869      0.134627
     5   Atom       -0.010177      0.160261      0.046937
     6   Atom        0.038039     -0.472794      0.154221
     7   Atom       -0.019391      0.076265     -0.000134
     8   Atom        0.159546      0.004621     -0.025102
     9   Atom       -0.013735      0.126681      0.123464
    10   Atom       -0.003329     -0.113893     -0.045156
    11   Atom       -0.195195      0.762741     -0.179025
    12   Atom        1.143452     -0.403535     -0.595900
    13   Atom       -0.192793     -0.110391     -0.099465
    14   Atom        0.099977     -0.002112     -0.014268
    15   Atom        0.140371     -0.119150      0.042734
    16   Atom       -0.173942     -0.086571     -0.091285
    17   Atom       -0.039974     -0.207024     -0.029586
    18   Atom        0.036484     -0.017127      0.199664
    19   Atom        0.058013      0.061072     -0.208494
    20   Atom        0.051253     -0.167112      0.091771
    21   Atom       -0.184407     -0.054942     -0.033267
    22   Atom        0.038535      0.212873     -0.041407
    23   Atom        0.009320      0.004385      0.058521
    24   Atom       -0.029475     -0.059070     -0.162599
    25   Atom        0.184930      0.167941     -0.202708
 --------------------------------------------------------


 ---------------------------------------------------------------------------------
              Nuclear Quadrupole in Principal Axis System
 ---------------------------------------------------------------------------------

       Atom             a.u.   MegaHertz   Gauss  10(-4) cm-1        Axes

              Baa    -0.3105   -41.660   -14.865   -13.896 -0.3505 -0.1180  0.9291
     1 C(13)  Bbb     0.1212    16.267     5.805     5.426 -0.4546  0.8887 -0.0587
              Bcc     0.1892    25.393     9.061     8.470  0.8188  0.4430  0.3652
 
              Baa    -0.5305   -71.183   -25.400   -23.744 -0.3473 -0.1104  0.9312
     2 C(13)  Bbb     0.2587    34.712    12.386    11.579 -0.5002  0.8618 -0.0844
              Bcc     0.2718    36.472    13.014    12.166  0.7932  0.4952  0.3546
 
              Baa    -0.3510   -47.104   -16.808   -15.712 -0.3595 -0.1197  0.9254
     3 C(13)  Bbb    -0.0232    -3.119    -1.113    -1.040  0.7139  0.6034  0.3554
              Bcc     0.3743    50.223    17.921    16.753 -0.6009  0.7884 -0.1314
 
              Baa    -0.4504   -60.437   -21.565   -20.160 -0.3402 -0.1093  0.9340
     4 C(13)  Bbb    -0.0002    -0.033    -0.012    -0.011  0.8997 -0.3268  0.2895
              Bcc     0.4506    60.470    21.577    20.171  0.2736  0.9387  0.2095
 
              Baa    -0.3150   -42.275   -15.085   -14.101 -0.3367 -0.1092  0.9353
     5 C(13)  Bbb     0.1231    16.521     5.895     5.511 -0.1242  0.9897  0.0708
              Bcc     0.1919    25.754     9.190     8.591  0.9334  0.0923  0.3468
 
              Baa    -0.5978   -80.213   -28.622   -26.756  0.5777 -0.1925  0.7932
     6 C(13)  Bbb     0.1658    22.253     7.941     7.423  0.3014  0.9534  0.0119
              Bcc     0.4319    57.960    20.681    19.333  0.7586 -0.2322 -0.6088
 
              Baa    -0.1089   -14.620    -5.217    -4.877  0.8095  0.0956 -0.5792
     7 C(13)  Bbb     0.0429     5.761     2.056     1.922  0.3863  0.6563  0.6482
              Bcc     0.0660     8.859     3.161     2.955 -0.4421  0.7485 -0.4943
 
              Baa    -0.4568   -61.302   -21.874   -20.448 -0.2385  0.9704  0.0374
     8 C(13)  Bbb     0.2243    30.097    10.739    10.039  0.1888  0.0085  0.9820
              Bcc     0.2325    31.206    11.135    10.409  0.9526  0.2413 -0.1852
 
              Baa    -0.2431   -32.618   -11.639   -10.880  0.8472  0.1875 -0.4971
     9 C(13)  Bbb     0.0130     1.741     0.621     0.581  0.5087 -0.5562  0.6572
              Bcc     0.2301    30.877    11.018    10.299  0.1532  0.8096  0.5666
 
              Baa    -0.1369    -5.280    -1.884    -1.761  0.8668  0.3208  0.3818
    10 N(14)  Bbb    -0.0734    -2.830    -1.010    -0.944 -0.3509  0.9364  0.0099
              Bcc     0.2103     8.110     2.894     2.705 -0.3543 -0.1426  0.9242
 
              Baa    -0.5867   -22.628    -8.074    -7.548  0.7747  0.2922 -0.5608
    11 N(14)  Bbb    -0.4480   -17.277    -6.165    -5.763 -0.1234  0.9396  0.3192
              Bcc     1.0347    39.905    14.239    13.311  0.6202 -0.1781  0.7640
 
              Baa    -1.0039    72.644    25.921    24.231 -0.4574  0.7329  0.5035
    12 O(17)  Bbb    -0.6280    45.445    16.216    15.159  0.5551 -0.2070  0.8056
              Bcc     1.6320  -118.088   -42.137   -39.390  0.6947  0.6480 -0.3122
 
              Baa    -0.3017  -160.980   -57.442   -53.697  0.6810  0.6491  0.3390
    13 H(1)   Bbb     0.1370    73.079    26.076    24.377 -0.6412  0.7521 -0.1520
              Bcc     0.1647    87.901    31.365    29.320 -0.3537 -0.1138  0.9284
 
              Baa    -0.2953  -157.568   -56.224   -52.559 -0.2348  0.9716  0.0298
    14 H(1)   Bbb     0.1400    74.719    26.661    24.923  0.9001  0.2057  0.3842
              Bcc     0.1553    82.849    29.563    27.635 -0.3671 -0.1171  0.9228
 
              Baa    -0.2944  -157.084   -56.051   -52.398  0.8825 -0.3702  0.2900
    15 H(1)   Bbb     0.1317    70.282    25.078    23.443  0.3142  0.9230  0.2221
              Bcc     0.1627    86.802    30.973    28.954 -0.3499 -0.1049  0.9309
 
              Baa    -0.2713  -144.773   -51.659   -48.291  0.6009  0.7332  0.3183
    16 H(1)   Bbb     0.1226    65.419    23.343    21.821 -0.6275  0.6793 -0.3804
              Bcc     0.1487    79.354    28.316    26.470 -0.4952  0.0289  0.8683
 
              Baa    -0.2910  -155.287   -55.410   -51.798  0.7735  0.1126  0.6237
    17 H(1)   Bbb     0.1379    73.560    26.248    24.537 -0.6098 -0.1360  0.7808
              Bcc     0.1532    81.727    29.162    27.261 -0.1728  0.9843  0.0365
 
              Baa    -0.2953  -157.545   -56.216   -52.551 -0.0918  0.8449 -0.5270
    18 H(1)   Bbb     0.1407    75.073    26.788    25.042  0.9241 -0.1249 -0.3612
              Bcc     0.1546    82.472    29.428    27.510  0.3710  0.5201  0.7693
 
              Baa    -0.2943  -157.037   -56.035   -52.382 -0.1938  0.7623  0.6175
    19 H(1)   Bbb     0.1358    72.456    25.854    24.169  0.7579  0.5161 -0.3992
              Bcc     0.1585    84.581    30.181    28.213  0.6230 -0.3906  0.6777
 
              Baa    -0.2867  -152.988   -54.590   -51.031  0.4354 -0.2623  0.8612
    20 H(1)   Bbb     0.1275    68.045    24.280    22.697 -0.0106  0.9550  0.2963
              Bcc     0.1592    84.943    30.310    28.334  0.9002  0.1382 -0.4131
 
              Baa    -0.2872  -153.220   -54.673   -51.109  0.8294  0.5397  0.1445
    21 H(1)   Bbb     0.1252    66.807    23.839    22.285 -0.5375  0.8413 -0.0567
              Bcc     0.1620    86.413    30.834    28.824 -0.1522 -0.0306  0.9879
 
              Baa    -0.2850  -152.058   -54.258   -50.721 -0.6357  0.1376  0.7595
    22 H(1)   Bbb     0.1291    68.906    24.587    22.984  0.0010  0.9841 -0.1775
              Bcc     0.1558    83.152    29.671    27.737  0.7719  0.1121  0.6258
 
              Baa    -0.2860  -152.609   -54.455   -50.905 -0.0206  0.9907 -0.1345
    23 H(1)   Bbb     0.1320    70.451    25.139    23.500  0.9641 -0.0159 -0.2649
              Bcc     0.1540    82.159    29.316    27.405  0.2646  0.1351  0.9549
 
              Baa    -0.2777  -148.162   -52.868   -49.422  0.1644  0.4296  0.8879
    24 H(1)   Bbb     0.1294    69.047    24.638    23.032  0.9855 -0.0326 -0.1667
              Bcc     0.1483    79.115    28.230    26.390 -0.0427  0.9024 -0.4287
 
              Baa    -0.3933  -209.862   -74.884   -70.002 -0.4797  0.7320  0.4838
    25 H(1)   Bbb     0.1530    81.657    29.137    27.238  0.6445  0.6681 -0.3718
              Bcc     0.2403   128.205    45.747    42.765  0.5954 -0.1334  0.7923
 

 ---------------------------------------------------------------------------------

 No NMR shielding tensors so no spin-rotation constants.
 Leave Link  601 at Sat Feb 17 20:58:38 2018, MaxMem=   33554432 cpu:       0.6
 Merz-Kollman atomic radii used.
 Read replacement radii for each type of atom:
 Atom Element Radius
    1     6    1.50
    2     6    1.50
    3     6    1.50
    4     6    1.50
    5     6    1.50
    6     6    1.50
    7     6    1.50
    8     6    1.50
    9     6    1.50
   10     7    1.50
   11     7    1.50
   12     8    1.40
   13     1    1.20
   14     1    1.20
   15     1    1.20
   16     1    1.20
   17     1    1.20
   18     1    1.20
   19     1    1.20
   20     1    1.20
   21     1    1.20
   22     1    1.20
   23     1    1.20
   24     1    1.20
   25     1    1.20
 Generate VDW surfaces: Layer= 4 Dens= 1 Start= 1.400 Inc= 0.200

 **********************************************************************

            Electrostatic Properties Using The SCF Density

 **********************************************************************

       Atomic Center    1 is at   2.597685  1.395125  0.519858
       Atomic Center    2 is at   1.334749  1.820456  0.094667
       Atomic Center    3 is at   2.910160  0.050987  0.471543
       Atomic Center    4 is at   0.777550 -0.450327 -0.404396
       Atomic Center    5 is at   0.401186  0.893231 -0.374226
       Atomic Center    6 is at  -2.569721 -0.344696  0.073846
       Atomic Center    7 is at  -3.824272 -0.557410  0.891891
       Atomic Center    8 is at   2.371926 -2.280836 -0.054544
       Atomic Center    9 is at  -0.988420  1.291779 -0.859086
       Atomic Center   10 is at   1.999673 -0.845231  0.013174
       Atomic Center   11 is at  -2.056232  0.927869  0.062873
       Atomic Center   12 is at  -2.028920 -1.247082 -0.563088
       Atomic Center   13 is at   3.336179  2.098740  0.887234
       Atomic Center   14 is at   1.083590  2.877025  0.128056
       Atomic Center   15 is at   3.867060 -0.349144  0.785146
       Atomic Center   16 is at   0.079466 -1.211813 -0.737106
       Atomic Center   17 is at  -4.671303 -0.684587  0.208664
       Atomic Center   18 is at  -3.724064 -1.483385  1.463220
       Atomic Center   19 is at  -4.046139  0.268580  1.573502
       Atomic Center   20 is at   2.843602 -2.571862  0.885252
       Atomic Center   21 is at   1.470884 -2.872521 -0.210204
       Atomic Center   22 is at   3.064637 -2.433553 -0.885444
       Atomic Center   23 is at  -1.019620  2.373511 -1.009579
       Atomic Center   24 is at  -1.178618  0.811068 -1.824649
       Atomic Center   25 is at  -2.543453  1.666274  0.550973
      ESP Fit Center   26 is at   2.597685  1.395125  2.619858
      ESP Fit Center   27 is at   2.072685  2.304451  2.338511
      ESP Fit Center   28 is at   1.547685  1.395125  2.338511
      ESP Fit Center   29 is at   4.416338  1.395125 -0.530142
      ESP Fit Center   30 is at   3.353181  3.049430 -0.530142
      ESP Fit Center   31 is at   3.647685  1.395125 -1.298795
      ESP Fit Center   32 is at   3.122685  2.304451 -1.298795
      ESP Fit Center   33 is at   2.597685  1.395125 -1.580142
      ESP Fit Center   34 is at   1.334749  1.820456  2.194667
      ESP Fit Center   35 is at   0.809749  2.729783  1.913320
      ESP Fit Center   36 is at   0.284749  1.820456  1.913320
      ESP Fit Center   37 is at   0.809749  0.911129  1.913320
      ESP Fit Center   38 is at  -0.410236  2.332830  1.144667
      ESP Fit Center   39 is at   2.384749  1.820456 -1.723986
      ESP Fit Center   40 is at   1.859749  2.729783 -1.723986
      ESP Fit Center   41 is at   0.809749  2.729783 -1.723986
      ESP Fit Center   42 is at   2.910160  0.050987  2.571543
      ESP Fit Center   43 is at   1.860160  0.050987  2.290196
      ESP Fit Center   44 is at   2.385160 -0.858339  2.290196
      ESP Fit Center   45 is at   4.440108  1.034226 -0.578457
      ESP Fit Center   46 is at   3.960160  0.050987 -1.347111
      ESP Fit Center   47 is at   0.777550 -0.450327  1.695604
      ESP Fit Center   48 is at  -0.272450 -0.450327  1.414257
      ESP Fit Center   49 is at   0.252550 -1.359654  1.414257
      ESP Fit Center   50 is at   1.827550 -0.450327 -2.223050
      ESP Fit Center   51 is at   1.302550  0.459000 -2.223050
      ESP Fit Center   52 is at   1.302550 -1.359654 -2.223050
      ESP Fit Center   53 is at   0.777550 -0.450327 -2.504396
      ESP Fit Center   54 is at  -0.123814 -0.016096  1.444427
      ESP Fit Center   55 is at   1.451186  0.893231 -2.192880
      ESP Fit Center   56 is at   0.926186  1.802558 -2.192880
      ESP Fit Center   57 is at   0.401186  0.893231 -2.474226
      ESP Fit Center   58 is at  -1.519721 -0.344696  1.892499
      ESP Fit Center   59 is at  -2.044721 -1.254022  1.892499
      ESP Fit Center   60 is at  -0.751067 -0.344696  1.123846
      ESP Fit Center   61 is at  -3.094721  0.564631 -1.744807
      ESP Fit Center   62 is at  -3.619721 -0.344696 -1.744807
      ESP Fit Center   63 is at  -2.774272 -0.557410  2.710544
      ESP Fit Center   64 is at  -5.569257 -1.069784  1.941891
      ESP Fit Center   65 is at  -4.083093 -2.357553 -0.158109
      ESP Fit Center   66 is at   1.321926 -2.280836  1.764109
      ESP Fit Center   67 is at   2.113105 -4.080978  0.995456
      ESP Fit Center   68 is at   2.625053 -4.365524 -0.054544
      ESP Fit Center   69 is at   3.564862 -4.009102 -0.054544
      ESP Fit Center   70 is at   1.321926 -2.280836 -1.873198
      ESP Fit Center   71 is at   1.846926 -3.190162 -1.873198
      ESP Fit Center   72 is at  -2.733406  1.804153 -1.909086
      ESP Fit Center   73 is at  -0.463420  2.201106 -2.677739
      ESP Fit Center   74 is at   0.949673 -0.845231  1.831827
      ESP Fit Center   75 is at   1.474673 -1.754558  1.831827
      ESP Fit Center   76 is at   3.049673 -0.845231 -1.805480
      ESP Fit Center   77 is at   2.524673  0.064096 -1.805480
      ESP Fit Center   78 is at   1.999673 -0.845231 -2.086826
      ESP Fit Center   79 is at  -2.056232  0.927869  2.162873
      ESP Fit Center   80 is at  -1.006232  0.927869  1.881526
      ESP Fit Center   81 is at  -1.531232  1.837195  1.881526
      ESP Fit Center   82 is at  -1.531232  0.018542  1.881526
      ESP Fit Center   83 is at  -3.247197  2.302315 -0.987127
      ESP Fit Center   84 is at  -3.801217  1.440242 -0.987127
      ESP Fit Center   85 is at  -3.106232  0.927869 -1.755780
      ESP Fit Center   86 is at  -1.538920 -2.095786  1.134322
      ESP Fit Center   87 is at  -2.553449 -2.861414  0.416912
      ESP Fit Center   88 is at  -1.504392 -2.861414  0.416912
      ESP Fit Center   89 is at  -0.655687 -2.244794  0.416912
      ESP Fit Center   90 is at  -3.726330 -2.227082 -0.563088
      ESP Fit Center   91 is at  -3.008920 -2.944491 -0.563088
      ESP Fit Center   92 is at  -2.028920 -3.207082 -0.563088
      ESP Fit Center   93 is at  -1.048920 -2.944491 -0.563088
      ESP Fit Center   94 is at  -3.726330 -1.247082 -1.543088
      ESP Fit Center   95 is at  -3.402154 -2.244794 -1.543088
      ESP Fit Center   96 is at  -2.553449 -2.861414 -1.543088
      ESP Fit Center   97 is at  -1.504392 -2.861414 -1.543088
      ESP Fit Center   98 is at  -1.048920 -1.247082 -2.260498
      ESP Fit Center   99 is at  -2.518920 -0.398377 -2.260498
      ESP Fit Center  100 is at  -3.008920 -1.247082 -2.260498
      ESP Fit Center  101 is at  -2.518920 -2.095786 -2.260498
      ESP Fit Center  102 is at  -1.538920 -2.095786 -2.260498
      ESP Fit Center  103 is at  -2.028920 -1.247082 -2.523088
      ESP Fit Center  104 is at   3.336179  2.098740  2.567234
      ESP Fit Center  105 is at   4.323658  2.098740  2.246383
      ESP Fit Center  106 is at   3.641327  3.037889  2.246383
      ESP Fit Center  107 is at   2.537292  2.679166  2.246383
      ESP Fit Center  108 is at   4.933954  2.098740  1.406383
      ESP Fit Center  109 is at   4.560146  3.125770  1.406383
      ESP Fit Center  110 is at   3.613630  3.672241  1.406383
      ESP Fit Center  111 is at   2.537292  3.482454  1.406383
      ESP Fit Center  112 is at   4.560146  1.071710  1.406383
      ESP Fit Center  113 is at   4.933954  2.098740  0.368086
      ESP Fit Center  114 is at   4.560146  3.125770  0.368086
      ESP Fit Center  115 is at   3.613630  3.672241  0.368086
      ESP Fit Center  116 is at   4.323658  2.098740 -0.471914
      ESP Fit Center  117 is at   3.641327  3.037889 -0.471914
      ESP Fit Center  118 is at   1.388738  3.816174  1.487205
      ESP Fit Center  119 is at   0.284703  3.457451  1.487205
      ESP Fit Center  120 is at   2.307557  3.904055  0.647205
      ESP Fit Center  121 is at   1.361041  4.450526  0.647205
      ESP Fit Center  122 is at   0.284703  4.260739  0.647205
      ESP Fit Center  123 is at  -0.417827  3.423496  0.647205
      ESP Fit Center  124 is at   2.307557  3.904055 -0.391092
      ESP Fit Center  125 is at   1.361041  4.450526 -0.391092
      ESP Fit Center  126 is at   0.284703  4.260739 -0.391092
      ESP Fit Center  127 is at   1.388738  3.816174 -1.231092
      ESP Fit Center  128 is at   0.284703  3.457451 -1.231092
      ESP Fit Center  129 is at   3.867060 -0.349144  2.465146
      ESP Fit Center  130 is at   4.854539 -0.349144  2.144294
      ESP Fit Center  131 is at   4.172208  0.590005  2.144294
      ESP Fit Center  132 is at   4.172208 -1.288292  2.144294
      ESP Fit Center  133 is at   5.464835 -0.349144  1.304294
      ESP Fit Center  134 is at   5.091026  0.677886  1.304294
      ESP Fit Center  135 is at   5.091026 -1.376174  1.304294
      ESP Fit Center  136 is at   5.464835 -0.349144  0.265997
      ESP Fit Center  137 is at   5.091026  0.677886  0.265997
      ESP Fit Center  138 is at   5.091026 -1.376174  0.265997
      ESP Fit Center  139 is at   4.854539 -0.349144 -0.574003
      ESP Fit Center  140 is at  -0.719421 -2.595526 -1.256255
      ESP Fit Center  141 is at  -0.719421 -1.792239 -2.096255
      ESP Fit Center  142 is at   0.384614 -2.150961 -2.096255
      ESP Fit Center  143 is at   0.079466 -1.211813 -2.417106
      ESP Fit Center  144 is at  -6.172721 -0.138116  0.727812
      ESP Fit Center  145 is at  -6.172721 -1.231059  0.727812
      ESP Fit Center  146 is at  -5.470191 -2.068301  0.727812
      ESP Fit Center  147 is at  -5.470191  0.699126 -0.310485
      ESP Fit Center  148 is at  -6.172721 -0.138116 -0.310485
      ESP Fit Center  149 is at  -6.172721 -1.231059 -0.310485
      ESP Fit Center  150 is at  -5.470191 -2.068301 -0.310485
      ESP Fit Center  151 is at  -4.393853 -2.258089 -0.310485
      ESP Fit Center  152 is at  -4.366155  0.254561 -1.150485
      ESP Fit Center  153 is at  -5.470191 -0.104162 -1.150485
      ESP Fit Center  154 is at  -5.470191 -1.265013 -1.150485
      ESP Fit Center  155 is at  -4.366155 -1.623736 -1.150485
      ESP Fit Center  156 is at  -4.671303 -0.684587 -1.471336
      ESP Fit Center  157 is at  -3.724064 -1.483385  3.143220
      ESP Fit Center  158 is at  -2.736584 -1.483385  2.822369
      ESP Fit Center  159 is at  -4.522951 -2.063811  2.822369
      ESP Fit Center  160 is at  -3.418916 -2.422534  2.822369
      ESP Fit Center  161 is at  -2.126289 -1.483385  1.982369
      ESP Fit Center  162 is at  -5.225481 -2.029856  1.982369
      ESP Fit Center  163 is at  -4.522951 -2.867099  1.982369
      ESP Fit Center  164 is at  -3.446613 -3.056886  1.982369
      ESP Fit Center  165 is at  -2.500097 -2.510415  1.982369
      ESP Fit Center  166 is at  -4.522951 -2.867099  0.944072
      ESP Fit Center  167 is at  -3.446613 -3.056886  0.944072
      ESP Fit Center  168 is at  -2.500097 -2.510415  0.944072
      ESP Fit Center  169 is at  -4.046139  0.268580  3.253502
      ESP Fit Center  170 is at  -3.058660  0.268580  2.932651
      ESP Fit Center  171 is at  -3.740991  1.207729  2.932651
      ESP Fit Center  172 is at  -4.845027  0.849006  2.932651
      ESP Fit Center  173 is at  -4.845027 -0.311846  2.932651
      ESP Fit Center  174 is at  -3.768689  1.842081  2.092651
      ESP Fit Center  175 is at  -4.845027  1.652294  2.092651
      ESP Fit Center  176 is at  -5.547557  0.815051  2.092651
      ESP Fit Center  177 is at  -5.547557 -0.277891  2.092651
      ESP Fit Center  178 is at  -4.845027  1.652294  1.054354
      ESP Fit Center  179 is at  -5.547557  0.815051  1.054354
      ESP Fit Center  180 is at   2.843602 -2.571862  2.565252
      ESP Fit Center  181 is at   3.831081 -2.571862  2.244400
      ESP Fit Center  182 is at   3.148749 -1.632713  2.244400
      ESP Fit Center  183 is at   2.044714 -1.991436  2.244400
      ESP Fit Center  184 is at   2.044714 -3.152287  2.244400
      ESP Fit Center  185 is at   3.148749 -3.511010  2.244400
      ESP Fit Center  186 is at   4.441376 -2.571862  1.404400
      ESP Fit Center  187 is at   2.044714 -3.955575  1.404400
      ESP Fit Center  188 is at   3.121052 -4.145363  1.404400
      ESP Fit Center  189 is at   4.067568 -3.598891  1.404400
      ESP Fit Center  190 is at   4.441376 -2.571862  0.366103
      ESP Fit Center  191 is at   4.067568 -3.598891  0.366103
      ESP Fit Center  192 is at   0.671997 -3.452946  1.148944
      ESP Fit Center  193 is at  -0.030533 -3.418992  0.308944
      ESP Fit Center  194 is at   0.671997 -4.256234  0.308944
      ESP Fit Center  195 is at   1.748335 -4.446022  0.308944
      ESP Fit Center  196 is at  -0.030533 -3.418992 -0.729353
      ESP Fit Center  197 is at   0.671997 -4.256234 -0.729353
      ESP Fit Center  198 is at   1.748335 -4.446022 -0.729353
      ESP Fit Center  199 is at   0.671997 -3.452946 -1.569353
      ESP Fit Center  200 is at   1.776032 -3.811669 -1.569353
      ESP Fit Center  201 is at   1.470884 -2.872521 -1.890204
      ESP Fit Center  202 is at   4.662412 -2.433553 -0.366296
      ESP Fit Center  203 is at   4.288603 -3.460583 -0.366296
      ESP Fit Center  204 is at   4.662412 -2.433553 -1.404593
      ESP Fit Center  205 is at   4.288603 -1.406523 -1.404593
      ESP Fit Center  206 is at   3.342087 -4.007054 -1.404593
      ESP Fit Center  207 is at   4.288603 -3.460583 -1.404593
      ESP Fit Center  208 is at   4.052116 -2.433553 -2.244593
      ESP Fit Center  209 is at   3.369785 -1.494404 -2.244593
      ESP Fit Center  210 is at   2.265749 -1.853127 -2.244593
      ESP Fit Center  211 is at   2.265749 -3.013978 -2.244593
      ESP Fit Center  212 is at   3.369785 -3.372701 -2.244593
      ESP Fit Center  213 is at   3.064637 -2.433553 -2.565444
      ESP Fit Center  214 is at  -0.714472  3.312660  0.349569
      ESP Fit Center  215 is at  -0.742169  3.947012 -0.490431
      ESP Fit Center  216 is at  -1.818507  3.757225 -0.490431
      ESP Fit Center  217 is at   0.204347  3.400541 -1.528728
      ESP Fit Center  218 is at  -0.742169  3.947012 -1.528728
      ESP Fit Center  219 is at  -1.818507  3.757225 -1.528728
      ESP Fit Center  220 is at  -2.521037  2.919982 -1.528728
      ESP Fit Center  221 is at  -0.714472  3.312660 -2.368728
      ESP Fit Center  222 is at  -1.818507  2.953937 -2.368728
      ESP Fit Center  223 is at  -1.019620  2.373511 -2.689579
      ESP Fit Center  224 is at  -2.680036  1.357539 -2.343797
      ESP Fit Center  225 is at  -2.680036  0.264597 -2.343797
      ESP Fit Center  226 is at  -0.901168 -0.762433 -2.343797
      ESP Fit Center  227 is at  -0.191139  0.811068 -3.183797
      ESP Fit Center  228 is at  -0.873471  1.750216 -3.183797
      ESP Fit Center  229 is at  -1.977506  1.391494 -3.183797
      ESP Fit Center  230 is at  -1.977506  0.230642 -3.183797
      ESP Fit Center  231 is at  -0.873471 -0.128081 -3.183797
      ESP Fit Center  232 is at  -1.178618  0.811068 -3.504649
      ESP Fit Center  233 is at  -2.543453  1.666274  2.230973
      ESP Fit Center  234 is at  -2.238305  2.605423  1.910122
      ESP Fit Center  235 is at  -3.342340  2.246700  1.910122
      ESP Fit Center  236 is at  -1.319486  2.693304  1.070122
      ESP Fit Center  237 is at  -2.266002  3.239775  1.070122
      ESP Fit Center  238 is at  -3.342340  3.049988  1.070122
      ESP Fit Center  239 is at  -4.044870  2.212745  1.070122
      ESP Fit Center  240 is at  -2.266002  3.239775  0.031825
      ESP Fit Center  241 is at  -3.342340  3.049988  0.031825
      ESP Fit Center  242 is at  -4.044870  2.212745  0.031825
      ESP Fit Center  243 is at   2.597685  1.395125  2.919858
      ESP Fit Center  244 is at   3.639006  1.395125  2.682183
      ESP Fit Center  245 is at   2.077024  2.296935  2.682183
      ESP Fit Center  246 is at   1.556364  1.395125  2.682183
      ESP Fit Center  247 is at   2.077024  0.493314  2.682183
      ESP Fit Center  248 is at   4.937512  1.395125 -0.014192
      ESP Fit Center  249 is at   4.474081  1.395125 -0.976517
      ESP Fit Center  250 is at   4.176209  2.409581 -0.976517
      ESP Fit Center  251 is at   3.377168  3.101954 -0.976517
      ESP Fit Center  252 is at   3.639006  1.395125 -1.642467
      ESP Fit Center  253 is at   3.118345  2.296935 -1.642467
      ESP Fit Center  254 is at   0.814088  2.722266  2.256992
      ESP Fit Center  255 is at   0.293428  1.820456  2.256992
      ESP Fit Center  256 is at   0.814088  0.918646  2.256992
      ESP Fit Center  257 is at  -0.465639  2.349098  1.591043
      ESP Fit Center  258 is at   2.793607  3.649806 -0.439383
      ESP Fit Center  259 is at   2.913273  2.834912 -1.401708
      ESP Fit Center  260 is at   2.114232  3.527285 -1.401708
      ESP Fit Center  261 is at   2.376070  1.820456 -2.067658
      ESP Fit Center  262 is at   1.855409  2.722266 -2.067658
      ESP Fit Center  263 is at   0.814088  2.722266 -2.067658
      ESP Fit Center  264 is at   2.910160  0.050987  2.871543
      ESP Fit Center  265 is at   1.868839  0.050987  2.633868
      ESP Fit Center  266 is at   2.389499 -0.850823  2.633868
      ESP Fit Center  267 is at   3.430820 -0.850823  2.633868
      ESP Fit Center  268 is at   5.018271  1.066200 -0.062507
      ESP Fit Center  269 is at   4.786555  0.050987 -1.024833
      ESP Fit Center  270 is at   4.488684  1.065443 -1.024833
      ESP Fit Center  271 is at   4.488684 -0.963469 -1.024833
      ESP Fit Center  272 is at   3.951481  0.050987 -1.690783
      ESP Fit Center  273 is at   3.430820  0.952798 -1.690783
      ESP Fit Center  274 is at  -0.263771 -0.450327  1.757929
      ESP Fit Center  275 is at   0.256890 -1.352137  1.757929
      ESP Fit Center  276 is at  -0.451228 -1.868412  1.091979
      ESP Fit Center  277 is at   2.356074  0.564129 -1.900772
      ESP Fit Center  278 is at   1.818871 -0.450327 -2.566722
      ESP Fit Center  279 is at   1.298211  0.451483 -2.566722
      ESP Fit Center  280 is at   1.298211 -1.352137 -2.566722
      ESP Fit Center  281 is at   0.777550 -0.450327 -2.804396
      ESP Fit Center  282 is at  -0.119475 -0.008579  1.788099
      ESP Fit Center  283 is at   1.442507  0.893231 -2.536551
      ESP Fit Center  284 is at   0.921846  1.795042 -2.536551
      ESP Fit Center  285 is at  -1.528400 -0.344696  2.236171
      ESP Fit Center  286 is at  -1.790238 -2.051525  1.570222
      ESP Fit Center  287 is at  -0.991196 -1.359152  1.570222
      ESP Fit Center  288 is at  -3.090381  0.557115 -2.088479
      ESP Fit Center  289 is at  -3.611041 -0.344696 -2.088479
      ESP Fit Center  290 is at  -2.782951 -0.557410  3.054216
      ESP Fit Center  291 is at  -1.947876 -0.557410  2.388267
      ESP Fit Center  292 is at  -5.624660 -1.086052  2.388267
      ESP Fit Center  293 is at  -6.164098 -0.557410  1.425941
      ESP Fit Center  294 is at  -5.932383 -1.572623  1.425941
      ESP Fit Center  295 is at  -5.283130  1.271940  0.357841
      ESP Fit Center  296 is at  -4.091310 -2.414707 -0.604485
      ESP Fit Center  297 is at   1.330605 -2.280836  2.107781
      ESP Fit Center  298 is at   4.711753 -2.280836  0.479506
      ESP Fit Center  299 is at   2.892587 -4.561998  0.479506
      ESP Fit Center  300 is at   2.892587 -4.561998 -0.588594
      ESP Fit Center  301 is at   2.104887 -4.138132 -1.550920
      ESP Fit Center  302 is at   1.330605 -2.280836 -2.216869
      ESP Fit Center  303 is at   1.851266 -3.182646 -2.216869
      ESP Fit Center  304 is at   0.590104  2.306235 -2.355462
      ESP Fit Center  305 is at  -2.788809  1.820421 -2.355462
      ESP Fit Center  306 is at  -0.467760  2.193590 -3.021411
      ESP Fit Center  307 is at   0.958352 -0.845231  2.175499
      ESP Fit Center  308 is at   1.479012 -1.747042  2.175499
      ESP Fit Center  309 is at   3.040994 -0.845231 -2.149152
      ESP Fit Center  310 is at   2.520333  0.056579 -2.149152
      ESP Fit Center  311 is at  -2.056232  0.927869  2.462873
      ESP Fit Center  312 is at  -1.014911  0.927869  2.225198
      ESP Fit Center  313 is at  -1.535572  1.829679  2.225198
      ESP Fit Center  314 is at  -1.535572  0.026058  2.225198
      ESP Fit Center  315 is at  -4.164344  1.943081 -0.471177
      ESP Fit Center  316 is at  -3.285010  2.345954 -1.433502
      ESP Fit Center  317 is at  -3.856621  1.456510 -1.433502
      ESP Fit Center  318 is at  -3.097553  0.927869 -2.099452
      ESP Fit Center  319 is at  -1.542970 -2.088771  1.455082
      ESP Fit Center  320 is at  -2.570102 -2.912669  0.833529
      ESP Fit Center  321 is at  -1.487738 -2.912669  0.833529
      ESP Fit Center  322 is at  -0.612087 -2.276471  0.833529
      ESP Fit Center  323 is at  -2.803320 -3.289006 -0.064641
      ESP Fit Center  324 is at  -1.765688 -3.414997 -0.064641
      ESP Fit Center  325 is at  -0.788358 -3.044345 -0.064641
      ESP Fit Center  326 is at  -3.663547 -2.695234 -1.061535
      ESP Fit Center  327 is at  -2.803320 -3.289006 -1.061535
      ESP Fit Center  328 is at  -1.765688 -3.414997 -1.061535
      ESP Fit Center  329 is at  -0.788358 -3.044345 -1.061535
      ESP Fit Center  330 is at  -3.780223 -1.247082 -1.959705
      ESP Fit Center  331 is at  -3.445754 -2.276471 -1.959705
      ESP Fit Center  332 is at  -2.570102 -2.912669 -1.959705
      ESP Fit Center  333 is at  -1.487738 -2.912669 -1.959705
      ESP Fit Center  334 is at  -1.057021 -1.247082 -2.581258
      ESP Fit Center  335 is at  -2.514870 -0.405392 -2.581258
      ESP Fit Center  336 is at  -3.000820 -1.247082 -2.581258
      ESP Fit Center  337 is at  -2.514870 -2.088771 -2.581258
      ESP Fit Center  338 is at  -1.542970 -2.088771 -2.581258
      ESP Fit Center  339 is at  -2.028920 -1.247082 -2.803088
      ESP Fit Center  340 is at   3.336179  2.098740  2.807234
      ESP Fit Center  341 is at   4.296179  2.098740  2.550003
      ESP Fit Center  342 is at   3.816179  2.930124  2.550003
      ESP Fit Center  343 is at   2.856179  2.930124  2.550003
      ESP Fit Center  344 is at   4.998948  2.098740  1.847234
      ESP Fit Center  345 is at   4.681387  3.076091  1.847234
      ESP Fit Center  346 is at   3.850003  3.680127  1.847234
      ESP Fit Center  347 is at   2.822355  3.680127  1.847234
      ESP Fit Center  348 is at   4.681387  1.121389  1.847234
      ESP Fit Center  349 is at   5.256179  2.098740  0.887234
      ESP Fit Center  350 is at   4.998948  3.058740  0.887234
      ESP Fit Center  351 is at   4.296179  3.761509  0.887234
      ESP Fit Center  352 is at   3.336179  4.018740  0.887234
      ESP Fit Center  353 is at   4.998948  2.098740 -0.072766
      ESP Fit Center  354 is at   4.681387  3.076091 -0.072766
      ESP Fit Center  355 is at   3.850003  3.680127 -0.072766
      ESP Fit Center  356 is at   1.563590  3.708409  1.790825
      ESP Fit Center  357 is at   0.603590  3.708409  1.790825
      ESP Fit Center  358 is at   2.428798  3.854376  1.088056
      ESP Fit Center  359 is at   1.597414  4.458412  1.088056
      ESP Fit Center  360 is at   0.569766  4.458412  1.088056
      ESP Fit Center  361 is at  -0.261618  3.854376  1.088056
      ESP Fit Center  362 is at  -0.579179  2.877025  1.088056
      ESP Fit Center  363 is at   2.746359  3.837025  0.128056
      ESP Fit Center  364 is at   2.043590  4.539794  0.128056
      ESP Fit Center  365 is at   1.083590  4.797025  0.128056
      ESP Fit Center  366 is at   0.123590  4.539794  0.128056
      ESP Fit Center  367 is at   2.428798  3.854376 -0.831944
      ESP Fit Center  368 is at   1.597414  4.458412 -0.831944
      ESP Fit Center  369 is at   0.569766  4.458412 -0.831944
      ESP Fit Center  370 is at   1.563590  3.708409 -1.534713
      ESP Fit Center  371 is at   0.603590  3.708409 -1.534713
      ESP Fit Center  372 is at   3.867060 -0.349144  2.705146
      ESP Fit Center  373 is at   4.827060 -0.349144  2.447915
      ESP Fit Center  374 is at   4.347060  0.482241  2.447915
      ESP Fit Center  375 is at   4.347060 -1.180528  2.447915
      ESP Fit Center  376 is at   5.529829 -0.349144  1.745146
      ESP Fit Center  377 is at   5.212268  0.628207  1.745146
      ESP Fit Center  378 is at   5.212268 -1.326495  1.745146
      ESP Fit Center  379 is at   5.787060 -0.349144  0.785146
      ESP Fit Center  380 is at   5.529829  0.610856  0.785146
      ESP Fit Center  381 is at   4.827060 -2.011913  0.785146
      ESP Fit Center  382 is at   5.529829 -1.309144  0.785146
      ESP Fit Center  383 is at   5.529829 -0.349144 -0.174854
      ESP Fit Center  384 is at   5.212268  0.628207 -0.174854
      ESP Fit Center  385 is at   5.212268 -1.326495 -0.174854
      ESP Fit Center  386 is at  -0.434358 -2.793200  0.222894
      ESP Fit Center  387 is at  -0.434358 -2.793200 -1.697106
      ESP Fit Center  388 is at  -0.400534 -2.043197 -2.399875
      ESP Fit Center  389 is at   0.559466 -2.043197 -2.399875
      ESP Fit Center  390 is at   0.079466 -1.211813 -2.657106
      ESP Fit Center  391 is at  -6.334072 -0.684587  1.168664
      ESP Fit Center  392 is at  -6.016511 -1.661938  1.168664
      ESP Fit Center  393 is at  -5.631303  0.978181  0.208664
      ESP Fit Center  394 is at  -6.334072  0.275413  0.208664
      ESP Fit Center  395 is at  -6.591303 -0.684587  0.208664
      ESP Fit Center  396 is at  -6.334072 -1.644587  0.208664
      ESP Fit Center  397 is at  -5.631303 -2.347356  0.208664
      ESP Fit Center  398 is at  -5.185127  0.896800 -0.751336
      ESP Fit Center  399 is at  -6.016511  0.292764 -0.751336
      ESP Fit Center  400 is at  -6.334072 -0.684587 -0.751336
      ESP Fit Center  401 is at  -6.016511 -1.661938 -0.751336
      ESP Fit Center  402 is at  -5.185127 -2.265975 -0.751336
      ESP Fit Center  403 is at  -5.151303  0.146797 -1.454105
      ESP Fit Center  404 is at  -5.631303 -0.684587 -1.454105
      ESP Fit Center  405 is at  -5.151303 -1.515972 -1.454105
      ESP Fit Center  406 is at  -4.191303 -1.515972 -1.454105
      ESP Fit Center  407 is at  -4.671303 -0.684587 -1.711336
      ESP Fit Center  408 is at  -3.724064 -1.483385  3.383220
      ESP Fit Center  409 is at  -2.764064 -1.483385  3.125989
      ESP Fit Center  410 is at  -4.684064 -1.483385  3.125989
      ESP Fit Center  411 is at  -4.204064 -2.314770  3.125989
      ESP Fit Center  412 is at  -3.244064 -2.314770  3.125989
      ESP Fit Center  413 is at  -2.061295 -1.483385  2.423220
      ESP Fit Center  414 is at  -5.069272 -2.460736  2.423220
      ESP Fit Center  415 is at  -4.237887 -3.064772  2.423220
      ESP Fit Center  416 is at  -3.210240 -3.064772  2.423220
      ESP Fit Center  417 is at  -2.378855 -2.460736  2.423220
      ESP Fit Center  418 is at  -5.386832 -2.443385  1.463220
      ESP Fit Center  419 is at  -4.684064 -3.146154  1.463220
      ESP Fit Center  420 is at  -3.724064 -3.403385  1.463220
      ESP Fit Center  421 is at  -2.764064 -3.146154  1.463220
      ESP Fit Center  422 is at  -2.061295 -2.443385  1.463220
      ESP Fit Center  423 is at  -4.237887 -3.064772  0.503220
      ESP Fit Center  424 is at  -3.210240 -3.064772  0.503220
      ESP Fit Center  425 is at  -4.046139  0.268580  3.493502
      ESP Fit Center  426 is at  -3.086139  0.268580  3.236271
      ESP Fit Center  427 is at  -3.566139  1.099964  3.236271
      ESP Fit Center  428 is at  -4.526139  1.099964  3.236271
      ESP Fit Center  429 is at  -5.006139  0.268580  3.236271
      ESP Fit Center  430 is at  -4.526139 -0.562804  3.236271
      ESP Fit Center  431 is at  -2.700931  1.245931  2.533502
      ESP Fit Center  432 is at  -3.532316  1.849967  2.533502
      ESP Fit Center  433 is at  -4.559963  1.849967  2.533502
      ESP Fit Center  434 is at  -5.391348  1.245931  2.533502
      ESP Fit Center  435 is at  -5.708908  0.268580  2.533502
      ESP Fit Center  436 is at  -5.006139  1.931349  1.573502
      ESP Fit Center  437 is at  -5.708908  1.228580  1.573502
      ESP Fit Center  438 is at  -4.559963  1.849967  0.613502
      ESP Fit Center  439 is at  -5.391348  1.245931  0.613502
      ESP Fit Center  440 is at   2.843602 -2.571862  2.805252
      ESP Fit Center  441 is at   3.803602 -2.571862  2.548020
      ESP Fit Center  442 is at   3.323602 -1.740477  2.548020
      ESP Fit Center  443 is at   2.363602 -1.740477  2.548020
      ESP Fit Center  444 is at   1.883602 -2.571862  2.548020
      ESP Fit Center  445 is at   2.363602 -3.403246  2.548020
      ESP Fit Center  446 is at   3.323602 -3.403246  2.548020
      ESP Fit Center  447 is at   4.506370 -2.571862  1.845252
      ESP Fit Center  448 is at   1.498393 -3.549212  1.845252
      ESP Fit Center  449 is at   2.329778 -4.153249  1.845252
      ESP Fit Center  450 is at   3.357425 -4.153249  1.845252
      ESP Fit Center  451 is at   4.188810 -3.549212  1.845252
      ESP Fit Center  452 is at   4.763602 -2.571862  0.885252
      ESP Fit Center  453 is at   2.843602 -4.491862  0.885252
      ESP Fit Center  454 is at   3.803602 -4.234630  0.885252
      ESP Fit Center  455 is at   4.506370 -3.531862  0.885252
      ESP Fit Center  456 is at   0.510884 -2.872521  1.452564
      ESP Fit Center  457 is at   0.990884 -3.703905  1.452564
      ESP Fit Center  458 is at  -0.191885 -2.872521  0.749796
      ESP Fit Center  459 is at   0.125676 -3.849871  0.749796
      ESP Fit Center  460 is at   0.957060 -4.453908  0.749796
      ESP Fit Center  461 is at  -0.191885 -3.832521 -0.210204
      ESP Fit Center  462 is at   0.510884 -4.535289 -0.210204
      ESP Fit Center  463 is at   1.470884 -4.792521 -0.210204
      ESP Fit Center  464 is at   0.125676 -3.849871 -1.170204
      ESP Fit Center  465 is at   0.957060 -4.453908 -1.170204
      ESP Fit Center  466 is at   1.984708 -4.453908 -1.170204
      ESP Fit Center  467 is at   0.510884 -2.872521 -1.872973
      ESP Fit Center  468 is at   0.990884 -3.703905 -1.872973
      ESP Fit Center  469 is at   4.984637 -2.433553 -0.885444
      ESP Fit Center  470 is at   4.727406 -1.473553 -0.885444
      ESP Fit Center  471 is at   4.024637 -4.096322 -0.885444
      ESP Fit Center  472 is at   4.727406 -3.393553 -0.885444
      ESP Fit Center  473 is at   4.727406 -2.433553 -1.845444
      ESP Fit Center  474 is at   4.409845 -1.456202 -1.845444
      ESP Fit Center  475 is at   3.578461 -0.852166 -1.845444
      ESP Fit Center  476 is at   2.550813 -4.014940 -1.845444
      ESP Fit Center  477 is at   3.578461 -4.014940 -1.845444
      ESP Fit Center  478 is at   4.409845 -3.410904 -1.845444
      ESP Fit Center  479 is at   4.024637 -2.433553 -2.548213
      ESP Fit Center  480 is at   3.544637 -1.602168 -2.548213
      ESP Fit Center  481 is at   2.584637 -1.602168 -2.548213
      ESP Fit Center  482 is at   2.104637 -2.433553 -2.548213
      ESP Fit Center  483 is at   2.584637 -3.264937 -2.548213
      ESP Fit Center  484 is at   3.544637 -3.264937 -2.548213
      ESP Fit Center  485 is at   3.064637 -2.433553 -2.805444
      ESP Fit Center  486 is at  -0.505796  3.954898 -0.049579
      ESP Fit Center  487 is at  -1.533443  3.954898 -0.049579
      ESP Fit Center  488 is at  -0.059620  4.036280 -1.009579
      ESP Fit Center  489 is at  -1.019620  4.293511 -1.009579
      ESP Fit Center  490 is at  -1.979620  4.036280 -1.009579
      ESP Fit Center  491 is at  -2.682388  3.333511 -1.009579
      ESP Fit Center  492 is at   0.325589  3.350862 -1.969579
      ESP Fit Center  493 is at  -0.505796  3.954898 -1.969579
      ESP Fit Center  494 is at  -1.533443  3.954898 -1.969579
      ESP Fit Center  495 is at  -2.364828  3.350862 -1.969579
      ESP Fit Center  496 is at  -0.539620  3.204895 -2.672348
      ESP Fit Center  497 is at  -1.499620  3.204895 -2.672348
      ESP Fit Center  498 is at   0.484150  0.811068 -2.784649
      ESP Fit Center  499 is at  -2.523827  1.788419 -2.784649
      ESP Fit Center  500 is at  -2.841387  0.811068 -2.784649
      ESP Fit Center  501 is at  -2.523827 -0.166283 -2.784649
      ESP Fit Center  502 is at  -1.692442 -0.770319 -2.784649
      ESP Fit Center  503 is at  -0.664795 -0.770319 -2.784649
      ESP Fit Center  504 is at   0.166590 -0.166283 -2.784649
      ESP Fit Center  505 is at  -0.218618  0.811068 -3.487418
      ESP Fit Center  506 is at  -0.698618  1.642452 -3.487418
[...]
  408 Fit       0.092472
  409 Fit       0.099110
  410 Fit       0.088565
  411 Fit       0.087884
  412 Fit       0.092647
  413 Fit       0.108133
  414 Fit       0.084176
  415 Fit       0.085445
  416 Fit       0.089795
  417 Fit       0.097424
  418 Fit       0.083350
  419 Fit       0.081814
  420 Fit       0.082978
  421 Fit       0.085876
  422 Fit       0.092229
  423 Fit       0.077893
  424 Fit       0.071824
  425 Fit       0.096432
  426 Fit       0.104708
  427 Fit       0.105842
  428 Fit       0.098073
  429 Fit       0.091619
  430 Fit       0.092474
  431 Fit       0.123983
  432 Fit       0.120546
  433 Fit       0.105927
  434 Fit       0.094936
  435 Fit       0.089701
  436 Fit       0.106624
  437 Fit       0.095244
  438 Fit       0.121050
  439 Fit       0.101823
  440 Fit       0.128649
  441 Fit       0.130437
  442 Fit       0.143194
  443 Fit       0.141131
  444 Fit       0.130103
  445 Fit       0.122056
  446 Fit       0.121760
  447 Fit       0.134090
  448 Fit       0.126220
  449 Fit       0.119935
  450 Fit       0.118534
  451 Fit       0.122298
  452 Fit       0.138294
  453 Fit       0.122990
  454 Fit       0.121541
  455 Fit       0.125482
  456 Fit       0.130946
  457 Fit       0.124321
  458 Fit       0.123679
  459 Fit       0.116836
  460 Fit       0.117124
  461 Fit       0.112980
  462 Fit       0.113415
  463 Fit       0.116693
  464 Fit       0.114975
  465 Fit       0.115066
  466 Fit       0.121239
  467 Fit       0.130914
  468 Fit       0.120557
  469 Fit       0.129643
  470 Fit       0.145564
  471 Fit       0.120490
  472 Fit       0.121888
  473 Fit       0.123414
  474 Fit       0.133852
  475 Fit       0.145704
  476 Fit       0.121416
  477 Fit       0.116844
  478 Fit       0.117653
  479 Fit       0.121399
  480 Fit       0.129687
  481 Fit       0.135696
  482 Fit       0.130606
  483 Fit       0.120709
  484 Fit       0.117502
  485 Fit       0.123121
  486 Fit       0.144708
  487 Fit       0.133620
  488 Fit       0.139660
  489 Fit       0.125995
  490 Fit       0.122196
  491 Fit       0.125228
  492 Fit       0.134069
  493 Fit       0.122933
  494 Fit       0.116436
  495 Fit       0.114951
  496 Fit       0.119416
  497 Fit       0.113767
  498 Fit       0.131621
  499 Fit       0.108428
  500 Fit       0.102317
  501 Fit       0.092185
  502 Fit       0.087989
  503 Fit       0.112033
  504 Fit       0.130562
  505 Fit       0.116111
  506 Fit       0.113144
  507 Fit       0.107010
  508 Fit       0.101756
  509 Fit       0.100320
  510 Fit       0.110187
  511 Fit       0.106510
  512 Fit       0.126110
  513 Fit       0.128831
  514 Fit       0.128062
  515 Fit       0.139865
  516 Fit       0.134913
  517 Fit       0.129057
  518 Fit       0.127178
  519 Fit       0.134749
  520 Fit       0.126794
  521 Fit       0.123455
  522 Fit       0.129298
  523 Fit       0.120052
  524 Fit       0.118212
  525 Fit       0.122961
  526 Fit       0.118290
  527 Fit       0.119296
  528 Fit       0.123563
  529 Fit       0.124229
  530 Fit       0.126600
  531 Fit       0.126542
  532 Fit       0.120916
  533 Fit       0.116081
  534 Fit       0.119152
  535 Fit       0.120548
  536 Fit       0.119029
  537 Fit       0.122174
  538 Fit       0.121767
  539 Fit       0.124466
  540 Fit       0.128258
  541 Fit       0.129212
  542 Fit       0.124664
  543 Fit       0.119512
  544 Fit       0.120938
  545 Fit       0.121445
  546 Fit       0.120141
  547 Fit       0.127977
  548 Fit       0.124652
  549 Fit       0.128809
  550 Fit       0.125396
  551 Fit       0.130061
  552 Fit       0.131698
  553 Fit       0.127174
  554 Fit       0.127208
  555 Fit       0.122792
  556 Fit       0.128265
  557 Fit       0.125486
  558 Fit       0.124297
  559 Fit       0.128243
  560 Fit       0.119097
  561 Fit       0.131949
  562 Fit       0.126556
  563 Fit       0.125275
  564 Fit       0.118623
  565 Fit       0.125952
  566 Fit       0.121980
  567 Fit       0.124936
  568 Fit       0.130415
  569 Fit       0.123485
  570 Fit       0.122834
  571 Fit       0.113171
  572 Fit       0.114606
  573 Fit       0.096271
  574 Fit       0.085014
  575 Fit       0.092273
  576 Fit       0.099160
  577 Fit       0.109230
  578 Fit       0.112751
  579 Fit       0.082604
  580 Fit       0.082336
  581 Fit       0.080258
  582 Fit       0.079248
  583 Fit       0.098925
  584 Fit       0.072137
  585 Fit       0.128979
  586 Fit       0.124098
  587 Fit       0.118290
  588 Fit       0.114286
  589 Fit       0.134370
  590 Fit       0.112654
  591 Fit       0.113231
  592 Fit       0.116467
  593 Fit       0.122539
  594 Fit       0.112997
  595 Fit       0.114802
  596 Fit       0.129030
  597 Fit       0.119643
  598 Fit       0.108080
  599 Fit       0.123692
  600 Fit       0.107568
  601 Fit       0.112929
  602 Fit       0.129568
  603 Fit       0.132704
  604 Fit       0.132790
  605 Fit       0.131133
  606 Fit       0.114170
  607 Fit       0.114406
  608 Fit       0.118391
  609 Fit       0.113575
  610 Fit       0.113303
  611 Fit       0.106018
  612 Fit       0.107577
  613 Fit       0.100897
  614 Fit       0.077621
  615 Fit       0.090482
  616 Fit       0.065819
  617 Fit       0.063150
  618 Fit       0.076171
  619 Fit       0.056459
  620 Fit       0.057099
  621 Fit       0.071566
  622 Fit       0.065630
  623 Fit       0.055738
  624 Fit       0.058791
  625 Fit       0.076639
  626 Fit       0.096171
  627 Fit       0.068896
  628 Fit       0.061716
  629 Fit       0.074386
  630 Fit       0.076115
  631 Fit       0.119489
  632 Fit       0.119104
  633 Fit       0.115141
  634 Fit       0.119567
  635 Fit       0.120294
  636 Fit       0.114004
  637 Fit       0.114143
  638 Fit       0.120103
  639 Fit       0.121287
  640 Fit       0.114337
  641 Fit       0.113775
  642 Fit       0.119000
  643 Fit       0.121614
  644 Fit       0.115412
  645 Fit       0.117326
  646 Fit       0.126237
  647 Fit       0.124082
  648 Fit       0.122421
  649 Fit       0.120331
  650 Fit       0.125858
  651 Fit       0.138424
  652 Fit       0.122222
  653 Fit       0.118790
  654 Fit       0.121872
  655 Fit       0.132424
  656 Fit       0.119799
  657 Fit       0.121267
  658 Fit       0.123384
  659 Fit       0.129796
  660 Fit       0.126061
  661 Fit       0.131575
  662 Fit       0.131372
  663 Fit       0.124034
  664 Fit       0.128478
  665 Fit       0.127079
  666 Fit       0.124092
  667 Fit       0.127465
  668 Fit       0.137547
  669 Fit       0.127246
  670 Fit       0.126858
  671 Fit       0.129379
  672 Fit       0.132765
  673 Fit       0.109976
  674 Fit       0.101089
  675 Fit       0.122880
  676 Fit       0.084274
  677 Fit       0.080820
  678 Fit       0.087816
  679 Fit       0.081913
  680 Fit       0.078843
  681 Fit       0.077398
  682 Fit       0.077227
  683 Fit       0.101722
  684 Fit       0.089582
  685 Fit       0.082875
  686 Fit       0.079186
  687 Fit       0.076831
  688 Fit       0.073956
  689 Fit       0.091069
  690 Fit       0.082892
  691 Fit       0.078376
  692 Fit       0.086085
  693 Fit       0.088890
  694 Fit       0.096230
  695 Fit       0.084716
  696 Fit       0.083529
  697 Fit       0.088705
  698 Fit       0.106443
  699 Fit       0.081130
  700 Fit       0.079773
  701 Fit       0.081856
  702 Fit       0.087077
  703 Fit       0.095719
  704 Fit       0.078279
  705 Fit       0.077778
  706 Fit       0.079650
  707 Fit       0.083772
  708 Fit       0.073108
  709 Fit       0.092292
  710 Fit       0.101332
  711 Fit       0.101457
  712 Fit       0.093214
  713 Fit       0.087115
  714 Fit       0.118199
  715 Fit       0.104798
  716 Fit       0.093226
  717 Fit       0.086670
  718 Fit       0.107306
  719 Fit       0.093945
  720 Fit       0.088039
  721 Fit       0.121324
  722 Fit       0.122828
  723 Fit       0.135976
  724 Fit       0.134315
  725 Fit       0.123427
  726 Fit       0.114901
  727 Fit       0.114167
  728 Fit       0.126644
  729 Fit       0.116550
  730 Fit       0.111813
  731 Fit       0.111251
  732 Fit       0.115361
  733 Fit       0.131345
  734 Fit       0.114661
  735 Fit       0.114316
  736 Fit       0.118827
  737 Fit       0.117784
  738 Fit       0.111068
  739 Fit       0.108930
  740 Fit       0.111129
  741 Fit       0.102582
  742 Fit       0.104695
  743 Fit       0.106313
  744 Fit       0.110796
  745 Fit       0.107638
  746 Fit       0.106324
  747 Fit       0.108433
  748 Fit       0.113058
  749 Fit       0.122817
  750 Fit       0.137886
  751 Fit       0.113025
  752 Fit       0.115122
  753 Fit       0.116073
  754 Fit       0.125791
  755 Fit       0.137287
  756 Fit       0.112357
  757 Fit       0.109230
  758 Fit       0.110511
  759 Fit       0.114017
  760 Fit       0.122779
  761 Fit       0.129387
  762 Fit       0.124159
  763 Fit       0.113759
  764 Fit       0.110139
  765 Fit       0.116097
  766 Fit       0.127779
  767 Fit       0.131085
  768 Fit       0.121306
  769 Fit       0.115689
  770 Fit       0.116915
  771 Fit       0.129124
  772 Fit       0.118162
  773 Fit       0.110958
  774 Fit       0.108543
  775 Fit       0.109694
  776 Fit       0.113315
  777 Fit       0.107667
  778 Fit       0.100091
  779 Fit       0.093610
  780 Fit       0.113103
  781 Fit       0.110807
  782 Fit       0.107827
  783 Fit       0.101593
  784 Fit       0.096151
  785 Fit       0.094737
  786 Fit       0.104844
  787 Fit       0.100811
  788 Fit       0.119235
  789 Fit       0.121818
  790 Fit       0.119451
  791 Fit       0.128940
  792 Fit       0.121529
  793 Fit       0.117954
  794 Fit       0.129290
  795 Fit       0.119837
  796 Fit       0.115337
  797 Fit       0.115247
  798 Fit       0.125752
  799 Fit       0.114962
  800 Fit       0.112688
  801 Fit       0.115467
  802 Fit       0.112333
  803 Fit       0.112227
  804 Fit       0.114005
  805 Fit       0.117597
  806 Fit       0.115449
  807 Fit       0.121386
  808 Fit       0.122672
  809 Fit       0.117603
  810 Fit       0.111909
  811 Fit       0.111576
  812 Fit       0.115843
  813 Fit       0.114830
  814 Fit       0.110350
  815 Fit       0.112846
  816 Fit       0.115847
  817 Fit       0.114253
  818 Fit       0.115773
  819 Fit       0.116418
  820 Fit       0.119269
  821 Fit       0.118331
  822 Fit       0.119730
  823 Fit       0.121813
  824 Fit       0.131117
  825 Fit       0.115248
  826 Fit       0.113034
  827 Fit       0.113540
  828 Fit       0.118800
  829 Fit       0.116144
  830 Fit       0.114241
  831 Fit       0.117832
  832 Fit       0.119996
  833 Fit       0.119019
  834 Fit       0.121935
  835 Fit       0.122462
  836 Fit       0.122038
  837 Fit       0.120685
  838 Fit       0.117824
  839 Fit       0.119603
  840 Fit       0.116334
  841 Fit       0.121711
  842 Fit       0.120161
  843 Fit       0.119941
  844 Fit       0.122526
  845 Fit       0.115694
  846 Fit       0.123634
  847 Fit       0.118863
  848 Fit       0.118499
  849 Fit       0.111109
  850 Fit       0.117448
  851 Fit       0.114921
  852 Fit       0.120751
  853 Fit       0.122738
  854 Fit       0.117282
  855 Fit       0.116209
  856 Fit       0.108917
  857 Fit       0.111340
  858 Fit       0.098494
  859 Fit       0.089667
  860 Fit       0.080144
  861 Fit       0.082332
  862 Fit       0.088424
  863 Fit       0.094860
  864 Fit       0.083806
  865 Fit       0.103832
  866 Fit       0.106787
  867 Fit       0.079181
  868 Fit       0.080275
  869 Fit       0.077095
  870 Fit       0.076756
  871 Fit       0.085053
  872 Fit       0.079934
  873 Fit       0.077214
  874 Fit       0.075605
  875 Fit       0.094922
  876 Fit       0.074208
  877 Fit       0.098658
  878 Fit       0.065101
  879 Fit       0.121755
  880 Fit       0.117011
  881 Fit       0.111653
  882 Fit       0.106980
  883 Fit       0.128367
  884 Fit       0.104943
  885 Fit       0.106404
  886 Fit       0.109909
  887 Fit       0.116147
  888 Fit       0.104354
  889 Fit       0.105524
  890 Fit       0.105435
  891 Fit       0.105961
  892 Fit       0.107470
  893 Fit       0.120060
  894 Fit       0.112293
  895 Fit       0.102181
  896 Fit       0.115004
  897 Fit       0.100760
  898 Fit       0.106134
  899 Fit       0.123129
  900 Fit       0.125027
  901 Fit       0.124475
  902 Fit       0.123883
  903 Fit       0.109633
  904 Fit       0.111529
  905 Fit       0.113066
  906 Fit       0.109828
  907 Fit       0.120887
  908 Fit       0.119168
  909 Fit       0.105569
  910 Fit       0.108218
  911 Fit       0.100548
  912 Fit       0.098251
  913 Fit       0.096424
  914 Fit       0.084394
  915 Fit       0.097185
  916 Fit       0.071595
  917 Fit       0.085685
  918 Fit       0.062086
  919 Fit       0.061724
  920 Fit       0.070844
  921 Fit       0.093177
  922 Fit       0.062012
  923 Fit       0.057433
  924 Fit       0.062042
  925 Fit       0.077459
  926 Fit       0.072199
  927 Fit       0.062139
  928 Fit       0.058975
  929 Fit       0.065038
  930 Fit       0.081187
  931 Fit       0.094311
  932 Fit       0.070742
  933 Fit       0.065353
  934 Fit       0.076272
  935 Fit       0.077952
  936 Fit       0.112906
  937 Fit       0.109398
  938 Fit       0.113438
  939 Fit       0.113445
  940 Fit       0.107742
  941 Fit       0.107738
  942 Fit       0.112766
  943 Fit       0.114424
  944 Fit       0.107852
  945 Fit       0.106615
  946 Fit       0.109862
  947 Fit       0.118880
  948 Fit       0.115227
  949 Fit       0.108561
  950 Fit       0.107686
  951 Fit       0.112039
  952 Fit       0.110430
  953 Fit       0.112418
  954 Fit       0.118446
  955 Fit       0.116620
  956 Fit       0.114322
  957 Fit       0.119141
  958 Fit       0.129997
  959 Fit       0.118063
  960 Fit       0.112615
  961 Fit       0.113408
  962 Fit       0.119940
  963 Fit       0.115565
  964 Fit       0.112022
  965 Fit       0.113951
  966 Fit       0.122196
  967 Fit       0.113793
  968 Fit       0.115463
  969 Fit       0.119127
  970 Fit       0.123503
  971 Fit       0.116735
  972 Fit       0.120716
  973 Fit       0.119274
  974 Fit       0.116086
  975 Fit       0.119269
  976 Fit       0.126248
  977 Fit       0.118283
  978 Fit       0.117297
  979 Fit       0.119819
  980 Fit       0.120368
  981 Fit       0.121130
  982 Fit       0.127331
  983 Fit       0.103131
  984 Fit       0.098189
  985 Fit       0.115321
  986 Fit       0.080851
  987 Fit       0.076716
  988 Fit       0.074900
  989 Fit       0.074965
  990 Fit       0.087219
  991 Fit       0.080072
  992 Fit       0.076110
  993 Fit       0.073971
  994 Fit       0.072968
  995 Fit       0.072348
  996 Fit       0.085833
  997 Fit       0.079222
  998 Fit       0.075553
  999 Fit       0.073358
 1000 Fit       0.070702
 1001 Fit       0.087016
 1002 Fit       0.079352
 1003 Fit       0.075337
 1004 Fit       0.082430
 1005 Fit       0.085803
 1006 Fit       0.092411
 1007 Fit       0.081816
 1008 Fit       0.080574
 1009 Fit       0.085427
 1010 Fit       0.101798
 1011 Fit       0.078053
 1012 Fit       0.076881
 1013 Fit       0.079046
 1014 Fit       0.084428
 1015 Fit       0.092824
 1016 Fit       0.076330
 1017 Fit       0.074905
 1018 Fit       0.076081
 1019 Fit       0.079758
 1020 Fit       0.086561
 1021 Fit       0.097249
 1022 Fit       0.074079
 1023 Fit       0.073305
 1024 Fit       0.074287
 1025 Fit       0.088709
 1026 Fit       0.096697
 1027 Fit       0.095996
 1028 Fit       0.088845
 1029 Fit       0.083810
 1030 Fit       0.110791
 1031 Fit       0.107813
 1032 Fit       0.097638
 1033 Fit       0.088294
 1034 Fit       0.082767
 1035 Fit       0.103933
 1036 Fit       0.091511
 1037 Fit       0.084636
 1038 Fit       0.095770
 1039 Fit       0.115056
 1040 Fit       0.115916
 1041 Fit       0.126718
 1042 Fit       0.126010
 1043 Fit       0.116984
 1044 Fit       0.109332
 1045 Fit       0.108488
 1046 Fit       0.118812
 1047 Fit       0.109702
 1048 Fit       0.105523
 1049 Fit       0.105118
 1050 Fit       0.108972
 1051 Fit       0.122784
 1052 Fit       0.105596
 1053 Fit       0.106533
 1054 Fit       0.111419
 1055 Fit       0.107828
 1056 Fit       0.104886
 1057 Fit       0.106885
 1058 Fit       0.098427
 1059 Fit       0.099799
 1060 Fit       0.101790
 1061 Fit       0.095689
 1062 Fit       0.098344
 1063 Fit       0.100575
 1064 Fit       0.102332
 1065 Fit       0.100993
 1066 Fit       0.103059
 1067 Fit       0.108102
 1068 Fit       0.121785
 1069 Fit       0.113011
 1070 Fit       0.113077
 1071 Fit       0.123778
 1072 Fit       0.105524
 1073 Fit       0.104448
 1074 Fit       0.106836
 1075 Fit       0.108789
 1076 Fit       0.116982
 1077 Fit       0.126698
 1078 Fit       0.105315
 1079 Fit       0.102748
 1080 Fit       0.103945
 1081 Fit       0.107827
 1082 Fit       0.115573
 1083 Fit       0.121233
 1084 Fit       0.116646
 1085 Fit       0.107762
 1086 Fit       0.104450
 1087 Fit       0.110074
 1088 Fit       0.125470
 1089 Fit       0.122515
 1090 Fit       0.114489
 1091 Fit       0.115067
 1092 Fit       0.113498
 1093 Fit       0.107437
 1094 Fit       0.106160
 1095 Fit       0.108317
 1096 Fit       0.119354
 1097 Fit       0.110339
 1098 Fit       0.104256
 1099 Fit       0.102096
 1100 Fit       0.107594
 1101 Fit       0.102716
 1102 Fit       0.094246
 1103 Fit       0.089060
 1104 Fit       0.083142
 1105 Fit       0.088132
 1106 Fit       0.105651
 1107 Fit       0.104383
 1108 Fit       0.101874
 1109 Fit       0.096461
 1110 Fit       0.091783
 1111 Fit       0.091152
 1112 Fit       0.099363
 1113 Fit       0.096010
 1114 Fit       0.113421
 1115 Fit       0.115195
 1116 Fit       0.112524
 1117 Fit       0.120446
 1118 Fit       0.113857
 1119 Fit       0.110911
 1120 Fit       0.122813
 1121 Fit       0.114040
 1122 Fit       0.109554
 1123 Fit       0.108957
 1124 Fit       0.115564
 1125 Fit       0.108846
 1126 Fit       0.106476
 -----------------------------------------------------------------
 Leave Link  602 at Sat Feb 17 20:58:38 2018, MaxMem=   33554432 cpu:       0.4

 Test job not archived.
 1\1\GINC-NODE029\SP\RHF\6-31G(d)\C9H13N2O1(1+)\WULSDORT\17-Feb-2018\0\
 \#HF/6-31G* Geom=AllCheck Guess=Read Pop=(MK,ReadRadii) Integral=(Grid
 =UltraFine) iop(6/33=2)\\Optimization for frag18-conf2\\1,1\C,0,0.6055
 584185,-1.1626959367,0.8516727891\C,0,1.6636352016,-1.5888228643,0.041
 9869955\C,0,0.8543014487,-0.8255852726,2.1674096081\C,0,3.1471024589,-
 1.3115545484,1.8962893668\C,0,2.9578070353,-1.6710298593,0.5611289662\
 C,0,5.4688596529,-3.6517008887,1.136518018\C,0,6.093406568,-5.02399524
 36,1.2593705697\C,0,2.3582992331,-0.5101364939,4.0759021241\C,0,4.1550
 156709,-2.1200960612,-0.2695129145\N,0,2.1142299334,-0.9055983852,2.66
 58814082\N,0,4.6323786749,-3.4549512428,0.0665649715\O,0,5.6933464676,
 -2.7438279374,1.9351560196\H,0,-0.4059711321,-1.0922103068,0.467936961
 5\H,0,1.474816618,-1.85331076,-0.9947999523\H,0,0.0841358792,-0.489041
 8213,2.8512905028\H,0,4.1291653061,-1.3816163681,2.3529311156\H,0,7.15
 40286071,-4.9518191703,0.9942142284\H,0,6.0389449682,-5.3479899134,2.3
 014594943\H,0,5.6236585198,-5.7761949466,0.6193611892\H,0,1.6015603652
 ,-0.971718822,4.7120451524\H,0,3.3471224038,-0.8560998594,4.373787575\
 H,0,2.3051730235,0.5779678756,4.1581950101\H,0,3.8820186438,-2.1101819
 317,-1.3274070589\H,0,4.9740143752,-1.4072834044,-0.1256054365\H,0,4.5
 007735095,-4.1970158941,-0.6064051667\\Version=AM64L-G09RevC.01\State=
 1-A\HF=-531.9638021\RMSD=3.515e-09\Dipole=-2.2394293,0.6072339,-0.1097
 649\Quadrupole=0.3222319,-2.7572171,2.4349853,-12.226543,-6.1213635,9.
 0500312\PG=C01 [X(C9H13N2O1)]\\@


 THE MOST INCOMPREHENSIBLE THING ABOUT THE WORLD
 IS THAT IT IS COMPREHENSIBLE. -- A. EINSTEIN
 Job cpu time:  0 days  0 hours  2 minutes  5.0 seconds.
 File lengths (MBytes):  RWF=     27 Int=      0 D2E=      0 Chk=      4 Scr=      1
 Normal termination of Gaussian 09 at Sat Feb 17 20:58:38 2018.
