 Entering Gaussian System, Link 0=g09
 Initial command:
 /home/fb_chem/chemsoft/lx24-amd64/Gaussian_09_C.01_NBO_3.1_64_istanbul-64/g09/l1.exe /local/2397350.1.parallel/Gau-13326.inp -scrdir=/local/2397350.1.parallel/
 Entering Link 1 = /home/fb_chem/chemsoft/lx24-amd64/Gaussian_09_C.01_NBO_3.1_64_istanbul-64/g09/l1.exe PID=     13327.
  
 Copyright (c) 1988,1990,1992,1993,1995,1998,2003,2009,2011,
            Gaussian, Inc.  All Rights Reserved.
  
 This is part of the Gaussian(R) 09 program.  It is based on
 the Gaussian(R) 03 system (copyright 2003, Gaussian, Inc.),
 the Gaussian(R) 98 system (copyright 1998, Gaussian, Inc.),
 the Gaussian(R) 94 system (copyright 1995, Gaussian, Inc.),
 the Gaussian 92(TM) system (copyright 1992, Gaussian, Inc.),
 the Gaussian 90(TM) system (copyright 1990, Gaussian, Inc.),
 the Gaussian 88(TM) system (copyright 1988, Gaussian, Inc.),
 the Gaussian 86(TM) system (copyright 1986, Carnegie Mellon
 University), and the Gaussian 82(TM) system (copyright 1983,
 Carnegie Mellon University). Gaussian is a federally registered
 trademark of Gaussian, Inc.
  
 This software contains proprietary and confidential information,
 including trade secrets, belonging to Gaussian, Inc.
  
 This software is provided under written license and may be
 used, copied, transmitted, or stored only in accord with that
 written license.
  
 The following legend is applicable only to US Government
 contracts under FAR:
  
                    RESTRICTED RIGHTS LEGEND
  
 Use, reproduction and disclosure by the US Government is
 subject to restrictions as set forth in subparagraphs (a)
 and (c) of the Commercial Computer Software - Restricted
 Rights clause in FAR 52.227-19.
  
 Gaussian, Inc.
 340 Quinnipiac St., Bldg. 40, Wallingford CT 06492
  
  
 ---------------------------------------------------------------
 Warning -- This program may not be used in any manner that
 competes with the business of Gaussian, Inc. or will provide
 assistance to any competitor of Gaussian, Inc.  The licensee
 of this program is prohibited from giving any competitor of
 Gaussian, Inc. access to this program.  By using this program,
 the user acknowledges that Gaussian, Inc. is engaged in the
 business of creating and licensing software in the field of
 computational chemistry and represents and warrants to the
 licensee that it is not a competitor of Gaussian, Inc. and that
 it will not use this program in any manner prohibited above.
 ---------------------------------------------------------------
  

 Cite this work as:
 Gaussian 09, Revision C.01,
 M. J. Frisch, G. W. Trucks, H. B. Schlegel, G. E. Scuseria, 
 M. A. Robb, J. R. Cheeseman, G. Scalmani, V. Barone, B. Mennucci, 
 G. A. Petersson, H. Nakatsuji, M. Caricato, X. Li, H. P. Hratchian, 
 A. F. Izmaylov, J. Bloino, G. Zheng, J. L. Sonnenberg, M. Hada, 
 M. Ehara, K. Toyota, R. Fukuda, J. Hasegawa, M. Ishida, T. Nakajima, 
 Y. Honda, O. Kitao, H. Nakai, T. Vreven, J. A. Montgomery, Jr., 
 J. E. Peralta, F. Ogliaro, M. Bearpark, J. J. Heyd, E. Brothers, 
 K. N. Kudin, V. N. Staroverov, T. Keith, R. Kobayashi, J. Normand, 
 K. Raghavachari, A. Rendell, J. C. Burant, S. S. Iyengar, J. Tomasi, 
 M. Cossi, N. Rega, J. M. Millam, M. Klene, J. E. Knox, J. B. Cross, 
 V. Bakken, C. Adamo, J. Jaramillo, R. Gomperts, R. E. Stratmann, 
 O. Yazyev, A. J. Austin, R. Cammi, C. Pomelli, J. W. Ochterski, 
 R. L. Martin, K. Morokuma, V. G. Zakrzewski, G. A. Voth, 
 P. Salvador, J. J. Dannenberg, S. Dapprich, A. D. Daniels, 
 O. Farkas, J. B. Foresman, J. V. Ortiz, J. Cioslowski, 
 and D. J. Fox, Gaussian, Inc., Wallingford CT, 2010.
 
 ******************************************
 Gaussian 09:  AM64L-G09RevC.01 23-Sep-2011
                16-Feb-2018 
 ******************************************
 %nprocs=4
 Will use up to    4 processors via shared memory.
 %chk=frag20-conf1.chk
 ---------------------------------------------------------
 #B3LYP/6-31G* Integral=(Grid=UltraFine) freq Opt pop=none
 ---------------------------------------------------------
 1/14=-1,18=20,19=15,26=3,38=1/1,3;
 2/9=110,12=2,17=6,18=5,40=1/2;
 3/5=1,6=6,7=1,11=2,16=1,25=1,30=1,71=1,74=-5,75=-5/1,2,3;
 4//1;
 5/5=2,38=5/2;
 7//1,2,3,16;
 1/14=-1,18=20,19=15/3(2);
 2/9=110/2;
 99//99;
 2/9=110/2;
 3/5=1,6=6,7=1,11=2,16=1,25=1,30=1,71=1,74=-5,75=-5/1,2,3;
 4/5=5,16=3/1;
 5/5=2,38=5/2;
 7//1,2,3,16;
 1/14=-1,18=20,19=15/3(-5);
 2/9=110/2;
 99/9=1/99;
 -----------------------------
 Optimization for frag20-conf1
 -----------------------------
 Charge =  1 Multiplicity = 1
 Symbolic Z-Matrix:
 C                     0.5755   -0.60268   0.7734 
 C                     0.65113  -0.86542   2.13193 
 C                     2.78148  -1.81058   1.86959 
 C                     2.77318  -1.56875   0.49308 
 C                     1.64118  -0.95607  -0.04826 
 C                     5.52253  -0.05952  -0.45993 
 C                     6.81622   0.48899   0.07735 
 C                     1.80095  -1.73593   4.09401 
 C                     3.97172  -1.99122  -0.3122 
 N                     1.7436   -1.45378   2.65308 
 N                     5.16642  -1.2699    0.08087 
 O                     4.86565   0.52109  -1.32089 
 Cl                    1.4851   -0.61534  -1.73438 
 H                    -0.31445  -0.12844   0.37116 
 H                    -0.15503  -0.61427   2.81216 
 H                     3.61768  -2.29246   2.36596 
 H                     7.65141   0.0408   -0.46727 
 H                     6.83535   1.57419  -0.05546 
 H                     6.91809   0.26803   1.14367 
 H                     1.49993  -2.77674   4.2373 
 H                     2.82313  -1.573     4.44619 
 H                     1.1258   -1.06204   4.62754 
 H                     4.16318  -3.05742  -0.14313 
 H                     3.82841  -1.86543  -1.38863 
 H                     5.78494  -1.70273   0.76121 
 

 GradGradGradGradGradGradGradGradGradGradGradGradGradGradGradGradGradGrad
 Berny optimization.
 Initialization pass.
                           ----------------------------
                           !    Initial Parameters    !
                           ! (Angstroms and Degrees)  !
 --------------------------                            --------------------------
 ! Name  Definition              Value          Derivative Info.                !
 --------------------------------------------------------------------------------
 ! R1    R(1,2)                  1.3858         estimate D2E/DX2                !
 ! R2    R(1,5)                  1.3913         estimate D2E/DX2                !
 ! R3    R(1,14)                 1.0857         estimate D2E/DX2                !
 ! R4    R(2,10)                 1.3458         estimate D2E/DX2                !
 ! R5    R(2,15)                 1.0843         estimate D2E/DX2                !
 ! R6    R(3,4)                  1.3976         estimate D2E/DX2                !
 ! R7    R(3,10)                 1.3485         estimate D2E/DX2                !
 ! R8    R(3,16)                 1.0853         estimate D2E/DX2                !
 ! R9    R(4,5)                  1.3964         estimate D2E/DX2                !
 ! R10   R(4,9)                  1.5045         estimate D2E/DX2                !
 ! R11   R(5,13)                 1.7273         estimate D2E/DX2                !
 ! R12   R(6,7)                  1.5044         estimate D2E/DX2                !
 ! R13   R(6,11)                 1.3727         estimate D2E/DX2                !
 ! R14   R(6,12)                 1.2288         estimate D2E/DX2                !
 ! R15   R(7,17)                 1.0932         estimate D2E/DX2                !
 ! R16   R(7,18)                 1.0935         estimate D2E/DX2                !
 ! R17   R(7,19)                 1.0937         estimate D2E/DX2                !
 ! R18   R(8,10)                 1.4694         estimate D2E/DX2                !
 ! R19   R(8,20)                 1.0929         estimate D2E/DX2                !
 ! R20   R(8,21)                 1.0934         estimate D2E/DX2                !
 ! R21   R(8,22)                 1.093          estimate D2E/DX2                !
 ! R22   R(9,11)                 1.4499         estimate D2E/DX2                !
 ! R23   R(9,23)                 1.0964         estimate D2E/DX2                !
 ! R24   R(9,24)                 1.0932         estimate D2E/DX2                !
 ! R25   R(11,25)                1.0163         estimate D2E/DX2                !
 ! A1    A(2,1,5)              119.2753         estimate D2E/DX2                !
 ! A2    A(2,1,14)             119.3908         estimate D2E/DX2                !
 ! A3    A(5,1,14)             121.3337         estimate D2E/DX2                !
 ! A4    A(1,2,10)             120.4513         estimate D2E/DX2                !
 ! A5    A(1,2,15)             122.041          estimate D2E/DX2                !
 ! A6    A(10,2,15)            117.5073         estimate D2E/DX2                !
 ! A7    A(4,3,10)             121.4596         estimate D2E/DX2                !
 ! A8    A(4,3,16)             122.1314         estimate D2E/DX2                !
 ! A9    A(10,3,16)            116.409          estimate D2E/DX2                !
 ! A10   A(3,4,5)              117.5519         estimate D2E/DX2                !
 ! A11   A(3,4,9)              118.2848         estimate D2E/DX2                !
 ! A12   A(5,4,9)              124.1614         estimate D2E/DX2                !
 ! A13   A(1,5,4)              120.2283         estimate D2E/DX2                !
 ! A14   A(1,5,13)             117.2059         estimate D2E/DX2                !
 ! A15   A(4,5,13)             122.564          estimate D2E/DX2                !
 ! A16   A(7,6,11)             113.8211         estimate D2E/DX2                !
 ! A17   A(7,6,12)             122.5258         estimate D2E/DX2                !
 ! A18   A(11,6,12)            123.6418         estimate D2E/DX2                !
 ! A19   A(6,7,17)             109.2436         estimate D2E/DX2                !
 ! A20   A(6,7,18)             109.4826         estimate D2E/DX2                !
 ! A21   A(6,7,19)             110.771          estimate D2E/DX2                !
 ! A22   A(17,7,18)            109.4517         estimate D2E/DX2                !
 ! A23   A(17,7,19)            109.3738         estimate D2E/DX2                !
 ! A24   A(18,7,19)            108.4987         estimate D2E/DX2                !
 ! A25   A(10,8,20)            107.4983         estimate D2E/DX2                !
 ! A26   A(10,8,21)            108.8892         estimate D2E/DX2                !
 ! A27   A(10,8,22)            109.6446         estimate D2E/DX2                !
 ! A28   A(20,8,21)            110.9273         estimate D2E/DX2                !
 ! A29   A(20,8,22)            110.6729         estimate D2E/DX2                !
 ! A30   A(21,8,22)            109.1713         estimate D2E/DX2                !
 ! A31   A(4,9,11)             111.8157         estimate D2E/DX2                !
 ! A32   A(4,9,23)             109.248          estimate D2E/DX2                !
 ! A33   A(4,9,24)             112.9735         estimate D2E/DX2                !
 ! A34   A(11,9,23)            107.3442         estimate D2E/DX2                !
 ! A35   A(11,9,24)            108.5251         estimate D2E/DX2                !
 ! A36   A(23,9,24)            106.6576         estimate D2E/DX2                !
 ! A37   A(2,10,3)             121.0285         estimate D2E/DX2                !
 ! A38   A(2,10,8)             119.6926         estimate D2E/DX2                !
 ! A39   A(3,10,8)             119.2695         estimate D2E/DX2                !
 ! A40   A(6,11,9)             123.0684         estimate D2E/DX2                !
 ! A41   A(6,11,25)            118.7768         estimate D2E/DX2                !
 ! A42   A(9,11,25)            118.1066         estimate D2E/DX2                !
 ! D1    D(5,1,2,10)             0.1161         estimate D2E/DX2                !
 ! D2    D(5,1,2,15)          -179.6456         estimate D2E/DX2                !
 ! D3    D(14,1,2,10)          179.9292         estimate D2E/DX2                !
 ! D4    D(14,1,2,15)            0.1675         estimate D2E/DX2                !
 ! D5    D(2,1,5,4)              0.004          estimate D2E/DX2                !
 ! D6    D(2,1,5,13)           179.5298         estimate D2E/DX2                !
 ! D7    D(14,1,5,4)          -179.8054         estimate D2E/DX2                !
 ! D8    D(14,1,5,13)           -0.2796         estimate D2E/DX2                !
 ! D9    D(1,2,10,3)            -0.5567         estimate D2E/DX2                !
 ! D10   D(1,2,10,8)          -179.437          estimate D2E/DX2                !
 ! D11   D(15,2,10,3)          179.2155         estimate D2E/DX2                !
 ! D12   D(15,2,10,8)            0.3352         estimate D2E/DX2                !
 ! D13   D(10,3,4,5)            -0.7329         estimate D2E/DX2                !
 ! D14   D(10,3,4,9)           179.7392         estimate D2E/DX2                !
 ! D15   D(16,3,4,5)           179.294          estimate D2E/DX2                !
 ! D16   D(16,3,4,9)            -0.2338         estimate D2E/DX2                !
 ! D17   D(4,3,10,2)             0.8791         estimate D2E/DX2                !
 ! D18   D(4,3,10,8)           179.7641         estimate D2E/DX2                !
 ! D19   D(16,3,10,2)         -179.1463         estimate D2E/DX2                !
 ! D20   D(16,3,10,8)           -0.2614         estimate D2E/DX2                !
 ! D21   D(3,4,5,1)              0.2918         estimate D2E/DX2                !
 ! D22   D(3,4,5,13)          -179.2077         estimate D2E/DX2                !
 ! D23   D(9,4,5,1)            179.7893         estimate D2E/DX2                !
 ! D24   D(9,4,5,13)             0.2898         estimate D2E/DX2                !
 ! D25   D(3,4,9,11)           -63.7247         estimate D2E/DX2                !
 ! D26   D(3,4,9,23)            54.9537         estimate D2E/DX2                !
 ! D27   D(3,4,9,24)           173.4959         estimate D2E/DX2                !
 ! D28   D(5,4,9,11)           116.7812         estimate D2E/DX2                !
 ! D29   D(5,4,9,23)          -124.5404         estimate D2E/DX2                !
 ! D30   D(5,4,9,24)            -5.9981         estimate D2E/DX2                !
 ! D31   D(11,6,7,17)           83.3417         estimate D2E/DX2                !
 ! D32   D(11,6,7,18)         -156.8141         estimate D2E/DX2                !
 ! D33   D(11,6,7,19)          -37.2017         estimate D2E/DX2                !
 ! D34   D(12,6,7,17)          -95.4687         estimate D2E/DX2                !
 ! D35   D(12,6,7,18)           24.3755         estimate D2E/DX2                !
 ! D36   D(12,6,7,19)          143.9879         estimate D2E/DX2                !
 ! D37   D(7,6,11,9)          -178.7505         estimate D2E/DX2                !
 ! D38   D(7,6,11,25)           -1.3248         estimate D2E/DX2                !
 ! D39   D(12,6,11,9)            0.0447         estimate D2E/DX2                !
 ! D40   D(12,6,11,25)         177.4704         estimate D2E/DX2                !
 ! D41   D(20,8,10,2)           96.555          estimate D2E/DX2                !
 ! D42   D(20,8,10,3)          -82.345          estimate D2E/DX2                !
 ! D43   D(21,8,10,2)         -143.1996         estimate D2E/DX2                !
 ! D44   D(21,8,10,3)           37.9003         estimate D2E/DX2                !
 ! D45   D(22,8,10,2)          -23.8145         estimate D2E/DX2                !
 ! D46   D(22,8,10,3)          157.2854         estimate D2E/DX2                !
 ! D47   D(4,9,11,6)           -87.581          estimate D2E/DX2                !
 ! D48   D(4,9,11,25)           94.977          estimate D2E/DX2                !
 ! D49   D(23,9,11,6)          152.6161         estimate D2E/DX2                !
 ! D50   D(23,9,11,25)         -24.8258         estimate D2E/DX2                !
 ! D51   D(24,9,11,6)           37.6951         estimate D2E/DX2                !
 ! D52   D(24,9,11,25)        -139.7468         estimate D2E/DX2                !
 --------------------------------------------------------------------------------
 Trust Radius=3.00D-01 FncErr=1.00D-07 GrdErr=1.00D-06
 Number of steps in this run=    129 maximum allowed number of steps=    150.
 GradGradGradGradGradGradGradGradGradGradGradGradGradGradGradGradGradGrad

                          Input orientation:                          
 ---------------------------------------------------------------------
 Center     Atomic      Atomic             Coordinates (Angstroms)
 Number     Number       Type             X           Y           Z
 ---------------------------------------------------------------------
      1          6           0        0.575502   -0.602683    0.773398
      2          6           0        0.651131   -0.865420    2.131933
      3          6           0        2.781476   -1.810582    1.869589
      4          6           0        2.773182   -1.568745    0.493079
      5          6           0        1.641178   -0.956069   -0.048257
      6          6           0        5.522534   -0.059516   -0.459933
      7          6           0        6.816217    0.488991    0.077349
      8          6           0        1.800950   -1.735925    4.094009
      9          6           0        3.971718   -1.991224   -0.312205
     10          7           0        1.743604   -1.453779    2.653078
     11          7           0        5.166421   -1.269902    0.080866
     12          8           0        4.865655    0.521090   -1.320888
     13         17           0        1.485104   -0.615345   -1.734380
     14          1           0       -0.314454   -0.128436    0.371159
     15          1           0       -0.155026   -0.614266    2.812159
     16          1           0        3.617678   -2.292458    2.365958
     17          1           0        7.651405    0.040805   -0.467275
     18          1           0        6.835349    1.574191   -0.055457
     19          1           0        6.918091    0.268027    1.143673
     20          1           0        1.499925   -2.776739    4.237296
     21          1           0        2.823135   -1.573003    4.446190
     22          1           0        1.125802   -1.062039    4.627537
     23          1           0        4.163176   -3.057419   -0.143125
     24          1           0        3.828412   -1.865428   -1.388632
     25          1           0        5.784936   -1.702731    0.761210
 ---------------------------------------------------------------------
                    Distance matrix (angstroms):
                    1          2          3          4          5
     1  C    0.000000
     2  C    1.385773   0.000000
     3  C    2.743534   2.345320   0.000000
     4  C    2.416951   2.771932   1.397617   0.000000
     5  C    1.391281   2.396171   2.389269   1.396370   0.000000
     6  C    5.127306   5.576542   4.000788   3.277949   4.004774
     7  C    6.373599   6.638075   4.977881   4.555573   5.374478
     8  C    3.716506   2.435078   2.432088   3.733615   4.218065
     9  C    3.826338   4.274055   2.491893   1.504480   2.563715
    10  N    2.371081   1.345829   1.348460   2.395588   2.748712
    11  N    4.690557   4.975774   3.029823   2.446799   3.541540
    12  O    4.904520   5.621975   4.467621   3.469342   3.768135
    13  Cl   2.667674   3.963133   4.012202   2.744028   1.727270
    14  H    1.085693   2.139118   3.828798   3.409231   2.164575
    15  H    2.165722   1.084286   3.307969   3.855329   3.394872
    16  H    3.827064   3.300244   1.085274   2.178212   3.394248
    17  H    7.212611   7.522032   5.710059   5.225897   6.106731
    18  H    6.679181   6.998638   5.621065   5.165283   5.777688
    19  H    6.412774   6.444855   4.686059   4.580096   5.546613
    20  H    4.192811   2.967515   2.860397   4.135165   4.658407
    21  H    4.413930   3.251779   2.587867   3.953429   4.688037
    22  H    3.920232   2.547943   3.302704   4.479325   4.705304
    23  H    4.442651   4.723898   2.741298   2.133773   3.284075
    24  H    4.104914   4.846598   3.422731   2.177698   2.721678
    25  H    5.324327   5.379212   3.203265   3.026633   4.287595
                    6          7          8          9         10
     6  C    0.000000
     7  C    1.504376   0.000000
     8  C    6.115466   6.799758   0.000000
     9  C    2.481602   3.793994   4.918550   0.000000
    10  N    5.090690   6.011667   1.469414   3.747832   0.000000
    11  N    1.372703   2.411544   5.258221   1.449871   4.285530
    12  O    1.228754   2.400165   6.618734   2.851015   5.425838
    13  Cl   4.270129   5.737830   5.943532   3.177873   4.474325
    14  H    5.896262   7.163381   4.573683   4.723160   3.346535
    15  H    6.576399   7.569319   2.593666   5.356088   2.082039
    16  H    4.074331   4.817141   2.568344   2.718206   2.073156
    17  H    2.131246   1.093172   7.628231   4.206338   6.846349
    18  H    2.134498   1.093463   7.315743   4.580227   6.513879
    19  H    2.150911   1.093732   6.237422   3.988096   5.658466
    20  H    6.754898   7.498874   1.092905   5.236865   2.078304
    21  H    5.800642   6.267639   1.093360   4.912889   2.096390
    22  H    6.798431   7.449210   1.092977   5.776130   2.105618
    23  H    3.306908   4.434440   5.027899   1.096365   4.030477
    24  H    2.644589   4.076686   5.846941   1.093187   4.566323
    25  H    2.064025   2.516913   5.194304   2.126783   4.469173
                   11         12         13         14         15
    11  N    0.000000
    12  O    2.294128   0.000000
    13  Cl   4.156400   3.590346   0.000000
    14  H    5.605998   5.488027   2.812256   0.000000
    15  H    6.017277   6.601390   4.833326   2.493979   0.000000
    16  H    2.943786   4.802742   4.916640   4.911607   4.153158
    17  H    2.862439   2.952920   6.329247   8.011650   8.492595
    18  H    3.300419   2.567106   6.019799   7.362108   7.866251
    19  H    2.561861   3.217235   6.211351   7.284482   7.320606
    20  H    5.743663   7.286784   6.350807   5.025186   3.073462
    21  H    4.963761   6.466553   6.395849   5.342015   3.529686
    22  H    6.086217   7.202538   6.387693   4.589412   2.266411
    23  H    2.062011   3.832274   3.958268   5.375184   5.774909
    24  H    2.074692   2.603061   2.678309   4.824660   5.922823
    25  H    1.016253   3.182073   5.089100   6.311348   6.377641
                   16         17         18         19         20
    16  H    0.000000
    17  H    5.453648   0.000000
    18  H    5.582798   1.785165   0.000000
    19  H    4.352332   1.784526   1.775056   0.000000
    20  H    2.867283   8.240889   8.113265   6.942451   0.000000
    21  H    2.340146   7.075218   6.802023   5.573570   1.800972
    22  H    3.583032   8.352058   7.840859   6.888904   1.797902
    23  H    2.679222   4.676730   5.347897   4.505995   5.134178
    24  H    3.784668   4.370114   4.759202   4.528832   6.156574
    25  H    2.760435   2.834219   3.536740   2.305256   5.621208
                   21         22         23         24         25
    21  H    0.000000
    22  H    1.781828   0.000000
    23  H    5.006098   5.997199   0.000000
    24  H    5.928005   6.644082   1.756188   0.000000
    25  H    4.729500   6.088226   2.298501   2.911405   0.000000
 Stoichiometry    C9H12ClN2O(1+)
 Framework group  C1[X(C9H12ClN2O)]
 Deg. of freedom    69
 Full point group                 C1      NOp   1
 Largest Abelian subgroup         C1      NOp   1
 Largest concise Abelian subgroup C1      NOp   1
                         Standard orientation:                         
 ---------------------------------------------------------------------
 Center     Atomic      Atomic             Coordinates (Angstroms)
 Number     Number       Type             X           Y           Z
 ---------------------------------------------------------------------
      1          6           0        2.067358    1.190649   -0.618761
      2          6           0        2.801156    0.016301   -0.671811
      3          6           0        1.145934   -1.117988    0.542339
      4          6           0        0.352557    0.029470    0.627343
      5          6           0        0.838472    1.196138    0.033522
      6          6           0       -2.729656   -0.591508   -0.299638
      7          6           0       -3.609609   -1.700512   -0.808502
      8          6           0        3.128462   -2.341066   -0.156740
      9          6           0       -0.959545   -0.063512    1.357551
     10          7           0        2.330856   -1.108215   -0.101252
     11          7           0       -1.876288   -0.977102    0.704052
     12          8           0       -2.794519    0.555808   -0.734720
     13         17           0       -0.025172    2.691325    0.078216
     14          1           0        2.463690    2.088055   -1.083856
     15          1           0        3.766194   -0.037295   -1.163242
     16          1           0        0.845851   -2.061461    0.986892
     17          1           0       -4.480426   -1.798187   -0.154925
     18          1           0       -3.940876   -1.466439   -1.823949
     19          1           0       -3.064766   -2.648607   -0.831109
     20          1           0        3.683751   -2.415716    0.781621
     21          1           0        2.454755   -3.193233   -0.280705
     22          1           0        3.812936   -2.297884   -1.007758
     23          1           0       -0.783460   -0.445687    2.369950
     24          1           0       -1.454921    0.904509    1.469778
     25          1           0       -1.911405   -1.937669    1.033972
 ---------------------------------------------------------------------
 Rotational constants (GHZ):      0.8830265      0.5121413      0.3631649
 Standard basis: 6-31G(d) (6D, 7F)
 There are   223 symmetry adapted basis functions of A   symmetry.
 Integral buffers will be    131072 words long.
 Raffenetti 2 integral format.
 Two-electron integral symmetry is turned on.
   223 basis functions,   436 primitive gaussians,   223 cartesian basis functions
    52 alpha electrons       52 beta electrons
       nuclear repulsion energy       888.2825626705 Hartrees.
 NAtoms=   25 NActive=   25 NUniq=   25 SFac= 1.00D+00 NAtFMM=   60 NAOKFM=F Big=F
 One-electron integrals computed using PRISM.
 NBasis=   223 RedAO= T  NBF=   223
 NBsUse=   223 1.00D-06 NBFU=   223
 Harris functional with IExCor=  402 diagonalized for initial guess.
 ExpMin= 1.43D-01 ExpMax= 2.52D+04 ExpMxC= 3.78D+03 IAcc=3 IRadAn=         5 AccDes= 0.00D+00
 HarFok:  IExCor=  402 AccDes= 0.00D+00 IRadAn=         5 IDoV= 1
 ScaDFX=  1.000000  1.000000  1.000000  1.000000
 FoFCou: FMM=F IPFlag=           0 FMFlag=      100000 FMFlg1=           0
         NFxFlg=           0 DoJE=T BraDBF=F KetDBF=T FulRan=T
         Omega=  0.000000  0.000000  1.000000  0.000000  0.000000 ICntrl=     500 IOpCl=  0
         NMat0=    1 NMatS0=    1 NMatT0=    0 NMatD0=    1 NMtDS0=    0 NMtDT0=    0
         I1Cent=           4 NGrid=           0.
 Petite list used in FoFCou.
 Initial guess orbital symmetries:
       Occupied  (A) (A) (A) (A) (A) (A) (A) (A) (A) (A) (A) (A)
                 (A) (A) (A) (A) (A) (A) (A) (A) (A) (A) (A) (A)
                 (A) (A) (A) (A) (A) (A) (A) (A) (A) (A) (A) (A)
                 (A) (A) (A) (A) (A) (A) (A) (A) (A) (A) (A) (A)
                 (A) (A) (A) (A)
       Virtual   (A) (A) (A) (A) (A) (A) (A) (A) (A) (A) (A) (A)
                 (A) (A) (A) (A) (A) (A) (A) (A) (A) (A) (A) (A)
                 (A) (A) (A) (A) (A) (A) (A) (A) (A) (A) (A) (A)
                 (A) (A) (A) (A) (A) (A) (A) (A) (A) (A) (A) (A)
                 (A) (A) (A) (A) (A) (A) (A) (A) (A) (A) (A) (A)
                 (A) (A) (A) (A) (A) (A) (A) (A) (A) (A) (A) (A)
                 (A) (A) (A) (A) (A) (A) (A) (A) (A) (A) (A) (A)
                 (A) (A) (A) (A) (A) (A) (A) (A) (A) (A) (A) (A)
                 (A) (A) (A) (A) (A) (A) (A) (A) (A) (A) (A) (A)
                 (A) (A) (A) (A) (A) (A) (A) (A) (A) (A) (A) (A)
                 (A) (A) (A) (A) (A) (A) (A) (A) (A) (A) (A) (A)
                 (A) (A) (A) (A) (A) (A) (A) (A) (A) (A) (A) (A)
                 (A) (A) (A) (A) (A) (A) (A) (A) (A) (A) (A) (A)
                 (A) (A) (A) (A) (A) (A) (A) (A) (A) (A) (A) (A)
                 (A) (A) (A)
 The electronic state of the initial guess is 1-A.
 Requested convergence on RMS density matrix=1.00D-08 within 128 cycles.
 Requested convergence on MAX density matrix=1.00D-06.
 Requested convergence on             energy=1.00D-06.
 No special actions if energy rises.
 Integral accuracy reduced to 1.0D-05 until final iterations.
 EnCoef did     2 forward-backward iterations
 Initial convergence to 1.0D-05 achieved.  Increase integral accuracy.
 SCF Done:  E(RB3LYP) =  -994.885775129     A.U. after   17 cycles
             Convg  =    0.5276D-08             -V/T =  2.0065
 Calling FoFJK, ICntrl=      2127 FMM=F ISym2X=0 I1Cent= 0 IOpClX= 0 NMat=1 NMatS=1 NMatT=0.
 ***** Axes restored to original set *****
 -------------------------------------------------------------------
 Center     Atomic                   Forces (Hartrees/Bohr)
 Number     Number              X              Y              Z
 -------------------------------------------------------------------
      1        6          -0.007232462    0.000866609    0.012852764
      2        6          -0.007888856    0.005800622   -0.010971587
      3        6          -0.002244885    0.003789720   -0.013199924
      4        6           0.002040836   -0.006767023    0.008778597
      5        6          -0.006194055    0.005051489   -0.012120862
      6        6          -0.002434953    0.016883843   -0.014006217
      7        6           0.001590415    0.003895447    0.004590735
      8        6           0.000776402   -0.002843499    0.005958360
      9        6           0.015462165   -0.005817958   -0.006325445
     10        7           0.003425785    0.002090931    0.002255696
     11        7          -0.000222564   -0.008220720    0.007401749
     12        8          -0.001426774   -0.013432885    0.010724070
     13       17           0.002585320   -0.001705427    0.002794935
     14        1           0.001582768   -0.000449956    0.000238255
     15        1           0.001465037   -0.000249226    0.000366174
     16        1          -0.000682954    0.001054930   -0.000730726
     17        1           0.002970518    0.000833972    0.000425745
     18        1           0.000470035   -0.002292105   -0.002051749
     19        1           0.004006126   -0.000671815    0.001065103
     20        1           0.000579047    0.000412087    0.004816645
     21        1          -0.002183530   -0.001425131    0.000652542
     22        1           0.001013717   -0.002096440   -0.001115669
     23        1          -0.001852666   -0.000104372   -0.000198265
     24        1          -0.003931648    0.002838215    0.002681169
     25        1          -0.001672823    0.002558691   -0.004882095
 -------------------------------------------------------------------
 Cartesian Forces:  Max     0.016883843 RMS     0.005723340

 GradGradGradGradGradGradGradGradGradGradGradGradGradGradGradGradGradGrad
 Berny optimization.
 Internal  Forces:  Max     0.017602069 RMS     0.004230837
 Search for a local minimum.
 Step number   1 out of a maximum of  129
 All quantities printed in internal units (Hartrees-Bohrs-Radians)
 Mixed Optimization -- RFO/linear search
 Second derivative matrix not updated -- first step.
 ITU=  0
     Eigenvalues ---    0.00707   0.00708   0.00774   0.01032   0.01255
     Eigenvalues ---    0.01447   0.01546   0.01746   0.02053   0.02148
     Eigenvalues ---    0.02169   0.02239   0.02240   0.02247   0.02337
     Eigenvalues ---    0.02374   0.05096   0.06579   0.07361   0.07504
     Eigenvalues ---    0.07623   0.07764   0.09996   0.13265   0.15990
     Eigenvalues ---    0.16000   0.16000   0.16000   0.16000   0.16000
     Eigenvalues ---    0.16000   0.16000   0.16000   0.16000   0.21957
     Eigenvalues ---    0.22002   0.22367   0.23500   0.24594   0.24995
     Eigenvalues ---    0.24995   0.24999   0.24999   0.25000   0.31912
     Eigenvalues ---    0.31922   0.32799   0.34087   0.34385   0.34415
     Eigenvalues ---    0.34427   0.34447   0.34449   0.34471   0.34479
     Eigenvalues ---    0.35315   0.35365   0.35481   0.35810   0.38262
     Eigenvalues ---    0.42842   0.43925   0.44941   0.46491   0.47498
     Eigenvalues ---    0.50461   0.53395   0.55019   0.91607
 RFO step:  Lambda=-9.04895120D-03 EMin= 7.06685024D-03
 Linear search not attempted -- first point.
 Iteration  1 RMS(Cart)=  0.10774411 RMS(Int)=  0.00609073
 Iteration  2 RMS(Cart)=  0.01165016 RMS(Int)=  0.00020189
 Iteration  3 RMS(Cart)=  0.00011467 RMS(Int)=  0.00019657
 Iteration  4 RMS(Cart)=  0.00000001 RMS(Int)=  0.00019657
 Variable       Old X    -DE/DX   Delta X   Delta X   Delta X     New X
                                 (Linear)    (Quad)   (Total)
    R1        2.61873  -0.00561   0.00000  -0.01114  -0.01117   2.60756
    R2        2.62914   0.00989   0.00000   0.02105   0.02103   2.65017
    R3        2.05166  -0.00158   0.00000  -0.00437  -0.00437   2.04729
    R4        2.54325   0.00844   0.00000   0.01476   0.01475   2.55799
    R5        2.04900  -0.00092   0.00000  -0.00252  -0.00252   2.04648
    R6        2.64111  -0.00737   0.00000  -0.01607  -0.01604   2.62507
    R7        2.54822   0.00595   0.00000   0.01020   0.01023   2.55845
    R8        2.05087  -0.00133   0.00000  -0.00366  -0.00366   2.04721
    R9        2.63876   0.01101   0.00000   0.02348   0.02349   2.66224
   R10        2.84306   0.01162   0.00000   0.03541   0.03541   2.87847
   R11        3.26407  -0.00330   0.00000  -0.00979  -0.00979   3.25428
   R12        2.84286   0.00986   0.00000   0.03002   0.03002   2.87288
   R13        2.59403   0.00565   0.00000   0.01099   0.01099   2.60503
   R14        2.32201  -0.01310   0.00000  -0.01416  -0.01416   2.30785
   R15        2.06580   0.00172   0.00000   0.00485   0.00485   2.07065
   R16        2.06635  -0.00202   0.00000  -0.00571  -0.00571   2.06063
   R17        2.06685   0.00155   0.00000   0.00439   0.00439   2.07124
   R18        2.77679   0.01126   0.00000   0.03067   0.03067   2.80746
   R19        2.06529   0.00008   0.00000   0.00022   0.00022   2.06551
   R20        2.06615  -0.00204   0.00000  -0.00578  -0.00578   2.06037
   R21        2.06543  -0.00246   0.00000  -0.00696  -0.00696   2.05847
   R22        2.73986   0.00337   0.00000   0.00860   0.00860   2.74846
   R23        2.07183  -0.00025   0.00000  -0.00072  -0.00072   2.07111
   R24        2.06582  -0.00180   0.00000  -0.00509  -0.00509   2.06074
   R25        1.92044  -0.00538   0.00000  -0.01173  -0.01173   1.90871
    A1        2.08175   0.00063   0.00000   0.00383   0.00379   2.08553
    A2        2.08376   0.00012   0.00000   0.00068   0.00070   2.08446
    A3        2.11767  -0.00075   0.00000  -0.00450  -0.00448   2.11319
    A4        2.10227   0.00018   0.00000   0.00066   0.00063   2.10290
    A5        2.13002   0.00108   0.00000   0.00661   0.00662   2.13664
    A6        2.05089  -0.00126   0.00000  -0.00727  -0.00726   2.04363
    A7        2.11987   0.00581   0.00000   0.02313   0.02320   2.14307
    A8        2.13160  -0.00314   0.00000  -0.01299  -0.01303   2.11857
    A9        2.03172  -0.00266   0.00000  -0.01014  -0.01018   2.02154
   A10        2.05167  -0.00368   0.00000  -0.01512  -0.01518   2.03649
   A11        2.06446   0.00359   0.00000   0.01441   0.01425   2.07871
   A12        2.16703   0.00010   0.00000   0.00093   0.00077   2.16780
   A13        2.09838  -0.00030   0.00000  -0.00063  -0.00065   2.09773
   A14        2.04563   0.00432   0.00000   0.01646   0.01644   2.06207
   A15        2.13915  -0.00402   0.00000  -0.01574  -0.01576   2.12339
   A16        1.98655   0.00959   0.00000   0.03708   0.03707   2.02362
   A17        2.13848   0.00801   0.00000   0.03097   0.03097   2.16945
   A18        2.15796  -0.01760   0.00000  -0.06792  -0.06793   2.09003
   A19        1.90666   0.00247   0.00000   0.01072   0.01059   1.91725
   A20        1.91083  -0.00201   0.00000  -0.01228  -0.01233   1.89850
   A21        1.93332   0.00495   0.00000   0.03353   0.03338   1.96670
   A22        1.91029  -0.00203   0.00000  -0.02068  -0.02070   1.88959
   A23        1.90893  -0.00360   0.00000  -0.02041  -0.02064   1.88829
   A24        1.89366   0.00013   0.00000   0.00843   0.00836   1.90202
   A25        1.87620   0.00697   0.00000   0.04249   0.04232   1.91852
   A26        1.90048   0.00135   0.00000   0.00800   0.00783   1.90830
   A27        1.91366  -0.00128   0.00000  -0.00884  -0.00883   1.90482
   A28        1.93605  -0.00342   0.00000  -0.01752  -0.01786   1.91819
   A29        1.93161  -0.00288   0.00000  -0.01716  -0.01715   1.91446
   A30        1.90540  -0.00059   0.00000  -0.00604  -0.00604   1.89936
   A31        1.95155   0.00573   0.00000   0.02424   0.02338   1.97494
   A32        1.90674   0.00005   0.00000   0.01911   0.01802   1.92476
   A33        1.97176  -0.00754   0.00000  -0.07048  -0.07050   1.90126
   A34        1.87351   0.00049   0.00000   0.03195   0.03097   1.90448
   A35        1.89412  -0.00032   0.00000  -0.01169  -0.01193   1.88219
   A36        1.86153   0.00178   0.00000   0.01130   0.01149   1.87301
   A37        2.11235  -0.00264   0.00000  -0.01175  -0.01173   2.10062
   A38        2.08903   0.00153   0.00000   0.00665   0.00663   2.09566
   A39        2.08165   0.00110   0.00000   0.00498   0.00496   2.08660
   A40        2.14795  -0.01075   0.00000  -0.04720  -0.04741   2.10054
   A41        2.07305   0.00422   0.00000   0.01615   0.01596   2.08900
   A42        2.06135   0.00649   0.00000   0.02965   0.02944   2.09079
    D1        0.00203  -0.00009   0.00000  -0.00200  -0.00205  -0.00002
    D2       -3.13541  -0.00002   0.00000  -0.00125  -0.00130  -3.13670
    D3        3.14036   0.00005   0.00000   0.00316   0.00315  -3.13968
    D4        0.00292   0.00012   0.00000   0.00392   0.00390   0.00682
    D5        0.00007  -0.00018   0.00000  -0.00452  -0.00458  -0.00452
    D6        3.13339   0.00014   0.00000   0.00626   0.00632   3.13971
    D7       -3.13820  -0.00033   0.00000  -0.00980  -0.00988   3.13511
    D8       -0.00488   0.00000   0.00000   0.00098   0.00103  -0.00385
    D9       -0.00972   0.00041   0.00000   0.01022   0.01018   0.00047
   D10       -3.13177   0.00060   0.00000   0.01751   0.01746  -3.11431
   D11        3.12790   0.00035   0.00000   0.00952   0.00950   3.13740
   D12        0.00585   0.00054   0.00000   0.01682   0.01678   0.02263
   D13       -0.01279   0.00008   0.00000   0.00475   0.00474  -0.00805
   D14        3.13704  -0.00061   0.00000  -0.02313  -0.02309   3.11395
   D15        3.12927   0.00025   0.00000   0.00942   0.00938   3.13865
   D16       -0.00408  -0.00045   0.00000  -0.01846  -0.01845  -0.02253
   D17        0.01534  -0.00035   0.00000  -0.01151  -0.01155   0.00380
   D18        3.13747  -0.00053   0.00000  -0.01875  -0.01877   3.11871
   D19       -3.12669  -0.00051   0.00000  -0.01592  -0.01595   3.14054
   D20       -0.00456  -0.00069   0.00000  -0.02317  -0.02317  -0.02773
   D21        0.00509   0.00017   0.00000   0.00307   0.00317   0.00827
   D22       -3.12777  -0.00022   0.00000  -0.00847  -0.00828  -3.13605
   D23        3.13792   0.00092   0.00000   0.03281   0.03264  -3.11263
   D24        0.00506   0.00053   0.00000   0.02127   0.02119   0.02624
   D25       -1.11221  -0.00159   0.00000  -0.02353  -0.02351  -1.13571
   D26        0.95912   0.00259   0.00000   0.04345   0.04379   1.00292
   D27        3.02808   0.00012   0.00000   0.02622   0.02614   3.05422
   D28        2.03822  -0.00232   0.00000  -0.05333  -0.05350   1.98471
   D29       -2.17364   0.00186   0.00000   0.01365   0.01380  -2.15984
   D30       -0.10469  -0.00061   0.00000  -0.00358  -0.00385  -0.10854
   D31        1.45459   0.00084   0.00000   0.01422   0.01440   1.46898
   D32       -2.73692  -0.00136   0.00000  -0.01195  -0.01188  -2.74880
   D33       -0.64929   0.00060   0.00000   0.01152   0.01156  -0.63773
   D34       -1.66624   0.00083   0.00000   0.00780   0.00779  -1.65846
   D35        0.42543  -0.00137   0.00000  -0.01837  -0.01849   0.40695
   D36        2.51306   0.00059   0.00000   0.00511   0.00495   2.51801
   D37       -3.11978   0.00200   0.00000   0.07361   0.07367  -3.04611
   D38       -0.02312   0.00115   0.00000   0.03716   0.03740   0.01428
   D39        0.00078   0.00236   0.00000   0.08147   0.08123   0.08201
   D40        3.09744   0.00151   0.00000   0.04503   0.04496  -3.14078
   D41        1.68520  -0.00037   0.00000  -0.00707  -0.00724   1.67796
   D42       -1.43719  -0.00014   0.00000   0.00028   0.00017  -1.43702
   D43       -2.49930   0.00034   0.00000   0.00108   0.00119  -2.49812
   D44        0.66149   0.00056   0.00000   0.00843   0.00860   0.67008
   D45       -0.41564  -0.00033   0.00000  -0.00670  -0.00673  -0.42237
   D46        2.74515  -0.00011   0.00000   0.00065   0.00068   2.74583
   D47       -1.52858   0.00420   0.00000   0.10200   0.10231  -1.42626
   D48        1.65766   0.00510   0.00000   0.13853   0.13895   1.79661
   D49        2.66365   0.00045   0.00000   0.04381   0.04339   2.70705
   D50       -0.43329   0.00134   0.00000   0.08033   0.08003  -0.35326
   D51        0.65790  -0.00172   0.00000   0.02002   0.01996   0.67786
   D52       -2.43904  -0.00082   0.00000   0.05655   0.05659  -2.38245
         Item               Value     Threshold  Converged?
 Maximum Force            0.017602     0.000450     NO 
 RMS     Force            0.004231     0.000300     NO 
 Maximum Displacement     0.456837     0.001800     NO 
 RMS     Displacement     0.114146     0.001200     NO 
 Predicted change in Energy=-4.984540D-03
 GradGradGradGradGradGradGradGradGradGradGradGradGradGradGradGradGradGrad

                          Input orientation:                          
 ---------------------------------------------------------------------
 Center     Atomic      Atomic             Coordinates (Angstroms)
 Number     Number       Type             X           Y           Z
 ---------------------------------------------------------------------
      1          6           0        0.611306   -0.554019    0.762566
      2          6           0        0.643543   -0.823604    2.115453
      3          6           0        2.748496   -1.841480    1.890182
      4          6           0        2.797178   -1.604179    0.522338
      5          6           0        1.688689   -0.945592   -0.045314
      6          6           0        5.490860   -0.064055   -0.389309
      7          6           0        6.835890    0.542033   -0.022225
      8          6           0        1.714231   -1.777404    4.115145
      9          6           0        4.029801   -2.036569   -0.261166
     10          7           0        1.704526   -1.460883    2.663642
     11          7           0        5.233771   -1.317296    0.124123
     12          8           0        4.662792    0.479841   -1.103423
     13         17           0        1.610999   -0.594334   -1.729411
     14          1           0       -0.245587   -0.041463    0.342165
     15          1           0       -0.163785   -0.546719    2.782040
     16          1           0        3.558232   -2.344727    2.404659
     17          1           0        7.608047    0.177715   -0.709023
     18          1           0        6.771933    1.625849   -0.123779
     19          1           0        7.144690    0.297483    1.000599
     20          1           0        1.374610   -2.803988    4.274773
     21          1           0        2.725464   -1.656218    4.504339
     22          1           0        1.052117   -1.086637    4.635730
     23          1           0        4.199686   -3.112363   -0.138749
     24          1           0        3.856662   -1.853987   -1.322234
     25          1           0        5.918951   -1.766008    0.715209
 ---------------------------------------------------------------------
                    Distance matrix (angstroms):
                    1          2          3          4          5
     1  C    0.000000
     2  C    1.379862   0.000000
     3  C    2.738003   2.348967   0.000000
     4  C    2.436920   2.790243   1.389129   0.000000
     5  C    1.402409   2.403357   2.381587   1.408799   0.000000
     6  C    5.037551   5.508832   3.984455   3.234039   3.918156
     7  C    6.368883   6.691770   5.103452   4.605863   5.357914
     8  C    3.735358   2.460666   2.454439   3.756467   4.242875
     9  C    3.864206   4.311189   2.511594   1.523221   2.591840
    10  N    2.373104   1.353632   1.353872   2.408237   2.757575
    11  N    4.728359   5.027854   3.093594   2.485530   3.568540
    12  O    4.578790   5.311731   4.244377   3.235236   3.463632
    13  Cl   2.685323   3.971336   3.993837   2.738098   1.722092
    14  H    1.083382   2.132333   3.821119   3.425341   2.170025
    15  H    2.163122   1.082951   3.309562   3.871922   3.403629
    16  H    3.819356   3.300434   1.083335   2.161191   3.384545
    17  H    7.187168   7.581861   5.869263   5.275970   6.061446
    18  H    6.594751   6.969299   5.680357   5.162289   5.697178
    19  H    6.592937   6.690639   4.969210   4.769268   5.692726
    20  H    4.240353   3.019776   2.915521   4.188558   4.713326
    21  H    4.436820   3.276343   2.620814   3.982987   4.720089
    22  H    3.934386   2.566694   3.314441   4.498119   4.726234
    23  H    4.498218   4.792285   2.799582   2.163027   3.317941
    24  H    4.070459   4.817002   3.398207   2.141812   2.675035
    25  H    5.444470   5.538839   3.382017   3.131909   4.375682
                    6          7          8          9         10
     6  C    0.000000
     7  C    1.520263   0.000000
     8  C    6.122793   6.980617   0.000000
     9  C    2.458032   3.818431   4.957937   0.000000
    10  N    5.060431   6.128332   1.485645   3.780586   0.000000
    11  N    1.378521   2.458721   5.341079   1.454422   4.350327
    12  O    1.221262   2.428006   6.404890   2.728075   5.168030
    13  Cl   4.138888   5.612959   5.963987   3.175908   4.478680
    14  H    5.782939   7.114813   4.592358   4.756406   3.347678
    15  H    6.501187   7.618710   2.611264   5.391376   2.083339
    16  H    4.091793   4.996618   2.578364   2.724696   2.069898
    17  H    2.154797   1.095740   7.863343   4.231722   6.993671
    18  H    2.137154   1.090441   7.425022   4.577277   6.555627
    19  H    2.190367   1.096052   6.595108   4.091746   5.954238
    20  H    6.797383   7.712693   1.093023   5.311660   2.123327
    21  H    5.842105   6.497514   1.090299   4.955402   2.113915
    22  H    6.782265   7.602705   1.089293   5.809351   2.110645
    23  H    3.319953   4.507522   5.104432   1.095983   4.099587
    24  H    2.597077   4.038160   5.844739   1.090495   4.546805
    25  H    2.073611   2.590683   5.407344   2.143688   4.653050
                   11         12         13         14         15
    11  N    0.000000
    12  O    2.250020   0.000000
    13  Cl   4.133127   3.295323   0.000000
    14  H    5.630155   5.143312   2.836195   0.000000
    15  H    6.065635   6.280645   4.848228   2.492983   0.000000
    16  H    3.010630   4.637336   4.893478   4.901831   4.150743
    17  H    2.926838   2.986865   6.132034   7.926702   8.550655
    18  H    3.330090   2.592588   5.843159   7.227905   7.827389
    19  H    2.650913   3.258832   6.234584   7.427289   7.569678
    20  H    5.859290   7.107790   6.402240   5.071685   3.112905
    21  H    5.058929   6.305790   6.421002   5.362674   3.541902
    22  H    6.155812   6.959073   6.408567   4.605553   2.281687
    23  H    2.088228   3.748198   3.946134   5.424219   5.844093
    24  H    2.067949   2.478806   2.606822   4.783713   5.892199
    25  H    1.010048   3.151063   5.089935   6.412077   6.538971
                   16         17         18         19         20
    16  H    0.000000
    17  H    5.697257   0.000000
    18  H    5.699680   1.771635   0.000000
    19  H    4.670690   1.775345   1.779812   0.000000
    20  H    2.911435   8.519655   8.252382   7.323467   0.000000
    21  H    2.361399   7.374420   6.968884   5.968475   1.787424
    22  H    3.583444   8.552495   7.920025   7.228375   1.784260
    23  H    2.733067   4.771451   5.391412   4.647388   5.249318
    24  H    3.770891   4.310074   4.695142   4.564593   6.195933
    25  H    2.960093   2.942710   3.596689   2.416999   5.865061
                   21         22         23         24         25
    21  H    0.000000
    22  H    1.772505   0.000000
    23  H    5.084482   6.066828   0.000000
    24  H    5.938660   6.629602   1.761196   0.000000
    25  H    4.956604   6.286342   2.344736   2.900336   0.000000
 Stoichiometry    C9H12ClN2O(1+)
 Framework group  C1[X(C9H12ClN2O)]
 Deg. of freedom    69
 Full point group                 C1      NOp   1
 Largest Abelian subgroup         C1      NOp   1
 Largest concise Abelian subgroup C1      NOp   1
                         Standard orientation:                         
 ---------------------------------------------------------------------
 Center     Atomic      Atomic             Coordinates (Angstroms)
 Number     Number       Type             X           Y           Z
 ---------------------------------------------------------------------
      1          6           0        2.000873    1.246485   -0.631548
      2          6           0        2.783657    0.112284   -0.701229
      3          6           0        1.198926   -1.091182    0.546948
      4          6           0        0.350202    0.002740    0.659561
      5          6           0        0.777720    1.200212    0.052929
      6          6           0       -2.661236   -0.637902   -0.330301
      7          6           0       -3.673633   -1.635511   -0.869771
      8          6           0        3.244644   -2.244829   -0.166079
      9          6           0       -0.974858   -0.160062    1.392987
     10          7           0        2.378705   -1.038723   -0.115123
     11          7           0       -1.889444   -1.073118    0.725751
     12          8           0       -2.513925    0.494914   -0.762163
     13         17           0       -0.170088    2.636406    0.120785
     14          1           0        2.340761    2.157997   -1.108346
     15          1           0        3.737779    0.095886   -1.213251
     16          1           0        0.946801   -2.048521    0.986892
     17          1           0       -4.591063   -1.594731   -0.272022
     18          1           0       -3.922019   -1.363323   -1.896066
     19          1           0       -3.300881   -2.666120   -0.854606
     20          1           0        3.836089   -2.317688    0.750208
     21          1           0        2.621255   -3.132423   -0.277056
     22          1           0        3.908517   -2.171735   -1.026597
     23          1           0       -0.801730   -0.510042    2.417058
     24          1           0       -1.463679    0.812389    1.460599
     25          1           0       -2.011526   -2.010428    1.081760
 ---------------------------------------------------------------------
 Rotational constants (GHZ):      0.9018617      0.5129550      0.3700489
 Standard basis: 6-31G(d) (6D, 7F)
 There are   223 symmetry adapted basis functions of A   symmetry.
 Integral buffers will be    131072 words long.
 Raffenetti 2 integral format.
 Two-electron integral symmetry is turned on.
   223 basis functions,   436 primitive gaussians,   223 cartesian basis functions
    52 alpha electrons       52 beta electrons
       nuclear repulsion energy       891.0023343921 Hartrees.
 NAtoms=   25 NActive=   25 NUniq=   25 SFac= 1.00D+00 NAtFMM=   60 NAOKFM=F Big=F
 One-electron integrals computed using PRISM.
 NBasis=   223 RedAO= T  NBF=   223
 NBsUse=   223 1.00D-06 NBFU=   223
 Initial guess read from the read-write file.
 B after Tr=     0.000000    0.000000    0.000000
         Rot=    1.000000    0.000000    0.000000    0.000000 Ang=   0.00 deg.
 Initial guess orbital symmetries:
       Occupied  (A) (A) (A) (A) (A) (A) (A) (A) (A) (A) (A) (A)
                 (A) (A) (A) (A) (A) (A) (A) (A) (A) (A) (A) (A)
                 (A) (A) (A) (A) (A) (A) (A) (A) (A) (A) (A) (A)
                 (A) (A) (A) (A) (A) (A) (A) (A) (A) (A) (A) (A)
                 (A) (A) (A) (A)
       Virtual   (A) (A) (A) (A) (A) (A) (A) (A) (A) (A) (A) (A)
                 (A) (A) (A) (A) (A) (A) (A) (A) (A) (A) (A) (A)
                 (A) (A) (A) (A) (A) (A) (A) (A) (A) (A) (A) (A)
                 (A) (A) (A) (A) (A) (A) (A) (A) (A) (A) (A) (A)
                 (A) (A) (A) (A) (A) (A) (A) (A) (A) (A) (A) (A)
                 (A) (A) (A) (A) (A) (A) (A) (A) (A) (A) (A) (A)
                 (A) (A) (A) (A) (A) (A) (A) (A) (A) (A) (A) (A)
                 (A) (A) (A) (A) (A) (A) (A) (A) (A) (A) (A) (A)
                 (A) (A) (A) (A) (A) (A) (A) (A) (A) (A) (A) (A)
                 (A) (A) (A) (A) (A) (A) (A) (A) (A) (A) (A) (A)
                 (A) (A) (A) (A) (A) (A) (A) (A) (A) (A) (A) (A)
                 (A) (A) (A) (A) (A) (A) (A) (A) (A) (A) (A) (A)
                 (A) (A) (A) (A) (A) (A) (A) (A) (A) (A) (A) (A)
                 (A) (A) (A) (A) (A) (A) (A) (A) (A) (A) (A) (A)
                 (A) (A) (A)
 Harris functional with IExCor=  402 diagonalized for initial guess.
 ExpMin= 1.43D-01 ExpMax= 2.52D+04 ExpMxC= 3.78D+03 IAcc=3 IRadAn=         5 AccDes= 0.00D+00
 HarFok:  IExCor=  402 AccDes= 0.00D+00 IRadAn=         5 IDoV= 1
 ScaDFX=  1.000000  1.000000  1.000000  1.000000
 FoFCou: FMM=F IPFlag=           0 FMFlag=      100000 FMFlg1=           0
         NFxFlg=           0 DoJE=T BraDBF=F KetDBF=T FulRan=T
         Omega=  0.000000  0.000000  1.000000  0.000000  0.000000 ICntrl=     500 IOpCl=  0
         NMat0=    1 NMatS0=    1 NMatT0=    0 NMatD0=    1 NMtDS0=    0 NMtDT0=    0
         I1Cent=           4 NGrid=           0.
 Petite list used in FoFCou.
 Requested convergence on RMS density matrix=1.00D-08 within 128 cycles.
 Requested convergence on MAX density matrix=1.00D-06.
 Requested convergence on             energy=1.00D-06.
 No special actions if energy rises.
 Integral accuracy reduced to 1.0D-05 until final iterations.
 Initial convergence to 1.0D-05 achieved.  Increase integral accuracy.
 SCF Done:  E(RB3LYP) =  -994.890639146     A.U. after   13 cycles
             Convg  =    0.6614D-08             -V/T =  2.0066
 Calling FoFJK, ICntrl=      2127 FMM=F ISym2X=0 I1Cent= 0 IOpClX= 0 NMat=1 NMatS=1 NMatT=0.
 ***** Axes restored to original set *****
 -------------------------------------------------------------------
 Center     Atomic                   Forces (Hartrees/Bohr)
 Number     Number              X              Y              Z
 -------------------------------------------------------------------
      1        6           0.000379815   -0.000880089    0.002953761
      2        6          -0.001279443    0.000910792   -0.002918234
      3        6          -0.000646465    0.000970692   -0.002869446
      4        6           0.000403097   -0.000805167    0.003463422
      5        6          -0.001275295    0.002664102   -0.005523521
      6        6          -0.000787083    0.002598757   -0.000624518
      7        6          -0.002001265   -0.000742585    0.000467207
      8        6          -0.000068066    0.000087292    0.000152031
      9        6           0.005564157    0.000712896   -0.004400361
     10        7           0.001191757   -0.001253358    0.003363100
     11        7          -0.000052780   -0.004639218    0.006115419
     12        8           0.000191818    0.002485732   -0.000005681
     13       17          -0.001505147   -0.001219503    0.002546856
     14        1           0.000335176    0.000169378   -0.000640646
     15        1           0.000261744    0.000040140    0.000480117
     16        1           0.000609049    0.000104116    0.000359135
     17        1           0.000004001   -0.000197125   -0.000246447
     18        1          -0.000361774    0.000286038   -0.000727102
     19        1          -0.000223854   -0.000856578   -0.000705031
     20        1          -0.000101775    0.000035474   -0.001002134
     21        1           0.000475652   -0.000027771   -0.000694425
     22        1          -0.000550833    0.000354532   -0.000373621
     23        1          -0.000446493    0.001333687    0.002226525
     24        1          -0.000729739   -0.000390178   -0.000051322
     25        1           0.000613746   -0.001742055   -0.001345082
 -------------------------------------------------------------------
 Cartesian Forces:  Max     0.006115419 RMS     0.001840166

 GradGradGradGradGradGradGradGradGradGradGradGradGradGradGradGradGradGrad
 Berny optimization.
 Using GEDIIS/GDIIS optimizer.
 Internal  Forces:  Max     0.003412984 RMS     0.001140074
 Search for a local minimum.
 Step number   2 out of a maximum of  129
 All quantities printed in internal units (Hartrees-Bohrs-Radians)
 Mixed Optimization -- RFO/linear search
 Update second derivatives using D2CorX and points    1    2
 DE= -4.86D-03 DEPred=-4.98D-03 R= 9.76D-01
 SS=  1.41D+00  RLast= 3.15D-01 DXNew= 5.0454D-01 9.4517D-01
 Trust test= 9.76D-01 RLast= 3.15D-01 DXMaxT set to 5.05D-01
 ITU=  1  0
 Use linear search instead of GDIIS.
     Eigenvalues ---    0.00696   0.00708   0.00774   0.00943   0.01215
     Eigenvalues ---    0.01451   0.01545   0.01740   0.01994   0.02144
     Eigenvalues ---    0.02184   0.02239   0.02241   0.02247   0.02336
     Eigenvalues ---    0.02372   0.05419   0.06558   0.07077   0.07477
     Eigenvalues ---    0.07513   0.07622   0.10010   0.13168   0.15836
     Eigenvalues ---    0.15974   0.16000   0.16000   0.16000   0.16000
     Eigenvalues ---    0.16000   0.16000   0.16000   0.16528   0.21181
     Eigenvalues ---    0.22133   0.22341   0.23373   0.24585   0.24926
     Eigenvalues ---    0.24991   0.24997   0.24999   0.27635   0.31439
     Eigenvalues ---    0.32486   0.33184   0.34098   0.34392   0.34421
     Eigenvalues ---    0.34437   0.34445   0.34455   0.34479   0.34563
     Eigenvalues ---    0.35316   0.35376   0.35483   0.36729   0.39192
     Eigenvalues ---    0.42881   0.43161   0.45026   0.46413   0.47403
     Eigenvalues ---    0.50223   0.53282   0.54959   0.91964
 RFO step:  Lambda=-2.58527841D-03 EMin= 6.95705220D-03
 Quartic linear search produced a step of  0.06965.
 Iteration  1 RMS(Cart)=  0.12488517 RMS(Int)=  0.00758077
 Iteration  2 RMS(Cart)=  0.01130668 RMS(Int)=  0.00006765
 Iteration  3 RMS(Cart)=  0.00010223 RMS(Int)=  0.00004323
 Iteration  4 RMS(Cart)=  0.00000001 RMS(Int)=  0.00004323
 Variable       Old X    -DE/DX   Delta X   Delta X   Delta X     New X
                                 (Linear)    (Quad)   (Total)
    R1        2.60756  -0.00167  -0.00078  -0.00547  -0.00626   2.60131
    R2        2.65017   0.00010   0.00146   0.00368   0.00516   2.65533
    R3        2.04729   0.00006  -0.00030  -0.00051  -0.00082   2.04648
    R4        2.55799   0.00105   0.00103   0.00422   0.00522   2.56321
    R5        2.04648   0.00011  -0.00018  -0.00008  -0.00026   2.04623
    R6        2.62507  -0.00201  -0.00112  -0.00707  -0.00818   2.61689
    R7        2.55845   0.00000   0.00071   0.00159   0.00228   2.56073
    R8        2.04721   0.00058  -0.00026   0.00111   0.00085   2.04806
    R9        2.66224   0.00341   0.00164   0.01160   0.01326   2.67550
   R10        2.87847   0.00140   0.00247   0.01020   0.01267   2.89114
   R11        3.25428  -0.00267  -0.00068  -0.01002  -0.01070   3.24358
   R12        2.87288  -0.00318   0.00209  -0.00553  -0.00344   2.86944
   R13        2.60503   0.00334   0.00077   0.00866   0.00943   2.61446
   R14        2.30785   0.00098  -0.00099  -0.00118  -0.00216   2.30569
   R15        2.07065   0.00022   0.00034   0.00145   0.00179   2.07243
   R16        2.06063   0.00037  -0.00040   0.00021  -0.00019   2.06045
   R17        2.07124  -0.00053   0.00031  -0.00090  -0.00059   2.07065
   R18        2.80746  -0.00197   0.00214  -0.00080   0.00134   2.80880
   R19        2.06551  -0.00015   0.00002  -0.00041  -0.00039   2.06512
   R20        2.06037   0.00019  -0.00040  -0.00035  -0.00076   2.05961
   R21        2.05847   0.00038  -0.00048   0.00003  -0.00045   2.05801
   R22        2.74846  -0.00278   0.00060  -0.00616  -0.00557   2.74289
   R23        2.07111  -0.00113  -0.00005  -0.00355  -0.00360   2.06750
   R24        2.06074   0.00010  -0.00035  -0.00051  -0.00087   2.05987
   R25        1.90871   0.00040  -0.00082  -0.00095  -0.00177   1.90694
    A1        2.08553   0.00092   0.00026   0.00480   0.00510   2.09064
    A2        2.08446   0.00027   0.00005   0.00272   0.00274   2.08720
    A3        2.11319  -0.00119  -0.00031  -0.00751  -0.00784   2.10535
    A4        2.10290   0.00009   0.00004  -0.00007  -0.00003   2.10287
    A5        2.13664   0.00045   0.00046   0.00431   0.00477   2.14141
    A6        2.04363  -0.00054  -0.00051  -0.00425  -0.00475   2.03888
    A7        2.14307   0.00077   0.00162   0.00707   0.00869   2.15175
    A8        2.11857  -0.00037  -0.00091  -0.00366  -0.00460   2.11397
    A9        2.02154  -0.00040  -0.00071  -0.00345  -0.00419   2.01735
   A10        2.03649  -0.00007  -0.00106  -0.00248  -0.00350   2.03299
   A11        2.07871  -0.00131   0.00099  -0.00332  -0.00238   2.07634
   A12        2.16780   0.00137   0.00005   0.00566   0.00565   2.17345
   A13        2.09773  -0.00128  -0.00005  -0.00512  -0.00526   2.09247
   A14        2.06207  -0.00125   0.00114  -0.00266  -0.00172   2.06035
   A15        2.12339   0.00253  -0.00110   0.00786   0.00656   2.12995
   A16        2.02362  -0.00176   0.00258  -0.00137   0.00120   2.02482
   A17        2.16945  -0.00153   0.00216  -0.00137   0.00078   2.17022
   A18        2.09003   0.00329  -0.00473   0.00285  -0.00190   2.08813
   A19        1.91725  -0.00031   0.00074  -0.00194  -0.00122   1.91603
   A20        1.89850  -0.00044  -0.00086  -0.00367  -0.00454   1.89396
   A21        1.96670  -0.00054   0.00233   0.00221   0.00452   1.97122
   A22        1.88959   0.00017  -0.00144  -0.00312  -0.00458   1.88501
   A23        1.88829   0.00013  -0.00144  -0.00446  -0.00591   1.88238
   A24        1.90202   0.00103   0.00058   0.01090   0.01146   1.91348
   A25        1.91852  -0.00127   0.00295  -0.00247   0.00046   1.91899
   A26        1.90830  -0.00074   0.00055  -0.00322  -0.00269   1.90562
   A27        1.90482  -0.00043  -0.00062  -0.00363  -0.00425   1.90058
   A28        1.91819   0.00083  -0.00124   0.00141   0.00015   1.91834
   A29        1.91446   0.00073  -0.00119   0.00131   0.00011   1.91456
   A30        1.89936   0.00090  -0.00042   0.00664   0.00621   1.90557
   A31        1.97494  -0.00109   0.00163  -0.00382  -0.00225   1.97268
   A32        1.92476   0.00043   0.00126  -0.00258  -0.00143   1.92333
   A33        1.90126  -0.00109  -0.00491  -0.01632  -0.02121   1.88005
   A34        1.90448  -0.00096   0.00216  -0.00938  -0.00732   1.89716
   A35        1.88219   0.00226  -0.00083   0.02071   0.01985   1.90205
   A36        1.87301   0.00059   0.00080   0.01287   0.01363   1.88664
   A37        2.10062  -0.00043  -0.00082  -0.00424  -0.00508   2.09554
   A38        2.09566   0.00011   0.00046   0.00174   0.00220   2.09786
   A39        2.08660   0.00033   0.00035   0.00239   0.00274   2.08934
   A40        2.10054  -0.00207  -0.00330  -0.01752  -0.02093   2.07962
   A41        2.08900   0.00210   0.00111   0.01383   0.01483   2.10383
   A42        2.09079  -0.00005   0.00205   0.00214   0.00409   2.09488
    D1       -0.00002  -0.00011  -0.00014  -0.00468  -0.00481  -0.00484
    D2       -3.13670  -0.00003  -0.00009  -0.00140  -0.00148  -3.13818
    D3       -3.13968  -0.00022   0.00022  -0.00875  -0.00852   3.13499
    D4        0.00682  -0.00014   0.00027  -0.00546  -0.00518   0.00164
    D5       -0.00452  -0.00005  -0.00032  -0.00243  -0.00277  -0.00728
    D6        3.13971  -0.00086   0.00044  -0.03644  -0.03591   3.10379
    D7        3.13511   0.00006  -0.00069   0.00172   0.00099   3.13610
    D8       -0.00385  -0.00075   0.00007  -0.03229  -0.03216  -0.03601
    D9        0.00047   0.00016   0.00071   0.00708   0.00778   0.00825
   D10       -3.11431   0.00023   0.00122   0.01167   0.01287  -3.10144
   D11        3.13740   0.00009   0.00066   0.00399   0.00466  -3.14112
   D12        0.02263   0.00015   0.00117   0.00858   0.00975   0.03238
   D13       -0.00805  -0.00013   0.00033  -0.00470  -0.00437  -0.01242
   D14        3.11395  -0.00019  -0.00161  -0.01254  -0.01409   3.09986
   D15        3.13865   0.00012   0.00065   0.00634   0.00698  -3.13756
   D16       -0.02253   0.00005  -0.00129  -0.00149  -0.00274  -0.02527
   D17        0.00380  -0.00003  -0.00080  -0.00224  -0.00305   0.00075
   D18        3.11871  -0.00010  -0.00131  -0.00681  -0.00812   3.11059
   D19        3.14054  -0.00026  -0.00111  -0.01271  -0.01382   3.12673
   D20       -0.02773  -0.00034  -0.00161  -0.01729  -0.01889  -0.04662
   D21        0.00827   0.00016   0.00022   0.00686   0.00708   0.01535
   D22       -3.13605   0.00100  -0.00058   0.04208   0.04158  -3.09447
   D23       -3.11263   0.00027   0.00227   0.01526   0.01751  -3.09511
   D24        0.02624   0.00111   0.00148   0.05047   0.05201   0.07825
   D25       -1.13571   0.00195  -0.00164   0.10824   0.10661  -1.02910
   D26        1.00292   0.00024   0.00305   0.09142   0.09449   1.09741
   D27        3.05422   0.00055   0.00182   0.09581   0.09763  -3.13134
   D28        1.98471   0.00186  -0.00373   0.09967   0.09593   2.08065
   D29       -2.15984   0.00015   0.00096   0.08285   0.08381  -2.07603
   D30       -0.10854   0.00046  -0.00027   0.08724   0.08695  -0.02159
   D31        1.46898   0.00009   0.00100   0.01387   0.01488   1.48386
   D32       -2.74880  -0.00015  -0.00083   0.00678   0.00597  -2.74283
   D33       -0.63773   0.00050   0.00081   0.01943   0.02024  -0.61749
   D34       -1.65846  -0.00004   0.00054   0.00494   0.00547  -1.65298
   D35        0.40695  -0.00028  -0.00129  -0.00215  -0.00344   0.40351
   D36        2.51801   0.00037   0.00034   0.01050   0.01084   2.52885
   D37       -3.04611   0.00108   0.00513   0.05655   0.06173  -2.98438
   D38        0.01428   0.00072   0.00261   0.03458   0.03716   0.05144
   D39        0.08201   0.00117   0.00566   0.06501   0.07069   0.15271
   D40       -3.14078   0.00081   0.00313   0.04304   0.04612  -3.09466
   D41        1.67796  -0.00003  -0.00050  -0.00410  -0.00462   1.67335
   D42       -1.43702   0.00005   0.00001   0.00056   0.00057  -1.43645
   D43       -2.49812  -0.00027   0.00008  -0.00592  -0.00584  -2.50395
   D44        0.67008  -0.00019   0.00060  -0.00127  -0.00065   0.66943
   D45       -0.42237   0.00013  -0.00047  -0.00192  -0.00240  -0.42477
   D46        2.74583   0.00021   0.00005   0.00273   0.00279   2.74862
   D47       -1.42626   0.00126   0.00713   0.11762   0.12483  -1.30143
   D48        1.79661   0.00152   0.00968   0.13907   0.14877   1.94538
   D49        2.70705   0.00217   0.00302   0.13052   0.13356   2.84060
   D50       -0.35326   0.00243   0.00557   0.15197   0.15750  -0.19576
   D51        0.67786   0.00075   0.00139   0.10897   0.11035   0.78822
   D52       -2.38245   0.00102   0.00394   0.13042   0.13429  -2.24815
         Item               Value     Threshold  Converged?
 Maximum Force            0.003413     0.000450     NO 
 RMS     Force            0.001140     0.000300     NO 
 Maximum Displacement     0.665142     0.001800     NO 
 RMS     Displacement     0.129688     0.001200     NO 
 Predicted change in Energy=-1.556944D-03
 GradGradGradGradGradGradGradGradGradGradGradGradGradGradGradGradGradGrad

                          Input orientation:                          
 ---------------------------------------------------------------------
 Center     Atomic      Atomic             Coordinates (Angstroms)
 Number     Number       Type             X           Y           Z
 ---------------------------------------------------------------------
      1          6           0        0.587044   -0.598847    0.724524
      2          6           0        0.656386   -0.810359    2.082960
      3          6           0        2.771187   -1.804098    1.842520
      4          6           0        2.789645   -1.621333    0.469960
      5          6           0        1.649679   -1.005007   -0.100258
      6          6           0        5.438849   -0.055974   -0.228515
      7          6           0        6.812931    0.513138    0.077541
      8          6           0        1.786883   -1.684524    4.091699
      9          6           0        4.028560   -2.051082   -0.318121
     10          7           0        1.740802   -1.413229    2.631043
     11          7           0        5.239710   -1.380497    0.118017
     12          8           0        4.533914    0.573569   -0.751445
     13         17           0        1.492231   -0.771058   -1.793366
     14          1           0       -0.288346   -0.121716    0.301656
     15          1           0       -0.135800   -0.519372    2.761384
     16          1           0        3.606061   -2.264891    2.357544
     17          1           0        7.502150    0.280697   -0.743231
     18          1           0        6.729956    1.597838    0.150955
     19          1           0        7.244546    0.113485    1.002002
     20          1           0        1.464613   -2.709561    4.290904
     21          1           0        2.805547   -1.539218    4.450991
     22          1           0        1.124697   -0.985993    4.601212
     23          1           0        4.175336   -3.131794   -0.231407
     24          1           0        3.851856   -1.816534   -1.367855
     25          1           0        5.964665   -1.902246    0.587618
 ---------------------------------------------------------------------
                    Distance matrix (angstroms):
                    1          2          3          4          5
     1  C    0.000000
     2  C    1.376552   0.000000
     3  C    2.733684   2.348982   0.000000
     4  C    2.441666   2.794681   1.384798   0.000000
     5  C    1.405142   2.406441   2.381326   1.415813   0.000000
     6  C    4.974234   5.365069   3.802834   3.155392   3.908314
     7  C    6.357419   6.608813   4.982011   4.571302   5.384752
     8  C    3.735796   2.465202   2.458039   3.758526   4.248890
     9  C    3.878161   4.321591   2.512043   1.529924   2.607837
    10  N    2.372591   1.356394   1.355080   2.411153   2.763142
    11  N    4.756693   5.019255   3.040880   2.486903   3.616208
    12  O    4.373880   4.998433   3.935627   3.058087   3.351829
    13  Cl   2.681192   3.965613   3.990309   2.743882   1.716431
    14  H    1.082949   2.130679   3.816466   3.428003   2.167413
    15  H    2.162780   1.082816   3.308384   3.875974   3.407752
    16  H    3.815353   3.300249   1.083787   2.154919   3.384602
    17  H    7.123664   7.486137   5.780526   5.224677   6.026430
    18  H    6.549029   6.813246   5.486931   5.098125   5.713766
    19  H    6.701250   6.739867   4.939082   4.810282   5.811070
    20  H    4.236072   3.022452   2.919175   4.188026   4.714028
    21  H    4.437636   3.279893   2.622110   3.981910   4.726021
    22  H    3.932895   2.567441   3.315209   4.499217   4.730728
    23  H    4.495049   4.809196   2.834710   2.166460   3.304447
    24  H    4.064457   4.809527   3.387405   2.131657   2.667389
    25  H    5.535016   5.621930   3.432596   3.189594   4.460641
                    6          7          8          9         10
     6  C    0.000000
     7  C    1.518441   0.000000
     8  C    5.886703   6.797378   0.000000
     9  C    2.444872   3.805850   4.960443   0.000000
    10  N    4.867727   5.996479   1.486351   3.786590   0.000000
    11  N    1.383511   2.462219   5.273006   1.451477   4.307984
    12  O    1.220117   2.425859   6.008427   2.707756   4.815606
    13  Cl   4.305333   5.784402   5.962820   3.201214   4.477674
    14  H    5.752057   7.133121   4.594929   4.768884   3.348356
    15  H    6.342787   7.520237   2.612284   5.401054   2.082691
    16  H    3.863435   4.816626   2.579443   2.717243   2.068652
    17  H    2.153019   1.096685   7.739697   4.205203   6.888268
    18  H    2.132147   1.090343   7.123015   4.564229   6.333168
    19  H    2.191674   1.095739   6.524197   4.095197   5.939346
    20  H    6.577327   7.532777   1.092814   5.315123   2.124123
    21  H    5.570643   6.276811   1.089899   4.949969   2.112289
    22  H    6.542408   7.420715   1.089054   5.810910   2.108004
    23  H    3.325229   4.509755   5.146702   1.094076   4.132075
    24  H    2.629869   4.035407   5.838516   1.090036   4.539867
    25  H    2.085971   2.610328   5.457092   2.142666   4.717600
                   11         12         13         14         15
    11  N    0.000000
    12  O    2.252219   0.000000
    13  Cl   4.250694   3.485033   0.000000
    14  H    5.672535   4.984639   2.825104   0.000000
    15  H    6.051862   5.944806   4.843509   2.496330   0.000000
    16  H    2.909715   4.310868   4.891816   4.897579   4.148668
    17  H    2.935975   2.982661   6.190969   7.870549   8.441606
    18  H    3.330526   2.585741   6.068428   7.227458   7.644314
    19  H    2.651939   3.260948   6.456441   7.569033   7.613504
    20  H    5.781933   6.754616   6.385679   5.067930   3.114110
    21  H    4.972424   5.875071   6.427041   5.366420   3.542087
    22  H    6.098196   6.534977   6.408736   4.607586   2.278498
    23  H    2.078949   3.758821   3.900236   5.410100   5.862375
    24  H    2.079443   2.560811   2.615704   4.775034   5.885121
    25  H    1.009112   3.157499   5.191468   6.507858   6.622181
                   16         17         18         19         20
    16  H    0.000000
    17  H    5.592346   0.000000
    18  H    5.435848   1.769381   0.000000
    19  H    4.553323   1.772049   1.786725   0.000000
    20  H    2.919145   8.410470   7.963461   7.224548   0.000000
    21  H    2.355831   7.235337   6.613049   5.859323   1.787018
    22  H    3.581451   8.416619   7.609199   7.184408   1.783962
    23  H    2.788954   4.793198   5.389036   4.633917   5.289385
    24  H    3.760325   4.255958   4.716797   4.566349   6.206286
    25  H    2.971055   2.983330   3.609284   2.423423   5.883584
                   21         22         23         24         25
    21  H    0.000000
    22  H    1.775917   0.000000
    23  H    5.132004   6.104512   0.000000
    24  H    5.918668   6.614904   1.768068   0.000000
    25  H    5.003745   6.354034   2.320408   2.880136   0.000000
 Stoichiometry    C9H12ClN2O(1+)
 Framework group  C1[X(C9H12ClN2O)]
 Deg. of freedom    69
 Full point group                 C1      NOp   1
 Largest Abelian subgroup         C1      NOp   1
 Largest concise Abelian subgroup C1      NOp   1
                         Standard orientation:                         
 ---------------------------------------------------------------------
 Center     Atomic      Atomic             Coordinates (Angstroms)
 Number     Number       Type             X           Y           Z
 ---------------------------------------------------------------------
      1          6           0        2.067147    1.094747   -0.661485
      2          6           0        2.725838   -0.113150   -0.706288
      3          6           0        1.033609   -1.108796    0.583194
      4          6           0        0.299976    0.062479    0.670154
      5          6           0        0.848673    1.200075    0.030361
      6          6           0       -2.608661   -0.577445   -0.372354
      7          6           0       -3.735248   -1.499189   -0.804619
      8          6           0        2.951673   -2.489847   -0.091854
      9          6           0       -1.043943    0.042428    1.401007
     10          7           0        2.210169   -1.201698   -0.082627
     11          7           0       -1.990168   -0.894759    0.823840
     12          8           0       -2.237443    0.398680   -1.003277
     13         17           0        0.093820    2.739766    0.105770
     14          1           0        2.495116    1.955968   -1.159400
     15          1           0        3.668154   -0.246675   -1.222720
     16          1           0        0.681977   -2.025405    1.042298
     17          1           0       -4.673586   -1.185640   -0.331411
     18          1           0       -3.857500   -1.413654   -1.884706
     19          1           0       -3.557140   -2.546462   -0.536033
     20          1           0        3.537910   -2.589192    0.825042
     21          1           0        2.240318   -3.312024   -0.168539
     22          1           0        3.614916   -2.508816   -0.955444
     23          1           0       -0.897027   -0.211737    2.454961
     24          1           0       -1.464151    1.046937    1.350345
     25          1           0       -2.258798   -1.721372    1.336535
 ---------------------------------------------------------------------
 Rotational constants (GHZ):      0.8530643      0.5364153      0.3782049
 Standard basis: 6-31G(d) (6D, 7F)
 There are   223 symmetry adapted basis functions of A   symmetry.
 Integral buffers will be    131072 words long.
 Raffenetti 2 integral format.
 Two-electron integral symmetry is turned on.
   223 basis functions,   436 primitive gaussians,   223 cartesian basis functions
    52 alpha electrons       52 beta electrons
       nuclear repulsion energy       892.4222996523 Hartrees.
 NAtoms=   25 NActive=   25 NUniq=   25 SFac= 1.00D+00 NAtFMM=   60 NAOKFM=F Big=F
 One-electron integrals computed using PRISM.
 NBasis=   223 RedAO= T  NBF=   223
 NBsUse=   223 1.00D-06 NBFU=   223
 Initial guess read from the read-write file.
 B after Tr=     0.000000    0.000000    0.000000
         Rot=    1.000000    0.000000    0.000000    0.000000 Ang=   0.00 deg.
 Initial guess orbital symmetries:
       Occupied  (A) (A) (A) (A) (A) (A) (A) (A) (A) (A) (A) (A)
                 (A) (A) (A) (A) (A) (A) (A) (A) (A) (A) (A) (A)
                 (A) (A) (A) (A) (A) (A) (A) (A) (A) (A) (A) (A)
                 (A) (A) (A) (A) (A) (A) (A) (A) (A) (A) (A) (A)
                 (A) (A) (A) (A)
       Virtual   (A) (A) (A) (A) (A) (A) (A) (A) (A) (A) (A) (A)
                 (A) (A) (A) (A) (A) (A) (A) (A) (A) (A) (A) (A)
                 (A) (A) (A) (A) (A) (A) (A) (A) (A) (A) (A) (A)
                 (A) (A) (A) (A) (A) (A) (A) (A) (A) (A) (A) (A)
                 (A) (A) (A) (A) (A) (A) (A) (A) (A) (A) (A) (A)
                 (A) (A) (A) (A) (A) (A) (A) (A) (A) (A) (A) (A)
                 (A) (A) (A) (A) (A) (A) (A) (A) (A) (A) (A) (A)
                 (A) (A) (A) (A) (A) (A) (A) (A) (A) (A) (A) (A)
                 (A) (A) (A) (A) (A) (A) (A) (A) (A) (A) (A) (A)
                 (A) (A) (A) (A) (A) (A) (A) (A) (A) (A) (A) (A)
                 (A) (A) (A) (A) (A) (A) (A) (A) (A) (A) (A) (A)
                 (A) (A) (A) (A) (A) (A) (A) (A) (A) (A) (A) (A)
                 (A) (A) (A) (A) (A) (A) (A) (A) (A) (A) (A) (A)
                 (A) (A) (A) (A) (A) (A) (A) (A) (A) (A) (A) (A)
                 (A) (A) (A)
 Harris functional with IExCor=  402 diagonalized for initial guess.
 ExpMin= 1.43D-01 ExpMax= 2.52D+04 ExpMxC= 3.78D+03 IAcc=3 IRadAn=         5 AccDes= 0.00D+00
 HarFok:  IExCor=  402 AccDes= 0.00D+00 IRadAn=         5 IDoV= 1
[...]
 ,0.00010504,-0.00000165,0.00003266,0.00003690,0.00000611,-0.00000215,-
 0.00000201,0.00000205,-0.00000097,0.00000157,-0.00004064,-0.00000042,0
 .00001760,0.14491215,0.21096423,0.00000378,0.00000355,-0.00002139,0.00
 001012,0.00002440,0.00001035,0.00000304,-0.00001491,-0.00002632,0.0001
 1169,0.00001695,-0.00000837,-0.00000625,-0.00004256,-0.00003022,-0.002
 08058,-0.00010308,-0.00166293,0.01799865,0.01662692,-0.04637879,0.0000
 0117,0.00000516,0.00001401,0.00008001,0.00053341,-0.00029194,-0.000025
 96,-0.00001452,0.00001954,-0.00078370,0.00099736,-0.00039897,0.0007308
 9,-0.00166727,-0.00007988,-0.00000456,0.00000841,0.00001990,0.00000004
 ,-0.00000062,-0.00000094,-0.00000091,0.00000190,0.00000149,-0.00003173
 ,0.00001033,0.00001651,-0.01771846,-0.01946273,0.04703280,0.00003731,-
 0.00001423,-0.00000772,-0.00007698,-0.00003758,0.00004384,-0.00011822,
 -0.00004925,0.00000985,-0.00008791,0.00020333,-0.00029357,-0.00008506,
 -0.00002410,0.00010010,-0.00744909,0.01651961,-0.03220358,-0.05278648,
 0.02498012,-0.04031908,-0.00002073,-0.00001319,-0.00002007,-0.00115371
 ,-0.00100336,-0.00043634,0.00004843,0.00003271,0.00000879,-0.00470653,
 0.00169974,0.00170283,0.00205038,-0.00363496,0.00165497,0.00000667,0.0
 0000292,-0.00002144,-0.00001104,-0.00000038,0.00000412,-0.00000317,0.0
 0000566,-0.00000229,-0.00004613,0.00000909,0.00000574,0.00499031,-0.00
 990084,0.02038723,0.05953293,-0.00000425,-0.00000145,-0.00001456,0.000
 02586,0.00003214,0.00000585,0.00003471,0.00002709,0.00004080,0.0000257
 4,0.00001367,0.00003165,0.00000664,-0.00001484,-0.00002589,-0.00053806
 ,-0.00588114,0.01142291,0.02524666,-0.10620377,0.10906921,0.00001212,0
 .00001965,0.00003643,-0.00013432,0.00022954,0.00022051,-0.00002123,-0.
 00002817,-0.00000943,0.00128390,-0.00036667,-0.00076516,-0.00000917,0.
 00116234,-0.00175352,0.00000120,-0.00000695,-0.00000595,-0.00000354,0.
 00000223,-0.00000466,-0.00000388,0.00000160,0.00000136,0.00000387,0.00
 001227,0.00000947,0.00509146,-0.01121682,0.02171341,-0.02628217,0.1099
 9852,0.00000625,-0.00000346,-0.00000885,0.00000625,0.00002385,0.000014
 94,-0.00004361,-0.00002816,-0.00001697,-0.00005123,0.00005795,-0.00000
 194,-0.00002089,-0.00000549,0.00000060,-0.00147626,-0.00215706,0.00069
 640,-0.04147848,0.11038709,-0.25825436,-0.00000113,0.00000438,0.000012
 99,0.00010985,-0.00009280,0.00006649,-0.00001703,-0.00001445,0.0000128
 1,0.00008141,0.00080910,0.00059161,0.00099301,-0.00056381,0.00062124,0
 .00000036,0.00000115,0.00000039,-0.00000376,0.00000065,-0.00000065,-0.
 00000118,0.00000252,0.00000114,-0.00003153,0.00000984,0.00001121,-0.00
 015823,0.00049928,-0.00182515,0.04543544,-0.12066951,0.27590386,-0.000
 06357,-0.00001560,0.00011364,-0.00005013,-0.00014727,-0.00006202,0.000
 05702,0.00023979,0.00017664,-0.00005602,-0.00018985,-0.00002694,0.0000
 8602,0.00022276,0.00007401,0.00292150,0.01801326,0.02685135,-0.0552652
 5,0.02281534,0.02212870,0.00000687,0.00000668,-0.00002375,0.00030034,-
 0.00024825,0.00024265,0.00004931,0.00005236,-0.00007787,0.00052931,-0.
 00155729,-0.00111642,-0.00859230,0.00429092,0.00111719,0.00001890,-0.0
 0006244,-0.00010640,-0.00000443,0.00000371,0.00000101,0.00000518,-0.00
 001584,-0.00000101,0.00018207,-0.00008491,-0.00008077,0.00428329,-0.01
 292020,-0.01827429,-0.00008355,-0.00513609,-0.00389281,0.05687753,0.00
 004502,0.00000147,-0.00009037,0.00004032,0.00011497,0.00005819,-0.0000
 6729,-0.00011696,-0.00010821,0.00002146,0.00015046,0.00004983,-0.00008
 574,-0.00014854,-0.00003371,-0.00456649,-0.00868436,-0.00911835,0.0247
 8361,-0.16192143,-0.13060635,-0.00001104,-0.00000067,0.00002321,0.0000
 1610,0.00005592,0.00012427,-0.00004699,-0.00007511,0.00006677,-0.00058
 646,0.00066897,0.00076621,0.00402249,0.00065880,-0.00043335,-0.0000043
 9,0.00003547,0.00005694,-0.00000366,-0.00000173,-0.00000196,-0.0000086
 0,0.00000936,0.00000062,-0.00009205,0.00005825,0.00003235,0.00453961,-
 0.01422716,-0.01809994,-0.00298169,0.01223835,0.01156112,-0.02610657,0
 .17069131,-0.00000048,0.00000748,-0.00000911,0.00002183,0.00002554,-0.
 00000445,0.00004853,-0.00000728,-0.00006453,0.00003296,0.00003159,0.00
 006041,-0.00000460,-0.00008985,-0.00010216,-0.00059708,0.00288769,-0.0
 0201710,0.02506222,-0.13191261,-0.20429368,-0.00001129,-0.00000859,-0.
 00001341,0.00042117,0.00010093,0.00028529,-0.00003163,-0.00004196,0.00
 006632,-0.00060507,0.00068668,-0.00013296,0.00005054,-0.00074783,0.002
 59607,-0.00000718,0.00004135,0.00006735,0.00000644,-0.00000335,-0.0000
 0097,-0.00000359,0.00000070,0.00000051,-0.00007750,0.00001010,0.000008
 99,-0.00130810,0.00325335,0.00318076,0.00377522,-0.01943903,-0.0181693
 9,-0.02606083,0.14506073,0.21761324,-0.00002577,0.00055443,0.00036407,
 -0.00019037,0.00025555,0.00086056,0.00075544,0.00028038,0.00181006,0.0
 0038874,-0.00024444,-0.00029649,0.00036400,0.00024460,-0.00003543,0.00
 004620,0.00014067,0.00023643,0.00000778,-0.00000692,-0.00000701,-0.291
 50160,-0.07956177,-0.07352302,0.00005620,-0.00000536,-0.00005902,0.007
 68578,0.00268299,0.00371293,-0.00011109,-0.00003690,-0.00012167,-0.000
 00469,-0.00008538,-0.00030259,-0.00005261,0.00007104,0.00002870,-0.000
 06444,0.00006773,0.00005380,0.00013211,0.00014965,0.00002138,0.0002899
 9,0.00046059,0.00005322,-0.00000239,-0.00000155,0.00000185,-0.00000827
 ,0.00000758,0.00000104,0.00000211,-0.00000375,-0.00000573,0.30501023,-
 0.00006394,-0.00088327,-0.00030300,0.00012968,0.00017590,-0.00277543,-
 0.00065401,0.00059156,0.00165967,0.00041600,-0.00024919,0.00000170,-0.
 00019619,-0.00008515,0.00028602,-0.00002198,-0.00006301,-0.00019865,0.
 00000057,0.00000389,-0.00000803,-0.07257324,-0.07359825,-0.02121746,-0
 .00008341,0.00004080,0.00001279,-0.01523299,-0.00992992,-0.00819716,0.
 00010133,-0.00000337,0.00007906,-0.00007526,-0.00011232,0.00020305,-0.
 00002830,0.00004973,-0.00010304,0.00008914,-0.00009465,-0.00015882,0.0
 0002933,0.00025905,-0.00021108,-0.00017240,0.00076679,0.00032322,-0.00
 000132,-0.00000024,0.00000456,0.00001969,-0.00000054,-0.00000097,0.000
 00116,0.00000067,0.00000250,0.08311843,0.07733262,-0.00002191,-0.00140
 093,-0.00042391,0.00151101,0.00176359,-0.00388375,-0.00223362,-0.00183
 151,0.00092970,0.00021984,0.00009929,0.00032827,-0.00058229,-0.0001336
 5,0.00039299,0.00006571,-0.00018603,-0.00024774,-0.00003286,0.00001030
 ,0.00001656,-0.06215714,-0.01829924,-0.06979414,-0.00001201,-0.0000266
 2,0.00002228,-0.02833131,-0.01548815,-0.01641051,0.00005530,0.00008116
 ,0.00012812,-0.00017370,0.00020007,0.00028390,0.00007336,-0.00004638,-
 0.00019946,0.00020266,-0.00017846,-0.00023700,-0.00024937,-0.00015645,
 -0.00006090,0.00049192,0.00038457,-0.00088047,-0.00000022,0.00000494,0
 .00000500,0.00000365,0.00000236,0.00000430,-0.00001143,0.00000788,0.00
 000367,0.07372030,0.02990997,0.08074415,-0.00066522,0.00039599,0.00069
 052,-0.00040582,-0.00125710,-0.00121856,0.00044001,0.00045360,0.000830
 05,-0.00008969,-0.00065520,-0.00021918,0.00056344,0.00045779,-0.000350
 57,-0.00003064,-0.00000582,-0.00008841,0.00000915,0.00000309,-0.000003
 50,-0.15818904,0.13367137,-0.01804105,-0.00005187,0.00003116,0.0000477
 0,0.00201612,-0.00072950,0.00257955,0.00007764,-0.00001074,0.00003063,
 -0.00000679,-0.00007411,0.00006405,-0.00003460,-0.00002623,-0.00000268
 ,0.00001896,-0.00003653,0.00000040,0.00014333,-0.00015685,0.00011234,-
 0.00045698,0.00024321,0.00005699,-0.00000037,-0.00000012,0.00000105,0.
 00000584,-0.00000152,-0.00000060,0.00000021,-0.00000004,0.00000136,-0.
 01519226,0.02390728,-0.00316977,0.16229636,-0.00076654,0.00011185,-0.0
 0022018,0.00124113,0.00018617,-0.00088133,-0.00123661,-0.00018225,0.00
 215386,-0.00027370,-0.00061343,-0.00112773,0.00042339,0.00062487,0.000
 21573,-0.00002270,-0.00000498,-0.00004245,0.00000355,0.00000050,-0.000
 00561,0.13194809,-0.21695134,0.02399298,-0.00008000,-0.00000185,-0.000
 01275,0.00694704,-0.01205159,-0.00650462,0.00006097,0.00001056,0.00001
 737,0.00000687,-0.00002239,0.00003209,0.00006579,-0.00013300,-0.000103
 87,-0.00001450,-0.00000968,-0.00008827,0.00032779,-0.00042785,0.000122
 03,0.00017091,-0.00007291,0.00001352,0.00000027,0.00000017,0.,0.000001
 54,-0.00000194,-0.00000060,0.00000112,-0.00000064,0.00000199,-0.006851
 94,0.01086522,-0.00009726,-0.14518795,0.23248784,-0.00049075,0.0000761
 4,-0.00164725,0.00291454,0.00130592,0.00003715,-0.00099126,-0.00221024
 ,0.00105957,-0.00071271,0.00056473,-0.00055417,-0.00032065,-0.00031522
 ,0.00073611,-0.00007731,-0.00004692,-0.00010775,-0.00000226,-0.0000100
 1,-0.00000127,-0.02178628,0.02966483,-0.05240824,-0.00013745,-0.000030
 56,-0.00005768,0.02125630,-0.03258730,-0.00768052,0.00006971,0.0000820
 8,0.00005158,0.00008803,0.00006166,0.00007335,0.00010916,-0.00022473,-
 0.00041943,-0.00008380,0.00005834,-0.00018862,-0.00004980,-0.00024999,
 0.00014614,0.00043508,0.00001063,0.00014335,0.00000245,-0.00000117,-0.
 00000101,0.00000898,-0.00000675,-0.00000275,0.00000301,-0.00000323,0.0
 0000424,-0.00386255,0.00764139,0.00009589,0.01848612,-0.01927549,0.060
 69182,-0.00007675,0.00036193,-0.00023323,0.00064746,-0.00035804,-0.001
 48380,0.00029426,-0.00015216,0.00064719,0.00024882,-0.00001243,0.00043
 555,-0.00025085,-0.00018650,-0.00001367,0.00005766,-0.00004357,0.00001
 426,-0.00001265,0.00000733,0.00000727,-0.08766888,-0.06734189,0.067870
 51,0.00003266,0.00005796,-0.00003215,-0.00319399,-0.00101097,0.0016619
 0,-0.00006970,0.00001912,0.00002619,-0.00006354,0.00008285,0.00002471,
 0.00005559,-0.00000936,0.00001190,0.00000091,-0.00000121,0.00001210,0.
 00049600,-0.00051832,-0.00050175,0.00021401,0.00025546,-0.00012833,-0.
 00000064,0.00000357,0.00000023,-0.00000918,0.00000038,0.00000148,-0.00
 000555,0.00000248,0.00000045,-0.00756747,-0.01873887,0.02061328,0.0095
 4667,0.01321024,-0.01492318,0.08734476,0.00002208,0.00037009,0.0001616
 1,0.00064701,0.00075120,-0.00178784,-0.00103793,-0.00176387,-0.0024679
 5,0.00080606,0.00010778,-0.00084929,0.00018497,0.00039913,-0.00011967,
 -0.00003590,-0.00007022,-0.00014665,-0.00000225,0.00000271,0.00000871,
 -0.07153580,-0.17862751,0.13044802,-0.00012555,-0.00022004,-0.00008103
 ,0.00864418,0.01128084,-0.01814580,0.00012122,0.00002697,0.00004322,-0
 .00002064,0.00006972,0.00010444,0.00001768,-0.00005387,-0.00001378,0.0
 0004730,-0.00005462,0.00005582,-0.00009766,-0.00006058,-0.00051484,0.0
 0017961,0.00005731,-0.00023170,0.00000220,-0.00000091,0.00000042,0.000
 00441,-0.00000097,0.00000092,-0.00000272,0.00000295,0.00000178,-0.0012
 4629,-0.00506171,0.00537913,-0.01101188,-0.01381623,0.01553087,0.07437
 173,0.18663483,-0.00001239,-0.00026125,0.00025733,0.00183723,0.0022879
 5,0.00070542,-0.00234164,-0.00324904,-0.00305935,0.00120020,0.00018014
 ,-0.00057434,0.00009962,0.00039227,0.00015837,-0.00006259,-0.00005764,
 -0.00013791,0.00000435,0.00000359,0.00000260,0.06341119,0.11686749,-0.
 16969414,-0.00026749,-0.00022840,-0.00019086,0.01347748,0.01740187,-0.
 02658234,0.00014024,-0.00000143,0.00007878,0.00002620,0.00004573,0.000
 11065,-0.00006375,-0.00009742,-0.00010931,0.00001435,-0.00001991,-0.00
 000326,-0.00096810,-0.00086442,-0.00006777,-0.00011773,0.00004439,-0.0
 0016562,0.00000298,-0.00000155,0.00000029,0.00000439,-0.00000223,0.000
 00052,-0.00000101,0.00000175,0.00000232,-0.00264608,-0.00694638,0.0092
 0597,0.00018146,0.00182009,0.00005147,-0.07401273,-0.12734709,0.190043
 38,-0.00003626,0.00041740,-0.00031111,0.00013432,0.00025873,0.00032426
 ,-0.00205906,-0.00223215,0.00158168,0.00780611,0.00185580,0.02217667,0
 .00050446,0.00074903,0.00105450,-0.00329261,0.00485202,0.00261102,-0.0
 0044076,-0.00068874,-0.00100829,-0.00020774,-0.00023707,-0.00008717,-0
 .07729676,-0.00732944,-0.07850115,-0.00112543,0.00089549,0.00081277,-0
 .01827765,-0.00268778,-0.03414070,0.00087721,-0.00036981,-0.00007464,-
 0.00036905,-0.00149517,-0.00065327,0.00002176,-0.00002371,-0.00001741,
 0.00003981,-0.00004895,-0.00000544,0.00012075,-0.00031682,0.00020456,-
 0.00025721,0.00013457,-0.00007316,-0.00029443,0.00009526,0.00001149,0.
 00008249,0.00002345,0.00005704,0.00000092,0.00001022,-0.00001656,0.000
 00487,0.00001635,0.00004305,-0.00000993,0.00003907,0.00007177,0.094070
 10,0.00007839,0.00038812,-0.00048755,-0.00001452,0.00004662,0.00025364
 ,-0.00194516,-0.00137300,0.00087295,0.00419134,0.00087705,0.01410125,0
 .00002000,0.00120664,0.00120596,0.00241220,-0.00336018,-0.00326698,0.0
 0031539,0.00058205,0.00043568,-0.00007342,-0.00011719,0.00007148,-0.01
 029894,-0.05429242,-0.02804093,-0.00006299,0.00076413,0.00004836,0.011
 14001,0.00009737,0.01933870,-0.00217631,0.00145526,-0.00034126,-0.0008
 4756,-0.00221072,-0.00066880,0.00001436,-0.00001256,-0.00001725,0.0000
 3074,-0.00001559,-0.00002282,-0.00005573,0.00002251,0.00033468,0.00018
 666,-0.00008524,0.00001986,0.00008269,-0.00002840,0.00002009,-0.000053
 80,0.00002122,-0.00000540,0.00000220,-0.00000243,-0.00000064,-0.000006
 89,-0.00000352,-0.00002194,0.00000494,0.00001658,0.00003029,0.00705966
 ,0.05425465,0.00007837,-0.00008073,-0.00003778,-0.00008941,-0.00012118
 ,-0.00007673,0.00154471,0.00236446,-0.00130981,-0.00230173,-0.00149256
 ,-0.01930454,-0.00054735,-0.00231550,-0.00118637,0.00037602,-0.0002335
 7,0.00002658,0.00008453,0.00007386,-0.00005199,0.00014713,0.00017608,0
 .00005024,-0.08642519,-0.02158537,-0.29443420,0.00033375,-0.00057431,-
 0.00054690,0.00048709,-0.00086110,0.00096305,-0.00053501,0.00042651,0.
 00041976,-0.00108698,-0.00067024,0.00170883,-0.00000270,0.00004499,0.0
 0000155,0.00000157,0.00003274,0.00001486,-0.00005914,0.00015801,0.0000
 2771,0.00001000,0.00000324,-0.00000313,-0.00003312,-0.00000302,0.00001
 177,-0.00001969,0.00000345,-0.00000368,-0.00000305,-0.00000250,0.00002
 138,-0.00000054,-0.00000951,-0.00002873,0.00001269,-0.00003363,-0.0000
 4959,0.08908519,0.02554703,0.31628725,-0.00078714,-0.00065349,-0.00066
 984,0.00015415,0.00005125,-0.00002891,-0.00015580,-0.00058394,-0.00134
 866,-0.00482624,-0.02196678,-0.00309235,-0.00144962,-0.00114441,0.0032
 2126,0.00188545,0.00406767,0.00624275,-0.00064388,-0.00094062,0.000459
 09,0.00001871,-0.00007011,-0.00011421,-0.05076273,-0.03707846,-0.00773
 545,-0.00027726,-0.00002801,0.00020758,-0.00929181,0.03608412,0.006530
 39,0.00121874,-0.00256125,-0.00226031,-0.00007416,-0.00016261,0.000304
 55,-0.00023545,0.00000214,0.00023399,0.00004604,0.00001144,0.00003812,
 0.00033334,0.00020117,0.00039678,-0.00024965,0.00006837,-0.00016735,0.
 00012525,0.00003013,0.00000864,0.00020093,-0.00007805,-0.00008952,-0.0
 0000470,0.00000688,0.00003463,-0.00000816,0.00000980,0.00003873,-0.000
 00128,0.00001605,0.00001111,-0.00067135,-0.00984527,-0.00103190,0.0672
 1984,0.00001525,-0.00055667,-0.00077488,0.00029141,0.00042512,0.000136
 76,0.00085631,0.00058372,-0.00190151,-0.00596953,-0.01248287,-0.002091
 12,-0.00107085,-0.00025698,0.00197219,-0.00109145,-0.00087210,-0.00513
 602,0.00013287,0.00004792,-0.00004615,0.00001933,-0.00000061,0.0000078
 2,-0.03440540,-0.29715115,-0.05333024,-0.00047056,0.00002632,0.0001643
 9,0.01311056,-0.01351901,-0.00380137,-0.00170088,0.00175333,0.00150620
 ,0.00008593,0.00022788,0.00019307,-0.00006658,-0.00003296,0.00014303,0
 .00005085,0.00000282,0.00004439,-0.00000902,0.00006369,0.00089877,0.00
 000143,-0.00000251,0.00008195,-0.00004978,0.00001778,0.00005467,-0.000
 07383,0.00005588,0.00008700,0.00000861,-0.00000739,0.00001647,-0.00000
 767,0.00000565,0.00000062,0.00000753,0.00000388,-0.00000326,-0.0006400
 1,0.00075320,-0.00088356,0.03099035,0.32307280,0.00079818,0.00038313,0
 .00096177,0.00001733,0.00007160,-0.00012668,0.00102666,0.00154376,0.00
 089302,0.00619271,0.02342797,0.00253208,0.00219561,0.00021940,-0.00422
 330,-0.00112121,0.00172894,0.00030391,-0.00006327,-0.00053761,0.000118
 33,-0.00000834,-0.00001572,0.00004873,-0.00880472,-0.05762425,-0.06536
 081,-0.00026606,-0.00012142,0.00035825,0.00183788,0.00133396,0.0019764
 5,0.00025694,-0.00045350,-0.00007227,-0.00066019,-0.00033495,0.0005109
 0,0.00022993,0.00005801,-0.00020554,-0.00004118,-0.00003660,-0.0000123
 4,0.00016623,-0.00015251,-0.00074417,-0.00007659,0.00001167,-0.0000087
 3,0.00006851,0.00001283,0.00003134,0.00009791,-0.00002865,0.00001528,0
 .00000178,0.00000097,-0.00004420,0.00000864,-0.00000163,-0.00000499,-0
 .00001236,0.00000105,0.00001178,-0.00281811,-0.02945278,-0.00366281,0.
 00122647,0.06052808,0.06645264,0.00023554,-0.00026770,-0.00047270,0.00
 002340,0.00029415,0.00034845,-0.00052497,-0.00030203,0.00045472,-0.002
 81813,0.00218402,-0.00076314,-0.00050240,0.00090906,0.00196729,0.01561
 452,-0.01397087,-0.01023984,-0.00092582,-0.00150349,-0.00013874,-0.000
 03463,-0.00006045,0.00004096,-0.00748112,0.00992731,0.02163743,0.00015
 998,-0.00045335,0.00017562,-0.10849237,0.09300825,0.09780852,-0.001261
 00,-0.00047314,-0.00804122,0.00019633,-0.00045339,-0.00095808,-0.00005
 811,-0.00002018,0.00004674,-0.00003303,0.00001943,-0.00003595,-0.00034
 234,0.00014130,-0.00002576,-0.00030691,0.00024624,-0.00016280,0.000143
 37,0.00026870,0.00052153,-0.00148229,0.00114828,-0.00067518,-0.0000138
 3,0.00001222,0.00000052,0.00000885,-0.00000092,-0.00001714,-0.00000838
 ,0.00001306,0.00001091,0.00067546,-0.00015798,-0.00002525,-0.00176322,
 -0.00001489,-0.00025274,0.10899112,0.00021501,-0.00022790,-0.00042054,
 0.00002851,0.00020370,0.00031488,0.00014730,0.00002022,0.00040711,-0.0
 0196253,-0.00004948,0.00015550,-0.00049014,0.00069445,0.00146771,-0.00
 164942,-0.00814308,-0.00081455,-0.00060870,-0.00140947,0.00211209,-0.0
 0000755,-0.00002571,0.00003419,-0.00015517,-0.00919152,-0.00732337,0.0
 0002099,-0.00024445,0.00007619,0.08986006,-0.11304640,-0.17105643,0.00
 084887,0.00657101,-0.00127818,0.00014305,-0.00035597,-0.00074094,-0.00
 008022,0.00001328,0.00001640,-0.00000038,0.00000018,-0.00001606,-0.000
 05106,0.00011497,0.00001430,-0.00039106,-0.00011214,-0.00064295,0.0004
 3000,-0.00000352,0.00010370,0.00096754,0.00041256,0.00005649,-0.000000
 16,0.00000518,-0.00001440,0.00000466,0.00000078,-0.00001365,-0.0000122
 1,0.00000653,0.00000444,-0.00033741,0.00101586,0.00003642,0.00357364,-
 0.00215775,-0.00056173,-0.09049363,0.12590866,-0.00000849,0.00000508,-
 0.00013397,-0.00005402,-0.00002095,0.00003723,-0.00029629,-0.00021303,
 0.00007608,0.00047719,0.00025043,-0.00061989,0.00027460,0.00006111,0.0
 0031185,0.01839871,-0.00983785,-0.01510384,0.00059049,0.00012997,-0.00
 021657,-0.00001694,-0.00004926,-0.00007496,-0.00447051,0.00885232,0.00
 780888,0.00007087,0.00006159,0.00003154,0.09593172,-0.17792659,-0.3041
 5515,-0.00609430,-0.00254002,-0.00305367,-0.00016421,-0.00008395,-0.00
 013896,0.00000397,-0.00000211,0.00002614,0.00001606,0.00000078,-0.0000
 0654,-0.00002512,0.00000265,-0.00005114,0.00023834,0.00020105,0.000437
 14,0.00012357,0.00013295,0.00029843,-0.00105087,0.00071084,0.00090697,
 -0.00000349,-0.00000240,-0.00000008,0.00000398,0.00000163,0.00001171,0
 .00000148,0.00000329,0.00000560,-0.00032697,0.00004636,0.00116328,-0.0
 0241562,0.00213271,0.00025136,-0.10120414,0.17808339,0.31218856\\0.000
 00172,0.00000098,-0.00000556,0.00000393,0.00000598,0.00000236,0.000004
 04,0.00000439,-0.00000519,-0.00000520,-0.00000003,0.00000324,-0.000003
 70,-0.00000359,0.00000123,0.00000493,0.00000255,0.00000264,-0.00000266
 ,-0.00000058,0.00000078,0.00000020,0.00000269,-0.00000485,0.00000649,-
 0.00000276,0.00000037,-0.00000547,-0.00001045,0.00000673,-0.00000496,0
 .00000026,-0.00000270,-0.00000165,-0.00000125,-0.00000120,0.00000184,0
 .00000151,0.00000102,-0.00000032,0.00000004,0.00000093,-0.00000066,-0.
 00000006,-0.00000103,0.00000058,-0.00000110,0.00000145,0.00000004,-0.0
 0000022,0.00000011,0.00000087,-0.00000065,-0.00000005,0.00000028,-0.00
 000074,0.00000025,0.00000053,-0.00000046,0.00000018,-0.00000119,0.0000
 0143,0.00000043,0.00000097,0.00000114,-0.00000029,-0.00000052,0.000000
 71,-0.00000089,-0.00000063,0.00000057,-0.00000026,0.00000051,-0.000000
 36,0.00000028\\\@


 THE MEEK SHALL INHERIT THE EARTH.
 (THE REST OF US WILL ESCAPE TO THE STARS)
 Job cpu time:  0 days  1 hours 34 minutes 15.8 seconds.
 File lengths (MBytes):  RWF=    168 Int=      0 D2E=      0 Chk=      5 Scr=      1
 Normal termination of Gaussian 09 at Fri Feb 16 21:02:12 2018.
