 Entering Gaussian System, Link 0=g09
 Initial command:
 /home/fb_chem/chemsoft/lx24-amd64/Gaussian_09_C.01_NBO_3.1_64_istanbul-64/g09/l1.exe /local/2399985.1.parallel/Gau-30504.inp -scrdir=/local/2399985.1.parallel/
 Entering Link 1 = /home/fb_chem/chemsoft/lx24-amd64/Gaussian_09_C.01_NBO_3.1_64_istanbul-64/g09/l1.exe PID=     30505.
  
 Copyright (c) 1988,1990,1992,1993,1995,1998,2003,2009,2011,
            Gaussian, Inc.  All Rights Reserved.
  
 This is part of the Gaussian(R) 09 program.  It is based on
 the Gaussian(R) 03 system (copyright 2003, Gaussian, Inc.),
 the Gaussian(R) 98 system (copyright 1998, Gaussian, Inc.),
 the Gaussian(R) 94 system (copyright 1995, Gaussian, Inc.),
 the Gaussian 92(TM) system (copyright 1992, Gaussian, Inc.),
 the Gaussian 90(TM) system (copyright 1990, Gaussian, Inc.),
 the Gaussian 88(TM) system (copyright 1988, Gaussian, Inc.),
 the Gaussian 86(TM) system (copyright 1986, Carnegie Mellon
 University), and the Gaussian 82(TM) system (copyright 1983,
 Carnegie Mellon University). Gaussian is a federally registered
 trademark of Gaussian, Inc.
  
 This software contains proprietary and confidential information,
 including trade secrets, belonging to Gaussian, Inc.
  
 This software is provided under written license and may be
 used, copied, transmitted, or stored only in accord with that
 written license.
  
 The following legend is applicable only to US Government
 contracts under FAR:
  
                    RESTRICTED RIGHTS LEGEND
  
 Use, reproduction and disclosure by the US Government is
 subject to restrictions as set forth in subparagraphs (a)
 and (c) of the Commercial Computer Software - Restricted
 Rights clause in FAR 52.227-19.
  
 Gaussian, Inc.
 340 Quinnipiac St., Bldg. 40, Wallingford CT 06492
  
  
 ---------------------------------------------------------------
 Warning -- This program may not be used in any manner that
 competes with the business of Gaussian, Inc. or will provide
 assistance to any competitor of Gaussian, Inc.  The licensee
 of this program is prohibited from giving any competitor of
 Gaussian, Inc. access to this program.  By using this program,
 the user acknowledges that Gaussian, Inc. is engaged in the
 business of creating and licensing software in the field of
 computational chemistry and represents and warrants to the
 licensee that it is not a competitor of Gaussian, Inc. and that
 it will not use this program in any manner prohibited above.
 ---------------------------------------------------------------
  

 Cite this work as:
 Gaussian 09, Revision C.01,
 M. J. Frisch, G. W. Trucks, H. B. Schlegel, G. E. Scuseria, 
 M. A. Robb, J. R. Cheeseman, G. Scalmani, V. Barone, B. Mennucci, 
 G. A. Petersson, H. Nakatsuji, M. Caricato, X. Li, H. P. Hratchian, 
 A. F. Izmaylov, J. Bloino, G. Zheng, J. L. Sonnenberg, M. Hada, 
 M. Ehara, K. Toyota, R. Fukuda, J. Hasegawa, M. Ishida, T. Nakajima, 
 Y. Honda, O. Kitao, H. Nakai, T. Vreven, J. A. Montgomery, Jr., 
 J. E. Peralta, F. Ogliaro, M. Bearpark, J. J. Heyd, E. Brothers, 
 K. N. Kudin, V. N. Staroverov, T. Keith, R. Kobayashi, J. Normand, 
 K. Raghavachari, A. Rendell, J. C. Burant, S. S. Iyengar, J. Tomasi, 
 M. Cossi, N. Rega, J. M. Millam, M. Klene, J. E. Knox, J. B. Cross, 
 V. Bakken, C. Adamo, J. Jaramillo, R. Gomperts, R. E. Stratmann, 
 O. Yazyev, A. J. Austin, R. Cammi, C. Pomelli, J. W. Ochterski, 
 R. L. Martin, K. Morokuma, V. G. Zakrzewski, G. A. Voth, 
 P. Salvador, J. J. Dannenberg, S. Dapprich, A. D. Daniels, 
 O. Farkas, J. B. Foresman, J. V. Ortiz, J. Cioslowski, 
 and D. J. Fox, Gaussian, Inc., Wallingford CT, 2010.
 
 ******************************************
 Gaussian 09:  AM64L-G09RevC.01 23-Sep-2011
                17-Feb-2018 
 ******************************************
 %nprocs=2
 Will use up to    2 processors via shared memory.
 %chk=frag8-conf2.chk
 ----------------------------------------------------------------------
 #HF/6-31G* Geom=AllCheck Guess=Read Pop=(MK,ReadRadii) Integral=(Grid=
 UltraFine) iop(6/33=2)
 ----------------------------------------------------------------------
 1/29=7,38=1/1;
 2/12=2,40=1/2;
 3/5=1,6=6,7=1,11=9,14=-4,16=1,25=1,30=1,75=-5,116=-2/1,2,3;
 4/5=1/1;
 5/5=2,38=6/2;
 6/7=2,8=2,9=2,10=2,15=8,20=101,28=1,33=2/1,2;
 99/5=1,9=1/99;
 Structure from the checkpoint file:  frag8-conf2.chk
 ----------------------------
 Optimization for frag8-conf2
 ----------------------------
 Charge =  0 Multiplicity = 1
 Redundant internal coordinates found in file.
 C,0,1.3408781809,-2.064516898,0.7995873033
 C,0,0.5257013049,-0.9348417454,0.9063752096
 C,0,2.4370689049,-2.2250655375,1.6437447143
 C,0,1.9013773308,-0.1233663914,2.701775084
 C,0,0.7930602601,0.0523298526,1.8609610246
 C,0,2.7251806649,-1.2481808341,2.6076956343
 C,0,4.2827292653,-3.7482807446,4.3044706031
 C,0,-0.0996580517,1.2641599658,2.0011943934
 C,0,3.9290858538,-4.7866223325,5.3598207209
 C,0,3.9135783134,-1.4207778845,3.5359058442
 N,0,3.7483441783,-2.5036917147,4.5035256869
 O,0,5.0069478795,-4.0170368439,3.352171122
 H,0,1.1235192634,-2.8171827983,0.0459288882
 H,0,-0.3239261463,-0.8166385545,0.2373066826
 H,0,3.0808925451,-3.0964035819,1.5587986407
 H,0,2.1291570355,0.641375068,3.4436182684
 H,0,-0.9015880026,1.0876743903,2.7308791628
 H,0,0.4624262709,2.1396938121,2.3439815633
 H,0,-0.578359743,1.5212638223,1.0503328877
 H,0,3.352329731,-5.5886695892,4.8876807541
 H,0,4.854745268,-5.2300944388,5.7377617386
 H,0,3.3558569577,-4.3857400847,6.2017910306
 H,0,4.8133154433,-1.6695212857,2.967498287
 H,0,4.1031912911,-0.4903939524,4.083319738
 H,0,3.0474757355,-2.3889226002,5.2222349542
 Recover connectivity data from disk.
                          Input orientation:                          
 ---------------------------------------------------------------------
 Center     Atomic      Atomic             Coordinates (Angstroms)
 Number     Number       Type             X           Y           Z
 ---------------------------------------------------------------------
      1          6           0        1.340878   -2.064517    0.799587
      2          6           0        0.525701   -0.934842    0.906375
      3          6           0        2.437069   -2.225066    1.643745
      4          6           0        1.901377   -0.123366    2.701775
      5          6           0        0.793060    0.052330    1.860961
      6          6           0        2.725181   -1.248181    2.607696
      7          6           0        4.282729   -3.748281    4.304471
      8          6           0       -0.099658    1.264160    2.001194
      9          6           0        3.929086   -4.786622    5.359821
     10          6           0        3.913578   -1.420778    3.535906
     11          7           0        3.748344   -2.503692    4.503526
     12          8           0        5.006948   -4.017037    3.352171
     13          1           0        1.123519   -2.817183    0.045929
     14          1           0       -0.323926   -0.816639    0.237307
     15          1           0        3.080893   -3.096404    1.558799
     16          1           0        2.129157    0.641375    3.443618
     17          1           0       -0.901588    1.087674    2.730879
     18          1           0        0.462426    2.139694    2.343982
     19          1           0       -0.578360    1.521264    1.050333
     20          1           0        3.352330   -5.588670    4.887681
     21          1           0        4.854745   -5.230094    5.737762
     22          1           0        3.355857   -4.385740    6.201791
     23          1           0        4.813315   -1.669521    2.967498
     24          1           0        4.103191   -0.490394    4.083320
     25          1           0        3.047476   -2.388923    5.222235
 ---------------------------------------------------------------------
                    Distance matrix (angstroms):
                    1          2          3          4          5
     1  C    0.000000
     2  C    1.397170   0.000000
     3  C    1.392843   2.421098   0.000000
     4  C    2.774985   2.403006   2.413200   0.000000
     5  C    2.430568   1.399008   2.817175   1.402214   0.000000
     6  C    2.419081   2.798282   1.402324   1.397394   2.445819
     7  C    4.875834   5.794631   3.578562   4.623794   5.709043
     8  C    3.820876   2.534820   4.328677   2.533808   1.511669
     9  C    5.907995   6.800913   4.753621   5.737836   6.744786
    10  C    3.810594   4.316049   2.531251   2.535351   3.835768
    11  N    4.439361   5.078012   3.158389   3.510490   4.717001
    12  O    4.875252   5.963507   3.568495   5.022773   6.044857
    13  H    1.087084   2.154289   2.151518   3.862024   3.411400
    14  H    2.155211   1.087884   3.403649   3.392080   2.153838
    15  H    2.160750   3.409840   1.086717   3.396557   3.903844
    16  H    3.864471   3.390152   3.398652   1.089516   2.153354
    17  H    4.323754   3.075149   4.827291   3.053536   2.168070
    18  H    4.564233   3.394626   4.841557   2.705557   2.167883
    19  H    4.074822   2.696689   4.845609   3.403111   2.166951
    20  H    5.760043   6.745275   4.761791   6.062424   6.894329
    21  H    6.837668   7.780239   5.624618   6.634626   7.709142
    22  H    6.215466   6.925309   5.127229   5.703810   6.716189
    23  H    4.112624   4.813691   2.776239   3.307656   4.511280
    24  H    4.570682   4.805096   3.425869   2.625140   4.023729
    25  H    4.751581   5.205799   3.633874   3.577570   4.726549
                    6          7          8          9         10
     6  C    0.000000
     7  C    3.399339   0.000000
     8  C    3.828761   7.045208   0.000000
     9  C    4.641567   1.522163   8.007691   0.000000
    10  C    1.517779   2.478756   5.066586   3.828291   0.000000
    11  N    2.493460   1.369011   5.938475   2.444930   1.461606
    12  O    3.664324   1.226212   7.469511   2.405141   2.823079
    13  H    3.404370   5.383561   4.687919   6.323555   4.681273
    14  H    3.886132   6.808643   2.737027   7.751712   5.403905
    15  H    2.154679   3.067258   5.415361   4.245473   2.722139
    16  H    2.150449   4.964677   2.726915   6.031147   2.728580
    17  H    4.315651   7.262217   1.098489   8.046994   5.488736
    18  H    4.082560   7.287419   1.095446   8.311851   5.099813
    19  H    4.583512   7.873227   1.095169   8.870072   5.917025
    20  H    4.942822   2.143084   8.198128   1.094917   4.417422
    21  H    5.494360   2.139462   8.982393   1.093779   4.499429
    22  H    4.812437   2.205736   7.842638   1.094629   4.026040
    23  H    2.160392   2.527896   5.803235   4.027578   1.092926
    24  H    2.156530   3.270316   5.007759   4.485236   1.096006
    25  H    2.870711   2.053289   5.798669   2.558345   2.128648
                   11         12         13         14         15
    11  N    0.000000
    12  O    2.280332   0.000000
    13  H    5.182485   5.239457   0.000000
    14  H    6.134343   6.954362   2.476671   0.000000
    15  H    3.077047   2.788089   2.489588   4.305399   0.000000
    16  H    3.692779   5.476390   4.951487   4.292302   4.292940
    17  H    6.136942   7.832935   5.153438   3.190299   5.894102
    18  H    6.084564   7.718449   5.503518   3.714341   5.906741
    19  H    6.844353   8.195541   4.767320   2.488280   5.913672
    20  H    3.133926   2.750560   6.007603   7.610067   4.167316
    21  H    3.190726   2.680619   7.220883   8.749413   5.016266
    22  H    2.565201   3.313967   6.733375   7.864754   4.826528
    23  H    2.046799   2.386691   4.844305   5.879847   2.649852
    24  H    2.087069   3.713296   5.531086   5.873468   3.769561
    25  H    1.010412   3.160289   5.538877   6.219963   3.731275
                   16         17         18         19         20
    16  H    0.000000
    17  H    3.145250   0.000000
    18  H    2.496428   1.765494   0.000000
    19  H    3.719229   1.765421   1.771784   0.000000
    20  H    6.511138   8.204948   8.634208   8.984804   0.000000
    21  H    6.867757   9.060404   9.226266   9.852485   1.763084
    22  H    5.863804   7.754440   8.113934   8.769736   1.781555
    23  H    3.573743   6.349664   5.816281   6.551854   4.602315
    24  H    2.363669   5.419152   4.816412   5.929814   5.215669
    25  H    3.631734   5.821399   5.956105   6.770599   3.231601
                   21         22         23         24         25
    21  H    0.000000
    22  H    1.781832   0.000000
    23  H    4.511514   4.467961   0.000000
    24  H    5.076098   4.496682   1.771913   0.000000
    25  H    3.406501   2.245420   2.952891   2.452769   0.000000
 Stoichiometry    C10H13NO
 Framework group  C1[X(C10H13NO)]
 Deg. of freedom    69
 Full point group                 C1      NOp   1
 Largest Abelian subgroup         C1      NOp   1
 Largest concise Abelian subgroup C1      NOp   1
                         Standard orientation:                         
 ---------------------------------------------------------------------
 Center     Atomic      Atomic             Coordinates (Angstroms)
 Number     Number       Type             X           Y           Z
 ---------------------------------------------------------------------
      1          6           0        1.550854    1.853472    0.107717
      2          6           0        2.728262    1.136560    0.335381
      3          6           0        0.394783    1.196726   -0.307249
      4          6           0        1.596198   -0.895759   -0.266738
      5          6           0        2.767898   -0.249955    0.153096
      6          6           0        0.410874   -0.192550   -0.497423
      7          6           0       -2.937158   -0.051878    0.073886
      8          6           0        4.030127   -1.036619    0.423429
      9          6           0       -3.884610   -0.154125    1.260841
     10          6           0       -0.847510   -0.915404   -0.941951
     11          7           0       -1.897346   -0.942373    0.074616
     12          8           0       -3.110415    0.768176   -0.821150
     13          1           0        1.540714    2.931728    0.245599
     14          1           0        3.627068    1.660830    0.652839
     15          1           0       -0.521288    1.750055   -0.495918
     16          1           0        1.613333   -1.973846   -0.423195
     17          1           0        4.063723   -1.394222    1.461538
     18          1           0        4.101180   -1.917180   -0.224310
     19          1           0        4.924912   -0.425987    0.262544
     20          1           0       -3.839410    0.779520    1.831022
     21          1           0       -4.906465   -0.256816    0.884520
     22          1           0       -3.665901   -0.990684    1.932070
     23          1           0       -1.290850   -0.419153   -1.808941
     24          1           0       -0.610043   -1.947270   -1.224958
     25          1           0       -1.730545   -1.488571    0.908149
 ---------------------------------------------------------------------
 Rotational constants (GHZ):      2.2154452      0.4439684      0.4094786
 Standard basis: 6-31G(d) (6D, 7F)
 There are   206 symmetry adapted basis functions of A   symmetry.
 Integral buffers will be    131072 words long.
 Raffenetti 1 integral format.
 Two-electron integral symmetry is turned on.
   206 basis functions,   388 primitive gaussians,   206 cartesian basis functions
    44 alpha electrons       44 beta electrons
       nuclear repulsion energy       657.7720887519 Hartrees.
 NAtoms=   25 NActive=   25 NUniq=   25 SFac= 1.00D+00 NAtFMM=   60 NAOKFM=F Big=F
 One-electron integrals computed using PRISM.
 NBasis=   206 RedAO= T  NBF=   206
 NBsUse=   206 1.00D-06 NBFU=   206
 Initial guess read from the checkpoint file:  frag8-conf2.chk
 B after Tr=     0.000000    0.000000    0.000000
         Rot=    1.000000    0.000000    0.000000    0.000000 Ang=   0.00 deg.
 Initial guess orbital symmetries:
       Occupied  (A) (A) (A) (A) (A) (A) (A) (A) (A) (A) (A) (A)
                 (A) (A) (A) (A) (A) (A) (A) (A) (A) (A) (A) (A)
                 (A) (A) (A) (A) (A) (A) (A) (A) (A) (A) (A) (A)
                 (A) (A) (A) (A) (A) (A) (A) (A)
       Virtual   (A) (A) (A) (A) (A) (A) (A) (A) (A) (A) (A) (A)
                 (A) (A) (A) (A) (A) (A) (A) (A) (A) (A) (A) (A)
                 (A) (A) (A) (A) (A) (A) (A) (A) (A) (A) (A) (A)
                 (A) (A) (A) (A) (A) (A) (A) (A) (A) (A) (A) (A)
                 (A) (A) (A) (A) (A) (A) (A) (A) (A) (A) (A) (A)
                 (A) (A) (A) (A) (A) (A) (A) (A) (A) (A) (A) (A)
                 (A) (A) (A) (A) (A) (A) (A) (A) (A) (A) (A) (A)
                 (A) (A) (A) (A) (A) (A) (A) (A) (A) (A) (A) (A)
                 (A) (A) (A) (A) (A) (A) (A) (A) (A) (A) (A) (A)
                 (A) (A) (A) (A) (A) (A) (A) (A) (A) (A) (A) (A)
                 (A) (A) (A) (A) (A) (A) (A) (A) (A) (A) (A) (A)
                 (A) (A) (A) (A) (A) (A) (A) (A) (A) (A) (A) (A)
                 (A) (A) (A) (A) (A) (A) (A) (A) (A) (A) (A) (A)
                 (A) (A) (A) (A) (A) (A)
 Requested convergence on RMS density matrix=1.00D-08 within 128 cycles.
 Requested convergence on MAX density matrix=1.00D-06.
 Requested convergence on             energy=1.00D-06.
 No special actions if energy rises.
 SCF Done:  E(RHF) =  -515.588011075     A.U. after   14 cycles
             Convg  =    0.3759D-08             -V/T =  2.0023

 **********************************************************************

            Population analysis using the SCF density.

 **********************************************************************

 Orbital symmetries:
 BldTbl:  Degeneracy threshold= 1.00D-02
       Occupied  (A) (A) (A) (A) (A) (A) (A) (A) (A) (A) (A) (A)
                 (A) (A) (A) (A) (A) (A) (A) (A) (A) (A) (A) (A)
                 (A) (A) (A) (A) (A) (A) (A) (A) (A) (A) (A) (A)
                 (A) (A) (A) (A) (A) (A) (A) (A)
       Virtual   (A) (A) (A) (A) (A) (A) (A) (A) (A) (A) (A) (A)
                 (A) (A) (A) (A) (A) (A) (A) (A) (A) (A) (A) (A)
                 (A) (A) (A) (A) (A) (A) (A) (A) (A) (A) (A) (A)
                 (A) (A) (A) (A) (A) (A) (A) (A) (A) (A) (A) (A)
                 (A) (A) (A) (A) (A) (A) (A) (A) (A) (A) (A) (A)
                 (A) (A) (A) (A) (A) (A) (A) (A) (A) (A) (A) (A)
                 (A) (A) (A) (A) (A) (A) (A) (A) (A) (A) (A) (A)
                 (A) (A) (A) (A) (A) (A) (A) (A) (A) (A) (A) (A)
                 (A) (A) (A) (A) (A) (A) (A) (A) (A) (A) (A) (A)
                 (A) (A) (A) (A) (A) (A) (A) (A) (A) (A) (A) (A)
                 (A) (A) (A) (A) (A) (A) (A) (A) (A) (A) (A) (A)
                 (A) (A) (A) (A) (A) (A) (A) (A) (A) (A) (A) (A)
                 (A) (A) (A) (A) (A) (A) (A) (A) (A) (A) (A) (A)
                 (A) (A) (A) (A) (A) (A)
 The electronic state is 1-A.
 Alpha  occ. eigenvalues --  -20.51946 -15.58912 -11.35372 -11.26781 -11.24224
 Alpha  occ. eigenvalues --  -11.23875 -11.23865 -11.23269 -11.23047 -11.22880
 Alpha  occ. eigenvalues --  -11.22730 -11.22529  -1.37105  -1.22701  -1.14843
 Alpha  occ. eigenvalues --   -1.05176  -1.02682  -0.99894  -0.93240  -0.91839
 Alpha  occ. eigenvalues --   -0.81482  -0.78804  -0.78007  -0.68848  -0.67923
 Alpha  occ. eigenvalues --   -0.64830  -0.64015  -0.62524  -0.60577  -0.57772
 Alpha  occ. eigenvalues --   -0.57474  -0.57159  -0.56172  -0.55548  -0.54889
 Alpha  occ. eigenvalues --   -0.52949  -0.51044  -0.48506  -0.47843  -0.47726
 Alpha  occ. eigenvalues --   -0.41705  -0.38723  -0.32777  -0.31588
 Alpha virt. eigenvalues --    0.13905   0.14505   0.19806   0.21826   0.24192
 Alpha virt. eigenvalues --    0.26383   0.26747   0.28007   0.30136   0.30554
 Alpha virt. eigenvalues --    0.31152   0.31746   0.33481   0.33609   0.34722
 Alpha virt. eigenvalues --    0.35053   0.37541   0.40082   0.41405   0.42945
 Alpha virt. eigenvalues --    0.44289   0.48201   0.50850   0.51125   0.53813
 Alpha virt. eigenvalues --    0.56830   0.61152   0.62046   0.71240   0.73089
 Alpha virt. eigenvalues --    0.73489   0.74906   0.75366   0.76596   0.78333
 Alpha virt. eigenvalues --    0.78400   0.78613   0.80769   0.82283   0.83295
 Alpha virt. eigenvalues --    0.84200   0.85655   0.86388   0.87945   0.88929
 Alpha virt. eigenvalues --    0.90814   0.93356   0.95032   0.96594   0.97496
 Alpha virt. eigenvalues --    0.99576   1.00221   1.02163   1.03164   1.07625
 Alpha virt. eigenvalues --    1.08260   1.09800   1.11225   1.12308   1.12973
 Alpha virt. eigenvalues --    1.14814   1.15497   1.16515   1.17428   1.18212
 Alpha virt. eigenvalues --    1.18776   1.19525   1.20764   1.21469   1.22137
 Alpha virt. eigenvalues --    1.23559   1.24668   1.28181   1.33528   1.35125
 Alpha virt. eigenvalues --    1.38877   1.40865   1.41810   1.43999   1.44594
 Alpha virt. eigenvalues --    1.49371   1.51135   1.53537   1.58896   1.60856
 Alpha virt. eigenvalues --    1.62069   1.65959   1.67589   1.69191   1.72902
 Alpha virt. eigenvalues --    1.75220   1.77031   1.78226   1.79531   1.81723
 Alpha virt. eigenvalues --    1.87311   1.94642   2.03129   2.04364   2.08750
 Alpha virt. eigenvalues --    2.11520   2.12156   2.13062   2.13957   2.17888
 Alpha virt. eigenvalues --    2.18931   2.19487   2.20033   2.21003   2.23855
 Alpha virt. eigenvalues --    2.26795   2.28783   2.30537   2.37432   2.38919
 Alpha virt. eigenvalues --    2.39309   2.41472   2.46346   2.47532   2.51433
 Alpha virt. eigenvalues --    2.54042   2.54484   2.55362   2.59573   2.60499
 Alpha virt. eigenvalues --    2.63870   2.64787   2.67333   2.67910   2.71382
 Alpha virt. eigenvalues --    2.73273   2.73901   2.76215   2.79922   2.91356
 Alpha virt. eigenvalues --    2.94336   2.96424   2.99811   3.03269   3.05268
 Alpha virt. eigenvalues --    3.12927   3.14737   3.17096   3.17863   3.23393
 Alpha virt. eigenvalues --    3.27780   3.36360   3.46124   3.50504   3.79150
 Alpha virt. eigenvalues --    4.37620   4.47868   4.52563   4.54757   4.57236
 Alpha virt. eigenvalues --    4.61356   4.66435   4.75531   4.79929   4.86939
 Alpha virt. eigenvalues --    4.93118   5.15634
          Condensed to atoms (all electrons):
              1          2          3          4          5          6
     1  C    4.900478   0.536596   0.540939  -0.039718  -0.038487  -0.038965
     2  C    0.536596   4.930738  -0.045208  -0.040796   0.574779  -0.033812
     3  C    0.540939  -0.045208   4.961389  -0.043453  -0.032678   0.548258
     4  C   -0.039718  -0.040796  -0.043453   4.963308   0.556888   0.564237
     5  C   -0.038487   0.574779  -0.032678   0.556888   4.783264  -0.039606
     6  C   -0.038965  -0.033812   0.548258   0.564237  -0.039606   4.870042
     7  C    0.000056   0.000000   0.001722  -0.000067  -0.000001  -0.001857
     8  C    0.003031  -0.046156   0.000186  -0.046176   0.323114   0.002502
     9  C    0.000001   0.000000  -0.000001  -0.000006   0.000000  -0.000383
    10  C    0.002115   0.000321  -0.044292  -0.035096   0.002500   0.326712
    11  N    0.000012  -0.000001   0.000432  -0.001199   0.000024  -0.073311
    12  O    0.000061   0.000000  -0.001509  -0.000026   0.000000  -0.002047
    13  H    0.380087  -0.029585  -0.028258   0.000389   0.001908   0.002059
    14  H   -0.030001   0.381316   0.002386   0.002866  -0.033475   0.000208
    15  H   -0.025496   0.002117   0.371868   0.002322   0.000228  -0.028162
    16  H    0.000077   0.002825   0.002922   0.377483  -0.032182  -0.033061
    17  H   -0.000091  -0.002048   0.000031  -0.002251  -0.036206  -0.000110
    18  H   -0.000056   0.002367  -0.000002  -0.002526  -0.040994   0.000153
    19  H    0.000169  -0.002517  -0.000004   0.002478  -0.040987  -0.000024
    20  H    0.000000   0.000000   0.000012   0.000000   0.000000   0.000043
    21  H    0.000000   0.000000   0.000001   0.000000   0.000000  -0.000004
    22  H    0.000000   0.000000  -0.000005   0.000001   0.000000   0.000009
    23  H    0.000058  -0.000002  -0.002623   0.001224  -0.000044  -0.038472
    24  H   -0.000027  -0.000019   0.003217  -0.000391   0.000249  -0.060015
    25  H   -0.000009  -0.000007   0.000422   0.000810  -0.000001   0.001636
              7          8          9         10         11         12
     1  C    0.000056   0.003031   0.000001   0.002115   0.000012   0.000061
     2  C    0.000000  -0.046156   0.000000   0.000321  -0.000001   0.000000
     3  C    0.001722   0.000186  -0.000001  -0.044292   0.000432  -0.001509
     4  C   -0.000067  -0.046176  -0.000006  -0.035096  -0.001199  -0.000026
     5  C   -0.000001   0.323114   0.000000   0.002500   0.000024   0.000000
     6  C   -0.001857   0.002502  -0.000383   0.326712  -0.073311  -0.002047
     7  C    4.155950   0.000000   0.360143  -0.025330   0.282212   0.570571
     8  C    0.000000   5.101725   0.000000  -0.000110   0.000001   0.000000
     9  C    0.360143   0.000000   5.246903   0.004486  -0.102401  -0.068290
    10  C   -0.025330  -0.000110   0.004486   4.943876   0.190498   0.001942
    11  N    0.282212   0.000001  -0.102401   0.190498   7.348998  -0.094705
    12  O    0.570571   0.000000  -0.068290   0.001942  -0.094705   8.204582
    13  H    0.000000  -0.000108   0.000000  -0.000113   0.000005  -0.000002
    14  H    0.000000  -0.002183   0.000000   0.000006   0.000000   0.000000
    15  H    0.001505   0.000005   0.000121  -0.000186  -0.002250   0.007126
    16  H    0.000000  -0.001987   0.000000  -0.002750   0.000082   0.000000
    17  H    0.000000   0.385591   0.000000   0.000000   0.000000   0.000000
    18  H    0.000000   0.394246   0.000000   0.000000   0.000000   0.000000
    19  H    0.000000   0.395466   0.000000   0.000001   0.000000   0.000000
    20  H   -0.027429   0.000000   0.379578  -0.000105   0.001165   0.000391
    21  H   -0.027534   0.000000   0.381002  -0.000115   0.001915   0.001009
    22  H   -0.038791   0.000000   0.374120   0.000029   0.005455   0.002513
    23  H   -0.000850   0.000002   0.000410   0.407567  -0.041867   0.008189
    24  H    0.002274  -0.000008  -0.000037   0.415826  -0.042266   0.000380
    25  H   -0.015769   0.000000   0.000206  -0.022106   0.316750   0.002163
             13         14         15         16         17         18
     1  C    0.380087  -0.030001  -0.025496   0.000077  -0.000091  -0.000056
     2  C   -0.029585   0.381316   0.002117   0.002825  -0.002048   0.002367
     3  C   -0.028258   0.002386   0.371868   0.002922   0.000031  -0.000002
     4  C    0.000389   0.002866   0.002322   0.377483  -0.002251  -0.002526
     5  C    0.001908  -0.033475   0.000228  -0.032182  -0.036206  -0.040994
     6  C    0.002059   0.000208  -0.028162  -0.033061  -0.000110   0.000153
     7  C    0.000000   0.000000   0.001505   0.000000   0.000000   0.000000
     8  C   -0.000108  -0.002183   0.000005  -0.001987   0.385591   0.394246
     9  C    0.000000   0.000000   0.000121   0.000000   0.000000   0.000000
    10  C   -0.000113   0.000006  -0.000186  -0.002750   0.000000   0.000000
    11  N    0.000005   0.000000  -0.002250   0.000082   0.000000   0.000000
    12  O   -0.000002   0.000000   0.007126   0.000000   0.000000   0.000000
    13  H    0.472920  -0.001411  -0.001174   0.000011   0.000002   0.000002
    14  H   -0.001411   0.482457  -0.000094  -0.000119   0.000232  -0.000008
    15  H   -0.001174  -0.000094   0.432835  -0.000110   0.000000   0.000000
    16  H    0.000011  -0.000119  -0.000110   0.491368   0.000283   0.002037
    17  H    0.000002   0.000232   0.000000   0.000283   0.533499  -0.028623
    18  H    0.000002  -0.000008   0.000000   0.002037  -0.028623   0.525182
    19  H   -0.000004   0.001997   0.000000  -0.000018  -0.027846  -0.024621
    20  H    0.000000   0.000000  -0.000012   0.000000   0.000000   0.000000
    21  H    0.000000   0.000000   0.000000   0.000000   0.000000   0.000000
    22  H    0.000000   0.000000  -0.000007   0.000000   0.000000   0.000000
    23  H   -0.000001   0.000000   0.000540   0.000029   0.000000   0.000000
    24  H    0.000002   0.000000  -0.000055   0.003019   0.000000   0.000000
    25  H    0.000000   0.000000  -0.000037   0.000041   0.000000   0.000000
             19         20         21         22         23         24
     1  C    0.000169   0.000000   0.000000   0.000000   0.000058  -0.000027
     2  C   -0.002517   0.000000   0.000000   0.000000  -0.000002  -0.000019
     3  C   -0.000004   0.000012   0.000001  -0.000005  -0.002623   0.003217
     4  C    0.002478   0.000000   0.000000   0.000001   0.001224  -0.000391
     5  C   -0.040987   0.000000   0.000000   0.000000  -0.000044   0.000249
     6  C   -0.000024   0.000043  -0.000004   0.000009  -0.038472  -0.060015
     7  C    0.000000  -0.027429  -0.027534  -0.038791  -0.000850   0.002274
     8  C    0.395466   0.000000   0.000000   0.000000   0.000002  -0.000008
     9  C    0.000000   0.379578   0.381002   0.374120   0.000410  -0.000037
    10  C    0.000001  -0.000105  -0.000115   0.000029   0.407567   0.415826
    11  N    0.000000   0.001165   0.001915   0.005455  -0.041867  -0.042266
    12  O    0.000000   0.000391   0.001009   0.002513   0.008189   0.000380
    13  H   -0.000004   0.000000   0.000000   0.000000  -0.000001   0.000002
    14  H    0.001997   0.000000   0.000000   0.000000   0.000000   0.000000
    15  H    0.000000  -0.000012   0.000000  -0.000007   0.000540  -0.000055
    16  H   -0.000018   0.000000   0.000000   0.000000   0.000029   0.003019
    17  H   -0.027846   0.000000   0.000000   0.000000   0.000000   0.000000
    18  H   -0.024621   0.000000   0.000000   0.000000   0.000000   0.000000
    19  H    0.520862   0.000000   0.000000   0.000000   0.000000   0.000000
    20  H    0.000000   0.483160  -0.019689  -0.023141  -0.000008  -0.000002
    21  H    0.000000  -0.019689   0.475957  -0.022882   0.000002   0.000007
    22  H    0.000000  -0.023141  -0.022882   0.534169  -0.000024  -0.000023
    23  H    0.000000  -0.000008   0.000002  -0.000024   0.445350  -0.020533
    24  H    0.000000  -0.000002   0.000007  -0.000023  -0.020533   0.515955
    25  H    0.000000  -0.000072   0.000078   0.001167   0.002995  -0.001530
             25
     1  C   -0.000009
     2  C   -0.000007
     3  C    0.000422
     4  C    0.000810
     5  C   -0.000001
     6  C    0.001636
     7  C   -0.015769
     8  C    0.000000
     9  C    0.000206
    10  C   -0.022106
    11  N    0.316750
    12  O    0.002163
    13  H    0.000000
    14  H    0.000000
    15  H   -0.000037
    16  H    0.000041
    17  H    0.000000
    18  H    0.000000
    19  H    0.000000
    20  H   -0.000072
    21  H    0.000078
    22  H    0.001167
    23  H    0.002995
    24  H   -0.001530
    25  H    0.331080
 Mulliken atomic charges:
              1
     1  C   -0.190829
     2  C   -0.230907
     3  C   -0.235752
     4  C   -0.260300
     5  C    0.051708
     6  C    0.033969
     7  C    0.763196
     8  C   -0.509141
     9  C   -0.575853
    10  C   -0.165675
    11  N   -0.789548
    12  O   -0.632351
    13  H    0.203271
    14  H    0.195824
    15  H    0.238915
    16  H    0.190051
    17  H    0.177537
    18  H    0.172844
    19  H    0.175047
    20  H    0.206110
    21  H    0.210254
    22  H    0.167410
    23  H    0.238059
    24  H    0.183975
    25  H    0.382184
 Sum of Mulliken atomic charges =   0.00000
 Mulliken charges with hydrogens summed into heavy atoms:
              1
     1  C    0.012442
     2  C   -0.035083
     3  C    0.003164
     4  C   -0.070249
     5  C    0.051708
     6  C    0.033969
     7  C    0.763196
     8  C    0.016287
     9  C    0.007920
    10  C    0.256359
    11  N   -0.407363
    12  O   -0.632351
 Sum of Mulliken charges with hydrogens summed into heavy atoms =   0.00000
 DipInt: DoE/N= T F RetVal/Mat= T F Init=T NMatP=  1 IDeriv=0 Min/MaxMlt=  0  4
 Entering OneElI...
 OneElI was handed    33442981 working-precision words.
 Multipole integrals L=0 to 4 MinM= 0 MaxM= 0.
 Requested accuracy = 0.1000D-12
 PrsmSu:  NPrtUS=   1 ThrOK=F IAlg=1 NPAlg=1 LenDen=           0.
 Prism:   IPart=     0 DynPar=F LinDyn=F Incr=          24.
 PRISM was handed    33234439 working-precision words and  2405 shell-pairs
 IPart=  0 NShTot=        2405 NBatch=          56 AvBLen=        42.9
 PrSmSu:  NxtVal=             25.
 Electronic moments (au):
        -88.00000000          0.54170197         -0.99006332          1.08193442
      -2203.54299157       -396.48461529       -202.64215481          4.29660443
         -5.50755745          1.31695075        189.41900421       -305.27200883
        -83.41217078       -663.71011329        569.01967105      -1435.94447166
        498.28227773         68.28966688         15.73521309       -121.37915105
    -100891.41268596      -4641.11110592      -1581.75496790       6628.24027349
       2290.34876132       -866.33754043       -190.89088290        756.70783273
         18.62496717      -7944.67155183      -6533.83175429       -770.77142993
       1454.30658234       -495.57054765         79.28179515
 Electronic spatial extent (au):  <R**2>=           2802.6698
 DipInt: DoE/N= F T RetVal/Mat= T F Init=T NMatP=  1 IDeriv=0 Min/MaxMlt=  0  4
 Nuclear    moments (au):
         88.00000000          0.00000000          0.00000000          0.00000000
       2150.61472451        346.00038795        147.83873497          0.00000000
          0.00000000          0.00000000       -183.07844376        308.06273993
         84.56119748        669.00328857       -593.80270147       1487.18751642
       -514.63038044        -77.14599998         -9.92291486        119.27684014
      93291.85015807       3321.95155112        873.83796605      -6453.68333674
      -2479.46784718        881.84558660        199.72192422       -751.97257530
        -29.69211601       6382.82023908       5056.57061643        417.38077709
      -1392.06830161        479.67631244        -78.34541534
 Total      moments (au):
          0.00000000          0.54170197         -0.99006332          1.08193442
        -52.92826705        -50.48422733        -54.80341984          4.29660443
         -5.50755745          1.31695075          6.34056045          2.79073110
          1.14902670          5.29317528        -24.78303042         51.24304476
        -16.34810271         -8.85633310          5.81229822         -2.10231092
      -7599.56252789      -1319.15955480       -707.91700184        174.55693675
       -189.11908586         15.50804617          8.83104133          4.73525743
        -11.06714884      -1561.85131275      -1477.26113787       -353.39065284
         62.23828073        -15.89423521          0.93637981
 Traceless Quadrup. (au):
         -0.18962898          2.25441074         -2.06478176          4.29660443
         -5.50755745          1.31695075
 Charge=              0.0000 electrons
 Dipole moment (field-independent basis, Debye):
    X=              1.3769    Y=             -2.5165    Z=              2.7500  Tot=              3.9738
 Quadrupole moment (field-independent basis, Debye-Ang):
   XX=            -71.1903   YY=            -67.9030   ZZ=            -73.7125
   XY=              5.7791   XZ=             -7.4079   YZ=              1.7713
 Traceless Quadrupole moment (field-independent basis, Debye-Ang):
   XX=             -0.2551   YY=              3.0323   ZZ=             -2.7772
   XY=              5.7791   XZ=             -7.4079   YZ=              1.7713
 Octapole moment (field-independent basis, Debye-Ang**2):
  XXX=              4.5130  YYY=              1.9863  ZZZ=              0.8178  XYY=              3.7675
  XXY=            -17.6396  XXZ=             36.4728  XZZ=            -11.6359  YZZ=             -6.3036
  YYZ=              4.1370  XYZ=             -1.4963
 Hexadecapole moment (field-independent basis, Debye-Ang**3):
 XXXX=          -2862.3595 YYYY=           -496.8587 ZZZZ=           -266.6355 XXXY=             65.7465
 XXXZ=            -71.2313 YYYX=              5.8411 YYYZ=              3.3262 ZZZX=              1.7835
 ZZZY=             -4.1684 XXYY=           -588.2681 XXZZ=           -556.4073 YYZZ=           -133.1039
 XXYZ=             23.4419 YYXZ=             -5.9865 ZZXY=              0.3527
 N-N= 6.577720887519D+02 E-N=-2.519418236813D+03  KE= 5.144139097494D+02
 Entering OneElI...
 OneElI was handed    33357278 working-precision words.
 Calculate electrostatic properties
    NBasis =   206  MinDer = 0  MaxDer = 0
    NGrid  =    25  NMatD  =   1
 Requested accuracy = 0.1000D-12
 PrsmSu:  NPrtUS=   2 ThrOK=T IAlg=1 NPAlg=1 LenDen=           0.
 Prism:   IPart=     0 DynPar=F LinDyn=F Incr=         275.
 PRISM was handed    16548292 working-precision words and  2200 shell-pairs
 PRISM was handed    16548292 working-precision words and  2200 shell-pairs
 IPart=  0 NShTot=       27725 NBatch=        1109 AvBLen=        25.0
 IPart=  1 NShTot=       27275 NBatch=        1091 AvBLen=        25.0
 PrSmSu:  NxtVal=            551.
 --------------------------------------------------------
       Center         ----      EFG at Nuclei      ----
                      3XX-RR        3YY-RR        3ZZ-RR
 --------------------------------------------------------
     1   Atom        0.170815      0.130790     -0.301605
     2   Atom        0.105582      0.156907     -0.262489
     3   Atom        0.123646      0.151153     -0.274799
     4   Atom        0.159167      0.079851     -0.239018
     5   Atom        0.110236      0.189405     -0.299641
     6   Atom        0.116737      0.184712     -0.301449
     7   Atom       -0.025804     -0.124826      0.150630
     8   Atom       -0.026345      0.007117      0.019228
     9   Atom        0.006320      0.022854     -0.029174
    10   Atom       -0.076430      0.131626     -0.055196
    11   Atom       -0.095121      0.291063     -0.195942
    12   Atom        0.921697     -0.594987     -0.326710
    13   Atom        0.144854     -0.300117      0.155263
    14   Atom       -0.163649      0.037428      0.126220
    15   Atom       -0.167824      0.020923      0.146901
    16   Atom        0.139414     -0.294486      0.155072
    17   Atom        0.143455      0.101806     -0.245262
    18   Atom        0.141129     -0.137097     -0.004031
    19   Atom       -0.150087      0.005329      0.144758
    20   Atom        0.147413     -0.172676      0.025264
    21   Atom       -0.241824      0.149597      0.092226
    22   Atom        0.124973     -0.109023     -0.015950
    23   Atom        0.073266      0.063959     -0.137225
    24   Atom        0.118762     -0.238286      0.119523
    25   Atom        0.164891      0.041706     -0.206598
 --------------------------------------------------------
                        XY            XZ            YZ
 --------------------------------------------------------
     1   Atom       -0.014243      0.143325      0.060306
     2   Atom       -0.050620      0.101062      0.044573
     3   Atom       -0.001138      0.127574      0.065669
     4   Atom       -0.017735      0.118064      0.053971
     5   Atom        0.016361      0.134637      0.078587
     6   Atom       -0.055732      0.108391      0.054543
     7   Atom       -0.247558     -0.249587     -0.330271
     8   Atom        0.030459     -0.004155      0.003402
     9   Atom       -0.005150      0.046872      0.018818
    10   Atom       -0.047413      0.223729     -0.048460
    11   Atom        0.560695      0.356492      0.489917
    12   Atom       -0.572301     -0.905539      0.493440
    13   Atom        0.004564     -0.004790     -0.059668
    14   Atom       -0.177154     -0.114055     -0.066233
    15   Atom        0.191829     -0.068318      0.036233
    16   Atom        0.007076     -0.005968     -0.066771
    17   Atom        0.007067     -0.011076      0.135466
    18   Atom        0.024687      0.013156     -0.213324
    19   Atom       -0.199382      0.053066      0.037824
    20   Atom       -0.018970     -0.004661     -0.197721
    21   Atom       -0.041307     -0.139678     -0.014843
    22   Atom        0.075756     -0.048942      0.209093
    23   Atom        0.069901     -0.128784      0.155685
    24   Atom        0.087403      0.030822     -0.104186
    25   Atom        0.081137     -0.056118      0.274115
 --------------------------------------------------------


 ---------------------------------------------------------------------------------
              Nuclear Quadrupole in Principal Axis System
 ---------------------------------------------------------------------------------

       Atom             a.u.   MegaHertz   Gauss  10(-4) cm-1        Axes

              Baa    -0.3497   -46.922   -16.743   -15.651 -0.2666 -0.1278  0.9553
     1 C(13)  Bbb     0.1387    18.610     6.640     6.208 -0.0678  0.9912  0.1137
              Bcc     0.2110    28.312    10.102     9.444  0.9614  0.0344  0.2729
 
              Baa    -0.2953   -39.631   -14.141   -13.220 -0.2572 -0.1233  0.9585
     2 C(13)  Bbb     0.1067    14.318     5.109     4.776  0.7893  0.5455  0.2819
              Bcc     0.1886    25.314     9.033     8.444 -0.5576  0.8290 -0.0430
 
              Baa    -0.3207   -43.030   -15.354   -14.353 -0.2738 -0.1332  0.9525
     3 C(13)  Bbb     0.1431    19.205     6.853     6.406 -0.6931  0.7139 -0.0994
              Bcc     0.1775    23.825     8.501     7.947  0.6668  0.6874  0.2878
 
              Baa    -0.2803   -37.618   -13.423   -12.548 -0.2621 -0.1556  0.9524
     4 C(13)  Bbb     0.0887    11.904     4.248     3.971 -0.0149  0.9874  0.1572
              Bcc     0.1916    25.713     9.175     8.577  0.9649 -0.0270  0.2612
 
              Baa    -0.3492   -46.861   -16.721   -15.631 -0.2745 -0.1307  0.9527
     5 C(13)  Bbb     0.1297    17.411     6.213     5.808  0.8601 -0.4763  0.1825
              Bcc     0.2195    29.451    10.509     9.824  0.4299  0.8695  0.2431
 
              Baa    -0.3363   -45.134   -16.105   -15.055 -0.2455 -0.1269  0.9611
     6 C(13)  Bbb     0.1203    16.138     5.758     5.383  0.8302  0.4843  0.2760
              Bcc     0.2161    28.996    10.346     9.672 -0.5005  0.8656 -0.0136
 
              Baa    -0.5665   -76.018   -27.125   -25.357  0.5406  0.6767  0.4998
     7 C(13)  Bbb     0.1763    23.657     8.441     7.891  0.7987 -0.5995 -0.0521
              Bcc     0.3902    52.361    18.684    17.466 -0.2644 -0.4273  0.8646
 
              Baa    -0.0448    -6.013    -2.145    -2.006  0.8572 -0.5083  0.0826
     8 C(13)  Bbb     0.0196     2.624     0.936     0.875 -0.1435 -0.0817  0.9863
              Bcc     0.0253     3.389     1.209     1.130  0.4945  0.8573  0.1430
 
              Baa    -0.0654    -8.777    -3.132    -2.928 -0.5457 -0.2051  0.8125
     9 C(13)  Bbb     0.0240     3.218     1.148     1.073 -0.4344  0.8984 -0.0650
              Bcc     0.0414     5.558     1.983     1.854  0.7166  0.3884  0.5793
 
              Baa    -0.2898   -38.888   -13.876   -12.972  0.7239  0.0021 -0.6899
    10 C(13)  Bbb     0.0758    10.174     3.630     3.394  0.4373  0.7720  0.4612
              Bcc     0.2140    28.713    10.246     9.578 -0.5336  0.6356 -0.5580
 
              Baa    -0.5058   -19.506    -6.960    -6.506 -0.5880 -0.0811  0.8048
    11 N(14)  Bbb    -0.4926   -18.998    -6.779    -6.337 -0.6202  0.6839 -0.3842
              Bcc     0.9983    38.504    13.739    12.844  0.5193  0.7250  0.4524
 
              Baa    -0.9835    71.164    25.393    23.738 -0.1168  0.7100 -0.6945
    12 O(17)  Bbb    -0.6575    47.575    16.976    15.869  0.5453  0.6303  0.5526
              Bcc     1.6410  -118.739   -42.369   -39.607  0.8301 -0.3141 -0.4608
 
              Baa    -0.3078  -164.249   -58.608   -54.787 -0.0086  0.9918  0.1277
    13 H(1)   Bbb     0.1434    76.527    27.307    25.527  0.9646 -0.0254  0.2625
              Bcc     0.1644    87.721    31.301    29.261 -0.2636 -0.1254  0.9564
 
              Baa    -0.3070  -163.780   -58.441   -54.631  0.8268  0.4813  0.2913
    14 H(1)   Bbb     0.1406    75.009    26.765    25.020 -0.5017  0.8651 -0.0055
              Bcc     0.1664    88.772    31.676    29.611 -0.2546 -0.1416  0.9566
 
              Baa    -0.3005  -160.354   -57.218   -53.488  0.8377 -0.5190  0.1699
    15 H(1)   Bbb     0.1390    74.179    26.469    24.743  0.4764  0.8466  0.2375
              Bcc     0.1615    86.175    30.749    28.745 -0.2671 -0.1180  0.9564
 
              Baa    -0.3043  -162.349   -57.930   -54.154 -0.0138  0.9895  0.1437
    16 H(1)   Bbb     0.1377    73.485    26.221    24.512  0.9687 -0.0223  0.2473
              Bcc     0.1666    88.864    31.709    29.642 -0.2479 -0.1426  0.9582
 
              Baa    -0.2922  -155.931   -55.640   -52.013  0.0293 -0.3254  0.9451
    17 H(1)   Bbb     0.1423    75.917    27.089    25.323  0.8934 -0.4155 -0.1708
              Bcc     0.1500    80.013    28.551    26.690  0.4482  0.8494  0.2786
 
              Baa    -0.2958  -157.813   -56.311   -52.641 -0.0632  0.8042  0.5909
    18 H(1)   Bbb     0.1415    75.480    26.933    25.177  0.9414 -0.1486  0.3029
              Bcc     0.1543    82.333    29.378    27.463 -0.3314 -0.5754  0.7477
 
              Baa    -0.2960  -157.932   -56.354   -52.680  0.8165  0.5586 -0.1462
    19 H(1)   Bbb     0.1415    75.490    26.937    25.181 -0.5737  0.8133 -0.0967
              Bcc     0.1545    82.441    29.417    27.500  0.0649  0.1628  0.9845
 
              Baa    -0.2956  -157.715   -56.277   -52.608  0.0419  0.8503  0.5246
    20 H(1)   Bbb     0.1418    75.650    26.994    25.234  0.6828  0.3589 -0.6363
              Bcc     0.1538    82.065    29.283    27.374  0.7294 -0.3849  0.5656
 
              Baa    -0.2968  -158.383   -56.515   -52.831  0.9355  0.0978  0.3396
    21 H(1)   Bbb     0.1429    76.262    27.212    25.438 -0.3400 -0.0129  0.9403
              Bcc     0.1539    82.122    29.303    27.393 -0.0964  0.9951 -0.0212
 
              Baa    -0.2958  -157.842   -56.322   -52.650 -0.2086  0.7657 -0.6085
    22 H(1)   Bbb     0.1381    73.702    26.299    24.584  0.8148 -0.2080 -0.5411
              Bcc     0.1577    84.141    30.023    28.066  0.5409  0.6087  0.5805
 
              Baa    -0.2824  -150.656   -53.758   -50.253  0.3810 -0.4420  0.8121
    23 H(1)   Bbb     0.1336    71.304    25.443    23.784  0.9245  0.1923 -0.3290
              Bcc     0.1487    79.352    28.315    26.469 -0.0108  0.8762  0.4819
 
              Baa    -0.2874  -153.366   -54.725   -51.157 -0.2219  0.9404  0.2576
    24 H(1)   Bbb     0.1359    72.490    25.866    24.180  0.8442  0.3175 -0.4319
              Bcc     0.1516    80.876    28.858    26.977  0.4879 -0.1216  0.8644
 
              Baa    -0.3982  -212.448   -75.807   -70.865  0.1604 -0.5432  0.8242
    25 H(1)   Bbb     0.1570    83.786    29.897    27.948  0.8432 -0.3586 -0.4005
              Bcc     0.2411   128.662    45.910    42.917  0.5131  0.7592  0.4005
 

 ---------------------------------------------------------------------------------

 No NMR shielding tensors so no spin-rotation constants.
 Leave Link  601 at Sat Feb 17 20:56:46 2018, MaxMem=   33554432 cpu:       0.5
 Merz-Kollman atomic radii used.
 Read replacement radii for each type of atom:
 Atom Element Radius
    1     6    1.50
    2     6    1.50
    3     6    1.50
    4     6    1.50
    5     6    1.50
    6     6    1.50
    7     6    1.50
    8     6    1.50
    9     6    1.50
   10     6    1.50
   11     7    1.50
   12     8    1.40
   13     1    1.20
   14     1    1.20
   15     1    1.20
   16     1    1.20
   17     1    1.20
   18     1    1.20
   19     1    1.20
   20     1    1.20
   21     1    1.20
   22     1    1.20
   23     1    1.20
   24     1    1.20
   25     1    1.20
 Generate VDW surfaces: Layer= 4 Dens= 1 Start= 1.400 Inc= 0.200

 **********************************************************************

            Electrostatic Properties Using The SCF Density

 **********************************************************************

       Atomic Center    1 is at   1.550854  1.853472  0.107717
       Atomic Center    2 is at   2.728262  1.136560  0.335381
       Atomic Center    3 is at   0.394783  1.196726 -0.307249
       Atomic Center    4 is at   1.596198 -0.895759 -0.266738
       Atomic Center    5 is at   2.767898 -0.249955  0.153096
       Atomic Center    6 is at   0.410874 -0.192550 -0.497423
       Atomic Center    7 is at  -2.937158 -0.051878  0.073886
       Atomic Center    8 is at   4.030127 -1.036619  0.423429
       Atomic Center    9 is at  -3.884610 -0.154125  1.260841
       Atomic Center   10 is at  -0.847510 -0.915404 -0.941951
       Atomic Center   11 is at  -1.897346 -0.942373  0.074616
       Atomic Center   12 is at  -3.110415  0.768176 -0.821150
       Atomic Center   13 is at   1.540714  2.931728  0.245599
       Atomic Center   14 is at   3.627068  1.660830  0.652839
       Atomic Center   15 is at  -0.521288  1.750055 -0.495918
       Atomic Center   16 is at   1.613333 -1.973846 -0.423195
       Atomic Center   17 is at   4.063723 -1.394222  1.461538
       Atomic Center   18 is at   4.101180 -1.917180 -0.224310
       Atomic Center   19 is at   4.924912 -0.425987  0.262544
       Atomic Center   20 is at  -3.839410  0.779520  1.831022
       Atomic Center   21 is at  -4.906465 -0.256816  0.884520
       Atomic Center   22 is at  -3.665901 -0.990684  1.932070
       Atomic Center   23 is at  -1.290850 -0.419153 -1.808941
       Atomic Center   24 is at  -0.610043 -1.947270 -1.224958
       Atomic Center   25 is at  -1.730545 -1.488571  0.908149
      ESP Fit Center   26 is at   1.550854  1.853472  2.207717
      ESP Fit Center   27 is at   2.075854  2.762798  1.926370
      ESP Fit Center   28 is at   1.025854  2.762798  1.926370
      ESP Fit Center   29 is at   0.500854  1.853472  1.926370
      ESP Fit Center   30 is at   1.025854  0.944145  1.926370
      ESP Fit Center   31 is at   3.080803  2.836710 -0.942283
      ESP Fit Center   32 is at   0.359889  3.227918 -0.942283
      ESP Fit Center   33 is at   2.600854  1.853472 -1.710937
      ESP Fit Center   34 is at   2.075854  2.762798 -1.710937
      ESP Fit Center   35 is at   1.025854  2.762798 -1.710937
      ESP Fit Center   36 is at   2.075854  0.944145 -1.710937
      ESP Fit Center   37 is at   1.550854  1.853472 -1.992283
      ESP Fit Center   38 is at   2.728262  1.136560  2.435381
      ESP Fit Center   39 is at   2.203262  2.045887  2.154034
      ESP Fit Center   40 is at   1.678262  1.136560  2.154034
      ESP Fit Center   41 is at   2.203262  0.227233  2.154034
      ESP Fit Center   42 is at   3.253262  0.227233  2.154034
      ESP Fit Center   43 is at   4.546915  1.136560 -0.714619
      ESP Fit Center   44 is at   3.483758  2.790865 -0.714619
      ESP Fit Center   45 is at   3.778262  1.136560 -1.483273
      ESP Fit Center   46 is at   3.253262  2.045887 -1.483273
      ESP Fit Center   47 is at   2.728262  1.136560 -1.764619
      ESP Fit Center   48 is at   0.394783  1.196726  1.792751
      ESP Fit Center   49 is at  -0.130217  2.106053  1.511404
      ESP Fit Center   50 is at  -0.655217  1.196726  1.511404
      ESP Fit Center   51 is at  -0.130217  0.287399  1.511404
      ESP Fit Center   52 is at   0.919783  0.287399  1.511404
      ESP Fit Center   53 is at   1.444783  1.196726 -2.125903
      ESP Fit Center   54 is at   0.919783  2.106053 -2.125903
      ESP Fit Center   55 is at  -0.130217  2.106053 -2.125903
      ESP Fit Center   56 is at  -0.655217  1.196726 -2.125903
      ESP Fit Center   57 is at   0.394783  1.196726 -2.407249
      ESP Fit Center   58 is at   1.596198 -0.895759  1.833262
      ESP Fit Center   59 is at   1.071198  0.013567  1.551916
      ESP Fit Center   60 is at   0.546198 -0.895759  1.551916
      ESP Fit Center   61 is at   1.071198 -1.805086  1.551916
      ESP Fit Center   62 is at   2.121198 -1.805086  1.551916
      ESP Fit Center   63 is at   0.405233 -2.270206  0.783262
      ESP Fit Center   64 is at   2.646198 -0.895759 -2.085391
      ESP Fit Center   65 is at   2.121198  0.013567 -2.085391
      ESP Fit Center   66 is at   1.071198 -1.805086 -2.085391
      ESP Fit Center   67 is at   2.121198 -1.805086 -2.085391
      ESP Fit Center   68 is at   1.596198 -0.895759 -2.366738
      ESP Fit Center   69 is at   2.767898 -0.249955  2.253096
      ESP Fit Center   70 is at   1.717898 -0.249955  1.971749
      ESP Fit Center   71 is at   2.242898 -1.159282  1.971749
      ESP Fit Center   72 is at   3.817898 -0.249955 -1.665557
      ESP Fit Center   73 is at   3.292898  0.659371 -1.665557
      ESP Fit Center   74 is at   2.242898  0.659371 -1.665557
      ESP Fit Center   75 is at   3.292898 -1.159282 -1.665557
      ESP Fit Center   76 is at   2.767898 -0.249955 -1.946904
      ESP Fit Center   77 is at   0.410874 -0.192550  1.602577
      ESP Fit Center   78 is at  -0.114126 -1.101877  1.321230
      ESP Fit Center   79 is at   1.460874 -0.192550 -2.316076
      ESP Fit Center   80 is at   0.935874  0.716777 -2.316076
      ESP Fit Center   81 is at  -0.114126  0.716777 -2.316076
      ESP Fit Center   82 is at   0.935874 -1.101877 -2.316076
      ESP Fit Center   83 is at   0.410874 -0.192550 -2.597423
      ESP Fit Center   84 is at  -1.407210  0.931360  1.123886
      ESP Fit Center   85 is at  -2.181662  1.602427  1.123886
      ESP Fit Center   86 is at  -4.682143 -0.564252 -0.976114
      ESP Fit Center   87 is at  -4.128123 -1.426325 -0.976114
      ESP Fit Center   88 is at  -3.462158 -0.961205 -1.744767
      ESP Fit Center   89 is at   5.889585 -2.012538  0.423429
      ESP Fit Center   90 is at   5.080127 -1.036619 -1.395225
      ESP Fit Center   91 is at   4.555127 -0.127292 -1.395225
      ESP Fit Center   92 is at   4.030127 -1.036619 -1.676571
      ESP Fit Center   93 is at  -4.934610 -0.154125  3.079494
      ESP Fit Center   94 is at  -2.065956 -0.154125  2.310841
      ESP Fit Center   95 is at  -5.629595  0.358248  2.310841
      ESP Fit Center   96 is at  -4.143431 -1.954267  0.210841
      ESP Fit Center   97 is at   0.202490 -0.915404 -2.760604
      ESP Fit Center   98 is at  -1.372510 -1.824731 -2.760604
      ESP Fit Center   99 is at  -1.372346 -0.033047  1.893270
      ESP Fit Center  100 is at  -1.141850  0.711932  1.124616
      ESP Fit Center  101 is at  -3.469218 -2.334931  0.074616
      ESP Fit Center  102 is at  -2.642016 -2.905907  0.074616
      ESP Fit Center  103 is at  -1.644219 -3.027062  0.074616
      ESP Fit Center  104 is at  -3.088310 -2.316820 -0.975384
      ESP Fit Center  105 is at  -2.156167 -2.742515 -0.975384
      ESP Fit Center  106 is at  -2.585886  2.382509  0.158850
      ESP Fit Center  107 is at  -3.634943  2.382509  0.158850
      ESP Fit Center  108 is at  -4.483648  1.765889  0.158850
      ESP Fit Center  109 is at  -2.130415  2.465586 -0.821150
      ESP Fit Center  110 is at  -3.110415  2.728176 -0.821150
      ESP Fit Center  111 is at  -4.090415  2.465586 -0.821150
      ESP Fit Center  112 is at  -4.807824  1.748176 -0.821150
      ESP Fit Center  113 is at  -5.070415  0.768176 -0.821150
      ESP Fit Center  114 is at  -1.737181  1.765889 -1.801150
      ESP Fit Center  115 is at  -2.585886  2.382509 -1.801150
      ESP Fit Center  116 is at  -3.634943  2.382509 -1.801150
      ESP Fit Center  117 is at  -4.483648  1.765889 -1.801150
      ESP Fit Center  118 is at  -4.807824  0.768176 -1.801150
      ESP Fit Center  119 is at  -4.483648 -0.229536 -1.801150
      ESP Fit Center  120 is at  -3.634943 -0.846156 -1.801150
      ESP Fit Center  121 is at  -2.620415  1.616881 -2.518560
      ESP Fit Center  122 is at  -3.600415  1.616881 -2.518560
      ESP Fit Center  123 is at  -4.090415  0.768176 -2.518560
      ESP Fit Center  124 is at  -3.600415 -0.080529 -2.518560
      ESP Fit Center  125 is at  -3.110415  0.768176 -2.781150
      ESP Fit Center  126 is at   1.540714  2.931728  1.925599
      ESP Fit Center  127 is at   1.845862  3.870877  1.604747
      ESP Fit Center  128 is at   0.741826  3.512154  1.604747
      ESP Fit Center  129 is at   2.764680  3.958758  0.764747
      ESP Fit Center  130 is at   1.818164  4.505230  0.764747
      ESP Fit Center  131 is at   0.741826  4.315442  0.764747
      ESP Fit Center  132 is at   0.039296  3.478200  0.764747
      ESP Fit Center  133 is at   2.764680  3.958758 -0.273550
      ESP Fit Center  134 is at   1.818164  4.505230 -0.273550
      ESP Fit Center  135 is at   0.741826  4.315442 -0.273550
      ESP Fit Center  136 is at   0.039296  3.478200 -0.273550
      ESP Fit Center  137 is at   1.845862  3.870877 -1.113550
      ESP Fit Center  138 is at   0.741826  3.512154 -1.113550
      ESP Fit Center  139 is at   3.627068  1.660830  2.332839
      ESP Fit Center  140 is at   4.614547  1.660830  2.011987
      ESP Fit Center  141 is at   3.932216  2.599979  2.011987
      ESP Fit Center  142 is at   3.932216  0.721682  2.011987
      ESP Fit Center  143 is at   5.224843  1.660830  1.171987
      ESP Fit Center  144 is at   4.851035  2.687860  1.171987
      ESP Fit Center  145 is at   3.904519  3.234332  1.171987
      ESP Fit Center  146 is at   5.224843  1.660830  0.133690
      ESP Fit Center  147 is at   4.851035  2.687860  0.133690
      ESP Fit Center  148 is at   3.904519  3.234332  0.133690
      ESP Fit Center  149 is at   4.614547  1.660830 -0.706310
      ESP Fit Center  150 is at   3.932216  2.599979 -0.706310
      ESP Fit Center  151 is at  -1.320175  2.330481  0.863230
      ESP Fit Center  152 is at  -0.243837  3.323556  0.023230
      ESP Fit Center  153 is at  -1.320175  3.133769  0.023230
      ESP Fit Center  154 is at  -2.022705  2.296526  0.023230
      ESP Fit Center  155 is at  -0.243837  3.323556 -1.015067
      ESP Fit Center  156 is at  -1.320175  3.133769 -1.015067
      ESP Fit Center  157 is at  -0.216140  2.689204 -1.855067
      ESP Fit Center  158 is at  -1.320175  2.330481 -1.855067
      ESP Fit Center  159 is at  -0.521288  1.750055 -2.175918
      ESP Fit Center  160 is at   0.814445 -2.554272  0.935953
      ESP Fit Center  161 is at   1.918480 -2.912995  0.935953
      ESP Fit Center  162 is at   0.814445 -3.357560  0.095953
      ESP Fit Center  163 is at   1.890783 -3.547348  0.095953
      ESP Fit Center  164 is at   2.837299 -3.000876  0.095953
      ESP Fit Center  165 is at   0.814445 -3.357560 -0.942344
      ESP Fit Center  166 is at   1.890783 -3.547348 -0.942344
      ESP Fit Center  167 is at   2.837299 -3.000876 -0.942344
      ESP Fit Center  168 is at   2.600812 -1.973846 -1.782344
      ESP Fit Center  169 is at   1.918480 -2.912995 -1.782344
      ESP Fit Center  170 is at   1.613333 -1.973846 -2.103195
      ESP Fit Center  171 is at   4.063723 -1.394222  3.141538
      ESP Fit Center  172 is at   5.051202 -1.394222  2.820686
      ESP Fit Center  173 is at   4.368871 -0.455073  2.820686
      ESP Fit Center  174 is at   3.264835 -0.813796  2.820686
      ESP Fit Center  175 is at   3.264835 -1.974647  2.820686
      ESP Fit Center  176 is at   4.368871 -2.333370  2.820686
      ESP Fit Center  177 is at   5.661498 -1.394222  1.980686
      ESP Fit Center  178 is at   5.287689 -0.367192  1.980686
      ESP Fit Center  179 is at   2.562305 -1.940693  1.980686
      ESP Fit Center  180 is at   3.264835 -2.777935  1.980686
      ESP Fit Center  181 is at   4.341173 -2.967723  1.980686
      ESP Fit Center  182 is at   5.287689 -2.421252  1.980686
      ESP Fit Center  183 is at   3.302293 -3.300894  0.294839
      ESP Fit Center  184 is at   4.378631 -3.490681  0.294839
      ESP Fit Center  185 is at   5.325147 -2.944210  0.294839
      ESP Fit Center  186 is at   5.698955 -1.917180 -0.743458
      ESP Fit Center  187 is at   3.302293 -3.300894 -0.743458
      ESP Fit Center  188 is at   4.378631 -3.490681 -0.743458
      ESP Fit Center  189 is at   5.325147 -2.944210 -0.743458
      ESP Fit Center  190 is at   5.088659 -1.917180 -1.583458
      ESP Fit Center  191 is at   3.302293 -1.336754 -1.583458
      ESP Fit Center  192 is at   3.302293 -2.497606 -1.583458
      ESP Fit Center  193 is at   4.406328 -2.856329 -1.583458
      ESP Fit Center  194 is at   4.101180 -1.917180 -1.904310
      ESP Fit Center  195 is at   5.912391 -0.425987  1.621692
      ESP Fit Center  196 is at   5.230060  0.513162  1.621692
      ESP Fit Center  197 is at   6.522687 -0.425987  0.781692
      ESP Fit Center  198 is at   6.148879  0.601043  0.781692
      ESP Fit Center  199 is at   6.148879 -1.453017  0.781692
      ESP Fit Center  200 is at   6.522687 -0.425987 -0.256605
      ESP Fit Center  201 is at   6.148879  0.601043 -0.256605
      ESP Fit Center  202 is at   5.202363  1.147514 -0.256605
      ESP Fit Center  203 is at   6.148879 -1.453017 -0.256605
      ESP Fit Center  204 is at   5.912391 -0.425987 -1.096605
      ESP Fit Center  205 is at   5.230060  0.513162 -1.096605
      ESP Fit Center  206 is at   4.924912 -0.425987 -1.417456
      ESP Fit Center  207 is at  -3.839410  0.779520  3.511022
      ESP Fit Center  208 is at  -2.851931  0.779520  3.190171
      ESP Fit Center  209 is at  -3.534262  1.718669  3.190171
      ESP Fit Center  210 is at  -4.638297  1.359946  3.190171
      ESP Fit Center  211 is at  -4.638297  0.199094  3.190171
      ESP Fit Center  212 is at  -2.241635  0.779520  2.350171
      ESP Fit Center  213 is at  -2.615443  1.806550  2.350171
      ESP Fit Center  214 is at  -3.561959  2.353021  2.350171
      ESP Fit Center  215 is at  -4.638297  2.163234  2.350171
      ESP Fit Center  216 is at  -5.340827  1.325991  2.350171
      ESP Fit Center  217 is at  -2.615443  1.806550  1.311874
      ESP Fit Center  218 is at  -3.561959  2.353021  1.311874
      ESP Fit Center  219 is at  -4.638297  2.163234  1.311874
      ESP Fit Center  220 is at  -5.705353  0.323610  2.243668
      ESP Fit Center  221 is at  -5.705353 -0.837241  2.243668
      ESP Fit Center  222 is at  -5.705353  1.126898  1.403668
      ESP Fit Center  223 is at  -6.407883  0.289656  1.403668
      ESP Fit Center  224 is at  -6.407883 -0.803287  1.403668
      ESP Fit Center  225 is at  -5.705353 -1.640529  1.403668
      ESP Fit Center  226 is at  -5.705353  1.126898  0.365371
      ESP Fit Center  227 is at  -6.407883  0.289656  0.365371
      ESP Fit Center  228 is at  -6.407883 -0.803287  0.365371
      ESP Fit Center  229 is at  -5.705353 -1.640529  0.365371
      ESP Fit Center  230 is at  -5.705353  0.323610 -0.474629
      ESP Fit Center  231 is at  -5.705353 -0.837241 -0.474629
      ESP Fit Center  232 is at  -4.906465 -0.256816 -0.795480
      ESP Fit Center  233 is at  -3.665901 -0.990684  3.612070
      ESP Fit Center  234 is at  -2.678422 -0.990684  3.291219
      ESP Fit Center  235 is at  -4.464789 -0.410258  3.291219
      ESP Fit Center  236 is at  -4.464789 -1.571109  3.291219
      ESP Fit Center  237 is at  -3.360753 -1.929832  3.291219
      ESP Fit Center  238 is at  -5.167319 -1.537155  2.451219
      ESP Fit Center  239 is at  -4.464789 -2.374397  2.451219
      ESP Fit Center  240 is at  -3.388451 -2.564185  2.451219
      ESP Fit Center  241 is at  -2.441935 -2.017714  2.451219
      ESP Fit Center  242 is at  -4.464789 -2.374397  1.412922
      ESP Fit Center  243 is at  -3.388451 -2.564185  1.412922
      ESP Fit Center  244 is at  -1.013399  1.154348 -2.328089
      ESP Fit Center  245 is at  -2.792267 -0.965624 -2.328089
      ESP Fit Center  246 is at  -0.303371 -0.419153 -3.168089
      ESP Fit Center  247 is at  -0.985702  0.519996 -3.168089
      ESP Fit Center  248 is at  -2.089737  0.161273 -3.168089
      ESP Fit Center  249 is at  -2.089737 -0.999579 -3.168089
      ESP Fit Center  250 is at  -0.985702 -1.358301 -3.168089
      ESP Fit Center  251 is at  -1.290850 -0.419153 -3.488941
      ESP Fit Center  252 is at  -0.304896 -2.886418  0.134191
      ESP Fit Center  253 is at  -1.408931 -3.330984 -0.705809
      ESP Fit Center  254 is at  -0.332593 -3.520771 -0.705809
      ESP Fit Center  255 is at  -2.111461 -2.493741 -1.744106
      ESP Fit Center  256 is at  -1.408931 -3.330984 -1.744106
      ESP Fit Center  257 is at  -0.332593 -3.520771 -1.744106
      ESP Fit Center  258 is at   0.613923 -2.974300 -1.744106
      ESP Fit Center  259 is at   0.377436 -1.947270 -2.584106
      ESP Fit Center  260 is at  -1.408931 -2.527696 -2.584106
      ESP Fit Center  261 is at  -0.304896 -2.886418 -2.584106
      ESP Fit Center  262 is at  -0.610043 -1.947270 -2.904958
      ESP Fit Center  263 is at  -1.730545 -1.488571  2.588149
      ESP Fit Center  264 is at  -0.743066 -1.488571  2.267298
      ESP Fit Center  265 is at  -1.425398 -0.549423  2.267298
      ESP Fit Center  266 is at  -1.425398 -2.427720  2.267298
      ESP Fit Center  267 is at  -0.132770 -1.488571  1.427298
      ESP Fit Center  268 is at  -2.529433 -2.872285  1.427298
      ESP Fit Center  269 is at  -1.453095 -3.062073  1.427298
      ESP Fit Center  270 is at  -0.506579 -2.515601  1.427298
      ESP Fit Center  271 is at  -1.453095 -3.062073  0.389001
      ESP Fit Center  272 is at  -0.506579 -2.515601  0.389001
      ESP Fit Center  273 is at   1.550854  1.853472  2.507717
      ESP Fit Center  274 is at   2.071515  2.755282  2.270042
      ESP Fit Center  275 is at   1.030194  2.755282  2.270042
      ESP Fit Center  276 is at   0.509533  1.853472  2.270042
      ESP Fit Center  277 is at   1.030194  0.951661  2.270042
      ESP Fit Center  278 is at   3.129378  2.867928 -1.388659
      ESP Fit Center  279 is at   2.330337  3.560301 -1.388659
      ESP Fit Center  280 is at   2.592175  1.853472 -2.054608
      ESP Fit Center  281 is at   2.071515  2.755282 -2.054608
      ESP Fit Center  282 is at   1.030194  2.755282 -2.054608
      ESP Fit Center  283 is at   2.071515  0.951661 -2.054608
      ESP Fit Center  284 is at   2.728262  1.136560  2.735381
      ESP Fit Center  285 is at   3.769583  1.136560  2.497706
      ESP Fit Center  286 is at   3.248923  2.038370  2.497706
      ESP Fit Center  287 is at   2.207602  2.038370  2.497706
      ESP Fit Center  288 is at   1.686941  1.136560  2.497706
      ESP Fit Center  289 is at   2.207602  0.234749  2.497706
      ESP Fit Center  290 is at   3.248923  0.234749  2.497706
      ESP Fit Center  291 is at   4.604658  1.136560 -1.160995
      ESP Fit Center  292 is at   4.306786  2.151016 -1.160995
      ESP Fit Center  293 is at   3.507745  2.843389 -1.160995
      ESP Fit Center  294 is at   3.769583  1.136560 -1.826945
      ESP Fit Center  295 is at   3.248923  2.038370 -1.826945
      ESP Fit Center  296 is at   2.728262  1.136560 -2.064619
      ESP Fit Center  297 is at  -0.125877  2.098537  1.855076
      ESP Fit Center  298 is at  -0.646538  1.196726  1.855076
      ESP Fit Center  299 is at  -0.125877  0.294916  1.855076
      ESP Fit Center  300 is at   0.915444  0.294916  1.855076
      ESP Fit Center  301 is at   0.127744  3.054023 -1.803625
      ESP Fit Center  302 is at   1.436104  1.196726 -2.469575
      ESP Fit Center  303 is at   0.915444  2.098537 -2.469575
      ESP Fit Center  304 is at  -0.125877  2.098537 -2.469575
      ESP Fit Center  305 is at   0.394783  1.196726 -2.707249
      ESP Fit Center  306 is at   1.075537  0.006051  1.895588
      ESP Fit Center  307 is at   0.554877 -0.895759  1.895588
      ESP Fit Center  308 is at   1.075537 -1.797570  1.895588
      ESP Fit Center  309 is at   2.116858 -1.797570  1.895588
      ESP Fit Center  310 is at   0.367420 -2.313844  1.229638
      ESP Fit Center  311 is at   2.375680 -2.602589  1.229638
      ESP Fit Center  312 is at   2.637519 -0.895759 -2.429063
      ESP Fit Center  313 is at   2.116858  0.006051 -2.429063
      ESP Fit Center  314 is at   1.075537 -1.797570 -2.429063
      ESP Fit Center  315 is at   2.116858 -1.797570 -2.429063
      ESP Fit Center  316 is at   1.596198 -0.895759 -2.666738
      ESP Fit Center  317 is at   2.767898 -0.249955  2.553096
      ESP Fit Center  318 is at   1.726577 -0.249955  2.315421
      ESP Fit Center  319 is at   2.247237 -1.151766  2.315421
      ESP Fit Center  320 is at   3.809219 -0.249955 -2.009229
      ESP Fit Center  321 is at   3.288558  0.651855 -2.009229
      ESP Fit Center  322 is at   2.247237  0.651855 -2.009229
      ESP Fit Center  323 is at   3.288558 -1.151766 -2.009229
      ESP Fit Center  324 is at   0.410874 -0.192550  1.902577
      ESP Fit Center  325 is at   1.452195 -0.192550 -2.659748
      ESP Fit Center  326 is at   0.931535  0.709260 -2.659748
      ESP Fit Center  327 is at   0.931535 -1.094361 -2.659748
      ESP Fit Center  328 is at   0.410874 -0.192550 -2.897423
      ESP Fit Center  329 is at  -1.358634  0.962578  1.570262
      ESP Fit Center  330 is at  -4.396016 -1.881228 -0.460164
      ESP Fit Center  331 is at  -4.165936 -1.469963 -1.422490
      ESP Fit Center  332 is at   5.906523 -1.036619  1.919804
      ESP Fit Center  333 is at   4.809610  0.670210  1.919804
      ESP Fit Center  334 is at   3.509467 -3.317782  0.957479
      ESP Fit Center  335 is at   5.488986 -2.865969  0.957479
      ESP Fit Center  336 is at   6.138239 -2.051832  0.957479
      ESP Fit Center  337 is at   6.138239 -2.051832 -0.110621
      ESP Fit Center  338 is at   5.071448 -1.036619 -1.738897
      ESP Fit Center  339 is at   4.550788 -0.134809 -1.738897
      ESP Fit Center  340 is at   4.030127 -1.036619 -1.976571
      ESP Fit Center  341 is at  -3.884610 -0.154125  3.660841
      ESP Fit Center  342 is at  -4.925931 -0.154125  3.423166
      ESP Fit Center  343 is at  -2.008214 -0.154125  2.757216
      ESP Fit Center  344 is at  -5.684998  0.374516  2.757216
      ESP Fit Center  345 is at  -5.684998 -0.682767  2.757216
      ESP Fit Center  346 is at  -5.343468 -1.983476  1.794891
      ESP Fit Center  347 is at  -5.343468  1.675225  0.726791
      ESP Fit Center  348 is at  -4.405270 -2.435288  0.726791
      ESP Fit Center  349 is at  -0.068027 -2.622234  0.554424
      ESP Fit Center  350 is at  -2.076287 -2.333490 -2.438327
      ESP Fit Center  351 is at   0.193811 -0.915404 -3.104276
      ESP Fit Center  352 is at  -1.376685 -0.040563  2.236942
      ESP Fit Center  353 is at  -1.117863  0.764456  1.570992
      ESP Fit Center  354 is at  -3.356204 -2.771724  0.608667
      ESP Fit Center  355 is at  -3.356204 -2.771724 -0.459434
      ESP Fit Center  356 is at  -2.418006 -3.223536 -0.459434
      ESP Fit Center  357 is at  -3.126124 -2.360458 -1.421759
      ESP Fit Center  358 is at  -2.569232  2.433764  0.575467
      ESP Fit Center  359 is at  -3.651597  2.433764  0.575467
      ESP Fit Center  360 is at  -2.847182  2.936092 -0.322703
      ESP Fit Center  361 is at  -3.884814  2.810101 -0.322703
      ESP Fit Center  362 is at  -4.745041  2.216329 -0.322703
      ESP Fit Center  363 is at  -5.230795  1.290803 -0.322703
      ESP Fit Center  364 is at  -2.847182  2.936092 -1.319597
      ESP Fit Center  365 is at  -3.884814  2.810101 -1.319597
      ESP Fit Center  366 is at  -4.745041  2.216329 -1.319597
      ESP Fit Center  367 is at  -5.230795  1.290803 -1.319597
      ESP Fit Center  368 is at  -5.230795  0.245550 -1.319597
      ESP Fit Center  369 is at  -1.693581  1.797566 -2.217767
      ESP Fit Center  370 is at  -2.569232  2.433764 -2.217767
      ESP Fit Center  371 is at  -3.651597  2.433764 -2.217767
      ESP Fit Center  372 is at  -4.527248  1.797566 -2.217767
      ESP Fit Center  373 is at  -4.861717  0.768176 -2.217767
      ESP Fit Center  374 is at  -4.527248 -0.261213 -2.217767
      ESP Fit Center  375 is at  -3.651597 -0.897411 -2.217767
      ESP Fit Center  376 is at  -2.624465  1.609866 -2.839320
      ESP Fit Center  377 is at  -3.596364  1.609866 -2.839320
      ESP Fit Center  378 is at  -4.082314  0.768176 -2.839320
      ESP Fit Center  379 is at  -3.596364 -0.073513 -2.839320
      ESP Fit Center  380 is at  -3.110415  0.768176 -3.061150
      ESP Fit Center  381 is at   2.020714  3.763113  1.908368
      ESP Fit Center  382 is at   1.060714  3.763113  1.908368
      ESP Fit Center  383 is at   2.885922  3.909079  1.205599
      ESP Fit Center  384 is at   2.054537  4.513115  1.205599
      ESP Fit Center  385 is at   1.026890  4.513115  1.205599
      ESP Fit Center  386 is at   0.195505  3.909079  1.205599
      ESP Fit Center  387 is at   3.203482  3.891728  0.245599
      ESP Fit Center  388 is at   2.500714  4.594497  0.245599
      ESP Fit Center  389 is at   1.540714  4.851728  0.245599
      ESP Fit Center  390 is at   0.580714  4.594497  0.245599
      ESP Fit Center  391 is at  -0.122055  3.891728  0.245599
      ESP Fit Center  392 is at   2.885922  3.909079 -0.714401
      ESP Fit Center  393 is at   2.054537  4.513115 -0.714401
      ESP Fit Center  394 is at   1.026890  4.513115 -0.714401
      ESP Fit Center  395 is at   0.195505  3.909079 -0.714401
      ESP Fit Center  396 is at   2.020714  3.763113 -1.417170
      ESP Fit Center  397 is at   1.060714  3.763113 -1.417170
      ESP Fit Center  398 is at   3.627068  1.660830  2.572839
      ESP Fit Center  399 is at   4.587068  1.660830  2.315608
      ESP Fit Center  400 is at   4.107068  2.492215  2.315608
      ESP Fit Center  401 is at   3.147068  2.492215  2.315608
      ESP Fit Center  402 is at   4.107068  0.829446  2.315608
      ESP Fit Center  403 is at   5.289837  1.660830  1.612839
      ESP Fit Center  404 is at   4.972276  2.638181  1.612839
      ESP Fit Center  405 is at   4.140892  3.242217  1.612839
      ESP Fit Center  406 is at   3.113244  3.242217  1.612839
      ESP Fit Center  407 is at   5.547068  1.660830  0.652839
      ESP Fit Center  408 is at   5.289837  2.620830  0.652839
      ESP Fit Center  409 is at   4.587068  3.323599  0.652839
      ESP Fit Center  410 is at   3.627068  3.580830  0.652839
      ESP Fit Center  411 is at   5.289837  1.660830 -0.307161
      ESP Fit Center  412 is at   4.972276  2.638181 -0.307161
      ESP Fit Center  413 is at   4.140892  3.242217 -0.307161
      ESP Fit Center  414 is at  -1.001288  2.581439  1.166850
      ESP Fit Center  415 is at  -1.481288  1.750055  1.166850
      ESP Fit Center  416 is at  -1.035112  3.331442  0.464082
      ESP Fit Center  417 is at  -1.866496  2.727406  0.464082
      ESP Fit Center  418 is at  -0.521288  3.670055 -0.495918
      ESP Fit Center  419 is at  -1.481288  3.412824 -0.495918
      ESP Fit Center  420 is at  -0.007464  3.331442 -1.455918
      ESP Fit Center  421 is at  -1.035112  3.331442 -1.455918
      ESP Fit Center  422 is at  -1.866496  2.727406 -1.455918
      ESP Fit Center  423 is at  -1.001288  2.581439 -2.158687
      ESP Fit Center  424 is at  -1.481288  1.750055 -2.158687
      ESP Fit Center  425 is at   1.133333 -2.805231  1.239573
      ESP Fit Center  426 is at   2.093333 -2.805231  1.239573
      ESP Fit Center  427 is at   0.268124 -2.951197  0.536805
      ESP Fit Center  428 is at   1.099509 -3.555233  0.536805
      ESP Fit Center  429 is at   2.127156 -3.555233  0.536805
      ESP Fit Center  430 is at   0.653333 -3.636615 -0.423195
      ESP Fit Center  431 is at   1.613333 -3.893846 -0.423195
      ESP Fit Center  432 is at   2.573333 -3.636615 -0.423195
      ESP Fit Center  433 is at   1.099509 -3.555233 -1.383195
      ESP Fit Center  434 is at   2.127156 -3.555233 -1.383195
      ESP Fit Center  435 is at   2.958541 -2.951197 -1.383195
      ESP Fit Center  436 is at   1.133333 -2.805231 -2.085964
      ESP Fit Center  437 is at   2.093333 -2.805231 -2.085964
      ESP Fit Center  438 is at   4.063723 -1.394222  3.381538
      ESP Fit Center  439 is at   5.023723 -1.394222  3.124307
      ESP Fit Center  440 is at   4.543723 -0.562837  3.124307
      ESP Fit Center  441 is at   3.583723 -0.562837  3.124307
      ESP Fit Center  442 is at   3.103723 -1.394222  3.124307
      ESP Fit Center  443 is at   3.583723 -2.225606  3.124307
      ESP Fit Center  444 is at   4.543723 -2.225606  3.124307
      ESP Fit Center  445 is at   5.726492 -1.394222  2.421538
      ESP Fit Center  446 is at   5.408931 -0.416871  2.421538
      ESP Fit Center  447 is at   4.577547  0.187165  2.421538
      ESP Fit Center  448 is at   2.400954 -1.394222  2.421538
      ESP Fit Center  449 is at   2.718515 -2.371573  2.421538
      ESP Fit Center  450 is at   3.549899 -2.975609  2.421538
      ESP Fit Center  451 is at   4.577547 -2.975609  2.421538
      ESP Fit Center  452 is at   5.408931 -2.371573  2.421538
      ESP Fit Center  453 is at   3.103723 -3.056991  1.461538
      ESP Fit Center  454 is at   4.063723 -3.314222  1.461538
      ESP Fit Center  455 is at   5.023723 -3.056991  1.461538
      ESP Fit Center  456 is at   3.587356 -3.498567  0.735690
      ESP Fit Center  457 is at   4.615004 -3.498567  0.735690
      ESP Fit Center  458 is at   3.141180 -3.579949 -0.224310
      ESP Fit Center  459 is at   4.101180 -3.837180 -0.224310
      ESP Fit Center  460 is at   5.061180 -3.579949 -0.224310
      ESP Fit Center  461 is at   5.763949 -2.877180 -0.224310
      ESP Fit Center  462 is at   5.763949 -1.917180 -1.184310
      ESP Fit Center  463 is at   3.587356 -3.498567 -1.184310
      ESP Fit Center  464 is at   4.615004 -3.498567 -1.184310
      ESP Fit Center  465 is at   5.446388 -2.894531 -1.184310
      ESP Fit Center  466 is at   5.061180 -1.917180 -1.887078
      ESP Fit Center  467 is at   3.141180 -1.917180 -1.887078
      ESP Fit Center  468 is at   3.621180 -2.748565 -1.887078
      ESP Fit Center  469 is at   4.581180 -2.748565 -1.887078
      ESP Fit Center  470 is at   4.101180 -1.917180 -2.144310
      ESP Fit Center  471 is at   5.884912 -0.425987  1.925313
      ESP Fit Center  472 is at   5.404912  0.405397  1.925313
      ESP Fit Center  473 is at   6.587681 -0.425987  1.222544
      ESP Fit Center  474 is at   6.270120  0.551364  1.222544
      ESP Fit Center  475 is at   5.438736  1.155400  1.222544
      ESP Fit Center  476 is at   6.270120 -1.403338  1.222544
      ESP Fit Center  477 is at   6.844912 -0.425987  0.262544
      ESP Fit Center  478 is at   6.587681  0.534013  0.262544
      ESP Fit Center  479 is at   5.884912  1.236782  0.262544
      ESP Fit Center  480 is at   6.587681 -1.385987  0.262544
      ESP Fit Center  481 is at   6.587681 -0.425987 -0.697456
      ESP Fit Center  482 is at   6.270120  0.551364 -0.697456
      ESP Fit Center  483 is at   5.438736  1.155400 -0.697456
      ESP Fit Center  484 is at   6.270120 -1.403338 -0.697456
      ESP Fit Center  485 is at   5.884912 -0.425987 -1.400225
      ESP Fit Center  486 is at   5.404912  0.405397 -1.400225
      ESP Fit Center  487 is at  -3.839410  0.779520  3.751022
      ESP Fit Center  488 is at  -2.879410  0.779520  3.493791
      ESP Fit Center  489 is at  -3.359410  1.610905  3.493791
      ESP Fit Center  490 is at  -4.319410  1.610905  3.493791
      ESP Fit Center  491 is at  -4.799410  0.779520  3.493791
      ESP Fit Center  492 is at  -2.176641  0.779520  2.791022
      ESP Fit Center  493 is at  -2.494202  1.756871  2.791022
      ESP Fit Center  494 is at  -3.325586  2.360907  2.791022
      ESP Fit Center  495 is at  -4.353234  2.360907  2.791022
      ESP Fit Center  496 is at  -5.184618  1.756871  2.791022
      ESP Fit Center  497 is at  -5.502179  0.779520  2.791022
      ESP Fit Center  498 is at  -2.176641  1.739520  1.831022
      ESP Fit Center  499 is at  -2.879410  2.442289  1.831022
      ESP Fit Center  500 is at  -3.839410  2.699520  1.831022
      ESP Fit Center  501 is at  -4.799410  2.442289  1.831022
      ESP Fit Center  502 is at  -5.502179  1.739520  1.831022
      ESP Fit Center  503 is at  -3.325586  2.360907  0.871022
      ESP Fit Center  504 is at  -4.353234  2.360907  0.871022
      ESP Fit Center  505 is at  -6.251674  0.720535  1.844520
      ESP Fit Center  506 is at  -6.569234 -0.256816  1.844520
      ESP Fit Center  507 is at  -6.251674 -1.234167  1.844520
[...]
  472 Fit       0.006334
  473 Fit       0.006940
  474 Fit       0.008708
  475 Fit       0.011683
  476 Fit       0.005080
  477 Fit       0.007495
  478 Fit       0.008984
  479 Fit       0.010235
  480 Fit       0.005454
  481 Fit       0.006156
  482 Fit       0.006984
  483 Fit       0.005422
  484 Fit       0.004146
  485 Fit       0.002834
  486 Fit       0.001403
  487 Fit       0.011981
  488 Fit       0.012289
  489 Fit       0.011328
  490 Fit       0.010795
  491 Fit       0.010608
  492 Fit       0.011973
  493 Fit       0.009102
  494 Fit       0.008384
  495 Fit       0.007875
  496 Fit       0.007501
  497 Fit       0.008324
  498 Fit       0.005301
  499 Fit       0.001777
  500 Fit       0.000661
  501 Fit       0.000810
  502 Fit       0.002006
  503 Fit      -0.016907
  504 Fit      -0.014755
  505 Fit       0.005673
  506 Fit       0.008808
  507 Fit       0.010394
  508 Fit      -0.003540
  509 Fit       0.003085
  510 Fit       0.007466
  511 Fit       0.009428
  512 Fit       0.009832
  513 Fit      -0.021171
  514 Fit      -0.004744
  515 Fit       0.003170
  516 Fit       0.006269
  517 Fit       0.006973
  518 Fit      -0.026072
  519 Fit      -0.006106
  520 Fit      -0.000840
  521 Fit       0.016034
  522 Fit       0.019549
  523 Fit       0.014500
  524 Fit       0.013600
  525 Fit       0.017212
  526 Fit       0.021152
  527 Fit       0.028053
  528 Fit       0.014155
  529 Fit       0.018672
  530 Fit       0.025267
  531 Fit       0.032568
  532 Fit       0.012085
  533 Fit       0.015143
  534 Fit       0.021589
  535 Fit       0.013944
  536 Fit      -0.011917
  537 Fit      -0.015401
  538 Fit      -0.031897
  539 Fit      -0.029132
  540 Fit      -0.009376
  541 Fit      -0.002867
  542 Fit      -0.008016
  543 Fit      -0.014920
  544 Fit      -0.012239
  545 Fit      -0.003304
  546 Fit       0.000105
  547 Fit      -0.004675
  548 Fit       0.025781
  549 Fit       0.017899
  550 Fit       0.020272
  551 Fit       0.010435
  552 Fit       0.015148
  553 Fit       0.018079
  554 Fit       0.003354
  555 Fit       0.009673
  556 Fit       0.012760
  557 Fit       0.012424
  558 Fit       0.004499
  559 Fit       0.005428
  560 Fit       0.007868
  561 Fit       0.003338
  562 Fit       0.032622
  563 Fit       0.025939
  564 Fit       0.021776
  565 Fit       0.036791
  566 Fit       0.033361
  567 Fit       0.015883
  568 Fit       0.032514
  569 Fit       0.032808
  570 Fit       0.028699
  571 Fit       0.021044
  572 Fit       0.026113
  573 Fit       0.029504
  574 Fit       0.026073
  575 Fit      -0.011288
  576 Fit      -0.004894
  577 Fit      -0.006663
  578 Fit      -0.011310
  579 Fit      -0.015311
  580 Fit      -0.003520
  581 Fit      -0.011885
  582 Fit      -0.008461
  583 Fit      -0.008056
  584 Fit      -0.020765
  585 Fit      -0.016138
  586 Fit      -0.007516
  587 Fit      -0.001032
  588 Fit      -0.002410
  589 Fit      -0.008446
  590 Fit      -0.013419
  591 Fit      -0.010910
  592 Fit      -0.004061
  593 Fit      -0.006251
  594 Fit      -0.007361
  595 Fit      -0.009600
  596 Fit      -0.015208
  597 Fit      -0.016902
  598 Fit      -0.022601
  599 Fit      -0.006958
  600 Fit      -0.008683
  601 Fit      -0.005951
  602 Fit      -0.002724
  603 Fit      -0.013438
  604 Fit      -0.021685
  605 Fit      -0.018955
  606 Fit      -0.017420
  607 Fit      -0.017073
  608 Fit      -0.003809
  609 Fit       0.001130
  610 Fit       0.014448
  611 Fit       0.007865
  612 Fit      -0.011771
  613 Fit      -0.019195
  614 Fit      -0.000179
  615 Fit      -0.004033
  616 Fit      -0.010778
  617 Fit      -0.004838
  618 Fit      -0.011167
  619 Fit      -0.002572
  620 Fit      -0.010519
  621 Fit      -0.018540
  622 Fit      -0.010002
  623 Fit      -0.015282
  624 Fit      -0.017799
  625 Fit      -0.005315
  626 Fit       0.001635
  627 Fit      -0.008619
  628 Fit      -0.000916
  629 Fit      -0.012985
  630 Fit       0.004882
  631 Fit       0.004848
  632 Fit       0.007749
  633 Fit       0.005292
  634 Fit       0.004607
  635 Fit       0.004994
  636 Fit       0.004343
  637 Fit       0.004008
  638 Fit      -0.000724
  639 Fit      -0.005569
  640 Fit      -0.004408
  641 Fit       0.012002
  642 Fit       0.013683
  643 Fit       0.010093
  644 Fit       0.015560
  645 Fit       0.007742
  646 Fit       0.009278
  647 Fit       0.006868
  648 Fit       0.005060
  649 Fit      -0.002955
  650 Fit       0.011136
  651 Fit      -0.018146
  652 Fit       0.007704
  653 Fit      -0.001182
  654 Fit      -0.002649
  655 Fit       0.001467
  656 Fit       0.013365
  657 Fit      -0.000709
  658 Fit       0.005694
  659 Fit       0.007729
  660 Fit       0.014180
  661 Fit      -0.002415
  662 Fit       0.002913
  663 Fit      -0.006629
  664 Fit      -0.014861
  665 Fit      -0.019759
  666 Fit      -0.028220
  667 Fit      -0.033573
  668 Fit      -0.033818
  669 Fit      -0.028579
  670 Fit      -0.034979
  671 Fit      -0.039715
  672 Fit      -0.040632
  673 Fit      -0.037571
  674 Fit      -0.029993
  675 Fit      -0.019887
  676 Fit      -0.037253
  677 Fit      -0.041425
  678 Fit      -0.042341
  679 Fit      -0.039568
  680 Fit      -0.033419
  681 Fit      -0.026206
  682 Fit      -0.019542
  683 Fit      -0.037960
  684 Fit      -0.041112
  685 Fit      -0.038439
  686 Fit      -0.031698
  687 Fit      -0.035953
  688 Fit       0.002433
  689 Fit       0.000458
  690 Fit       0.006490
  691 Fit       0.005612
  692 Fit       0.004465
  693 Fit       0.001890
  694 Fit      -0.002159
  695 Fit       0.005790
  696 Fit       0.005219
  697 Fit       0.004836
  698 Fit       0.003367
  699 Fit       0.000867
  700 Fit      -0.000324
  701 Fit       0.001379
  702 Fit       0.000988
  703 Fit      -0.001212
  704 Fit      -0.005965
  705 Fit      -0.006381
  706 Fit       0.005339
  707 Fit       0.004532
  708 Fit       0.008772
  709 Fit       0.008216
  710 Fit       0.007038
  711 Fit       0.005663
  712 Fit       0.009758
  713 Fit       0.008093
  714 Fit       0.007012
  715 Fit       0.006629
  716 Fit       0.005897
  717 Fit       0.004067
  718 Fit       0.002544
  719 Fit      -0.002719
  720 Fit      -0.009792
  721 Fit      -0.001334
  722 Fit      -0.008736
  723 Fit      -0.023640
  724 Fit      -0.010529
  725 Fit      -0.022743
  726 Fit      -0.019357
  727 Fit       0.007653
  728 Fit       0.018137
  729 Fit       0.014011
  730 Fit       0.011847
  731 Fit       0.016320
  732 Fit       0.014095
  733 Fit       0.013291
  734 Fit       0.013530
  735 Fit       0.011601
  736 Fit       0.009693
  737 Fit       0.006255
  738 Fit       0.005974
  739 Fit       0.006209
  740 Fit       0.004511
  741 Fit       0.002023
  742 Fit       0.003855
  743 Fit       0.006995
  744 Fit       0.007277
  745 Fit       0.005341
  746 Fit       0.004764
  747 Fit       0.002564
  748 Fit       0.006829
  749 Fit       0.007421
  750 Fit       0.006943
  751 Fit       0.006161
  752 Fit       0.006507
  753 Fit       0.007759
  754 Fit       0.006317
  755 Fit       0.011006
  756 Fit       0.008637
  757 Fit       0.006907
  758 Fit       0.005189
  759 Fit       0.003323
  760 Fit       0.009571
  761 Fit       0.007683
  762 Fit       0.005555
  763 Fit       0.002467
  764 Fit       0.006321
  765 Fit       0.005616
  766 Fit       0.001177
  767 Fit       0.005806
  768 Fit       0.006003
  769 Fit       0.007306
  770 Fit       0.009630
  771 Fit       0.006221
  772 Fit       0.007291
  773 Fit       0.008369
  774 Fit       0.004930
  775 Fit       0.004967
  776 Fit       0.005449
  777 Fit       0.004392
  778 Fit       0.003844
  779 Fit       0.002059
  780 Fit       0.000225
  781 Fit       0.010495
  782 Fit       0.010829
  783 Fit       0.009209
  784 Fit       0.008770
  785 Fit       0.009204
  786 Fit       0.006887
  787 Fit       0.006067
  788 Fit       0.005668
  789 Fit       0.005611
  790 Fit       0.006315
  791 Fit       0.002531
  792 Fit      -0.000346
  793 Fit      -0.001583
  794 Fit      -0.001408
  795 Fit      -0.000216
  796 Fit      -0.018586
  797 Fit       0.005988
  798 Fit       0.008095
  799 Fit       0.009524
  800 Fit      -0.000873
  801 Fit       0.003712
  802 Fit       0.006488
  803 Fit       0.007828
  804 Fit       0.008726
  805 Fit      -0.011360
  806 Fit      -0.001903
  807 Fit       0.002735
  808 Fit       0.004612
  809 Fit       0.005469
  810 Fit      -0.008528
  811 Fit      -0.003274
  812 Fit       0.014157
  813 Fit       0.017304
  814 Fit       0.012021
  815 Fit       0.015050
  816 Fit       0.018623
  817 Fit       0.024910
  818 Fit       0.011174
  819 Fit       0.013654
  820 Fit       0.017769
  821 Fit       0.023821
  822 Fit       0.029746
  823 Fit       0.011447
  824 Fit       0.014713
  825 Fit       0.021242
  826 Fit       0.013127
  827 Fit      -0.015646
  828 Fit      -0.026525
  829 Fit      -0.018788
  830 Fit      -0.005829
  831 Fit      -0.004321
  832 Fit      -0.009515
  833 Fit      -0.016129
  834 Fit      -0.013325
  835 Fit      -0.004262
  836 Fit      -0.000873
  837 Fit      -0.006060
  838 Fit       0.017337
  839 Fit       0.018986
  840 Fit       0.004101
  841 Fit       0.010666
  842 Fit       0.013865
  843 Fit       0.016683
  844 Fit       0.004541
  845 Fit       0.008948
  846 Fit       0.010942
  847 Fit       0.010131
  848 Fit       0.002574
  849 Fit       0.003913
  850 Fit       0.006095
  851 Fit       0.027220
  852 Fit       0.020707
  853 Fit       0.017371
  854 Fit       0.031168
  855 Fit       0.027685
  856 Fit       0.010254
  857 Fit       0.027507
  858 Fit       0.027175
  859 Fit       0.022529
  860 Fit       0.019194
  861 Fit       0.023081
  862 Fit       0.025136
  863 Fit      -0.008392
  864 Fit      -0.004105
  865 Fit      -0.005356
  866 Fit      -0.008259
  867 Fit      -0.010959
  868 Fit       0.000956
  869 Fit      -0.003419
  870 Fit      -0.006426
  871 Fit      -0.003451
  872 Fit      -0.003947
  873 Fit      -0.011146
  874 Fit      -0.008923
  875 Fit      -0.009152
  876 Fit      -0.017630
  877 Fit      -0.014515
  878 Fit      -0.005262
  879 Fit      -0.000678
  880 Fit      -0.001908
  881 Fit      -0.006210
  882 Fit      -0.009433
  883 Fit      -0.007341
  884 Fit      -0.002564
  885 Fit      -0.000531
  886 Fit      -0.001989
  887 Fit      -0.006638
  888 Fit      -0.007509
  889 Fit      -0.009555
  890 Fit      -0.013266
  891 Fit      -0.014780
  892 Fit      -0.019141
  893 Fit      -0.004318
  894 Fit      -0.005102
  895 Fit      -0.004836
  896 Fit      -0.000737
  897 Fit      -0.003835
  898 Fit      -0.008531
  899 Fit      -0.013659
  900 Fit      -0.018000
  901 Fit      -0.016507
  902 Fit      -0.016190
  903 Fit      -0.015022
  904 Fit      -0.001092
  905 Fit       0.002617
  906 Fit       0.013857
  907 Fit       0.007630
  908 Fit       0.017620
  909 Fit      -0.001177
  910 Fit      -0.009614
  911 Fit      -0.015493
  912 Fit      -0.000897
  913 Fit      -0.003584
  914 Fit      -0.008838
  915 Fit      -0.003045
  916 Fit      -0.007427
  917 Fit      -0.008758
  918 Fit      -0.009375
  919 Fit      -0.015582
  920 Fit      -0.006441
  921 Fit      -0.012384
  922 Fit      -0.014847
  923 Fit       0.002895
  924 Fit      -0.006310
  925 Fit      -0.004181
  926 Fit      -0.014155
  927 Fit       0.004525
  928 Fit       0.003844
  929 Fit       0.004741
  930 Fit       0.004663
  931 Fit       0.008586
  932 Fit       0.005605
  933 Fit       0.004595
  934 Fit       0.004280
  935 Fit       0.004038
  936 Fit       0.003540
  937 Fit       0.001409
  938 Fit      -0.004825
  939 Fit      -0.001024
  940 Fit      -0.005542
  941 Fit      -0.004402
  942 Fit       0.010829
  943 Fit       0.012148
  944 Fit       0.009278
  945 Fit       0.013263
  946 Fit       0.007227
  947 Fit       0.008584
  948 Fit       0.006054
  949 Fit       0.004591
  950 Fit       0.005868
  951 Fit       0.007609
  952 Fit       0.009195
  953 Fit       0.001432
  954 Fit       0.009508
  955 Fit      -0.010160
  956 Fit       0.009136
  957 Fit       0.004544
  958 Fit      -0.004899
  959 Fit      -0.001863
  960 Fit       0.000900
  961 Fit      -0.003461
  962 Fit       0.000022
  963 Fit       0.001459
  964 Fit       0.010559
  965 Fit       0.013426
  966 Fit       0.017963
  967 Fit       0.021335
  968 Fit       0.002860
  969 Fit       0.006131
  970 Fit      -0.004092
  971 Fit      -0.001157
  972 Fit      -0.005952
  973 Fit      -0.018119
  974 Fit      -0.023075
  975 Fit      -0.023812
  976 Fit      -0.027864
  977 Fit      -0.030951
  978 Fit      -0.031241
  979 Fit      -0.028694
  980 Fit      -0.022608
  981 Fit      -0.029469
  982 Fit      -0.033496
  983 Fit      -0.034869
  984 Fit      -0.033761
  985 Fit      -0.029956
  986 Fit      -0.023960
  987 Fit      -0.017616
  988 Fit      -0.030954
  989 Fit      -0.034336
  990 Fit      -0.035601
  991 Fit      -0.034547
  992 Fit      -0.031185
  993 Fit      -0.026376
  994 Fit      -0.021358
  995 Fit      -0.031485
  996 Fit      -0.034148
  997 Fit      -0.031955
  998 Fit      -0.026491
  999 Fit      -0.029687
 1000 Fit       0.001117
 1001 Fit      -0.000512
 1002 Fit       0.004829
 1003 Fit       0.003979
 1004 Fit       0.002835
 1005 Fit       0.000606
 1006 Fit       0.004788
 1007 Fit       0.004109
 1008 Fit       0.002925
 1009 Fit       0.000864
 1010 Fit      -0.001700
 1011 Fit       0.002728
 1012 Fit       0.002536
 1013 Fit       0.001467
 1014 Fit      -0.000633
 1015 Fit      -0.001127
 1016 Fit      -0.001585
 1017 Fit      -0.003847
 1018 Fit       0.003967
 1019 Fit       0.003210
 1020 Fit       0.006847
 1021 Fit       0.006433
 1022 Fit       0.005387
 1023 Fit       0.003779
 1024 Fit       0.008387
 1025 Fit       0.007225
 1026 Fit       0.006360
 1027 Fit       0.005813
 1028 Fit       0.005783
 1029 Fit       0.004731
 1030 Fit       0.004211
 1031 Fit       0.003002
 1032 Fit       0.001532
 1033 Fit      -0.000021
 1034 Fit      -0.007628
 1035 Fit      -0.005229
 1036 Fit      -0.013893
 1037 Fit      -0.008958
 1038 Fit      -0.019827
 1039 Fit      -0.012511
 1040 Fit      -0.023358
 1041 Fit      -0.019333
 1042 Fit       0.016841
 1043 Fit       0.012300
 1044 Fit       0.010072
 1045 Fit       0.017684
 1046 Fit       0.013965
 1047 Fit       0.012126
 1048 Fit       0.013486
 1049 Fit       0.011845
 1050 Fit       0.010938
 1051 Fit       0.009129
 1052 Fit       0.004495
 1053 Fit       0.005133
 1054 Fit       0.005473
 1055 Fit       0.004077
 1056 Fit       0.002178
 1057 Fit       0.003678
 1058 Fit       0.006104
 1059 Fit       0.006310
 1060 Fit       0.005116
 1061 Fit       0.004565
 1062 Fit       0.003287
 1063 Fit       0.006415
 1064 Fit       0.006862
 1065 Fit       0.006433
 1066 Fit       0.005775
 1067 Fit       0.007311
 1068 Fit       0.007055
 1069 Fit       0.006281
 1070 Fit       0.005541
 1071 Fit       0.008845
 1072 Fit       0.007089
 1073 Fit       0.005770
 1074 Fit       0.009465
 1075 Fit       0.007555
 1076 Fit       0.006064
 1077 Fit       0.004645
 1078 Fit       0.002778
 1079 Fit       0.007868
 1080 Fit       0.006330
 1081 Fit       0.004613
 1082 Fit       0.001762
 1083 Fit       0.004543
 1084 Fit       0.004228
 1085 Fit       0.000407
 1086 Fit       0.005214
 1087 Fit       0.006133
 1088 Fit       0.005469
 1089 Fit       0.006318
 1090 Fit       0.007515
 1091 Fit       0.004669
 1092 Fit       0.004999
 1093 Fit       0.005586
 1094 Fit       0.005927
 1095 Fit       0.004267
 1096 Fit       0.003568
 1097 Fit       0.003532
 1098 Fit       0.001893
 1099 Fit       0.003117
 1100 Fit       0.001060
 1101 Fit      -0.001033
 1102 Fit       0.009380
 1103 Fit       0.009716
 1104 Fit       0.007981
 1105 Fit       0.007639
 1106 Fit       0.008385
 1107 Fit       0.006277
 1108 Fit       0.005547
 1109 Fit       0.005249
 1110 Fit       0.005339
 1111 Fit       0.006124
 1112 Fit       0.002578
 1113 Fit       0.001598
 1114 Fit       0.000853
 1115 Fit       0.000703
 1116 Fit       0.001220
 1117 Fit       0.002604
 1118 Fit      -0.008720
 1119 Fit      -0.008206
 1120 Fit      -0.006260
 1121 Fit       0.005570
 1122 Fit       0.007283
 1123 Fit      -0.000725
 1124 Fit       0.002414
 1125 Fit       0.004934
 1126 Fit       0.006610
 1127 Fit       0.007844
 1128 Fit      -0.007427
 1129 Fit      -0.001448
 1130 Fit       0.002312
 1131 Fit       0.004491
 1132 Fit       0.005707
 1133 Fit      -0.015730
 1134 Fit      -0.005572
 1135 Fit      -0.000663
 1136 Fit       0.001512
 1137 Fit       0.002353
 1138 Fit      -0.011945
 1139 Fit      -0.006904
 1140 Fit       0.012673
 1141 Fit       0.014926
 1142 Fit       0.011028
 1143 Fit       0.013329
 1144 Fit       0.015948
 1145 Fit       0.019261
 1146 Fit       0.010360
 1147 Fit       0.012424
 1148 Fit       0.015634
 1149 Fit       0.019843
 1150 Fit       0.022859
 1151 Fit       0.011704
 1152 Fit       0.014999
 1153 Fit       0.020705
 1154 Fit       0.013302
 1155 Fit      -0.014581
 1156 Fit      -0.022301
 1157 Fit      -0.016093
 1158 Fit      -0.005903
 1159 Fit      -0.005118
 1160 Fit      -0.009659
 1161 Fit      -0.014602
 1162 Fit      -0.012268
 1163 Fit      -0.004978
 1164 Fit      -0.002154
 1165 Fit      -0.006799
 1166 Fit       0.018660
 1167 Fit       0.012329
 1168 Fit       0.014444
 1169 Fit       0.005108
 1170 Fit       0.008993
 1171 Fit       0.011235
 1172 Fit       0.003069
 1173 Fit       0.006617
 1174 Fit       0.008109
 1175 Fit       0.006895
 1176 Fit       0.002489
 1177 Fit       0.004165
 1178 Fit       0.023117
 1179 Fit       0.017917
 1180 Fit       0.015723
 1181 Fit       0.023451
 1182 Fit       0.010022
 1183 Fit       0.024550
 1184 Fit       0.023464
 1185 Fit       0.019239
 1186 Fit       0.019581
 1187 Fit       0.020601
 1188 Fit       0.022079
 1189 Fit       0.021727
 -----------------------------------------------------------------
 Leave Link  602 at Sat Feb 17 20:56:46 2018, MaxMem=   33554432 cpu:       0.4

 Test job not archived.
 1\1\GINC-NODE051\SP\RHF\6-31G(d)\C10H13N1O1\WULSDORT\17-Feb-2018\0\\#H
 F/6-31G* Geom=AllCheck Guess=Read Pop=(MK,ReadRadii) Integral=(Grid=Ul
 traFine) iop(6/33=2)\\Optimization for frag8-conf2\\0,1\C,0,1.34087818
 09,-2.064516898,0.7995873033\C,0,0.5257013049,-0.9348417454,0.90637520
 96\C,0,2.4370689049,-2.2250655375,1.6437447143\C,0,1.9013773308,-0.123
 3663914,2.701775084\C,0,0.7930602601,0.0523298526,1.8609610246\C,0,2.7
 251806649,-1.2481808341,2.6076956343\C,0,4.2827292653,-3.7482807446,4.
 3044706031\C,0,-0.0996580517,1.2641599658,2.0011943934\C,0,3.929085853
 8,-4.7866223325,5.3598207209\C,0,3.9135783134,-1.4207778845,3.53590584
 42\N,0,3.7483441783,-2.5036917147,4.5035256869\O,0,5.0069478795,-4.017
 0368439,3.352171122\H,0,1.1235192634,-2.8171827983,0.0459288882\H,0,-0
 .3239261463,-0.8166385545,0.2373066826\H,0,3.0808925451,-3.0964035819,
 1.5587986407\H,0,2.1291570355,0.641375068,3.4436182684\H,0,-0.90158800
 26,1.0876743903,2.7308791628\H,0,0.4624262709,2.1396938121,2.343981563
 3\H,0,-0.578359743,1.5212638223,1.0503328877\H,0,3.352329731,-5.588669
 5892,4.8876807541\H,0,4.854745268,-5.2300944388,5.7377617386\H,0,3.355
 8569577,-4.3857400847,6.2017910306\H,0,4.8133154433,-1.6695212857,2.96
 7498287\H,0,4.1031912911,-0.4903939524,4.083319738\H,0,3.0474757355,-2
 .3889226002,5.2222349542\\Version=AM64L-G09RevC.01\State=1-A\HF=-515.5
 880111\RMSD=3.759e-09\Dipole=-1.0764032,0.5399614,0.9970187\Quadrupole
 =-5.8143019,0.5585967,5.2557052,3.0992876,3.2998154,-1.9632959\PG=C01 
 [X(C10H13N1O1)]\\@


 A politician is a person who can make waves and then
 make you think he's the only one who can save the ship.
 -- Ivern Ball
 Job cpu time:  0 days  0 hours  1 minutes 58.2 seconds.
 File lengths (MBytes):  RWF=     27 Int=      0 D2E=      0 Chk=      4 Scr=      1
 Normal termination of Gaussian 09 at Sat Feb 17 20:56:46 2018.
