 Entering Gaussian System, Link 0=g09
 Initial command:
 /home/fb_chem/chemsoft/lx24-amd64/Gaussian_09_C.01_NBO_3.1_64_istanbul-64/g09/l1.exe /local/2397444.1.parallel_long/Gau-18007.inp -scrdir=/local/2397444.1.parallel_long/
 Entering Link 1 = /home/fb_chem/chemsoft/lx24-amd64/Gaussian_09_C.01_NBO_3.1_64_istanbul-64/g09/l1.exe PID=     18008.
  
 Copyright (c) 1988,1990,1992,1993,1995,1998,2003,2009,2011,
            Gaussian, Inc.  All Rights Reserved.
  
 This is part of the Gaussian(R) 09 program.  It is based on
 the Gaussian(R) 03 system (copyright 2003, Gaussian, Inc.),
 the Gaussian(R) 98 system (copyright 1998, Gaussian, Inc.),
 the Gaussian(R) 94 system (copyright 1995, Gaussian, Inc.),
 the Gaussian 92(TM) system (copyright 1992, Gaussian, Inc.),
 the Gaussian 90(TM) system (copyright 1990, Gaussian, Inc.),
 the Gaussian 88(TM) system (copyright 1988, Gaussian, Inc.),
 the Gaussian 86(TM) system (copyright 1986, Carnegie Mellon
 University), and the Gaussian 82(TM) system (copyright 1983,
 Carnegie Mellon University). Gaussian is a federally registered
 trademark of Gaussian, Inc.
  
 This software contains proprietary and confidential information,
 including trade secrets, belonging to Gaussian, Inc.
  
 This software is provided under written license and may be
 used, copied, transmitted, or stored only in accord with that
 written license.
  
 The following legend is applicable only to US Government
 contracts under FAR:
  
                    RESTRICTED RIGHTS LEGEND
  
 Use, reproduction and disclosure by the US Government is
 subject to restrictions as set forth in subparagraphs (a)
 and (c) of the Commercial Computer Software - Restricted
 Rights clause in FAR 52.227-19.
  
 Gaussian, Inc.
 340 Quinnipiac St., Bldg. 40, Wallingford CT 06492
  
  
 ---------------------------------------------------------------
 Warning -- This program may not be used in any manner that
 competes with the business of Gaussian, Inc. or will provide
 assistance to any competitor of Gaussian, Inc.  The licensee
 of this program is prohibited from giving any competitor of
 Gaussian, Inc. access to this program.  By using this program,
 the user acknowledges that Gaussian, Inc. is engaged in the
 business of creating and licensing software in the field of
 computational chemistry and represents and warrants to the
 licensee that it is not a competitor of Gaussian, Inc. and that
 it will not use this program in any manner prohibited above.
 ---------------------------------------------------------------
  

 Cite this work as:
 Gaussian 09, Revision C.01,
 M. J. Frisch, G. W. Trucks, H. B. Schlegel, G. E. Scuseria, 
 M. A. Robb, J. R. Cheeseman, G. Scalmani, V. Barone, B. Mennucci, 
 G. A. Petersson, H. Nakatsuji, M. Caricato, X. Li, H. P. Hratchian, 
 A. F. Izmaylov, J. Bloino, G. Zheng, J. L. Sonnenberg, M. Hada, 
 M. Ehara, K. Toyota, R. Fukuda, J. Hasegawa, M. Ishida, T. Nakajima, 
 Y. Honda, O. Kitao, H. Nakai, T. Vreven, J. A. Montgomery, Jr., 
 J. E. Peralta, F. Ogliaro, M. Bearpark, J. J. Heyd, E. Brothers, 
 K. N. Kudin, V. N. Staroverov, T. Keith, R. Kobayashi, J. Normand, 
 K. Raghavachari, A. Rendell, J. C. Burant, S. S. Iyengar, J. Tomasi, 
 M. Cossi, N. Rega, J. M. Millam, M. Klene, J. E. Knox, J. B. Cross, 
 V. Bakken, C. Adamo, J. Jaramillo, R. Gomperts, R. E. Stratmann, 
 O. Yazyev, A. J. Austin, R. Cammi, C. Pomelli, J. W. Ochterski, 
 R. L. Martin, K. Morokuma, V. G. Zakrzewski, G. A. Voth, 
 P. Salvador, J. J. Dannenberg, S. Dapprich, A. D. Daniels, 
 O. Farkas, J. B. Foresman, J. V. Ortiz, J. Cioslowski, 
 and D. J. Fox, Gaussian, Inc., Wallingford CT, 2010.
 
 ******************************************
 Gaussian 09:  AM64L-G09RevC.01 23-Sep-2011
                16-Feb-2018 
 ******************************************
 %nprocs=4
 Will use up to    4 processors via shared memory.
 %chk=frag56-conf0.chk
 ---------------------------------------------------------
 #B3LYP/6-31G* Integral=(Grid=UltraFine) freq Opt pop=none
 ---------------------------------------------------------
 1/14=-1,18=20,19=15,26=3,38=1/1,3;
 2/9=110,12=2,17=6,18=5,40=1/2;
 3/5=1,6=6,7=1,11=2,16=1,25=1,30=1,71=1,74=-5,75=-5/1,2,3;
 4//1;
 5/5=2,38=5/2;
 7//1,2,3,16;
 1/14=-1,18=20,19=15/3(2);
 2/9=110/2;
 99//99;
 2/9=110/2;
 3/5=1,6=6,7=1,11=2,16=1,25=1,30=1,71=1,74=-5,75=-5/1,2,3;
 4/5=5,16=3/1;
 5/5=2,38=5/2;
 7//1,2,3,16;
 1/14=-1,18=20,19=15/3(-5);
 2/9=110/2;
 99/9=1/99;
 -----------------------------
 Optimization for frag56-conf0
 -----------------------------
 Charge =  0 Multiplicity = 1
 Symbolic Z-Matrix:
 C                    -0.89517  -1.56269   5.14543 
 C                    -2.04662  -2.40455   5.09321 
 C                     0.07534  -1.94014   4.23359 
 C                    -1.89965  -3.38277   4.14524 
 C                     2.32063   0.4644    2.54814 
 C                     1.95667   1.5394    1.56098 
 C                     1.40749  -1.31064   3.98557 
 N                     1.24871  -0.24968   3.01705 
 O                     3.47659   0.26859   2.91804 
 S                    -0.42199  -3.31084   3.32504 
 Cl                   -3.03635  -4.60715   3.74758 
 H                    -0.78474  -0.719     5.81889 
 H                    -2.92471  -2.29046   5.71754 
 H                     1.70307   2.45415   2.10311 
 H                     2.80741   1.73029   0.90108 
 H                     1.10406   1.23424   0.9477 
 H                     1.81065  -0.87528   4.90692 
 H                     2.1434   -2.02917   3.60768 
 H                     0.315    -0.01588   2.69153 
 

 GradGradGradGradGradGradGradGradGradGradGradGradGradGradGradGradGradGrad
 Berny optimization.
 Initialization pass.
                           ----------------------------
                           !    Initial Parameters    !
                           ! (Angstroms and Degrees)  !
 --------------------------                            --------------------------
 ! Name  Definition              Value          Derivative Info.                !
 --------------------------------------------------------------------------------
 ! R1    R(1,2)                  1.4273         estimate D2E/DX2                !
 ! R2    R(1,3)                  1.3841         estimate D2E/DX2                !
 ! R3    R(1,12)                 1.0852         estimate D2E/DX2                !
 ! R4    R(2,4)                  1.3701         estimate D2E/DX2                !
 ! R5    R(2,13)                 1.0834         estimate D2E/DX2                !
 ! R6    R(3,7)                  1.4941         estimate D2E/DX2                !
 ! R7    R(3,10)                 1.718          estimate D2E/DX2                !
 ! R8    R(4,10)                 1.6916         estimate D2E/DX2                !
 ! R9    R(4,11)                 1.7174         estimate D2E/DX2                !
 ! R10   R(5,6)                  1.5042         estimate D2E/DX2                !
 ! R11   R(5,8)                  1.3707         estimate D2E/DX2                !
 ! R12   R(5,9)                  1.2294         estimate D2E/DX2                !
 ! R13   R(6,14)                 1.0932         estimate D2E/DX2                !
 ! R14   R(6,15)                 1.0935         estimate D2E/DX2                !
 ! R15   R(6,16)                 1.0937         estimate D2E/DX2                !
 ! R16   R(7,8)                  1.4453         estimate D2E/DX2                !
 ! R17   R(7,17)                 1.0959         estimate D2E/DX2                !
 ! R18   R(7,18)                 1.0957         estimate D2E/DX2                !
 ! R19   R(8,19)                 1.0161         estimate D2E/DX2                !
 ! A1    A(2,1,3)              112.3768         estimate D2E/DX2                !
 ! A2    A(2,1,12)             124.2897         estimate D2E/DX2                !
 ! A3    A(3,1,12)             123.3334         estimate D2E/DX2                !
 ! A4    A(1,2,4)              111.0939         estimate D2E/DX2                !
 ! A5    A(1,2,13)             124.7935         estimate D2E/DX2                !
 ! A6    A(4,2,13)             124.1126         estimate D2E/DX2                !
 ! A7    A(1,3,7)              128.2884         estimate D2E/DX2                !
 ! A8    A(1,3,10)             111.2834         estimate D2E/DX2                !
 ! A9    A(7,3,10)             120.4279         estimate D2E/DX2                !
 ! A10   A(2,4,10)             113.5049         estimate D2E/DX2                !
 ! A11   A(2,4,11)             126.7439         estimate D2E/DX2                !
 ! A12   A(10,4,11)            119.7512         estimate D2E/DX2                !
 ! A13   A(6,5,8)              114.0545         estimate D2E/DX2                !
 ! A14   A(6,5,9)              122.6021         estimate D2E/DX2                !
 ! A15   A(8,5,9)              123.3263         estimate D2E/DX2                !
 ! A16   A(5,6,14)             109.1901         estimate D2E/DX2                !
 ! A17   A(5,6,15)             109.4253         estimate D2E/DX2                !
 ! A18   A(5,6,16)             110.9299         estimate D2E/DX2                !
 ! A19   A(14,6,15)            109.4935         estimate D2E/DX2                !
 ! A20   A(14,6,16)            109.3119         estimate D2E/DX2                !
 ! A21   A(15,6,16)            108.4706         estimate D2E/DX2                !
 ! A22   A(3,7,8)              108.8181         estimate D2E/DX2                !
 ! A23   A(3,7,17)             110.8439         estimate D2E/DX2                !
 ! A24   A(3,7,18)             112.3195         estimate D2E/DX2                !
 ! A25   A(8,7,17)             108.1909         estimate D2E/DX2                !
 ! A26   A(8,7,18)             108.9077         estimate D2E/DX2                !
 ! A27   A(17,7,18)            107.6607         estimate D2E/DX2                !
 ! A28   A(5,8,7)              121.7195         estimate D2E/DX2                !
 ! A29   A(5,8,19)             119.285          estimate D2E/DX2                !
 ! A30   A(7,8,19)             118.9826         estimate D2E/DX2                !
 ! A31   A(3,10,4)              91.7411         estimate D2E/DX2                !
 ! D1    D(3,1,2,4)              0.001          estimate D2E/DX2                !
 ! D2    D(3,1,2,13)          -179.9687         estimate D2E/DX2                !
 ! D3    D(12,1,2,4)           179.8944         estimate D2E/DX2                !
 ! D4    D(12,1,2,13)           -0.0753         estimate D2E/DX2                !
 ! D5    D(2,1,3,7)            179.8154         estimate D2E/DX2                !
 ! D6    D(2,1,3,10)             0.0105         estimate D2E/DX2                !
 ! D7    D(12,1,3,7)            -0.0792         estimate D2E/DX2                !
 ! D8    D(12,1,3,10)         -179.8841         estimate D2E/DX2                !
 ! D9    D(1,2,4,10)            -0.0124         estimate D2E/DX2                !
 ! D10   D(1,2,4,11)          -179.9921         estimate D2E/DX2                !
 ! D11   D(13,2,4,10)          179.9576         estimate D2E/DX2                !
 ! D12   D(13,2,4,11)           -0.0221         estimate D2E/DX2                !
 ! D13   D(1,3,7,8)            -87.2526         estimate D2E/DX2                !
 ! D14   D(1,3,7,17)            31.6067         estimate D2E/DX2                !
 ! D15   D(1,3,7,18)           152.0856         estimate D2E/DX2                !
 ! D16   D(10,3,7,8)            92.5366         estimate D2E/DX2                !
 ! D17   D(10,3,7,17)         -148.6041         estimate D2E/DX2                !
 ! D18   D(10,3,7,18)          -28.1252         estimate D2E/DX2                !
 ! D19   D(1,3,10,4)            -0.0148         estimate D2E/DX2                !
 ! D20   D(7,3,10,4)          -179.8372         estimate D2E/DX2                !
 ! D21   D(2,4,10,3)             0.0158         estimate D2E/DX2                !
 ! D22   D(11,4,10,3)          179.997          estimate D2E/DX2                !
 ! D23   D(8,5,6,14)            86.7353         estimate D2E/DX2                !
 ! D24   D(8,5,6,15)          -153.4366         estimate D2E/DX2                !
 ! D25   D(8,5,6,16)           -33.7967         estimate D2E/DX2                !
 ! D26   D(9,5,6,14)           -91.8077         estimate D2E/DX2                !
 ! D27   D(9,5,6,15)            28.0204         estimate D2E/DX2                !
 ! D28   D(9,5,6,16)           147.6604         estimate D2E/DX2                !
 ! D29   D(6,5,8,7)           -179.2043         estimate D2E/DX2                !
 ! D30   D(6,5,8,19)            -0.5201         estimate D2E/DX2                !
 ! D31   D(9,5,8,7)             -0.6733         estimate D2E/DX2                !
 ! D32   D(9,5,8,19)           178.0109         estimate D2E/DX2                !
 ! D33   D(3,7,8,5)           -176.8341         estimate D2E/DX2                !
 ! D34   D(3,7,8,19)             4.4779         estimate D2E/DX2                !
 ! D35   D(17,7,8,5)            62.6568         estimate D2E/DX2                !
 ! D36   D(17,7,8,19)         -116.0312         estimate D2E/DX2                !
 ! D37   D(18,7,8,5)           -54.094          estimate D2E/DX2                !
 ! D38   D(18,7,8,19)          127.218          estimate D2E/DX2                !
 --------------------------------------------------------------------------------
 Trust Radius=3.00D-01 FncErr=1.00D-07 GrdErr=1.00D-06
 Number of steps in this run=     98 maximum allowed number of steps=    114.
 GradGradGradGradGradGradGradGradGradGradGradGradGradGradGradGradGradGrad

                          Input orientation:                          
 ---------------------------------------------------------------------
 Center     Atomic      Atomic             Coordinates (Angstroms)
 Number     Number       Type             X           Y           Z
 ---------------------------------------------------------------------
      1          6           0       -0.895174   -1.562688    5.145431
      2          6           0       -2.046617   -2.404549    5.093209
      3          6           0        0.075339   -1.940138    4.233585
      4          6           0       -1.899652   -3.382769    4.145237
      5          6           0        2.320633    0.464403    2.548142
      6          6           0        1.956674    1.539399    1.560983
      7          6           0        1.407491   -1.310639    3.985570
      8          7           0        1.248714   -0.249683    3.017046
      9          8           0        3.476588    0.268588    2.918039
     10         16           0       -0.421991   -3.310835    3.325039
     11         17           0       -3.036348   -4.607145    3.747580
     12          1           0       -0.784738   -0.718998    5.818891
     13          1           0       -2.924714   -2.290463    5.717537
     14          1           0        1.703070    2.454153    2.103113
     15          1           0        2.807405    1.730294    0.901078
     16          1           0        1.104063    1.234243    0.947703
     17          1           0        1.810648   -0.875278    4.906916
     18          1           0        2.143398   -2.029166    3.607682
     19          1           0        0.315002   -0.015876    2.691532
 ---------------------------------------------------------------------
                    Distance matrix (angstroms):
                    1          2          3          4          5
     1  C    0.000000
     2  C    1.427333   0.000000
     3  C    1.384134   2.336092   0.000000
     4  C    2.306959   1.370097   2.447362   0.000000
     5  C    4.603957   5.812153   3.696469   5.929777   0.000000
     6  C    5.532110   6.637596   4.773824   6.765896   1.504182
     7  C    2.590574   3.788715   1.494125   3.905946   2.459838
     8  N    3.293973   4.451191   2.390484   4.582712   1.370693
     9  O    5.237094   6.510209   4.263523   6.613802   1.229390
    10  S    2.567830   2.566552   1.718024   1.691562   4.730537
    11  Cl   3.975844   2.764365   4.126951   1.717354   7.473721
    12  H    1.085152   2.227113   2.178097   3.337638   4.662785
    13  H    2.230694   1.083446   3.365287   2.171639   6.719227
    14  H    5.669355   6.826992   5.147642   7.156783   2.130385
    15  H    6.524366   7.631017   5.660553   7.669704   2.133599
    16  H    5.425927   6.352386   4.683160   6.368934   2.152695
    17  H    2.801945   4.153537   2.144434   4.542466   2.760189
    18  H    3.437324   4.461382   2.162533   4.297378   2.715129
    19  H    3.143051   4.129293   2.477529   4.284148   2.067313
                    6          7          8          9         10
     6  C    0.000000
     7  C    3.781922   0.000000
     8  N    2.412911   1.445294   0.000000
     9  O    2.401395   2.813315   2.289504   0.000000
    10  S    5.682843   2.789999   3.500967   5.308186   0.000000
    11  Cl   8.215320   5.538168   6.154910   8.177974   2.948529
    12  H    5.544860   2.918385   3.493639   5.248730   3.615038
    13  H    7.468114   4.767364   5.373540   7.440605   3.609547
    14  H    1.093159   4.219558   2.890059   2.930216   6.264509
    15  H    1.093462   4.552046   3.290463   2.579248   6.458914
    16  H    1.093699   3.974559   2.550517   3.231654   5.351476
    17  H    4.128832   1.095880   2.068513   2.835387   3.663189
    18  H    4.118069   1.095737   2.077467   2.744572   2.881629
    19  H    2.528262   2.131778   1.016092   3.182428   3.435294
                   11         12         13         14         15
    11  Cl   0.000000
    12  H    4.947501   0.000000
    13  H    3.043060   2.656928   0.000000
    14  H    8.661887   5.483164   7.549293   0.000000
    15  H    9.078280   6.564100   8.498350   1.785614   0.000000
    16  H    7.687921   5.577740   7.169791   1.783805   1.774715
    17  H    6.226096   2.755386   5.008344   4.354078   4.881523
    18  H    5.787514   3.896148   5.495955   4.749502   4.679759
    19  H    5.781569   3.388832   4.982591   2.893789   3.530851
                   16         17         18         19
    16  H    0.000000
    17  H    4.541443   0.000000
    18  H    4.336535   1.769234   0.000000
    19  H    2.286122   2.807749   2.869791   0.000000
 Stoichiometry    C7H8ClNOS
 Framework group  C1[X(C7H8ClNOS)]
 Deg. of freedom    51
 Full point group                 C1      NOp   1
 Largest Abelian subgroup         C1      NOp   1
 Largest concise Abelian subgroup C1      NOp   1
                         Standard orientation:                         
 ---------------------------------------------------------------------
 Center     Atomic      Atomic             Coordinates (Angstroms)
 Number     Number       Type             X           Y           Z
 ---------------------------------------------------------------------
      1          6           0        0.710066    1.641086    0.231125
      2          6           0        2.076791    1.356573    0.528439
      3          6           0        0.075014    0.581508   -0.393240
      4          6           0        2.418625    0.095154    0.117178
      5          6           0       -3.503262   -0.209470    0.090672
      6          6           0       -4.190371   -0.670965    1.346645
      7          6           0       -1.343628    0.493825   -0.853867
      8          7           0       -2.161877    0.027992    0.242648
      9          8           0       -4.104287   -0.035850   -0.967640
     10         16           0        1.144130   -0.745591   -0.610965
     11         17           0        3.954811   -0.656085    0.275538
     12          1           0        0.215633    2.578128    0.465739
     13          1           0        2.759358    2.042754    1.015383
     14          1           0       -4.505167    0.201414    1.925311
     15          1           0       -5.066673   -1.269443    1.082868
     16          1           0       -3.520985   -1.286027    1.954756
     17          1           0       -1.714502    1.477391   -1.163711
     18          1           0       -1.464264   -0.189258   -1.702091
     19          1           0       -1.733252   -0.107476    1.153895
 ---------------------------------------------------------------------
 Rotational constants (GHZ):      2.5415301      0.3184701      0.3117341
 Standard basis: 6-31G(d) (6D, 7F)
 There are   189 symmetry adapted basis functions of A   symmetry.
 Integral buffers will be    131072 words long.
 Raffenetti 2 integral format.
 Two-electron integral symmetry is turned on.
   189 basis functions,   388 primitive gaussians,   189 cartesian basis functions
    49 alpha electrons       49 beta electrons
       nuclear repulsion energy       744.9245181095 Hartrees.
 NAtoms=   19 NActive=   19 NUniq=   19 SFac= 1.00D+00 NAtFMM=   60 NAOKFM=F Big=F
 One-electron integrals computed using PRISM.
 NBasis=   189 RedAO= T  NBF=   189
 NBsUse=   189 1.00D-06 NBFU=   189
 Harris functional with IExCor=  402 diagonalized for initial guess.
 ExpMin= 1.17D-01 ExpMax= 2.52D+04 ExpMxC= 3.78D+03 IAcc=3 IRadAn=         5 AccDes= 0.00D+00
 HarFok:  IExCor=  402 AccDes= 0.00D+00 IRadAn=         5 IDoV= 1
 ScaDFX=  1.000000  1.000000  1.000000  1.000000
 FoFCou: FMM=F IPFlag=           0 FMFlag=      100000 FMFlg1=           0
         NFxFlg=           0 DoJE=T BraDBF=F KetDBF=T FulRan=T
         Omega=  0.000000  0.000000  1.000000  0.000000  0.000000 ICntrl=     500 IOpCl=  0
         NMat0=    1 NMatS0=    1 NMatT0=    0 NMatD0=    1 NMtDS0=    0 NMtDT0=    0
         I1Cent=           4 NGrid=           0.
 Petite list used in FoFCou.
 Initial guess orbital symmetries:
       Occupied  (A) (A) (A) (A) (A) (A) (A) (A) (A) (A) (A) (A)
                 (A) (A) (A) (A) (A) (A) (A) (A) (A) (A) (A) (A)
                 (A) (A) (A) (A) (A) (A) (A) (A) (A) (A) (A) (A)
                 (A) (A) (A) (A) (A) (A) (A) (A) (A) (A) (A) (A)
                 (A)
       Virtual   (A) (A) (A) (A) (A) (A) (A) (A) (A) (A) (A) (A)
                 (A) (A) (A) (A) (A) (A) (A) (A) (A) (A) (A) (A)
                 (A) (A) (A) (A) (A) (A) (A) (A) (A) (A) (A) (A)
                 (A) (A) (A) (A) (A) (A) (A) (A) (A) (A) (A) (A)
                 (A) (A) (A) (A) (A) (A) (A) (A) (A) (A) (A) (A)
                 (A) (A) (A) (A) (A) (A) (A) (A) (A) (A) (A) (A)
                 (A) (A) (A) (A) (A) (A) (A) (A) (A) (A) (A) (A)
                 (A) (A) (A) (A) (A) (A) (A) (A) (A) (A) (A) (A)
                 (A) (A) (A) (A) (A) (A) (A) (A) (A) (A) (A) (A)
                 (A) (A) (A) (A) (A) (A) (A) (A) (A) (A) (A) (A)
                 (A) (A) (A) (A) (A) (A) (A) (A) (A) (A) (A) (A)
                 (A) (A) (A) (A) (A) (A) (A) (A)
 The electronic state of the initial guess is 1-A.
 Requested convergence on RMS density matrix=1.00D-08 within 128 cycles.
 Requested convergence on MAX density matrix=1.00D-06.
 Requested convergence on             energy=1.00D-06.
 No special actions if energy rises.
 Integral accuracy reduced to 1.0D-05 until final iterations.
 Initial convergence to 1.0D-05 achieved.  Increase integral accuracy.
 SCF Done:  E(RB3LYP) =  -1259.91400606     A.U. after   15 cycles
             Convg  =    0.5594D-08             -V/T =  2.0050
 Calling FoFJK, ICntrl=      2127 FMM=F ISym2X=0 I1Cent= 0 IOpClX= 0 NMat=1 NMatS=1 NMatT=0.
 ***** Axes restored to original set *****
 -------------------------------------------------------------------
 Center     Atomic                   Forces (Hartrees/Bohr)
 Number     Number              X              Y              Z
 -------------------------------------------------------------------
      1        6           0.004228122   -0.006367779   -0.008690576
      2        6           0.002156061    0.003607394    0.000750662
      3        6           0.000738979    0.008111348    0.018295812
      4        6          -0.018379800    0.001692088    0.011884831
      5        6           0.006203808   -0.003430573    0.004391245
      6        6          -0.000731181    0.001598949   -0.007691818
      7        6          -0.001391602    0.002951773    0.002656616
      8        7           0.003474978    0.011329702   -0.013139812
      9        8          -0.008297662   -0.003696772    0.001203390
     10       16           0.016359627   -0.007162466   -0.015753051
     11       17          -0.007953768   -0.006934550   -0.001301572
     12        1           0.000445675   -0.000710621    0.000215801
     13        1          -0.000110031   -0.000849508   -0.000440898
     14        1          -0.000376265    0.002990247   -0.001445492
     15        1          -0.000296032    0.001277684    0.002398743
     16        1          -0.002214700    0.002965617   -0.000962173
     17        1           0.000716906   -0.003917931    0.002896868
     18        1           0.000484172   -0.000672312    0.001999776
     19        1           0.004942711   -0.002782291    0.002731647
 -------------------------------------------------------------------
 Cartesian Forces:  Max     0.018379800 RMS     0.006441926

 GradGradGradGradGradGradGradGradGradGradGradGradGradGradGradGradGradGrad
 Berny optimization.
 Internal  Forces:  Max     0.023730055 RMS     0.004873920
 Search for a local minimum.
 Step number   1 out of a maximum of   98
 All quantities printed in internal units (Hartrees-Bohrs-Radians)
 Mixed Optimization -- RFO/linear search
 Second derivative matrix not updated -- first step.
 ITU=  0
     Eigenvalues ---    0.00711   0.00844   0.01093   0.01265   0.01423
     Eigenvalues ---    0.01490   0.01844   0.01967   0.02079   0.02112
     Eigenvalues ---    0.02162   0.02305   0.05565   0.06719   0.07349
     Eigenvalues ---    0.07512   0.09563   0.12969   0.15997   0.16000
     Eigenvalues ---    0.16000   0.16000   0.16000   0.16000   0.21931
     Eigenvalues ---    0.22001   0.22737   0.24554   0.24992   0.25000
     Eigenvalues ---    0.25000   0.25000   0.31943   0.32910   0.33002
     Eigenvalues ---    0.33880   0.34142   0.34158   0.34389   0.34416
     Eigenvalues ---    0.34450   0.35379   0.35581   0.35639   0.38868
     Eigenvalues ---    0.40316   0.44967   0.45953   0.49670   0.50844
     Eigenvalues ---    0.91341
 RFO step:  Lambda=-7.18881168D-03 EMin= 7.10632263D-03
 Linear search not attempted -- first point.
 Iteration  1 RMS(Cart)=  0.07052288 RMS(Int)=  0.00109602
 Iteration  2 RMS(Cart)=  0.00197319 RMS(Int)=  0.00025289
 Iteration  3 RMS(Cart)=  0.00000311 RMS(Int)=  0.00025288
 Iteration  4 RMS(Cart)=  0.00000000 RMS(Int)=  0.00025288
 Variable       Old X    -DE/DX   Delta X   Delta X   Delta X     New X
                                 (Linear)    (Quad)   (Total)
    R1        2.69727   0.00127   0.00000   0.00114   0.00119   2.69846
    R2        2.61563  -0.00771   0.00000  -0.01748  -0.01749   2.59815
    R3        2.05064  -0.00037   0.00000  -0.00103  -0.00103   2.04961
    R4        2.58911  -0.00020   0.00000   0.00017   0.00022   2.58933
    R5        2.04742  -0.00025   0.00000  -0.00070  -0.00070   2.04672
    R6        2.82349   0.00670   0.00000   0.01986   0.01986   2.84334
    R7        3.24659   0.01358   0.00000   0.03978   0.03972   3.28631
    R8        3.19659   0.02373   0.00000   0.06567   0.06566   3.26225
    R9        3.24533   0.01051   0.00000   0.03038   0.03038   3.27571
   R10        2.84249   0.01224   0.00000   0.03748   0.03748   2.87997
   R11        2.59024  -0.00286   0.00000  -0.00554  -0.00554   2.58469
   R12        2.32321  -0.00685   0.00000  -0.00744  -0.00744   2.31577
   R13        2.06577   0.00187   0.00000   0.00533   0.00533   2.07110
   R14        2.06634  -0.00145   0.00000  -0.00414  -0.00414   2.06220
   R15        2.06679   0.00144   0.00000   0.00410   0.00410   2.07089
   R16        2.73121   0.01561   0.00000   0.03944   0.03944   2.77065
   R17        2.07091   0.00114   0.00000   0.00328   0.00328   2.07419
   R18        2.07064   0.00008   0.00000   0.00022   0.00022   2.07086
   R19        1.92014  -0.00606   0.00000  -0.01326  -0.01326   1.90688
    A1        1.96135   0.00763   0.00000   0.02536   0.02540   1.98675
    A2        2.16926  -0.00362   0.00000  -0.01152  -0.01154   2.15773
    A3        2.15257  -0.00401   0.00000  -0.01385  -0.01387   2.13870
    A4        1.93895   0.00308   0.00000   0.01016   0.01025   1.94921
    A5        2.17806  -0.00060   0.00000   0.00052   0.00047   2.17853
    A6        2.16617  -0.00248   0.00000  -0.01068  -0.01073   2.15544
    A7        2.23906  -0.00070   0.00000  -0.00080  -0.00082   2.23824
    A8        1.94226  -0.00297   0.00000  -0.01545  -0.01556   1.92670
    A9        2.10186   0.00367   0.00000   0.01621   0.01619   2.11806
   A10        1.98103  -0.00660   0.00000  -0.02223  -0.02220   1.95883
   A11        2.21210   0.00069   0.00000   0.00097   0.00094   2.21304
   A12        2.09005   0.00591   0.00000   0.02126   0.02124   2.11129
   A13        1.99063   0.00743   0.00000   0.02888   0.02888   2.01950
   A14        2.13981   0.00332   0.00000   0.01290   0.01290   2.15271
   A15        2.15245  -0.01075   0.00000  -0.04181  -0.04181   2.11064
   A16        1.90573   0.00266   0.00000   0.01225   0.01212   1.91784
   A17        1.90983  -0.00143   0.00000  -0.00921  -0.00926   1.90057
   A18        1.93609   0.00443   0.00000   0.03088   0.03070   1.96679
   A19        1.91102  -0.00240   0.00000  -0.02326  -0.02326   1.88776
   A20        1.90785  -0.00334   0.00000  -0.01856  -0.01879   1.88906
   A21        1.89317  -0.00003   0.00000   0.00712   0.00703   1.90020
   A22        1.89923   0.00983   0.00000   0.05127   0.05100   1.95024
   A23        1.93459  -0.00476   0.00000  -0.02573  -0.02714   1.90745
   A24        1.96035  -0.00324   0.00000  -0.02227  -0.02270   1.93765
   A25        1.88829   0.00119   0.00000   0.03029   0.03031   1.91860
   A26        1.90080  -0.00267   0.00000  -0.00612  -0.00575   1.89505
   A27        1.87903  -0.00034   0.00000  -0.02604  -0.02671   1.85232
   A28        2.12441  -0.00132   0.00000  -0.00585  -0.00586   2.11854
   A29        2.08192   0.00230   0.00000   0.01263   0.01262   2.09453
   A30        2.07664  -0.00098   0.00000  -0.00697  -0.00698   2.06966
   A31        1.60118  -0.00115   0.00000   0.00217   0.00202   1.60321
    D1        0.00002   0.00021   0.00000   0.00657   0.00666   0.00668
    D2       -3.14105   0.00001   0.00000   0.00095   0.00101  -3.14004
    D3        3.13975   0.00020   0.00000   0.00501   0.00507  -3.13837
    D4       -0.00131   0.00000   0.00000  -0.00061  -0.00058  -0.00190
    D5        3.13837  -0.00075   0.00000  -0.03018  -0.03009   3.10828
    D6        0.00018  -0.00037   0.00000  -0.01245  -0.01252  -0.01234
    D7       -0.00138  -0.00074   0.00000  -0.02864  -0.02852  -0.02990
    D8       -3.13957  -0.00036   0.00000  -0.01091  -0.01095   3.13267
    D9       -0.00022   0.00005   0.00000   0.00240   0.00248   0.00226
   D10       -3.14145  -0.00015   0.00000  -0.00459  -0.00455   3.13718
   D11        3.14085   0.00025   0.00000   0.00798   0.00804  -3.13429
   D12       -0.00039   0.00004   0.00000   0.00099   0.00102   0.00063
   D13       -1.52284  -0.00119   0.00000  -0.01946  -0.01930  -1.54214
   D14        0.55164   0.00354   0.00000   0.03418   0.03363   0.58527
   D15        2.65439  -0.00244   0.00000  -0.03236  -0.03178   2.62261
   D16        1.61507  -0.00161   0.00000  -0.03868  -0.03864   1.57643
   D17       -2.59363   0.00312   0.00000   0.01497   0.01428  -2.57935
   D18       -0.49088  -0.00287   0.00000  -0.05158  -0.05113  -0.54201
   D19       -0.00026   0.00034   0.00000   0.01169   0.01166   0.01140
   D20       -3.13875   0.00070   0.00000   0.02786   0.02785  -3.11090
   D21        0.00028  -0.00023   0.00000  -0.00809  -0.00811  -0.00783
   D22        3.14154  -0.00004   0.00000  -0.00164  -0.00155   3.13999
   D23        1.51382   0.00084   0.00000   0.01290   0.01298   1.52680
   D24       -2.67797  -0.00134   0.00000  -0.01361  -0.01366  -2.69163
   D25       -0.58986   0.00047   0.00000   0.00855   0.00849  -0.58137
   D26       -1.60235   0.00097   0.00000   0.01509   0.01519  -1.58715
   D27        0.48905  -0.00121   0.00000  -0.01142  -0.01145   0.47760
   D28        2.57716   0.00060   0.00000   0.01075   0.01070   2.58786
   D29       -3.12770   0.00069   0.00000   0.02786   0.02789  -3.09982
   D30       -0.00908   0.00046   0.00000   0.01839   0.01835   0.00928
   D31       -0.01175   0.00080   0.00000   0.02657   0.02661   0.01486
   D32        3.10688   0.00057   0.00000   0.01709   0.01707   3.12395
   D33       -3.08634   0.00007   0.00000   0.00658   0.00704  -3.07930
   D34        0.07815   0.00026   0.00000   0.01577   0.01619   0.09434
   D35        1.09357  -0.00061   0.00000  -0.01007  -0.01066   1.08290
   D36       -2.02513  -0.00042   0.00000  -0.00088  -0.00151  -2.02664
   D37       -0.94412   0.00058   0.00000   0.00752   0.00772  -0.93640
   D38        2.22037   0.00077   0.00000   0.01671   0.01687   2.23724
         Item               Value     Threshold  Converged?
 Maximum Force            0.023730     0.000450     NO 
 RMS     Force            0.004874     0.000300     NO 
 Maximum Displacement     0.236022     0.001800     NO 
 RMS     Displacement     0.071034     0.001200     NO 
 Predicted change in Energy=-3.723592D-03
 GradGradGradGradGradGradGradGradGradGradGradGradGradGradGradGradGradGrad

                          Input orientation:                          
 ---------------------------------------------------------------------
 Center     Atomic      Atomic             Coordinates (Angstroms)
 Number     Number       Type             X           Y           Z
 ---------------------------------------------------------------------
      1          6           0       -0.906828   -1.614833    5.161541
      2          6           0       -2.059100   -2.457694    5.131095
      3          6           0        0.058472   -1.960222    4.245464
      4          6           0       -1.940545   -3.443273    4.186607
      5          6           0        2.319717    0.484021    2.521761
      6          6           0        2.022271    1.595089    1.521924
      7          6           0        1.371279   -1.277214    3.973512
      8          7           0        1.234128   -0.216566    2.970587
      9          8           0        3.445778    0.233917    2.935483
     10         16           0       -0.439920   -3.357221    3.337575
     11         17           0       -3.101200   -4.678535    3.823586
     12          1           0       -0.794712   -0.774926    5.838560
     13          1           0       -2.924258   -2.345882    5.773007
     14          1           0        1.794695    2.525225    2.055047
     15          1           0        2.907881    1.763485    0.906936
     16          1           0        1.175713    1.359140    0.867254
     17          1           0        1.762952   -0.858620    4.909531
     18          1           0        2.122190   -1.994239    3.622939
     19          1           0        0.311279    0.011203    2.631906
 ---------------------------------------------------------------------
                    Distance matrix (angstroms):
                    1          2          3          4          5
     1  C    0.000000
     2  C    1.427961   0.000000
     3  C    1.374879   2.348602   0.000000
     4  C    2.315656   1.370212   2.489773   0.000000
     5  C    4.667356   5.885265   3.749494   6.028696   0.000000
     6  C    5.668336   6.790343   4.890236   6.941868   1.524014
     7  C    2.591364   3.808022   1.504633   3.963004   2.471652
     8  N    3.367361   4.531644   2.459231   4.687098   1.367761
     9  O    5.226700   6.509160   4.243129   6.640746   1.225452
    10  S    2.565301   2.578295   1.739041   1.726306   4.799614
    11  Cl   3.998958   2.779872   4.189359   1.733429   7.598228
    12  H    1.084605   2.220561   2.161204   3.340952   4.720781
    13  H    2.231221   1.083075   3.373248   2.165324   6.788095
    14  H    5.838545   7.010227   5.285039   7.356530   2.158700
    15  H    6.638275   7.767417   5.755944   7.834143   2.142574
    16  H    5.623379   6.573627   4.866076   6.617578   2.193620
    17  H    2.786232   4.149001   2.135360   4.573722   2.795375
    18  H    3.418507   4.469061   2.155836   4.350084   2.719077
    19  H    3.244507   4.237935   2.560077   4.406950   2.066279
                    6          7          8          9         10
     6  C    0.000000
     7  C    3.831997   0.000000
     8  N    2.449875   1.466166   0.000000
     9  O    2.424317   2.768496   2.257335   0.000000
    10  S    5.821027   2.830422   3.577825   5.306280   0.000000
    11  Cl   8.420568   5.620901   6.279478   8.233094   3.010728
    12  H    5.673245   2.902105   3.557138   5.237115   3.612347
    13  H    7.620440   4.778271   5.447910   7.435339   3.622992
    14  H    1.095977   4.279992   2.944464   2.958266   6.421960
    15  H    1.091271   4.583763   3.313714   2.596904   6.583116
    16  H    1.095867   4.078903   2.628740   3.270611   5.563886
    17  H    4.190920   1.097615   2.109832   2.814677   3.683300
    18  H    4.160231   1.095853   2.091491   2.681261   2.916087
    19  H    2.582295   2.140916   1.009076   3.157031   3.522577
                   11         12         13         14         15
    11  Cl   0.000000
    12  H    4.961670   0.000000
    13  H    3.045131   2.647105   0.000000
    14  H    8.887726   5.648982   7.734302   0.000000
    15  H    9.279844   6.668855   8.635936   1.771324   0.000000
    16  H    7.967773   5.757664   7.389409   1.775878   1.779178
    17  H    6.279410   2.722452   4.992743   4.427132   4.920067
    18  H    5.876181   3.860572   5.496643   4.794903   4.702602
    19  H    5.921043   3.481931   5.088327   2.975500   3.576081
                   16         17         18         19
    16  H    0.000000
    17  H    4.647936   0.000000
    18  H    4.442383   1.753282   0.000000
    19  H    2.382893   2.837520   2.878079   0.000000
 Stoichiometry    C7H8ClNOS
 Framework group  C1[X(C7H8ClNOS)]
 Deg. of freedom    51
 Full point group                 C1      NOp   1
 Largest Abelian subgroup         C1      NOp   1
 Largest concise Abelian subgroup C1      NOp   1
                         Standard orientation:                         
 ---------------------------------------------------------------------
 Center     Atomic      Atomic             Coordinates (Angstroms)
 Number     Number       Type             X           Y           Z
 ---------------------------------------------------------------------
      1          6           0        0.734202    1.622477    0.237864
      2          6           0        2.102798    1.343603    0.534927
      3          6           0        0.077998    0.585781   -0.382580
      4          6           0        2.464945    0.088445    0.121515
      5          6           0       -3.556329   -0.208500    0.085921
      6          6           0       -4.330661   -0.686418    1.308469
      7          6           0       -1.365559    0.514743   -0.800933
      8          7           0       -2.218833    0.004702    0.276761
      9          8           0       -4.079743    0.007038   -1.000961
     10         16           0        1.158333   -0.754673   -0.628186
     11         17           0        4.026773   -0.646633    0.280037
     12          1           0        0.246546    2.560978    0.478228
     13          1           0        2.782660    2.031958    1.021761
     14          1           0       -4.674844    0.175122    1.891951
     15          1           0       -5.207670   -1.243997    0.975551
     16          1           0       -3.731074   -1.327465    1.964578
     17          1           0       -1.704346    1.513348   -1.105514
     18          1           0       -1.489153   -0.129556   -1.678713
     19          1           0       -1.805174   -0.162864    1.181769
 ---------------------------------------------------------------------
 Rotational constants (GHZ):      2.5575206      0.3088034      0.3024654
 Standard basis: 6-31G(d) (6D, 7F)
 There are   189 symmetry adapted basis functions of A   symmetry.
 Integral buffers will be    131072 words long.
 Raffenetti 2 integral format.
 Two-electron integral symmetry is turned on.
   189 basis functions,   388 primitive gaussians,   189 cartesian basis functions
    49 alpha electrons       49 beta electrons
       nuclear repulsion energy       737.8207584713 Hartrees.
 NAtoms=   19 NActive=   19 NUniq=   19 SFac= 1.00D+00 NAtFMM=   60 NAOKFM=F Big=F
 One-electron integrals computed using PRISM.
 NBasis=   189 RedAO= T  NBF=   189
 NBsUse=   189 1.00D-06 NBFU=   189
 Initial guess read from the read-write file.
 B after Tr=     0.000000    0.000000    0.000000
         Rot=    1.000000    0.000000    0.000000    0.000000 Ang=   0.00 deg.
 Initial guess orbital symmetries:
       Occupied  (A) (A) (A) (A) (A) (A) (A) (A) (A) (A) (A) (A)
                 (A) (A) (A) (A) (A) (A) (A) (A) (A) (A) (A) (A)
                 (A) (A) (A) (A) (A) (A) (A) (A) (A) (A) (A) (A)
                 (A) (A) (A) (A) (A) (A) (A) (A) (A) (A) (A) (A)
                 (A)
       Virtual   (A) (A) (A) (A) (A) (A) (A) (A) (A) (A) (A) (A)
                 (A) (A) (A) (A) (A) (A) (A) (A) (A) (A) (A) (A)
                 (A) (A) (A) (A) (A) (A) (A) (A) (A) (A) (A) (A)
                 (A) (A) (A) (A) (A) (A) (A) (A) (A) (A) (A) (A)
                 (A) (A) (A) (A) (A) (A) (A) (A) (A) (A) (A) (A)
                 (A) (A) (A) (A) (A) (A) (A) (A) (A) (A) (A) (A)
                 (A) (A) (A) (A) (A) (A) (A) (A) (A) (A) (A) (A)
                 (A) (A) (A) (A) (A) (A) (A) (A) (A) (A) (A) (A)
                 (A) (A) (A) (A) (A) (A) (A) (A) (A) (A) (A) (A)
                 (A) (A) (A) (A) (A) (A) (A) (A) (A) (A) (A) (A)
                 (A) (A) (A) (A) (A) (A) (A) (A) (A) (A) (A) (A)
                 (A) (A) (A) (A) (A) (A) (A) (A)
 Harris functional with IExCor=  402 diagonalized for initial guess.
 ExpMin= 1.17D-01 ExpMax= 2.52D+04 ExpMxC= 3.78D+03 IAcc=3 IRadAn=         5 AccDes= 0.00D+00
 HarFok:  IExCor=  402 AccDes= 0.00D+00 IRadAn=         5 IDoV= 1
 ScaDFX=  1.000000  1.000000  1.000000  1.000000
 FoFCou: FMM=F IPFlag=           0 FMFlag=      100000 FMFlg1=           0
         NFxFlg=           0 DoJE=T BraDBF=F KetDBF=T FulRan=T
         Omega=  0.000000  0.000000  1.000000  0.000000  0.000000 ICntrl=     500 IOpCl=  0
         NMat0=    1 NMatS0=    1 NMatT0=    0 NMatD0=    1 NMtDS0=    0 NMtDT0=    0
         I1Cent=           4 NGrid=           0.
 Petite list used in FoFCou.
 Requested convergence on RMS density matrix=1.00D-08 within 128 cycles.
 Requested convergence on MAX density matrix=1.00D-06.
 Requested convergence on             energy=1.00D-06.
 No special actions if energy rises.
 Integral accuracy reduced to 1.0D-05 until final iterations.
 Initial convergence to 1.0D-05 achieved.  Increase integral accuracy.
 SCF Done:  E(RB3LYP) =  -1259.91752631     A.U. after   12 cycles
             Convg  =    0.9297D-08             -V/T =  2.0052
 Calling FoFJK, ICntrl=      2127 FMM=F ISym2X=0 I1Cent= 0 IOpClX= 0 NMat=1 NMatS=1 NMatT=0.
 ***** Axes restored to original set *****
 -------------------------------------------------------------------
 Center     Atomic                   Forces (Hartrees/Bohr)
 Number     Number              X              Y              Z
 -------------------------------------------------------------------
      1        6           0.000704312   -0.001059749   -0.002675383
      2        6           0.001253453   -0.000435702   -0.000718184
      3        6           0.000096685    0.004904824    0.004532604
      4        6          -0.005291443    0.002153486    0.005282213
      5        6           0.001286068   -0.002878077    0.003256944
      6        6          -0.000543543   -0.001400146   -0.000595128
      7        6          -0.000755756   -0.000479776   -0.000583509
      8        7          -0.001896482    0.000492711   -0.001608500
      9        8           0.001025309    0.001759844   -0.001489002
     10       16           0.004868290   -0.004071695   -0.008372189
     11       17           0.000482178    0.000182748    0.000120927
     12        1          -0.000256587    0.000326097    0.000529556
     13        1          -0.000101576   -0.000028392    0.000178935
     14        1           0.000089927    0.000121104    0.000280384
     15        1           0.000687433   -0.000165631    0.000575755
     16        1          -0.000303386    0.000093774    0.000720423
     17        1          -0.000437169    0.000671749   -0.000446340
     18        1           0.000485570    0.000521491    0.000187903
     19        1          -0.001393284   -0.000708662    0.000822589
 -------------------------------------------------------------------
 Cartesian Forces:  Max     0.008372189 RMS     0.002178437

 GradGradGradGradGradGradGradGradGradGradGradGradGradGradGradGradGradGrad
 Berny optimization.
 Using GEDIIS/GDIIS optimizer.
 Internal  Forces:  Max     0.006421635 RMS     0.001364097
 Search for a local minimum.
 Step number   2 out of a maximum of   98
 All quantities printed in internal units (Hartrees-Bohrs-Radians)
 Mixed Optimization -- RFO/linear search
 Update second derivatives using D2CorX and points    1    2
 DE= -3.52D-03 DEPred=-3.72D-03 R= 9.45D-01
 SS=  1.41D+00  RLast= 1.95D-01 DXNew= 5.0454D-01 5.8354D-01
 Trust test= 9.45D-01 RLast= 1.95D-01 DXMaxT set to 5.05D-01
 ITU=  1  0
 Use linear search instead of GDIIS.
     Eigenvalues ---    0.00710   0.00838   0.01091   0.01243   0.01411
     Eigenvalues ---    0.01496   0.01860   0.01969   0.02083   0.02111
     Eigenvalues ---    0.02168   0.02302   0.05209   0.06735   0.07075
     Eigenvalues ---    0.07473   0.10080   0.13244   0.15650   0.15998
     Eigenvalues ---    0.16000   0.16000   0.16000   0.16144   0.21539
     Eigenvalues ---    0.22306   0.22708   0.24664   0.24897   0.24996
     Eigenvalues ---    0.24999   0.27438   0.28543   0.32391   0.33395
     Eigenvalues ---    0.34007   0.34138   0.34158   0.34358   0.34405
     Eigenvalues ---    0.34451   0.34838   0.35411   0.35586   0.40141
     Eigenvalues ---    0.41857   0.45375   0.45966   0.49677   0.50832
     Eigenvalues ---    0.91366
 RFO step:  Lambda=-7.21175019D-04 EMin= 7.10268354D-03
 Quartic linear search produced a step of -0.00503.
 Iteration  1 RMS(Cart)=  0.02204158 RMS(Int)=  0.00028385
 Iteration  2 RMS(Cart)=  0.00036906 RMS(Int)=  0.00003853
 Iteration  3 RMS(Cart)=  0.00000016 RMS(Int)=  0.00003853
 Variable       Old X    -DE/DX   Delta X   Delta X   Delta X     New X
                                 (Linear)    (Quad)   (Total)
    R1        2.69846  -0.00166  -0.00001  -0.00451  -0.00453   2.69393
    R2        2.59815  -0.00227   0.00009  -0.00679  -0.00671   2.59143
    R3        2.04961   0.00056   0.00001   0.00146   0.00146   2.05107
    R4        2.58933  -0.00175   0.00000  -0.00348  -0.00348   2.58585
    R5        2.04672   0.00018   0.00000   0.00044   0.00045   2.04716
    R6        2.84334  -0.00263  -0.00010  -0.00587  -0.00597   2.83737
    R7        3.28631   0.00469  -0.00020   0.01828   0.01808   3.30439
    R8        3.26225   0.00642  -0.00033   0.02464   0.02432   3.28657
    R9        3.27571  -0.00048  -0.00015   0.00171   0.00156   3.27726
   R10        2.87997  -0.00162  -0.00019  -0.00118  -0.00137   2.87860
   R11        2.58469  -0.00039   0.00003  -0.00133  -0.00130   2.58340
   R12        2.31577   0.00008   0.00004  -0.00068  -0.00064   2.31513
   R13        2.07110   0.00022  -0.00003   0.00118   0.00115   2.07225
   R14        2.06220   0.00021   0.00002   0.00017   0.00020   2.06240
   R15        2.07089  -0.00022  -0.00002  -0.00020  -0.00022   2.07066
   R16        2.77065  -0.00319  -0.00020  -0.00410  -0.00430   2.76636
   R17        2.07419  -0.00028  -0.00002  -0.00048  -0.00050   2.07370
   R18        2.07086  -0.00007   0.00000  -0.00018  -0.00018   2.07068
   R19        1.90688   0.00084   0.00007   0.00049   0.00056   1.90743
    A1        1.98675   0.00073  -0.00013   0.00395   0.00367   1.99042
    A2        2.15773  -0.00075   0.00006  -0.00420  -0.00416   2.15357
    A3        2.13870   0.00002   0.00007   0.00031   0.00036   2.13906
    A4        1.94921   0.00032  -0.00005   0.00105   0.00093   1.95013
    A5        2.17853  -0.00017   0.00000  -0.00004  -0.00001   2.17852
    A6        2.15544  -0.00015   0.00005  -0.00102  -0.00093   2.15451
    A7        2.23824  -0.00084   0.00000  -0.00343  -0.00345   2.23479
    A8        1.92670   0.00162   0.00008   0.00457   0.00452   1.93122
    A9        2.11806  -0.00079  -0.00008  -0.00150  -0.00161   2.11645
   A10        1.95883   0.00115   0.00011   0.00292   0.00298   1.96181
   A11        2.21304  -0.00034   0.00000  -0.00157  -0.00155   2.21149
   A12        2.11129  -0.00081  -0.00011  -0.00135  -0.00143   2.10987
   A13        2.01950  -0.00221  -0.00015  -0.00573  -0.00589   2.01361
   A14        2.15271  -0.00181  -0.00006  -0.00580  -0.00588   2.14683
   A15        2.11064   0.00403   0.00021   0.01179   0.01198   2.12262
   A16        1.91784  -0.00026  -0.00006  -0.00165  -0.00172   1.91613
   A17        1.90057  -0.00089   0.00005  -0.00603  -0.00600   1.89458
   A18        1.96679  -0.00007  -0.00015   0.00356   0.00341   1.97021
   A19        1.88776   0.00024   0.00012  -0.00269  -0.00259   1.88517
   A20        1.88906   0.00007   0.00009  -0.00223  -0.00214   1.88692
   A21        1.90020   0.00094  -0.00004   0.00894   0.00890   1.90910
   A22        1.95024  -0.00177  -0.00026  -0.00367  -0.00393   1.94631
   A23        1.90745   0.00066   0.00014  -0.00015  -0.00001   1.90744
   A24        1.93765   0.00104   0.00011   0.00564   0.00576   1.94340
   A25        1.91860   0.00011  -0.00015  -0.00021  -0.00037   1.91823
   A26        1.89505   0.00018   0.00003  -0.00102  -0.00098   1.89407
   A27        1.85232  -0.00013   0.00013  -0.00043  -0.00029   1.85203
   A28        2.11854  -0.00227   0.00003  -0.01084  -0.01081   2.10773
   A29        2.09453   0.00260  -0.00006   0.01541   0.01534   2.10988
   A30        2.06966  -0.00033   0.00004  -0.00469  -0.00466   2.06500
   A31        1.60321  -0.00381  -0.00001  -0.01209  -0.01217   1.59104
    D1        0.00668  -0.00033  -0.00003  -0.01666  -0.01669  -0.01001
    D2       -3.14004  -0.00034  -0.00001  -0.01861  -0.01866   3.12449
    D3       -3.13837   0.00007  -0.00003   0.00434   0.00435  -3.13402
    D4       -0.00190   0.00006   0.00000   0.00239   0.00238   0.00048
    D5        3.10828   0.00028   0.00015   0.00916   0.00939   3.11767
    D6       -0.01234   0.00056   0.00006   0.02937   0.02953   0.01720
    D7       -0.02990  -0.00012   0.00014  -0.01158  -0.01144  -0.04134
    D8        3.13267   0.00016   0.00006   0.00863   0.00871   3.14137
    D9        0.00226  -0.00006  -0.00001  -0.00421  -0.00431  -0.00204
   D10        3.13718  -0.00007   0.00002  -0.00403  -0.00406   3.13312
   D11       -3.13429  -0.00005  -0.00004  -0.00229  -0.00237  -3.13667
   D12        0.00063  -0.00006  -0.00001  -0.00211  -0.00213  -0.00150
   D13       -1.54214  -0.00009   0.00010  -0.02611  -0.02603  -1.56817
   D14        0.58527  -0.00067  -0.00017  -0.02891  -0.02909   0.55618
   D15        2.62261   0.00018   0.00016  -0.02622  -0.02607   2.59654
   D16        1.57643  -0.00038   0.00019  -0.04823  -0.04802   1.52841
   D17       -2.57935  -0.00095  -0.00007  -0.05102  -0.05108  -2.63043
   D18       -0.54201  -0.00011   0.00026  -0.04834  -0.04806  -0.59007
   D19        0.01140  -0.00052  -0.00006  -0.02666  -0.02666  -0.01526
   D20       -3.11090  -0.00026  -0.00014  -0.00805  -0.00807  -3.11897
   D21       -0.00783   0.00034   0.00004   0.01771   0.01770   0.00987
   D22        3.13999   0.00035   0.00001   0.01755   0.01748  -3.12572
   D23        1.52680   0.00027  -0.00007   0.02060   0.02051   1.54730
   D24       -2.69163  -0.00011   0.00007   0.01280   0.01285  -2.67878
   D25       -0.58137   0.00042  -0.00004   0.02222   0.02216  -0.55922
   D26       -1.58715   0.00009  -0.00008   0.00974   0.00968  -1.57748
   D27        0.47760  -0.00030   0.00006   0.00193   0.00202   0.47962
   D28        2.58786   0.00023  -0.00005   0.01136   0.01132   2.59919
   D29       -3.09982   0.00006  -0.00014   0.00185   0.00169  -3.09813
   D30        0.00928  -0.00003  -0.00009  -0.00276  -0.00290   0.00638
   D31        0.01486   0.00014  -0.00013   0.01214   0.01206   0.02691
   D32        3.12395   0.00005  -0.00009   0.00753   0.00747   3.13141
   D33       -3.07930  -0.00004  -0.00004   0.00959   0.00956  -3.06974
   D34        0.09434  -0.00001  -0.00008   0.01376   0.01367   0.10801
   D35        1.08290   0.00023   0.00005   0.01239   0.01245   1.09536
   D36       -2.02664   0.00027   0.00001   0.01656   0.01656  -2.01008
   D37       -0.93640   0.00023  -0.00004   0.01359   0.01356  -0.92284
   D38        2.23724   0.00026  -0.00008   0.01776   0.01767   2.25491
         Item               Value     Threshold  Converged?
 Maximum Force            0.006422     0.000450     NO 
 RMS     Force            0.001364     0.000300     NO 
 Maximum Displacement     0.094035     0.001800     NO 
 RMS     Displacement     0.022101     0.001200     NO 
 Predicted change in Energy=-3.671231D-04
 GradGradGradGradGradGradGradGradGradGradGradGradGradGradGradGradGradGrad

                          Input orientation:                          
 ---------------------------------------------------------------------
 Center     Atomic      Atomic             Coordinates (Angstroms)
 Number     Number       Type             X           Y           Z
 ---------------------------------------------------------------------
      1          6           0       -0.904363   -1.620134    5.163169
      2          6           0       -2.050443   -2.467482    5.136022
      3          6           0        0.057474   -1.951654    4.243657
      4          6           0       -1.942990   -3.434479    4.173830
      5          6           0        2.317804    0.479610    2.526362
      6          6           0        2.025181    1.581862    1.516496
      7          6           0        1.365036   -1.261346    3.982547
      8          7           0        1.226030   -0.213264    2.970034
      9          8           0        3.445619    0.231773    2.935647
     10         16           0       -0.450436   -3.324981    3.287814
     11         17           0       -3.103216   -4.672200    3.813891
     12          1           0       -0.788191   -0.794599    5.858180
     13          1           0       -2.905195   -2.373169    5.794860
     14          1           0        1.814744    2.520819    2.042403
     15          1           0        2.912846    1.732188    0.899607
     16          1           0        1.168985    1.353053    0.872106
     17          1           0        1.739965   -0.828960    4.918844
     18          1           0        2.130316   -1.970184    3.647014
     19          1           0        0.300625    0.006001    2.631833
 ---------------------------------------------------------------------
                    Distance matrix (angstroms):
                    1          2          3          4          5
     1  C    0.000000
     2  C    1.425564   0.000000
     3  C    1.371327   2.346424   0.000000
     4  C    2.312873   1.368372   2.491084   0.000000
     5  C    4.663051   5.880243   3.737545   6.015697   0.000000
     6  C    5.668619   6.790351   4.878013   6.926145   1.523291
     7  C    2.583170   3.801416   1.501473   3.962591   2.461538
     8  N    3.365665   4.528606   2.451456   4.676327   1.367074
     9  O    5.226257   6.506483   4.237661   6.634125   1.225114
    10  S    2.574784   2.590598   1.748610   1.739176   4.766328
    11  Cl   3.996325   2.777975   4.192378   1.734254   7.588566
    12  H    1.085378   2.216603   2.158845   3.337598   4.729887
    13  H    2.229220   1.083311   3.370654   2.163320   6.789782
    14  H    5.854931   7.028036   5.285502   7.357249   2.157271
    15  H    6.632278   7.760069   5.736420   7.809873   2.137605
    16  H    5.617103   6.568271   4.850145   6.595926   2.195279
    17  H    2.770943   4.135107   2.132392   4.572520   2.787513
    18  H    3.410358   4.465781   2.157082   4.360450   2.700463
    19  H    3.240984   4.232801   2.547452   4.387307   2.074714
                    6          7          8          9         10
     6  C    0.000000
     7  C    3.821129   0.000000
     8  N    2.444155   1.463892   0.000000
     9  O    2.419581   2.766628   2.264027   0.000000
    10  S    5.774371   2.834993   3.548846   5.287133   0.000000
    11  Cl   8.407840   5.623846   6.271888   8.228457   3.021423
    12  H    5.693229   2.893482   3.568813   5.245930   3.622665
    13  H    7.632514   4.770272   5.450857   7.435970   3.635528
    14  H    1.096587   4.274479   2.946573   2.949130   6.391829
    15  H    1.091374   4.567437   3.304058   2.584676   6.526113
    16  H    1.095748   4.067968   2.618761   3.270862   5.508374
    17  H    4.179639   1.097352   2.107385   2.822672   3.699762
    18  H    4.143330   1.095759   2.088732   2.661706   2.936798
    19  H    2.588708   2.136250   1.009371   3.167690   3.477046
                   11         12         13         14         15
    11  Cl   0.000000
    12  H    4.957243   0.000000
    13  H    3.041216   2.641514   0.000000
    14  H    8.891795   5.685721   7.765943   0.000000
    15  H    9.257550   6.683545   8.641010   1.770240   0.000000
    16  H    7.950439   5.770952   7.397106   1.774902   1.784811
    17  H    6.280750   2.697241   4.972876   4.415940   4.908095
    18  H    5.892249   3.845640   5.489263   4.779484   4.676339
    19  H    5.904995   3.497970   5.093375   2.994043   3.578271
                   16         17         18         19
    16  H    0.000000
    17  H    4.632850   0.000000
    18  H    4.434882   1.752803   0.000000
    19  H    2.380176   2.828300   2.878136   0.000000
 Stoichiometry    C7H8ClNOS
 Framework group  C1[X(C7H8ClNOS)]
 Deg. of freedom    51
 Full point group                 C1      NOp   1
 Largest Abelian subgroup         C1      NOp   1
 Largest concise Abelian subgroup C1      NOp   1
                         Standard orientation:                         
 ---------------------------------------------------------------------
 Center     Atomic      Atomic             Coordinates (Angstroms)
 Number     Number       Type             X           Y           Z
 ---------------------------------------------------------------------
      1          6           0        0.740226    1.619588    0.279477
      2          6           0        2.109198    1.332876    0.555061
      3          6           0        0.075683    0.606745   -0.363229
      4          6           0        2.462564    0.084008    0.121585
      5          6           0       -3.545989   -0.205520    0.076043
      6          6           0       -4.316764   -0.739672    1.276460
      7          6           0       -1.367540    0.562133   -0.774980
      8          7           0       -2.210262    0.000232    0.281934
      9          8           0       -4.075966    0.044365   -0.999869
     10         16           0        1.136168   -0.759070   -0.623148
     11         17           0        4.027440   -0.652818    0.247631
     12          1           0        0.263373    2.560038    0.536789
     13          1           0        2.798058    2.013340    1.040864
     14          1           0       -4.679898    0.096233    1.886296
     15          1           0       -5.183819   -1.294302    0.913554
     16          1           0       -3.710747   -1.390407    1.916735
     17          1           0       -1.705351    1.576406   -1.022603
     18          1           0       -1.504828   -0.034488   -1.683762
     19          1           0       -1.786665   -0.201296    1.175680
 ---------------------------------------------------------------------
 Rotational constants (GHZ):      2.5586867      0.3101372      0.3029084
 Standard basis: 6-31G(d) (6D, 7F)
 There are   189 symmetry adapted basis functions of A   symmetry.
 Integral buffers will be    131072 words long.
 Raffenetti 2 integral format.
 Two-electron integral symmetry is turned on.
   189 basis functions,   388 primitive gaussians,   189 cartesian basis functions
    49 alpha electrons       49 beta electrons
       nuclear repulsion energy       737.8908846907 Hartrees.
 NAtoms=   19 NActive=   19 NUniq=   19 SFac= 1.00D+00 NAtFMM=   60 NAOKFM=F Big=F
 One-electron integrals computed using PRISM.
 NBasis=   189 RedAO= T  NBF=   189
 NBsUse=   189 1.00D-06 NBFU=   189
 Initial guess read from the read-write file.
 B after Tr=     0.000000    0.000000    0.000000
         Rot=    1.000000    0.000000    0.000000    0.000000 Ang=   0.00 deg.
 Initial guess orbital symmetries:
       Occupied  (A) (A) (A) (A) (A) (A) (A) (A) (A) (A) (A) (A)
                 (A) (A) (A) (A) (A) (A) (A) (A) (A) (A) (A) (A)
                 (A) (A) (A) (A) (A) (A) (A) (A) (A) (A) (A) (A)
                 (A) (A) (A) (A) (A) (A) (A) (A) (A) (A) (A) (A)
                 (A)
       Virtual   (A) (A) (A) (A) (A) (A) (A) (A) (A) (A) (A) (A)
                 (A) (A) (A) (A) (A) (A) (A) (A) (A) (A) (A) (A)
                 (A) (A) (A) (A) (A) (A) (A) (A) (A) (A) (A) (A)
                 (A) (A) (A) (A) (A) (A) (A) (A) (A) (A) (A) (A)
                 (A) (A) (A) (A) (A) (A) (A) (A) (A) (A) (A) (A)
                 (A) (A) (A) (A) (A) (A) (A) (A) (A) (A) (A) (A)
                 (A) (A) (A) (A) (A) (A) (A) (A) (A) (A) (A) (A)
                 (A) (A) (A) (A) (A) (A) (A) (A) (A) (A) (A) (A)
                 (A) (A) (A) (A) (A) (A) (A) (A) (A) (A) (A) (A)
                 (A) (A) (A) (A) (A) (A) (A) (A) (A) (A) (A) (A)
                 (A) (A) (A) (A) (A) (A) (A) (A) (A) (A) (A) (A)
                 (A) (A) (A) (A) (A) (A) (A) (A)
 Harris functional with IExCor=  402 diagonalized for initial guess.
 ExpMin= 1.17D-01 ExpMax= 2.52D+04 ExpMxC= 3.78D+03 IAcc=3 IRadAn=         5 AccDes= 0.00D+00
 HarFok:  IExCor=  402 AccDes= 0.00D+00 IRadAn=         5 IDoV= 1
 ScaDFX=  1.000000  1.000000  1.000000  1.000000
 FoFCou: FMM=F IPFlag=           0 FMFlag=      100000 FMFlg1=           0
         NFxFlg=           0 DoJE=T BraDBF=F KetDBF=T FulRan=T
         Omega=  0.000000  0.000000  1.000000  0.000000  0.000000 ICntrl=     500 IOpCl=  0
         NMat0=    1 NMatS0=    1 NMatT0=    0 NMatD0=    1 NMtDS0=    0 NMtDT0=    0
         I1Cent=           4 NGrid=           0.
 Petite list used in FoFCou.
 Requested convergence on RMS density matrix=1.00D-08 within 128 cycles.
 Requested convergence on MAX density matrix=1.00D-06.
 Requested convergence on             energy=1.00D-06.
 No special actions if energy rises.
 Integral accuracy reduced to 1.0D-05 until final iterations.
 Initial convergence to 1.0D-05 achieved.  Increase integral accuracy.
 SCF Done:  E(RB3LYP) =  -1259.91793215     A.U. after   12 cycles
             Convg  =    0.6881D-08             -V/T =  2.0052
 Calling FoFJK, ICntrl=      2127 FMM=F ISym2X=0 I1Cent= 0 IOpClX= 0 NMat=1 NMatS=1 NMatT=0.
 ***** Axes restored to original set *****
 -------------------------------------------------------------------
 Center     Atomic                   Forces (Hartrees/Bohr)
 Number     Number              X              Y              Z
 -------------------------------------------------------------------
      1        6           0.001743627   -0.000467672    0.000595296
      2        6          -0.000581163   -0.001382982   -0.001297076
      3        6           0.000013795    0.002605923    0.000251836
      4        6          -0.002259382    0.000769817    0.001451911
      5        6          -0.000301834   -0.000661536   -0.001071626
      6        6          -0.000020514   -0.000031630    0.000131654
      7        6          -0.000482311   -0.000648501   -0.000417209
      8        7           0.000466185   -0.000695342    0.000161779
      9        8          -0.000144752    0.000595864    0.000319740
     10       16           0.000881495   -0.001666062   -0.001132814
     11       17           0.000797857    0.000649510   -0.000072803
     12        1           0.000047875   -0.000000832    0.000156533
     13        1          -0.000036696   -0.000028134    0.000010202
     14        1           0.000154982   -0.000071656    0.000133184
     15        1           0.000101450   -0.000025523   -0.000139105
     16        1           0.000126356   -0.000080208    0.000360822
     17        1          -0.000455190    0.000467600    0.000008858
     18        1           0.000273380    0.000240017    0.000260912
     19        1          -0.000325162    0.000431346    0.000287906
 -------------------------------------------------------------------
 Cartesian Forces:  Max     0.002605923 RMS     0.000761969

 GradGradGradGradGradGradGradGradGradGradGradGradGradGradGradGradGradGrad
 Berny optimization.
 Using GEDIIS/GDIIS optimizer.
 Internal  Forces:  Max     0.001360767 RMS     0.000385227
 Search for a local minimum.
 Step number   3 out of a maximum of   98
 All quantities printed in internal units (Hartrees-Bohrs-Radians)
 Mixed Optimization -- En-DIIS/RFO-DIIS
 Update second derivatives using D2CorX and points    1    2    3
 DE= -4.06D-04 DEPred=-3.67D-04 R= 1.11D+00
 SS=  1.41D+00  RLast= 1.32D-01 DXNew= 8.4853D-01 3.9655D-01
 Trust test= 1.11D+00 RLast= 1.32D-01 DXMaxT set to 5.05D-01
 ITU=  1  1  0
 Use linear search instead of GDIIS.
     Eigenvalues ---    0.00610   0.00732   0.01067   0.01266   0.01460
     Eigenvalues ---    0.01500   0.01960   0.02059   0.02101   0.02138
     Eigenvalues ---    0.02289   0.02412   0.05225   0.06753   0.07044
     Eigenvalues ---    0.07544   0.10049   0.13152   0.15851   0.15997
     Eigenvalues ---    0.15999   0.16000   0.16040   0.16130   0.21651
     Eigenvalues ---    0.22282   0.22709   0.24415   0.24693   0.24987
     Eigenvalues ---    0.25103   0.26128   0.27843   0.32341   0.33447
     Eigenvalues ---    0.34014   0.34157   0.34169   0.34346   0.34412
     Eigenvalues ---    0.34457   0.34839   0.35400   0.35584   0.40139
     Eigenvalues ---    0.42165   0.45270   0.46030   0.49376   0.50835
     Eigenvalues ---    0.91365
 RFO step:  Lambda=-3.03787647D-04 EMin= 6.10452497D-03
 Quartic linear search produced a step of  0.14929.
 Iteration  1 RMS(Cart)=  0.03884343 RMS(Int)=  0.00047656
 Iteration  2 RMS(Cart)=  0.00081145 RMS(Int)=  0.00003125
 Iteration  3 RMS(Cart)=  0.00000026 RMS(Int)=  0.00003125
 Variable       Old X    -DE/DX   Delta X   Delta X   Delta X     New X
                                 (Linear)    (Quad)   (Total)
    R1        2.69393   0.00109  -0.00068   0.00174   0.00106   2.69499
    R2        2.59143  -0.00052  -0.00100  -0.00375  -0.00477   2.58666
    R3        2.05107   0.00010   0.00022   0.00070   0.00091   2.05198
    R4        2.58585  -0.00134  -0.00052  -0.00407  -0.00458   2.58127
    R5        2.04716   0.00003   0.00007   0.00020   0.00026   2.04743
    R6        2.83737  -0.00076  -0.00089  -0.00344  -0.00433   2.83304
    R7        3.30439   0.00136   0.00270   0.01135   0.01404   3.31844
    R8        3.28657   0.00113   0.00363   0.01285   0.01649   3.30306
    R9        3.27726  -0.00098   0.00023  -0.00166  -0.00143   3.27584
   R10        2.87860  -0.00054  -0.00020  -0.00078  -0.00099   2.87762
   R11        2.58340  -0.00012  -0.00019  -0.00085  -0.00105   2.58235
   R12        2.31513  -0.00015  -0.00010  -0.00067  -0.00076   2.31437
   R13        2.07225  -0.00003   0.00017   0.00044   0.00062   2.07287
   R14        2.06240   0.00016   0.00003   0.00041   0.00044   2.06284
   R15        2.07066  -0.00029  -0.00003  -0.00088  -0.00091   2.06975
   R16        2.76636  -0.00052  -0.00064  -0.00108  -0.00172   2.76464
   R17        2.07370   0.00004  -0.00007   0.00012   0.00005   2.07374
   R18        2.07068  -0.00004  -0.00003  -0.00019  -0.00021   2.07047
   R19        1.90743   0.00030   0.00008   0.00036   0.00044   1.90788
    A1        1.99042   0.00002   0.00055   0.00212   0.00255   1.99297
    A2        2.15357  -0.00002  -0.00062  -0.00163  -0.00223   2.15133
    A3        2.13906   0.00001   0.00005  -0.00026  -0.00019   2.13887
    A4        1.95013   0.00024   0.00014   0.00156   0.00164   1.95177
    A5        2.17852  -0.00009   0.00000  -0.00017  -0.00014   2.17838
    A6        2.15451  -0.00016  -0.00014  -0.00138  -0.00149   2.15302
    A7        2.23479   0.00029  -0.00051   0.00031  -0.00017   2.23463
    A8        1.93122  -0.00008   0.00067   0.00069   0.00125   1.93246
    A9        2.11645  -0.00020  -0.00024  -0.00070  -0.00090   2.11555
   A10        1.96181   0.00018   0.00044   0.00051   0.00089   1.96269
   A11        2.21149   0.00040  -0.00023   0.00154   0.00132   2.21281
   A12        2.10987  -0.00058  -0.00021  -0.00212  -0.00233   2.10753
   A13        2.01361   0.00014  -0.00088   0.00009  -0.00087   2.01274
   A14        2.14683  -0.00030  -0.00088  -0.00256  -0.00352   2.14332
   A15        2.12262   0.00015   0.00179   0.00210   0.00381   2.12643
   A16        1.91613  -0.00021  -0.00026  -0.00164  -0.00190   1.91423
   A17        1.89458   0.00011  -0.00090  -0.00099  -0.00189   1.89269
   A18        1.97021  -0.00029   0.00051   0.00003   0.00053   1.97074
   A19        1.88517   0.00006  -0.00039  -0.00106  -0.00145   1.88372
   A20        1.88692   0.00021  -0.00032  -0.00028  -0.00060   1.88632
   A21        1.90910   0.00013   0.00133   0.00391   0.00524   1.91434
   A22        1.94631  -0.00029  -0.00059  -0.00091  -0.00150   1.94481
   A23        1.90744   0.00003   0.00000  -0.00151  -0.00151   1.90592
   A24        1.94340   0.00030   0.00086   0.00355   0.00441   1.94781
   A25        1.91823   0.00003  -0.00006   0.00011   0.00005   1.91828
   A26        1.89407  -0.00009  -0.00015  -0.00161  -0.00176   1.89231
   A27        1.85203   0.00005  -0.00004   0.00044   0.00040   1.85243
   A28        2.10773   0.00011  -0.00161  -0.00263  -0.00425   2.10348
   A29        2.10988  -0.00006   0.00229   0.00429   0.00657   2.11644
   A30        2.06500  -0.00005  -0.00070  -0.00186  -0.00256   2.06244
   A31        1.59104  -0.00034  -0.00182  -0.00431  -0.00624   1.58480
    D1       -0.01001   0.00025  -0.00249   0.01141   0.00892  -0.00109
    D2        3.12449   0.00025  -0.00279   0.01201   0.00924   3.13373
    D3       -3.13402  -0.00007   0.00065  -0.00341  -0.00277  -3.13680
    D4        0.00048  -0.00007   0.00036  -0.00281  -0.00246  -0.00197
    D5        3.11767  -0.00040   0.00140  -0.01998  -0.01860   3.09907
    D6        0.01720  -0.00058   0.00441  -0.02845  -0.02407  -0.00687
    D7       -0.04134  -0.00009  -0.00171  -0.00531  -0.00702  -0.04836
    D8        3.14137  -0.00026   0.00130  -0.01378  -0.01249   3.12888
    D9       -0.00204   0.00020  -0.00064   0.01131   0.01071   0.00866
   D10        3.13312   0.00000  -0.00061  -0.00080  -0.00139   3.13173
   D11       -3.13667   0.00020  -0.00035   0.01072   0.01039  -3.12628
   D12       -0.00150   0.00000  -0.00032  -0.00139  -0.00170  -0.00320
   D13       -1.56817  -0.00043  -0.00389  -0.05911  -0.06300  -1.63116
   D14        0.55618  -0.00057  -0.00434  -0.06060  -0.06494   0.49124
   D15        2.59654  -0.00031  -0.00389  -0.05889  -0.06278   2.53376
   D16        1.52841  -0.00023  -0.00717  -0.04980  -0.05697   1.47144
   D17       -2.63043  -0.00037  -0.00763  -0.05128  -0.05891  -2.68934
   D18       -0.59007  -0.00012  -0.00718  -0.04957  -0.05675  -0.64682
   D19       -0.01526   0.00057  -0.00398   0.02904   0.02502   0.00977
   D20       -3.11897   0.00040  -0.00120   0.02120   0.01997  -3.09899
   D21        0.00987  -0.00044   0.00264  -0.02315  -0.02049  -0.01061
   D22       -3.12572  -0.00026   0.00261  -0.01186  -0.00923  -3.13495
   D23        1.54730  -0.00008   0.00306   0.00813   0.01121   1.55851
   D24       -2.67878  -0.00005   0.00192   0.00535   0.00729  -2.67149
   D25       -0.55922   0.00000   0.00331   0.00962   0.01295  -0.54627
   D26       -1.57748   0.00022   0.00144   0.03264   0.03406  -1.54342
   D27        0.47962   0.00025   0.00030   0.02985   0.03014   0.50976
   D28        2.59919   0.00030   0.00169   0.03413   0.03580   2.63499
   D29       -3.09813   0.00009   0.00025   0.01216   0.01246  -3.08567
   D30        0.00638   0.00002  -0.00043   0.00576   0.00534   0.01171
   D31        0.02691  -0.00021   0.00180  -0.01202  -0.01023   0.01668
   D32        3.13141  -0.00028   0.00111  -0.01843  -0.01735   3.11406
   D33       -3.06974   0.00006   0.00143   0.01763   0.01906  -3.05068
   D34        0.10801   0.00013   0.00204   0.02374   0.02578   0.13378
   D35        1.09536   0.00020   0.00186   0.02007   0.02194   1.11729
   D36       -2.01008   0.00027   0.00247   0.02618   0.02865  -1.98143
   D37       -0.92284   0.00018   0.00202   0.02038   0.02242  -0.90042
   D38        2.25491   0.00025   0.00264   0.02650   0.02913   2.28404
         Item               Value     Threshold  Converged?
 Maximum Force            0.001361     0.000450     NO 
 RMS     Force            0.000385     0.000300     NO 
 Maximum Displacement     0.133564     0.001800     NO 
 RMS     Displacement     0.038686     0.001200     NO 
 Predicted change in Energy=-1.622219D-04
 GradGradGradGradGradGradGradGradGradGradGradGradGradGradGradGradGradGrad

                          Input orientation:                          
 ---------------------------------------------------------------------
 Center     Atomic      Atomic             Coordinates (Angstroms)
 Number     Number       Type             X           Y           Z
 ---------------------------------------------------------------------
      1          6           0       -0.887150   -1.648322    5.197616
      2          6           0       -2.042126   -2.483091    5.142593
      3          6           0        0.062441   -1.941950    4.256509
      4          6           0       -1.950992   -3.411083    4.144423
      5          6           0        2.314249    0.471159    2.516679
      6          6           0        2.023151    1.562632    1.495515
      7          6           0        1.361333   -1.237292    4.003764
      8          7           0        1.220956   -0.212417    2.969236
      9          8           0        3.440105    0.243068    2.941341
     10         16           0       -0.447989   -3.294610    3.259788
     11         17           0       -3.124076   -4.622661    3.743212
     12          1           0       -0.762723   -0.850895    5.924062
     13          1           0       -2.892928   -2.406550    5.809035
     14          1           0        1.828107    2.509984    2.012912
     15          1           0        2.908660    1.696702    0.871413
     16          1           0        1.157560    1.335834    0.863910
     17          1           0        1.711528   -0.779929    4.937798
     18          1           0        2.145990   -1.936525    3.694205
     19          1           0        0.293694   -0.001198    2.630304
 ---------------------------------------------------------------------
                    Distance matrix (angstroms):
                    1          2          3          4          5
     1  C    0.000000
     2  C    1.426126   0.000000
     3  C    1.368804   2.346738   0.000000
     4  C    2.312640   1.365949   2.494960   0.000000
     5  C    4.682796   5.882263   3.731052   5.992798   0.000000
     6  C    5.699617   6.796729   4.873353   6.895532   1.522769
     7  C    2.578741   3.799010   1.499181   3.964423   2.457291
     8  N    3.386976   4.530689   2.447552   4.655510   1.366519
     9  O    5.233858   6.506328   4.232326   6.623002   1.224711
    10  S    2.580370   2.597074   1.756041   1.747903   4.728973
    11  Cl   3.995726   2.776085   4.195662   1.733499   7.551607
    12  H    1.085861   2.216220   2.156856   3.336714   4.777639
    13  H    2.229773   1.083451   3.370518   2.160384   6.799669
    14  H    5.899700   7.050134   5.288763   7.340569   2.155671
    15  H    6.656831   7.760408   5.727096   7.772920   2.135926
    16  H    5.645089   6.567290   4.842818   6.554241   2.194820
    17  H    2.752224   4.127059   2.129304   4.578915   2.791114
    18  H    3.397535   4.465072   2.158099   4.377474   2.685484
    19  H    3.270856   4.234081   2.542546   4.354134   2.078142
                    6          7          8          9         10
     6  C    0.000000
     7  C    3.816922   0.000000
     8  N    2.442575   1.462984   0.000000
     9  O    2.416489   2.764326   2.265583   0.000000
    10  S    5.728175   2.838961   3.517059   5.266293   0.000000
    11  Cl   8.354875   5.625612   6.239278   8.210164   3.026361
    12  H    5.761791   2.889370   3.615747   5.268504   3.628934
    13  H    7.650404   4.767064   5.459186   7.439855   3.642120
    14  H    1.096913   4.268892   2.948670   2.932478   6.358350
    15  H    1.091606   4.562255   3.300598   2.584587   6.471833
    16  H    1.095267   4.064625   2.614096   3.274121   5.455183
    17  H    4.175406   1.097378   2.106648   2.832021   3.715219
    18  H    4.134420   1.095646   2.086580   2.644270   2.960040
    19  H    2.593132   2.134051   1.009606   3.171169   3.434079
                   11         12         13         14         15
    11  Cl   0.000000
    12  H    4.955635   0.000000
    13  H    3.038454   2.640278   0.000000
    14  H    8.853964   5.771047   7.801987   0.000000
    15  H    9.196493   6.745262   8.653046   1.769758   0.000000
    16  H    7.882033   5.837328   7.407168   1.774392   1.787913
    17  H    6.291001   2.664520   4.960439   4.403643   4.909411
    18  H    5.915346   3.822494   5.484899   4.764371   4.663707
    19  H    5.854710   3.561859   5.103391   3.006930   3.579750
                   16         17         18         19
    16  H    0.000000
    17  H    4.623840   0.000000
    18  H    4.438006   1.752996   0.000000
    19  H    2.377828   2.818015   2.882425   0.000000
 Stoichiometry    C7H8ClNOS
 Framework group  C1[X(C7H8ClNOS)]
 Deg. of freedom    51
 Full point group                 C1      NOp   1
 Largest Abelian subgroup         C1      NOp   1
 Largest concise Abelian subgroup C1      NOp   1
                         Standard orientation:                         
 ---------------------------------------------------------------------
 Center     Atomic      Atomic             Coordinates (Angstroms)
 Number     Number       Type             X           Y           Z
 ---------------------------------------------------------------------
      1          6           0        0.761678    1.621919    0.383656
      2          6           0        2.124819    1.290750    0.640579
      3          6           0        0.074183    0.665922   -0.314231
      4          6           0        2.456160    0.069102    0.127152
      5          6           0       -3.529011   -0.226168    0.062488
      6          6           0       -4.286619   -0.894130    1.202085
      7          6           0       -1.373212    0.669385   -0.704842
      8          7           0       -2.195693   -0.026071    0.285202
      9          8           0       -4.075240    0.148368   -0.967693
     10         16           0        1.115554   -0.696480   -0.692498
     11         17           0        4.006187   -0.703288    0.203639
     12          1           0        0.303943    2.552411    0.705769
     13          1           0        2.825757    1.923998    1.171192
[...]
 5,0.29435032,-0.02370786,-0.02088574,-0.02040242,0.00739421,-0.1113455
 2,-0.12789601,-0.02009081,-0.01369419,-0.01358554,0.14424599,0.2872401
 8,-0.05009318,-0.04955844,-0.00971351,0.06479322,-0.10608081,-0.360167
 19,0.00482294,-0.00653193,-0.01508157,-0.05512056,0.19091689,0.5389647
 0,-0.00025100,0.00048386,0.00090560,0.00128732,0.00037977,0.00095239,-
 0.00289179,0.00448054,-0.00502461,-0.00120674,-0.00007495,-0.00152344,
 0.84447732,-0.00023111,-0.00061188,-0.00052785,-0.00034240,0.00020770,
 -0.00047823,0.00059014,-0.00360212,0.00587172,-0.00075223,-0.00065041,
 0.00043737,-0.24542436,0.48545081,0.00069513,0.00001661,-0.00061342,-0
 .00058534,-0.00076132,-0.00058419,-0.00085130,-0.00167347,0.00158597,0
 .00043864,0.00034585,0.00100445,-0.03459760,-0.19143943,0.47078372,-0.
 00015200,-0.00012945,-0.00009472,-0.00010866,0.00003188,-0.00006363,0.
 00026107,0.00002047,0.00056693,0.00002121,0.00001505,0.00006603,-0.086
 12157,0.00643086,-0.00738480,0.59757319,0.00003540,0.00005347,0.000060
 24,0.00006478,0.00001295,0.00004896,-0.00030907,0.00073186,-0.00100980
 ,0.00015360,0.00006272,-0.00011428,-0.00114334,-0.12646074,0.05005627,
 -0.01050162,0.52136474,-0.00010714,0.00011176,0.00024102,0.00016015,0.
 00011208,0.00019141,-0.00007935,0.00095359,-0.00142892,0.00010384,-0.0
 0004858,-0.00024317,0.00157014,0.04691168,-0.14379617,-0.01244104,0.04
 066510,0.50763170,-0.01487344,-0.01155589,0.00093492,0.00335664,-0.003
 10762,0.00379021,-0.16889288,-0.06705175,0.00323002,-0.00122216,0.0005
 1539,0.00114039,0.00921334,-0.02204820,0.01817814,-0.00214929,0.002385
 80,0.00288878,0.56528583,-0.00584543,0.00039942,0.00274307,-0.00121787
 ,0.00561359,0.00030188,-0.07274317,-0.11339154,-0.00855267,0.00242687,
 -0.00184771,-0.00441649,-0.02366132,-0.00309895,0.01325880,0.00204168,
 0.00596397,0.00139712,-0.03953752,0.49471340,0.01668538,0.01333540,0.0
 0508092,0.00422799,-0.00107147,-0.00199491,0.00256618,-0.00953918,-0.0
 7685719,0.00058961,-0.00145801,-0.00754772,0.01386837,0.01184150,-0.02
 775819,0.00318463,0.00198893,0.00498476,-0.02234882,0.05703579,0.54099
 448,0.00025742,-0.00280362,-0.00242448,-0.00285088,-0.00037159,-0.0012
 1371,-0.00053442,-0.02317199,0.03176223,0.00062257,0.00015968,0.002744
 28,-0.22157176,-0.00967459,0.11001165,0.00475325,-0.00276391,0.0062021
 0,-0.10550059,0.02552362,0.00002598,0.74196954,0.00215509,-0.00082795,
 -0.00146176,-0.00179686,-0.00073189,-0.00070419,-0.00852396,-0.0196776
 0,0.02215891,0.00113504,0.00048935,0.00252283,0.00792203,-0.09731327,0
 .06022132,-0.01794697,0.00063621,0.02217204,0.01820705,-0.11958712,0.0
 7177178,-0.21146645,0.36324021,-0.00171948,0.00079111,0.00150658,0.000
 60634,0.00002807,0.00156440,0.00759256,0.01443936,-0.00951303,0.000823
 31,-0.00035165,-0.00075788,0.09326753,0.07048466,-0.17700536,0.0246721
 4,0.01384290,-0.01979998,0.00491567,0.06559303,-0.15613404,-0.11062985
 ,-0.25621089,0.43668078,0.00051492,-0.00024583,-0.00052764,-0.00050603
 ,-0.00044792,-0.00062379,0.00099483,-0.00130310,0.00215704,0.00030821,
 0.00009913,0.00093351,-0.52426922,0.25785824,-0.07759390,-0.01033988,0
 .02140650,-0.01230184,-0.00165965,0.00869093,-0.00853005,-0.08880192,0
 .02591706,0.02384432,0.62694803,-0.00037756,-0.00003878,0.00016524,0.0
 0025656,-0.00010696,0.00031920,-0.00075406,0.00195771,-0.00140794,-0.0
 0003161,0.00044492,-0.00033107,0.25248757,-0.24143249,0.06356431,0.034
 48400,-0.01130062,0.01521063,-0.00006611,-0.00671742,0.00261938,0.0230
 2836,0.01977770,-0.01148739,-0.30923879,0.23039492,-0.00006607,0.00017
 482,0.00029689,-0.00004300,0.00044641,0.00029657,0.00108088,-0.0022651
 8,-0.00009618,0.00024054,-0.00005537,-0.00038625,-0.07021056,0.0600496
 3,-0.11481126,-0.02785487,0.02222749,0.00399291,-0.00016904,0.00029282
 ,-0.00010926,0.02888463,-0.01452730,0.02096775,0.06293370,-0.07309095,
 0.09024567,-0.00823316,-0.00906976,0.00674890,-0.01244480,0.00300084,0
 .03652974,-0.04655226,-0.02514306,-0.03105655,-0.11427472,-0.02935966,
 0.07166639,0.00066152,-0.00033580,-0.00007944,-0.00005094,-0.00008974,
 -0.00007880,-0.00239757,-0.01125930,-0.02021387,0.00040754,0.00067019,
 0.00014434,-0.00020297,0.00039427,0.00002268,0.19460836,0.00378498,-0.
 00268085,-0.02559212,-0.01008704,-0.00009770,0.00339558,-0.01157599,-0
 .07327760,-0.06058336,-0.04444065,-0.04724057,0.03596841,-0.00218545,-
 0.00009891,0.00096372,0.00005328,0.00002430,-0.00007909,-0.00353146,-0
 .01210423,-0.01487743,0.00154280,0.00223118,0.00008826,0.00095562,-0.0
 0056433,-0.00003906,0.08654928,0.13768701,0.03277689,-0.00479282,-0.05
 263997,0.00999187,-0.01865324,-0.04462790,-0.00502981,-0.03849988,-0.1
 0150910,0.04286800,0.01364368,-0.07004097,0.00039702,0.00010630,0.0001
 2093,-0.00002023,0.00005106,-0.00007918,-0.00524729,-0.00261171,0.0004
 5611,-0.00002308,-0.00073851,0.00046083,0.00006261,0.00014012,-0.00020
 396,-0.07045088,0.06058590,0.26494741,0.00083448,-0.00242870,0.0010322
 5,-0.00189279,-0.00477827,-0.00239426,-0.00448355,-0.00292599,0.000940
 43,-0.08408408,-0.07330392,-0.03800183,0.00120694,0.00013557,-0.000776
 80,-0.00008886,-0.00002698,0.00013353,0.00145068,-0.00040982,-0.002013
 61,-0.00091327,-0.00058758,0.00066268,-0.00063368,-0.00002235,0.000275
 41,-0.01271215,-0.01461157,-0.01093943,0.10214968,-0.00104891,0.002092
 11,-0.00303114,-0.01558717,-0.01245381,-0.00626584,-0.00346701,-0.0034
 4483,-0.00078438,-0.06981535,-0.09663724,-0.05346252,0.00125687,0.0001
 0502,-0.00080469,-0.00010065,-0.00004262,0.00012697,0.00048008,0.00184
 482,-0.00197645,-0.00090916,-0.00049205,0.00072338,-0.00068448,0.00001
 745,0.00031500,-0.00856554,-0.01052986,-0.00515545,0.09814493,0.121386
 18,0.00300539,-0.00129173,-0.00265242,-0.02327949,-0.02218600,-0.00534
 271,0.00107950,-0.00126741,-0.00358808,-0.03119715,-0.04864117,-0.0635
 1014,0.00063754,-0.00002183,-0.00042140,-0.00004581,0.00000415,0.00009
 010,0.00032348,0.00066927,0.00086390,-0.00069702,-0.00054322,0.0005134
 3,-0.00036149,0.00001080,0.00018188,0.00057229,0.00399691,0.00569739,0
 .05152291,0.06884683,0.06689027,-0.05005908,-0.02207351,-0.01223768,0.
 00315711,-0.00833899,-0.02008376,0.00506529,0.00959625,0.01688375,-0.0
 0283410,-0.00316963,0.00023617,-0.00037038,0.00019219,0.00009191,0.000
 06500,0.00000298,-0.00003741,-0.00087652,0.00275984,-0.00036730,0.0005
 4428,0.00007945,-0.00081943,0.00010349,-0.00009095,-0.00000811,0.00111
 127,-0.00237190,0.00456777,-0.00001882,-0.00112483,-0.00106762,0.04446
 138,-0.02230502,-0.11521397,-0.13043328,0.00244374,-0.00526943,-0.0160
 7240,-0.00064843,0.00540347,0.00364798,-0.00310245,-0.00126339,-0.0002
 9979,0.00006750,-0.00014446,0.00014133,-0.00004039,0.00000625,0.000009
 83,0.00257733,-0.00215208,0.00174547,-0.00045479,-0.00009189,0.0002165
 0,0.00006510,0.00006036,-0.00009383,-0.00316500,0.00443749,-0.00028640
 ,-0.00052230,-0.00029134,-0.00111701,0.02382406,0.11458533,-0.01244882
 ,-0.13102920,-0.26680412,0.00114653,0.00124938,0.00130052,-0.00284439,
 -0.01192705,-0.01505567,0.00076715,0.00003884,0.00007815,0.00013444,0.
 00007658,-0.00011538,-0.00000305,-0.00002832,-0.00001002,-0.00252216,0
 .00053997,-0.00036663,0.00023155,0.00029195,0.00027468,-0.00010544,-0.
 00000036,0.00011025,0.00278335,-0.00209058,-0.00140964,0.00016217,-0.0
 0008801,0.00033726,0.01280505,0.14221648,0.28103094,-0.00822344,-0.000
 16757,0.01306621,-0.20446309,-0.06436563,0.14345534,-0.00187821,-0.003
 17160,-0.00068344,0.00178225,-0.00189103,-0.00123492,0.00038280,-0.000
 13286,-0.00019823,-0.00002096,0.00001745,0.00003889,0.00048242,0.00012
 125,0.00082240,-0.00061400,-0.00047775,0.00023816,-0.00019084,0.000082
 81,0.00002770,0.00276023,-0.00248160,0.00050652,-0.00045246,0.00186528
 ,-0.00064190,-0.00007164,0.00093162,-0.00072122,0.21051181,-0.01085564
 ,-0.00028179,0.01504168,-0.06483132,-0.06077466,0.04011213,-0.00365546
 ,-0.00226768,-0.00192119,0.00889865,0.00567398,-0.00925741,-0.00005126
 ,-0.00000641,-0.00001345,-0.00002084,0.00000076,0.00001863,-0.00071692
 ,0.00088803,0.00046771,0.00004959,0.00023232,0.00009761,0.00002187,-0.
 00006338,0.00007252,-0.00142566,0.00310335,-0.00393858,0.00171645,-0.0
 0111685,0.00151486,0.00136824,-0.00050404,0.00022061,0.06963622,0.0554
 4108,-0.00746043,-0.00130135,0.00935876,0.14220063,0.03921323,-0.17266
 905,-0.00182629,-0.00276288,-0.00072332,0.02016683,0.00754853,-0.01298
 926,0.00003931,-0.00013809,0.00000810,0.00000118,0.00001603,0.00001183
 ,0.00008135,-0.00011021,0.00063575,-0.00022790,-0.00011048,0.00012241,
 -0.00003302,0.00006243,-0.00000095,0.00258280,-0.00233554,-0.00231568,
 -0.00095187,0.00128582,0.00078109,0.00019026,0.00096843,-0.00013389,-0
 .15476144,-0.04236353,0.17789424,-0.00000877,-0.00000743,-0.00000172,-
 0.00000948,0.00000858,0.00001099,-0.00000920,-0.00003146,-0.00002480,0
 .00004074,0.00000601,-0.00000224,0.00160238,0.00353162,0.00264744,-0.1
 7110277,-0.13316822,-0.02168360,0.00011766,0.00010762,-0.00006275,0.00
 042911,-0.00036191,0.00041726,0.00003773,0.00033045,-0.00083790,-0.000
 01759,0.00002635,0.00001969,-0.00000845,-0.00001010,-0.00000091,0.0000
 0014,-0.00000091,0.00000574,-0.00000351,0.00000197,0.00000008,0.181814
 08,-0.00003264,-0.00002372,-0.00000852,-0.00002380,-0.00000502,-0.0000
 0429,0.00006758,0.00004815,0.00002323,0.00004159,0.00002831,0.00001973
 ,-0.01586361,-0.01605184,-0.00360883,-0.13318916,-0.19386077,-0.021965
 76,-0.00018957,0.00066873,0.00058152,0.00138239,-0.00144451,0.00175628
 ,0.00187274,0.00293190,0.00096687,-0.00001446,0.00001637,-0.00001360,-
 0.00003506,-0.00003762,-0.00001568,0.00001075,-0.00000221,-0.00000476,
 -0.00000599,-0.00000204,0.00000326,0.14654491,0.20677194,0.00003804,0.
 00002198,0.00002030,0.00001414,0.00000127,0.00002274,-0.00009844,-0.00
 015470,-0.00000633,0.00000570,-0.00000206,-0.00001163,0.02051499,0.022
 22709,0.00278855,-0.02108431,-0.02056658,-0.04654008,0.00006360,-0.001
 02407,-0.00130353,-0.00112874,0.00166065,-0.00327604,-0.00065159,-0.00
 325764,0.00004474,0.00000989,-0.00001908,-0.00000461,0.00002194,0.0000
 2817,0.00001199,-0.00001576,0.00000892,0.00000647,0.00000292,0.0000061
 6,-0.00000074,0.02303202,0.02195684,0.05176166,0.00003247,0.00000483,-
 0.00003469,0.00000765,-0.00001841,-0.00006029,0.00003094,0.00001091,0.
 00011526,-0.00008710,-0.00002708,0.00002817,-0.00095698,-0.00309884,-0
 .00119861,-0.05715786,0.02675783,0.04435335,0.00012079,-0.00027890,-0.
 00015076,-0.00010375,-0.00054556,0.00036573,-0.00015250,0.00122536,-0.
 00028060,0.00001689,-0.00000163,0.00001989,-0.00000016,-0.00000306,-0.
 00000954,0.00000535,-0.00000164,-0.00001004,0.00000108,-0.00000562,-0.
 00000463,0.00487814,-0.01023823,-0.02083170,0.05702496,-0.00001613,-0.
 00004996,-0.00006569,-0.00002495,-0.00001101,-0.00006171,0.00011635,-0
 .00012731,0.00042406,-0.00008830,-0.00003790,0.00004762,-0.00445918,0.
 01239542,0.02338918,0.02673437,-0.10312242,-0.10916467,-0.00101982,-0.
 00083250,-0.00040290,0.00025097,-0.00273920,0.00167782,-0.00090696,-0.
 00051396,-0.00236873,0.00001517,0.00001625,0.00003562,-0.00001836,-0.0
 0001885,-0.00001840,0.00001461,-0.00000736,0.00000049,-0.00000949,-0.0
 0001054,-0.00000839,0.00576715,-0.01103939,-0.02149633,-0.02740252,0.1
 1191948,-0.00003187,0.00005771,0.00009324,0.00004309,0.00004026,0.0000
 9168,-0.00014001,0.00014642,-0.00046857,0.00008356,0.00002391,-0.00009
 025,0.00636747,-0.01282963,-0.02326457,0.04362227,-0.11022105,-0.25225
 010,0.00091227,0.00043537,0.00054474,-0.00134178,0.00320296,-0.0019088
 9,0.00030432,0.00143296,0.00399249,-0.00001326,-0.00004236,-0.00003883
 ,0.00004341,0.00004648,0.00003408,-0.00001880,0.00000479,0.00000634,0.
 00001613,0.00000784,0.00001033,0.00039803,-0.00135330,-0.00228586,-0.0
 4962081,0.11762602,0.27222318,0.00002538,0.00002065,0.00000941,0.00001
 463,0.00001625,0.00000708,-0.00004865,-0.00005940,-0.00008279,0.000004
 50,-0.00002266,-0.00002109,-0.00503281,-0.00164549,0.00270203,-0.27437
 698,0.09700440,-0.00757848,0.00048855,0.00022928,-0.00048706,0.0005554
 6,-0.00081079,0.00061147,0.00244502,0.00109069,-0.00130700,-0.00001757
 ,0.00000824,0.00001014,0.00002351,0.00002229,0.00001262,-0.00000754,0.
 00000215,-0.00000115,0.00000222,0.00000680,-0.00000309,-0.01802932,0.0
 0973224,-0.00001745,-0.00418871,0.00098500,-0.00028468,0.29680396,0.00
 000119,-0.00000249,-0.00000090,0.00000807,-0.00002795,-0.00002819,0.00
 004169,0.00011878,0.00003847,-0.00007871,0.00000311,0.00001872,0.02132
 764,-0.00655948,-0.00773911,0.09479812,-0.09135116,0.00506630,-0.00032
 484,0.00015306,-0.00006449,-0.00148858,0.00051439,-0.00051081,0.001411
 16,-0.00328922,0.00661721,0.00004373,-0.00003291,-0.00002736,-0.000004
 82,-0.00000309,-0.00000841,0.00000449,0.00000094,-0.00000777,0.0000029
 3,-0.00000800,0.00000111,-0.02235115,0.01238383,-0.00028603,0.01318239
 ,-0.00605990,0.00176577,-0.10613117,0.09399928,0.00001335,-0.00000037,
 -0.00002562,-0.00000481,0.00000076,-0.00002212,0.00001195,-0.00004841,
 0.00010064,-0.00001059,-0.00000602,0.00001645,-0.02547866,0.00367667,0
 .00396924,-0.00497653,0.00395451,-0.05182767,0.00019237,-0.00036684,0.
 00027441,0.00129028,-0.00073869,-0.00015002,-0.00149577,0.00677034,-0.
 00448653,-0.00001293,0.00001200,0.00000133,-0.00000476,-0.00000755,-0.
 00000598,0.00000224,-0.00000062,-0.00000572,-0.00000159,-0.00000055,-0
 .00000197,-0.00330692,0.00152656,-0.00126193,0.02724442,-0.00982771,0.
 00347249,0.00617346,-0.00624716,0.05089747,0.00082500,0.00062203,-0.00
 094065,-0.00003491,0.00017434,0.00005156,-0.00438749,-0.01784055,-0.02
 309944,0.00034306,-0.00059834,-0.00125727,0.00062728,0.00031405,0.0006
 3226,-0.00005802,0.00010076,0.00011077,-0.05174063,-0.00318095,-0.0067
 6849,0.00202481,0.00041853,-0.00028494,-0.00027780,-0.00080958,-0.0005
 0167,-0.00295105,-0.00226058,0.00069242,-0.00057604,-0.00033315,0.0001
 9885,-0.00012563,0.00007851,0.00074151,0.00002016,0.00008547,0.0000496
 9,0.00004134,-0.00005854,0.00004863,-0.00002983,-0.00000970,0.00002894
 ,0.00000884,-0.00000420,-0.00002456,0.05299327,0.00088125,0.00044852,-
 0.00018555,-0.00023283,-0.00005244,0.00042087,-0.00124139,-0.01091943,
 -0.01692408,0.00032588,0.00004542,-0.00131389,0.00537563,-0.00062468,0
 .00099647,-0.00091500,-0.00117820,-0.00073167,-0.00394012,-0.11914869,
 -0.11585135,-0.00306908,0.01091855,0.02992176,-0.00152731,0.00176101,-
 0.00061810,-0.00252288,-0.00094900,0.00104956,-0.00052345,-0.00031169,
 0.00019248,-0.00045273,0.00016073,0.00068882,-0.00000386,0.00001551,0.
 00003716,-0.00005489,-0.00024851,0.00037766,0.00004351,0.00011754,-0.0
 0009196,0.00004657,0.00001364,-0.00000934,0.00932990,0.12776108,0.0009
 9058,0.00155761,0.00051351,-0.00043088,-0.00002997,0.00002179,-0.00129
 733,-0.00365398,-0.00096190,0.00009420,0.00009699,0.00018329,-0.008173
 86,-0.00034128,0.00030438,0.00089892,0.00094231,0.00035926,-0.00820754
 ,-0.11457193,-0.22726948,0.00517628,0.00323024,-0.03159956,0.00238575,
 -0.00140029,0.00037659,0.00087367,0.00071013,0.00123843,0.00010913,0.0
 0017510,0.00006881,-0.00030058,-0.00039047,0.00059337,0.00000156,0.000
 00548,0.00001118,0.00003492,0.00018117,-0.00036750,-0.00003002,-0.0000
 8015,0.00003041,-0.00004878,-0.00004435,0.00002623,0.00700227,0.116346
 17,0.25889828,-0.00000059,-0.00010743,-0.00236504,-0.00009380,-0.00117
 251,-0.00014221,-0.02289985,0.00549407,0.00555745,-0.00055473,-0.00007
 864,0.00105936,0.00113646,-0.00088885,0.00118237,-0.00071960,0.0006974
 7,-0.00013943,-0.23588532,0.12188993,0.01751210,-0.00173426,0.00448707
 ,-0.00456406,-0.00250964,-0.00118130,0.00174356,0.00037080,0.00083194,
 0.00005069,0.00018878,-0.00018400,-0.00008754,-0.00022134,0.00030173,-
 0.00012186,-0.00002030,-0.00022494,-0.00004951,0.00001641,-0.00001287,
 0.00001780,-0.00002063,-0.00000526,0.00002884,0.00012956,0.00021414,-0
 .00034966,0.00357940,-0.00183431,0.00082024,0.25883167,-0.00022278,-0.
 00020830,-0.00114412,-0.00022585,-0.00154429,-0.00048187,-0.02046973,0
 .01240460,0.00344481,-0.00121238,-0.00016941,0.00173156,0.00613196,-0.
 00142997,0.00004732,-0.00007783,0.00024451,0.00011586,0.11322166,-0.12
 073169,-0.01502519,0.02067898,-0.01736514,0.00537099,-0.00236815,0.001
 73008,-0.00239672,0.00035919,0.00095659,-0.00056300,0.00005435,-0.0002
 5634,-0.00017817,-0.00023605,0.00025314,-0.00001379,-0.00000318,-0.000
 28172,0.00001092,-0.00007045,0.00000561,-0.00001860,-0.00009406,0.0000
 2147,0.00005107,-0.00019786,0.00019423,-0.00015410,0.01437582,-0.00846
 701,-0.00242366,-0.12816623,0.13710719,0.00034409,0.00028783,0.0001125
 7,-0.00041172,0.00034291,-0.00018101,-0.00024506,0.00107204,0.00016081
 ,-0.00028492,-0.00014095,0.00017184,-0.00526080,0.00330258,0.00056530,
 0.00034917,-0.00037091,0.00005027,0.02523771,-0.02114091,-0.05264342,-
 0.02641531,0.02158549,-0.00342607,0.00221095,-0.00279849,-0.00021891,-
 0.00024820,0.00017370,0.00000787,0.00014984,0.00000444,0.00010037,0.00
 020069,-0.00031269,0.00031282,0.00004775,-0.00006131,0.00001632,0.0000
 5643,-0.00002830,0.00004062,0.00011565,-0.00004164,-0.00004443,0.00014
 150,-0.00029769,0.00034398,0.02387958,-0.01434856,-0.00178523,-0.02088
 366,0.00905672,0.06024439,-0.00057873,-0.00001734,0.00034711,0.0000252
 9,0.00016842,0.00018454,0.00198141,0.00083182,-0.00029939,0.00008066,-
 0.00011088,-0.00023592,-0.01792313,0.01552206,-0.01331352,-0.00022633,
 -0.00062408,-0.00111448,0.00468214,-0.00565676,0.00146008,-0.32893913,
 0.18152632,-0.04014376,-0.00180812,-0.00080776,0.00606971,-0.00008184,
 -0.00020461,-0.00025278,0.00001024,0.00006398,0.00003588,0.00007174,-0
 .00005082,0.00000065,-0.00000453,0.00000240,0.00000605,0.00021136,0.00
 001174,0.00005834,0.00057926,0.00007704,-0.00039713,0.00119993,-0.0006
 5208,0.00073873,-0.00028174,0.00031512,0.00010150,0.00040698,-0.001477
 40,0.00101631,0.34059453,-0.00060712,-0.00002638,0.00025100,0.00040860
 ,0.00007923,-0.00001072,0.00117803,0.00153111,-0.00048091,-0.00059507,
 -0.00021592,-0.00029650,-0.00704989,-0.00007334,-0.00696088,-0.0016878
 2,-0.00178523,-0.00088180,0.01570249,-0.01063308,-0.00112101,0.1835573
 8,-0.13776926,0.06352901,-0.00157581,0.00495112,0.00429246,-0.00008182
 ,-0.00089659,-0.00033168,0.00014785,0.00019061,0.00005373,0.00000573,0
 .00003247,-0.00013331,0.00005300,-0.00003789,-0.00001645,-0.00026813,-
 0.00013921,0.00053636,0.00049073,0.00010012,-0.00030327,-0.00029718,-0
 .00004707,0.00146653,-0.00040380,0.00065768,-0.00030911,-0.00006001,-0
 .00246353,0.00371573,-0.18891715,0.14654514,0.00060405,0.00004175,-0.0
 0014326,0.00018670,-0.00005203,-0.00031403,0.00003511,-0.00094720,0.00
 130485,-0.00042660,-0.00002690,0.00012064,0.01161473,-0.01920945,0.007
 23930,0.00060773,-0.00154700,-0.00157794,-0.02339406,0.01052772,-0.001
 85073,-0.04222711,0.06621689,-0.05851998,0.00739234,0.00347872,-0.0001
 9245,0.00021991,-0.00023600,-0.00006048,0.00002885,0.00002383,-0.00004
 984,-0.00002137,0.00004675,-0.00014972,0.00001918,-0.00000921,-0.00001
 516,-0.00070176,-0.00001242,0.00036117,-0.00001077,0.00033551,-0.00014
 745,0.00016386,0.00175469,-0.00131466,-0.00055947,0.00004355,-0.000641
 85,0.00073057,0.00256999,-0.00382811,0.04573810,-0.06299919,0.05977968
 \\-0.00000179,-0.00000013,0.00000408,0.00000430,0.00000337,-0.00000138
 ,-0.00000045,-0.00000818,-0.00001576,-0.00001145,-0.00000827,0.0000023
 1,-0.00001068,0.00000762,-0.00000026,0.00000662,-0.00000076,-0.0000031
 3,-0.00000011,0.00000076,0.00000675,0.00000435,-0.00000052,-0.00000311
 ,0.00000688,-0.00000544,0.00000364,0.00000602,0.00000678,0.00000494,0.
 00000468,0.00000195,-0.00000054,-0.00000050,-0.00000022,-0.00000047,0.
 00000005,-0.00000086,-0.00000007,-0.00000247,0.00000151,0.00000174,-0.
 00000219,-0.00000040,0.00000064,-0.00000203,-0.00000031,0.00000204,-0.
 00000047,0.00000096,-0.00000158,-0.00000034,0.00000136,-0.00000037,-0.
 00000041,0.00000078,0.00000052\\\@


 THE PROMISED LAND ALWAYS LIES ON THE OTHER SIDE OF A WILDERNESS.

                         -- HAVELOCK ELLIS
 Job cpu time:  0 days  0 hours 45 minutes 17.6 seconds.
 File lengths (MBytes):  RWF=    101 Int=      0 D2E=      0 Chk=      4 Scr=      1
 Normal termination of Gaussian 09 at Fri Feb 16 22:19:53 2018.
