 Entering Gaussian System, Link 0=g09
 Initial command:
 /home/fb_chem/chemsoft/lx24-amd64/Gaussian_09_C.01_NBO_3.1_64_istanbul-64/g09/l1.exe /local/2397443.1.parallel_long/Gau-24473.inp -scrdir=/local/2397443.1.parallel_long/
 Entering Link 1 = /home/fb_chem/chemsoft/lx24-amd64/Gaussian_09_C.01_NBO_3.1_64_istanbul-64/g09/l1.exe PID=     24474.
  
 Copyright (c) 1988,1990,1992,1993,1995,1998,2003,2009,2011,
            Gaussian, Inc.  All Rights Reserved.
  
 This is part of the Gaussian(R) 09 program.  It is based on
 the Gaussian(R) 03 system (copyright 2003, Gaussian, Inc.),
 the Gaussian(R) 98 system (copyright 1998, Gaussian, Inc.),
 the Gaussian(R) 94 system (copyright 1995, Gaussian, Inc.),
 the Gaussian 92(TM) system (copyright 1992, Gaussian, Inc.),
 the Gaussian 90(TM) system (copyright 1990, Gaussian, Inc.),
 the Gaussian 88(TM) system (copyright 1988, Gaussian, Inc.),
 the Gaussian 86(TM) system (copyright 1986, Carnegie Mellon
 University), and the Gaussian 82(TM) system (copyright 1983,
 Carnegie Mellon University). Gaussian is a federally registered
 trademark of Gaussian, Inc.
  
 This software contains proprietary and confidential information,
 including trade secrets, belonging to Gaussian, Inc.
  
 This software is provided under written license and may be
 used, copied, transmitted, or stored only in accord with that
 written license.
  
 The following legend is applicable only to US Government
 contracts under FAR:
  
                    RESTRICTED RIGHTS LEGEND
  
 Use, reproduction and disclosure by the US Government is
 subject to restrictions as set forth in subparagraphs (a)
 and (c) of the Commercial Computer Software - Restricted
 Rights clause in FAR 52.227-19.
  
 Gaussian, Inc.
 340 Quinnipiac St., Bldg. 40, Wallingford CT 06492
  
  
 ---------------------------------------------------------------
 Warning -- This program may not be used in any manner that
 competes with the business of Gaussian, Inc. or will provide
 assistance to any competitor of Gaussian, Inc.  The licensee
 of this program is prohibited from giving any competitor of
 Gaussian, Inc. access to this program.  By using this program,
 the user acknowledges that Gaussian, Inc. is engaged in the
 business of creating and licensing software in the field of
 computational chemistry and represents and warrants to the
 licensee that it is not a competitor of Gaussian, Inc. and that
 it will not use this program in any manner prohibited above.
 ---------------------------------------------------------------
  

 Cite this work as:
 Gaussian 09, Revision C.01,
 M. J. Frisch, G. W. Trucks, H. B. Schlegel, G. E. Scuseria, 
 M. A. Robb, J. R. Cheeseman, G. Scalmani, V. Barone, B. Mennucci, 
 G. A. Petersson, H. Nakatsuji, M. Caricato, X. Li, H. P. Hratchian, 
 A. F. Izmaylov, J. Bloino, G. Zheng, J. L. Sonnenberg, M. Hada, 
 M. Ehara, K. Toyota, R. Fukuda, J. Hasegawa, M. Ishida, T. Nakajima, 
 Y. Honda, O. Kitao, H. Nakai, T. Vreven, J. A. Montgomery, Jr., 
 J. E. Peralta, F. Ogliaro, M. Bearpark, J. J. Heyd, E. Brothers, 
 K. N. Kudin, V. N. Staroverov, T. Keith, R. Kobayashi, J. Normand, 
 K. Raghavachari, A. Rendell, J. C. Burant, S. S. Iyengar, J. Tomasi, 
 M. Cossi, N. Rega, J. M. Millam, M. Klene, J. E. Knox, J. B. Cross, 
 V. Bakken, C. Adamo, J. Jaramillo, R. Gomperts, R. E. Stratmann, 
 O. Yazyev, A. J. Austin, R. Cammi, C. Pomelli, J. W. Ochterski, 
 R. L. Martin, K. Morokuma, V. G. Zakrzewski, G. A. Voth, 
 P. Salvador, J. J. Dannenberg, S. Dapprich, A. D. Daniels, 
 O. Farkas, J. B. Foresman, J. V. Ortiz, J. Cioslowski, 
 and D. J. Fox, Gaussian, Inc., Wallingford CT, 2010.
 
 ******************************************
 Gaussian 09:  AM64L-G09RevC.01 23-Sep-2011
                16-Feb-2018 
 ******************************************
 %nprocs=4
 Will use up to    4 processors via shared memory.
 %chk=frag55-conf2.chk
 ---------------------------------------------------------
 #B3LYP/6-31G* Integral=(Grid=UltraFine) freq Opt pop=none
 ---------------------------------------------------------
 1/14=-1,18=20,19=15,26=3,38=1/1,3;
 2/9=110,12=2,17=6,18=5,40=1/2;
 3/5=1,6=6,7=1,11=2,16=1,25=1,30=1,71=1,74=-5,75=-5/1,2,3;
 4//1;
 5/5=2,38=5/2;
 7//1,2,3,16;
 1/14=-1,18=20,19=15/3(2);
 2/9=110/2;
 99//99;
 2/9=110/2;
 3/5=1,6=6,7=1,11=2,16=1,25=1,30=1,71=1,74=-5,75=-5/1,2,3;
 4/5=5,16=3/1;
 5/5=2,38=5/2;
 7//1,2,3,16;
 1/14=-1,18=20,19=15/3(-5);
 2/9=110/2;
 99/9=1/99;
 -----------------------------
 Optimization for frag55-conf2
 -----------------------------
 Charge =  0 Multiplicity = 1
 Symbolic Z-Matrix:
 C                     1.82022  -1.34948   0.04488 
 C                     3.23415  -1.28051   2.00451 
 C                     0.76249  -0.82829   0.79238 
 C                     2.17612  -0.75937   2.75257 
 C                     3.06981  -1.57218   0.64172 
 C                     0.94878  -0.53632   2.13834 
 C                     5.05337  -4.29214   0.78106 
 C                     4.86394  -5.78384   0.73179 
 C                     4.20767  -2.15797  -0.15625 
 N                     4.21189  -3.60015  -0.05196 
 O                     5.90667  -3.75887   1.48713 
 O                    -0.10802  -0.02957   2.83437 
 H                     1.66346  -1.58156  -1.00792 
 H                     4.19248  -1.4627    2.49092 
 H                    -0.20252  -0.6551    0.32141 
 H                     2.32643  -0.53818   3.80655 
 H                     5.41669  -6.18948  -0.11966 
 H                     5.2405   -6.23016   1.65628 
 H                     3.80475  -6.03711   0.63063 
 H                     4.10191  -1.90383  -1.21672 
 H                     5.16421  -1.74477   0.18296 
 H                     3.5266   -4.1129   -0.59874 
 H                     0.17628   0.12131   3.75901 
 

 GradGradGradGradGradGradGradGradGradGradGradGradGradGradGradGradGradGrad
 Berny optimization.
 Initialization pass.
                           ----------------------------
                           !    Initial Parameters    !
                           ! (Angstroms and Degrees)  !
 --------------------------                            --------------------------
 ! Name  Definition              Value          Derivative Info.                !
 --------------------------------------------------------------------------------
 ! R1    R(1,3)                  1.3961         estimate D2E/DX2                !
 ! R2    R(1,5)                  1.4026         estimate D2E/DX2                !
 ! R3    R(1,13)                 1.0894         estimate D2E/DX2                !
 ! R4    R(2,4)                  1.3966         estimate D2E/DX2                !
 ! R5    R(2,5)                  1.4033         estimate D2E/DX2                !
 ! R6    R(2,14)                 1.09           estimate D2E/DX2                !
 ! R7    R(3,6)                  1.3898         estimate D2E/DX2                !
 ! R8    R(3,15)                 1.0877         estimate D2E/DX2                !
 ! R9    R(4,6)                  1.3905         estimate D2E/DX2                !
 ! R10   R(4,16)                 1.0874         estimate D2E/DX2                !
 ! R11   R(5,9)                  1.5082         estimate D2E/DX2                !
 ! R12   R(6,12)                 1.3631         estimate D2E/DX2                !
 ! R13   R(7,8)                  1.5045         estimate D2E/DX2                !
 ! R14   R(7,10)                 1.3714         estimate D2E/DX2                !
 ! R15   R(7,11)                 1.2292         estimate D2E/DX2                !
 ! R16   R(8,17)                 1.0932         estimate D2E/DX2                !
 ! R17   R(8,18)                 1.0935         estimate D2E/DX2                !
 ! R18   R(8,19)                 1.0937         estimate D2E/DX2                !
 ! R19   R(9,10)                 1.446          estimate D2E/DX2                !
 ! R20   R(9,20)                 1.0956         estimate D2E/DX2                !
 ! R21   R(9,21)                 1.0958         estimate D2E/DX2                !
 ! R22   R(10,22)                1.0156         estimate D2E/DX2                !
 ! R23   R(12,23)                0.9791         estimate D2E/DX2                !
 ! A1    A(3,1,5)              120.4251         estimate D2E/DX2                !
 ! A2    A(3,1,13)             119.2035         estimate D2E/DX2                !
 ! A3    A(5,1,13)             120.3713         estimate D2E/DX2                !
 ! A4    A(4,2,5)              120.5968         estimate D2E/DX2                !
 ! A5    A(4,2,14)             119.2998         estimate D2E/DX2                !
 ! A6    A(5,2,14)             120.1032         estimate D2E/DX2                !
 ! A7    A(1,3,6)              119.6953         estimate D2E/DX2                !
 ! A8    A(1,3,15)             119.9853         estimate D2E/DX2                !
 ! A9    A(6,3,15)             120.3193         estimate D2E/DX2                !
 ! A10   A(2,4,6)              119.4676         estimate D2E/DX2                !
 ! A11   A(2,4,16)             119.3636         estimate D2E/DX2                !
 ! A12   A(6,4,16)             121.1686         estimate D2E/DX2                !
 ! A13   A(1,5,2)              118.984          estimate D2E/DX2                !
 ! A14   A(1,5,9)              120.5758         estimate D2E/DX2                !
 ! A15   A(2,5,9)              120.4108         estimate D2E/DX2                !
 ! A16   A(3,6,4)              120.8253         estimate D2E/DX2                !
 ! A17   A(3,6,12)             117.9489         estimate D2E/DX2                !
 ! A18   A(4,6,12)             121.2255         estimate D2E/DX2                !
 ! A19   A(8,7,10)             113.7744         estimate D2E/DX2                !
 ! A20   A(8,7,11)             122.4349         estimate D2E/DX2                !
 ! A21   A(10,7,11)            123.7744         estimate D2E/DX2                !
 ! A22   A(7,8,17)             109.2535         estimate D2E/DX2                !
 ! A23   A(7,8,18)             109.4904         estimate D2E/DX2                !
 ! A24   A(7,8,19)             110.7666         estimate D2E/DX2                !
 ! A25   A(17,8,18)            109.4465         estimate D2E/DX2                !
 ! A26   A(17,8,19)            109.3722         estimate D2E/DX2                !
 ! A27   A(18,8,19)            108.492          estimate D2E/DX2                !
 ! A28   A(5,9,10)             110.575          estimate D2E/DX2                !
 ! A29   A(5,9,20)             110.4385         estimate D2E/DX2                !
 ! A30   A(5,9,21)             110.3855         estimate D2E/DX2                !
 ! A31   A(10,9,20)            107.5445         estimate D2E/DX2                !
 ! A32   A(10,9,21)            110.5618         estimate D2E/DX2                !
 ! A33   A(20,9,21)            107.243          estimate D2E/DX2                !
 ! A34   A(7,10,9)             123.2884         estimate D2E/DX2                !
 ! A35   A(7,10,22)            119.0957         estimate D2E/DX2                !
 ! A36   A(9,10,22)            117.5644         estimate D2E/DX2                !
 ! A37   A(6,12,23)            108.3243         estimate D2E/DX2                !
 ! D1    D(5,1,3,6)             -0.3807         estimate D2E/DX2                !
 ! D2    D(5,1,3,15)           179.7814         estimate D2E/DX2                !
 ! D3    D(13,1,3,6)           179.6024         estimate D2E/DX2                !
 ! D4    D(13,1,3,15)           -0.2356         estimate D2E/DX2                !
 ! D5    D(3,1,5,2)              0.8702         estimate D2E/DX2                !
 ! D6    D(3,1,5,9)            178.906          estimate D2E/DX2                !
 ! D7    D(13,1,5,2)          -179.1126         estimate D2E/DX2                !
 ! D8    D(13,1,5,9)            -1.0768         estimate D2E/DX2                !
 ! D9    D(5,2,4,6)              0.3555         estimate D2E/DX2                !
 ! D10   D(5,2,4,16)          -179.8369         estimate D2E/DX2                !
 ! D11   D(14,2,4,6)          -179.4533         estimate D2E/DX2                !
 ! D12   D(14,2,4,16)            0.3543         estimate D2E/DX2                !
 ! D13   D(4,2,5,1)             -0.8588         estimate D2E/DX2                !
 ! D14   D(4,2,5,9)           -178.8978         estimate D2E/DX2                !
 ! D15   D(14,2,5,1)           178.9485         estimate D2E/DX2                !
 ! D16   D(14,2,5,9)             0.9094         estimate D2E/DX2                !
 ! D17   D(1,3,6,4)             -0.1371         estimate D2E/DX2                !
 ! D18   D(1,3,6,12)          -179.9655         estimate D2E/DX2                !
 ! D19   D(15,3,6,4)           179.7003         estimate D2E/DX2                !
 ! D20   D(15,3,6,12)           -0.1281         estimate D2E/DX2                !
 ! D21   D(2,4,6,3)              0.1497         estimate D2E/DX2                !
 ! D22   D(2,4,6,12)           179.9724         estimate D2E/DX2                !
 ! D23   D(16,4,6,3)          -179.6544         estimate D2E/DX2                !
 ! D24   D(16,4,6,12)            0.1683         estimate D2E/DX2                !
 ! D25   D(1,5,9,10)           -90.9162         estimate D2E/DX2                !
 ! D26   D(1,5,9,20)            27.9984         estimate D2E/DX2                !
 ! D27   D(1,5,9,21)           146.4202         estimate D2E/DX2                !
 ! D28   D(2,5,9,10)            87.0915         estimate D2E/DX2                !
 ! D29   D(2,5,9,20)          -153.9939         estimate D2E/DX2                !
 ! D30   D(2,5,9,21)           -35.5721         estimate D2E/DX2                !
 ! D31   D(3,6,12,23)          179.916          estimate D2E/DX2                !
 ! D32   D(4,6,12,23)            0.0883         estimate D2E/DX2                !
 ! D33   D(10,7,8,17)           82.7819         estimate D2E/DX2                !
 ! D34   D(10,7,8,18)         -157.3695         estimate D2E/DX2                !
 ! D35   D(10,7,8,19)          -37.7632         estimate D2E/DX2                !
 ! D36   D(11,7,8,17)          -95.7983         estimate D2E/DX2                !
 ! D37   D(11,7,8,18)           24.0502         estimate D2E/DX2                !
 ! D38   D(11,7,8,19)          143.6566         estimate D2E/DX2                !
 ! D39   D(8,7,10,9)           179.2818         estimate D2E/DX2                !
 ! D40   D(8,7,10,22)            1.9584         estimate D2E/DX2                !
 ! D41   D(11,7,10,9)           -2.1598         estimate D2E/DX2                !
 ! D42   D(11,7,10,22)        -179.4832         estimate D2E/DX2                !
 ! D43   D(5,9,10,7)          -100.6497         estimate D2E/DX2                !
 ! D44   D(5,9,10,22)           76.7121         estimate D2E/DX2                !
 ! D45   D(20,9,10,7)          138.6953         estimate D2E/DX2                !
 ! D46   D(20,9,10,22)         -43.9429         estimate D2E/DX2                !
 ! D47   D(21,9,10,7)           21.9111         estimate D2E/DX2                !
 ! D48   D(21,9,10,22)        -160.7272         estimate D2E/DX2                !
 --------------------------------------------------------------------------------
 Trust Radius=3.00D-01 FncErr=1.00D-07 GrdErr=1.00D-06
 Number of steps in this run=    118 maximum allowed number of steps=    138.
 GradGradGradGradGradGradGradGradGradGradGradGradGradGradGradGradGradGrad

                          Input orientation:                          
 ---------------------------------------------------------------------
 Center     Atomic      Atomic             Coordinates (Angstroms)
 Number     Number       Type             X           Y           Z
 ---------------------------------------------------------------------
      1          6           0        1.820225   -1.349484    0.044884
      2          6           0        3.234147   -1.280508    2.004510
      3          6           0        0.762486   -0.828288    0.792384
      4          6           0        2.176119   -0.759372    2.752573
      5          6           0        3.069812   -1.572184    0.641723
      6          6           0        0.948777   -0.536319    2.138344
      7          6           0        5.053368   -4.292137    0.781057
      8          6           0        4.863935   -5.783841    0.731791
      9          6           0        4.207671   -2.157969   -0.156250
     10          7           0        4.211893   -3.600148   -0.051964
     11          8           0        5.906673   -3.758872    1.487133
     12          8           0       -0.108022   -0.029566    2.834365
     13          1           0        1.663455   -1.581561   -1.007924
     14          1           0        4.192482   -1.462701    2.490917
     15          1           0       -0.202522   -0.655098    0.321412
     16          1           0        2.326428   -0.538180    3.806548
     17          1           0        5.416694   -6.189482   -0.119662
     18          1           0        5.240497   -6.230157    1.656284
     19          1           0        3.804751   -6.037115    0.630633
     20          1           0        4.101912   -1.903831   -1.216717
     21          1           0        5.164209   -1.744772    0.182960
     22          1           0        3.526602   -4.112897   -0.598736
     23          1           0        0.176278    0.121311    3.759005
 ---------------------------------------------------------------------
                    Distance matrix (angstroms):
                    1          2          3          4          5
     1  C    0.000000
     2  C    2.417451   0.000000
     3  C    1.396142   2.789778   0.000000
     4  C    2.794007   1.396640   2.417737   0.000000
     5  C    1.402598   1.403307   2.428957   2.432085   0.000000
     6  C    2.408990   2.407207   1.389805   1.390467   2.794938
     7  C    4.433326   3.725093   5.514531   4.964461   3.369281
     8  C    5.422134   4.955405   6.432967   6.045925   4.578760
     9  C    2.528636   2.527167   3.812775   3.813729   1.508187
    10  N    3.285567   3.250509   4.504946   4.481051   2.428619
    11  O    4.958255   3.681354   5.961012   4.951300   3.680232
    12  O    3.638891   3.663824   2.359116   2.399293   4.157641
    13  H    1.089422   3.410640   2.149482   3.883318   2.167778
    14  H    3.409326   1.090043   3.879738   2.151478   2.166078
    15  H    2.156419   3.877454   1.087681   3.402845   3.413476
    16  H    3.881310   2.149963   3.408117   1.087373   3.411436
    17  H    6.032184   5.776993   7.157924   6.945298   5.235170
    18  H    6.173803   5.352171   7.069589   6.365670   5.238122
    19  H    5.123995   4.983818   6.034353   5.916895   4.525026
    20  H    2.665527   3.393796   4.042900   4.557821   2.151516
    21  H    3.370097   2.694202   4.537236   4.062340   2.150988
    22  H    3.310955   3.858089   4.512672   4.929626   2.864022
    23  H    4.319780   3.793931   3.169577   2.405799   4.577981
                    6          7          8          9         10
     6  C    0.000000
     7  C    5.726785   0.000000
     8  C    6.696518   1.504491   0.000000
     9  C    4.302941   2.479601   3.790284   0.000000
    10  N    4.983215   1.371442   2.409968   1.445951   0.000000
    11  O    5.948921   1.229245   2.399654   2.854857   2.294840
    12  O    1.363110   7.001824   7.890048   5.665606   6.304096
    13  H    3.391504   4.694591   5.561371   2.744199   3.388671
    14  H    3.391772   3.416205   4.713558   2.736992   3.321943
    15  H    2.154261   6.408097   7.220901   4.683651   5.319755
    16  H    2.163523   5.539132   6.588629   4.676169   5.274347
    17  H    7.551101   2.131483   1.093188   4.209059   2.856707
    18  H    7.146400   2.134704   1.093473   4.575448   3.300467
    19  H    6.378756   2.150958   1.093733   3.978605   2.563300
    20  H    4.802997   3.255822   4.408157   1.095610   2.060641
    21  H    4.801433   2.618983   4.087231   1.095793   2.098694
    22  H    5.189287   2.065665   2.520082   2.116930   1.015625
    23  H    1.912008   7.220298   8.124591   6.064361   6.682734
                   11         12         13         14         15
    11  O    0.000000
    12  O    7.204118   0.000000
    13  H    5.382461   4.506662   0.000000
    14  H    3.036188   4.546006   4.318796   0.000000
    15  H    6.950869   2.591362   2.471303   4.967398   0.000000
    16  H    5.345156   2.670276   4.970645   2.463286   4.307602
    17  H    2.954613   8.785974   6.009056   5.536811   7.899338
    18  H    2.565083   8.272960   6.442257   4.952129   7.905038
    19  H    3.215907   7.500458   5.207876   4.953408   6.717139
    20  H    3.742880   6.135771   2.468506   3.734883   4.738494
    21  H    2.511716   6.145592   3.701368   2.520017   5.477989
    22  H    3.184481   6.455251   3.169608   4.124669   5.168115
    23  H    7.283862   0.979055   5.275896   4.499670   3.544481
                   16         17         18         19         20
    16  H    0.000000
    17  H    7.543347   0.000000
    18  H    6.746408   1.785129   0.000000
    19  H    6.519981   1.784522   1.774991   0.000000
    20  H    5.500048   4.615083   5.316730   4.537074   0.000000
    21  H    4.758072   4.462149   4.721777   4.524682   1.764334
    22  H    5.798753   2.848537   3.536289   2.300288   2.364922
    23  H    2.249519   9.073705   8.391000   7.802482   6.653541
                   21         22         23
    21  H    0.000000
    22  H    2.983425   0.000000
    23  H    6.414813   6.938523   0.000000
 Stoichiometry    C9H11NO2
 Framework group  C1[X(C9H11NO2)]
 Deg. of freedom    63
 Full point group                 C1      NOp   1
 Largest Abelian subgroup         C1      NOp   1
 Largest concise Abelian subgroup C1      NOp   1
                         Standard orientation:                         
 ---------------------------------------------------------------------
 Center     Atomic      Atomic             Coordinates (Angstroms)
 Number     Number       Type             X           Y           Z
 ---------------------------------------------------------------------
      1          6           0        1.192206    1.458669   -0.061741
      2          6           0        0.710837   -0.825583   -0.689868
      3          6           0        2.463999    1.071191    0.364425
      4          6           0        1.982927   -1.213517   -0.263374
      5          6           0        0.306017    0.515183   -0.601910
      6          6           0        2.849537   -0.259912    0.259143
      7          6           0       -2.876299   -0.288602    0.158912
      8          6           0       -3.752310   -0.235458    1.380907
      9          6           0       -1.077435    0.925306   -1.040646
     10          7           0       -2.020000    0.776668    0.045748
     11          8           0       -2.951820   -1.195459   -0.667496
     12          8           0        4.098715   -0.598949    0.686550
     13          1           0        0.895947    2.502968    0.030510
     14          1           0        0.030424   -1.576946   -1.090723
     15          1           0        3.146774    1.809458    0.778946
     16          1           0        2.276734   -2.257401   -0.343158
     17          1           0       -4.616111    0.402996    1.177718
     18          1           0       -4.095136   -1.243927    1.628180
     19          1           0       -3.200121    0.162852    2.236879
     20          1           0       -1.086268    1.978090   -1.343845
     21          1           0       -1.393551    0.334844   -1.907933
     22          1           0       -2.011005    1.482790    0.775683
     23          1           0        4.220272   -1.560784    0.549994
 ---------------------------------------------------------------------
 Rotational constants (GHZ):      2.2239159      0.4355040      0.4126282
 Standard basis: 6-31G(d) (6D, 7F)
 There are   202 symmetry adapted basis functions of A   symmetry.
 Integral buffers will be    131072 words long.
 Raffenetti 2 integral format.
 Two-electron integral symmetry is turned on.
   202 basis functions,   380 primitive gaussians,   202 cartesian basis functions
    44 alpha electrons       44 beta electrons
       nuclear repulsion energy       661.2977225524 Hartrees.
 NAtoms=   23 NActive=   23 NUniq=   23 SFac= 1.00D+00 NAtFMM=   60 NAOKFM=F Big=F
 One-electron integrals computed using PRISM.
 NBasis=   202 RedAO= T  NBF=   202
 NBsUse=   202 1.00D-06 NBFU=   202
 Harris functional with IExCor=  402 diagonalized for initial guess.
 ExpMin= 1.61D-01 ExpMax= 5.48D+03 ExpMxC= 8.25D+02 IAcc=3 IRadAn=         5 AccDes= 0.00D+00
 HarFok:  IExCor=  402 AccDes= 0.00D+00 IRadAn=         5 IDoV= 1
 ScaDFX=  1.000000  1.000000  1.000000  1.000000
 FoFCou: FMM=F IPFlag=           0 FMFlag=      100000 FMFlg1=           0
         NFxFlg=           0 DoJE=T BraDBF=F KetDBF=T FulRan=T
         Omega=  0.000000  0.000000  1.000000  0.000000  0.000000 ICntrl=     500 IOpCl=  0
         NMat0=    1 NMatS0=    1 NMatT0=    0 NMatD0=    1 NMtDS0=    0 NMtDT0=    0
         I1Cent=           4 NGrid=           0.
 Petite list used in FoFCou.
 Initial guess orbital symmetries:
       Occupied  (A) (A) (A) (A) (A) (A) (A) (A) (A) (A) (A) (A)
                 (A) (A) (A) (A) (A) (A) (A) (A) (A) (A) (A) (A)
                 (A) (A) (A) (A) (A) (A) (A) (A) (A) (A) (A) (A)
                 (A) (A) (A) (A) (A) (A) (A) (A)
       Virtual   (A) (A) (A) (A) (A) (A) (A) (A) (A) (A) (A) (A)
                 (A) (A) (A) (A) (A) (A) (A) (A) (A) (A) (A) (A)
                 (A) (A) (A) (A) (A) (A) (A) (A) (A) (A) (A) (A)
                 (A) (A) (A) (A) (A) (A) (A) (A) (A) (A) (A) (A)
                 (A) (A) (A) (A) (A) (A) (A) (A) (A) (A) (A) (A)
                 (A) (A) (A) (A) (A) (A) (A) (A) (A) (A) (A) (A)
                 (A) (A) (A) (A) (A) (A) (A) (A) (A) (A) (A) (A)
                 (A) (A) (A) (A) (A) (A) (A) (A) (A) (A) (A) (A)
                 (A) (A) (A) (A) (A) (A) (A) (A) (A) (A) (A) (A)
                 (A) (A) (A) (A) (A) (A) (A) (A) (A) (A) (A) (A)
                 (A) (A) (A) (A) (A) (A) (A) (A) (A) (A) (A) (A)
                 (A) (A) (A) (A) (A) (A) (A) (A) (A) (A) (A) (A)
                 (A) (A) (A) (A) (A) (A) (A) (A) (A) (A) (A) (A)
                 (A) (A)
 The electronic state of the initial guess is 1-A.
 Requested convergence on RMS density matrix=1.00D-08 within 128 cycles.
 Requested convergence on MAX density matrix=1.00D-06.
 Requested convergence on             energy=1.00D-06.
 No special actions if energy rises.
 Integral accuracy reduced to 1.0D-05 until final iterations.
 Initial convergence to 1.0D-05 achieved.  Increase integral accuracy.
 SCF Done:  E(RB3LYP) =  -554.788707455     A.U. after   15 cycles
             Convg  =    0.3802D-08             -V/T =  2.0093
 Calling FoFJK, ICntrl=      2127 FMM=F ISym2X=0 I1Cent= 0 IOpClX= 0 NMat=1 NMatS=1 NMatT=0.
 ***** Axes restored to original set *****
 -------------------------------------------------------------------
 Center     Atomic                   Forces (Hartrees/Bohr)
 Number     Number              X              Y              Z
 -------------------------------------------------------------------
      1        6           0.000122999    0.002626235    0.007726581
      2        6          -0.002133807    0.001497029   -0.000204993
      3        6          -0.000623174   -0.003862446   -0.012114660
      4        6           0.011970836   -0.005396136   -0.003631769
      5        6          -0.001162324    0.005593374    0.000218124
      6        6          -0.004167033    0.002694521    0.006229344
      7        6           0.002719932    0.007230104    0.002614238
      8        6          -0.002521510   -0.006227887    0.003875380
      9        6          -0.003991863    0.007614413   -0.002846570
     10        7           0.010578940   -0.010217456   -0.000542343
     11        8          -0.005389947    0.001954867   -0.004087757
     12        8          -0.003601400    0.003757594    0.009611485
     13        1           0.001077542    0.000951958    0.000708331
     14        1          -0.001327135   -0.000250173   -0.002595157
     15        1           0.000268032    0.000869838    0.003133609
     16        1          -0.001691038    0.000911423    0.000920486
     17        1           0.000249167   -0.003316984   -0.000744554
     18        1           0.001382241    0.000672791   -0.002103975
     19        1          -0.000608882   -0.003084934   -0.002170437
     20        1          -0.000296730    0.002152360   -0.000669420
     21        1          -0.000153466   -0.007459917    0.000528173
     22        1           0.002730603    0.002288724    0.004286097
     23        1          -0.003431983   -0.000999300   -0.008140214
 -------------------------------------------------------------------
 Cartesian Forces:  Max     0.012114660 RMS     0.004410355

 GradGradGradGradGradGradGradGradGradGradGradGradGradGradGradGradGradGrad
 Berny optimization.
 Internal  Forces:  Max     0.012507051 RMS     0.003574888
 Search for a local minimum.
 Step number   1 out of a maximum of  118
 All quantities printed in internal units (Hartrees-Bohrs-Radians)
 Mixed Optimization -- RFO/linear search
 Second derivative matrix not updated -- first step.
 ITU=  0
     Eigenvalues ---    0.00658   0.00707   0.01084   0.01263   0.01488
     Eigenvalues ---    0.01493   0.02062   0.02070   0.02089   0.02099
     Eigenvalues ---    0.02135   0.02171   0.02180   0.02182   0.02198
     Eigenvalues ---    0.02216   0.05279   0.06640   0.07360   0.07502
     Eigenvalues ---    0.09773   0.13133   0.15989   0.16000   0.16000
     Eigenvalues ---    0.16000   0.16000   0.16000   0.16000   0.16000
     Eigenvalues ---    0.16000   0.21954   0.21999   0.22003   0.22979
     Eigenvalues ---    0.23996   0.24984   0.24993   0.25000   0.25000
     Eigenvalues ---    0.31533   0.31911   0.34152   0.34172   0.34385
     Eigenvalues ---    0.34414   0.34447   0.34808   0.34880   0.35082
     Eigenvalues ---    0.35118   0.38780   0.41834   0.42079   0.45043
     Eigenvalues ---    0.45385   0.46224   0.46435   0.47136   0.50700
     Eigenvalues ---    0.51569   0.52324   0.91402
 RFO step:  Lambda=-5.97477231D-03 EMin= 6.57647804D-03
 Linear search not attempted -- first point.
 Iteration  1 RMS(Cart)=  0.09636280 RMS(Int)=  0.00214134
 Iteration  2 RMS(Cart)=  0.00347530 RMS(Int)=  0.00028959
 Iteration  3 RMS(Cart)=  0.00000620 RMS(Int)=  0.00028959
 Iteration  4 RMS(Cart)=  0.00000000 RMS(Int)=  0.00028959
 Variable       Old X    -DE/DX   Delta X   Delta X   Delta X     New X
                                 (Linear)    (Quad)   (Total)
    R1        2.63833  -0.00094   0.00000  -0.00202  -0.00201   2.63632
    R2        2.65053  -0.00105   0.00000  -0.00322  -0.00324   2.64729
    R3        2.05871  -0.00104   0.00000  -0.00294  -0.00294   2.05577
    R4        2.63927  -0.00099   0.00000  -0.00210  -0.00211   2.63716
    R5        2.65187  -0.00333   0.00000  -0.00820  -0.00823   2.64363
    R6        2.05988  -0.00228   0.00000  -0.00645  -0.00645   2.05343
    R7        2.62635   0.00536   0.00000   0.01208   0.01211   2.63846
    R8        2.05542  -0.00146   0.00000  -0.00408  -0.00408   2.05134
    R9        2.62760   0.00807   0.00000   0.01778   0.01780   2.64540
   R10        2.05484   0.00084   0.00000   0.00236   0.00236   2.05720
   R11        2.85006   0.00779   0.00000   0.02424   0.02424   2.87430
   R12        2.57590   0.00723   0.00000   0.01366   0.01366   2.58956
   R13        2.84308   0.01208   0.00000   0.03717   0.03717   2.88024
   R14        2.59165  -0.00275   0.00000  -0.00536  -0.00536   2.58629
   R15        2.32294  -0.00524   0.00000  -0.00570  -0.00570   2.31724
   R16        2.06583   0.00194   0.00000   0.00553   0.00553   2.07135
   R17        2.06637  -0.00158   0.00000  -0.00451  -0.00451   2.06186
   R18        2.06686   0.00150   0.00000   0.00430   0.00430   2.07116
   R19        2.73245   0.01078   0.00000   0.02738   0.02738   2.75983
   R20        2.07040   0.00118   0.00000   0.00338   0.00338   2.07379
   R21        2.07075  -0.00278   0.00000  -0.00801  -0.00801   2.06274
   R22        1.91925  -0.00531   0.00000  -0.01162  -0.01162   1.90763
   R23        1.85015  -0.00884   0.00000  -0.01694  -0.01694   1.83320
    A1        2.10182   0.00492   0.00000   0.01912   0.01909   2.12090
    A2        2.08049  -0.00177   0.00000  -0.00537  -0.00536   2.07514
    A3        2.10088  -0.00316   0.00000  -0.01375  -0.01374   2.08714
    A4        2.10481   0.00208   0.00000   0.00660   0.00652   2.11133
    A5        2.08217   0.00084   0.00000   0.00803   0.00804   2.09021
    A6        2.09620  -0.00292   0.00000  -0.01467  -0.01466   2.08153
    A7        2.08908  -0.00072   0.00000  -0.00201  -0.00200   2.08708
    A8        2.09414   0.00336   0.00000   0.01908   0.01906   2.11320
    A9        2.09997  -0.00264   0.00000  -0.01705  -0.01707   2.08290
   A10        2.08510   0.00207   0.00000   0.01042   0.01041   2.09551
   A11        2.08329   0.00097   0.00000   0.00687   0.00687   2.09016
   A12        2.11479  -0.00304   0.00000  -0.01728  -0.01728   2.09751
   A13        2.07666  -0.00262   0.00000  -0.01426  -0.01433   2.06233
   A14        2.10444   0.00324   0.00000   0.01468   0.01471   2.11915
   A15        2.10156  -0.00062   0.00000  -0.00040  -0.00037   2.10120
   A16        2.10880  -0.00572   0.00000  -0.01961  -0.01959   2.08921
   A17        2.05860  -0.00142   0.00000  -0.00690  -0.00693   2.05167
   A18        2.11578   0.00714   0.00000   0.02654   0.02651   2.14230
   A19        1.98574   0.00642   0.00000   0.02508   0.02508   2.01081
   A20        2.13689   0.00218   0.00000   0.00852   0.00851   2.14541
   A21        2.16027  -0.00860   0.00000  -0.03363  -0.03363   2.12664
   A22        1.90683   0.00290   0.00000   0.01402   0.01391   1.92074
   A23        1.91097  -0.00157   0.00000  -0.00971  -0.00974   1.90123
   A24        1.93324   0.00416   0.00000   0.02879   0.02864   1.96188
   A25        1.91020  -0.00214   0.00000  -0.02041  -0.02039   1.88981
   A26        1.90891  -0.00349   0.00000  -0.02047  -0.02069   1.88822
   A27        1.89354   0.00005   0.00000   0.00710   0.00703   1.90058
   A28        1.92990   0.01251   0.00000   0.05667   0.05610   1.98599
   A29        1.92752  -0.00435   0.00000  -0.00202  -0.00370   1.92381
   A30        1.92659   0.00001   0.00000  -0.00047   0.00050   1.92709
   A31        1.87701   0.00034   0.00000   0.02779   0.02665   1.90366
   A32        1.92967  -0.01109   0.00000  -0.08740  -0.08687   1.84280
   A33        1.87174   0.00214   0.00000   0.00395   0.00416   1.87590
   A34        2.15179  -0.00198   0.00000  -0.00898  -0.00910   2.14269
   A35        2.07861   0.00039   0.00000   0.00038   0.00027   2.07888
   A36        2.05189   0.00156   0.00000   0.00748   0.00736   2.05924
   A37        1.89062   0.00178   0.00000   0.01070   0.01070   1.90131
    D1       -0.00664   0.00024   0.00000   0.00907   0.00914   0.00249
    D2        3.13778   0.00000   0.00000   0.00013   0.00012   3.13790
    D3        3.13465   0.00037   0.00000   0.01411   0.01416  -3.13437
    D4       -0.00411   0.00013   0.00000   0.00517   0.00515   0.00103
    D5        0.01519  -0.00051   0.00000  -0.01911  -0.01914  -0.00395
    D6        3.12250  -0.00050   0.00000  -0.01882  -0.01886   3.10364
    D7       -3.12610  -0.00065   0.00000  -0.02422  -0.02420   3.13288
    D8       -0.01879  -0.00064   0.00000  -0.02393  -0.02392  -0.04271
    D9        0.00620  -0.00024   0.00000  -0.00888  -0.00897  -0.00276
   D10       -3.13875  -0.00011   0.00000  -0.00418  -0.00420   3.14024
   D11       -3.13205   0.00011   0.00000   0.00400   0.00398  -3.12807
   D12        0.00618   0.00023   0.00000   0.00870   0.00875   0.01494
   D13       -0.01499   0.00053   0.00000   0.01914   0.01906   0.00407
   D14       -3.12236   0.00045   0.00000   0.01854   0.01847  -3.10388
   D15        3.12324   0.00019   0.00000   0.00620   0.00621   3.12945
   D16        0.01587   0.00011   0.00000   0.00560   0.00563   0.02150
   D17       -0.00239   0.00004   0.00000   0.00129   0.00133  -0.00106
   D18       -3.14099  -0.00019   0.00000  -0.00636  -0.00622   3.13597
   D19        3.13636   0.00029   0.00000   0.01031   0.01025  -3.13657
   D20       -0.00224   0.00007   0.00000   0.00267   0.00270   0.00046
   D21        0.00261  -0.00004   0.00000  -0.00139  -0.00141   0.00120
   D22        3.14111   0.00018   0.00000   0.00644   0.00649  -3.13558
   D23       -3.13556  -0.00017   0.00000  -0.00623  -0.00625   3.14138
   D24        0.00294   0.00004   0.00000   0.00160   0.00165   0.00459
   D25       -1.58679  -0.00421   0.00000  -0.08948  -0.08956  -1.67634
   D26        0.48866   0.00136   0.00000  -0.02037  -0.02023   0.46844
   D27        2.55552   0.00130   0.00000  -0.01704  -0.01709   2.53842
   D28        1.52003  -0.00424   0.00000  -0.08945  -0.08954   1.43050
   D29       -2.68770   0.00133   0.00000  -0.02034  -0.02021  -2.70791
   D30       -0.62085   0.00127   0.00000  -0.01701  -0.01707  -0.63792
   D31        3.14013   0.00013   0.00000   0.00503   0.00509  -3.13797
   D32        0.00154  -0.00006   0.00000  -0.00257  -0.00263  -0.00108
   D33        1.44482   0.00064   0.00000   0.01026   0.01034   1.45516
   D34       -2.74662  -0.00116   0.00000  -0.01203  -0.01207  -2.75869
   D35       -0.65909   0.00049   0.00000   0.00848   0.00842  -0.65067
   D36       -1.67200   0.00075   0.00000   0.01262   0.01272  -1.65928
   D37        0.41976  -0.00105   0.00000  -0.00967  -0.00970   0.41006
   D38        2.50728   0.00060   0.00000   0.01084   0.01079   2.51807
   D39        3.12906   0.00045   0.00000   0.01565   0.01568  -3.13845
   D40        0.03418   0.00104   0.00000   0.04456   0.04452   0.07870
   D41       -0.03769   0.00052   0.00000   0.01396   0.01401  -0.02369
   D42       -3.13257   0.00111   0.00000   0.04287   0.04285  -3.08972
   D43       -1.75667   0.00085   0.00000   0.04426   0.04527  -1.71140
   D44        1.33888   0.00024   0.00000   0.01560   0.01656   1.35544
   D45        2.42069  -0.00143   0.00000  -0.00405  -0.00468   2.41601
   D46       -0.76695  -0.00204   0.00000  -0.03271  -0.03339  -0.80033
   D47        0.38242   0.00184   0.00000   0.02261   0.02229   0.40471
   D48       -2.80522   0.00122   0.00000  -0.00606  -0.00642  -2.81163
         Item               Value     Threshold  Converged?
 Maximum Force            0.012507     0.000450     NO 
 RMS     Force            0.003575     0.000300     NO 
 Maximum Displacement     0.365513     0.001800     NO 
 RMS     Displacement     0.097106     0.001200     NO 
 Predicted change in Energy=-3.162091D-03
 GradGradGradGradGradGradGradGradGradGradGradGradGradGradGradGradGradGrad

                          Input orientation:                          
 ---------------------------------------------------------------------
 Center     Atomic      Atomic             Coordinates (Angstroms)
 Number     Number       Type             X           Y           Z
 ---------------------------------------------------------------------
      1          6           0        1.791893   -1.251092    0.042885
      2          6           0        3.191226   -1.329482    1.993577
      3          6           0        0.748407   -0.710234    0.794455
      4          6           0        2.156547   -0.789091    2.758368
      5          6           0        3.024897   -1.571182    0.625740
      6          6           0        0.930593   -0.477005    2.158940
      7          6           0        5.055668   -4.307321    0.775459
      8          6           0        4.971828   -5.828930    0.748344
      9          6           0        4.144306   -2.205866   -0.185179
     10          7           0        4.199712   -3.661067   -0.074703
     11          8           0        5.849652   -3.696083    1.482295
     12          8           0       -0.119331    0.061569    2.855663
     13          1           0        1.640118   -1.421906   -1.020713
     14          1           0        4.136522   -1.581645    2.466435
     15          1           0       -0.203024   -0.461677    0.334722
     16          1           0        2.307102   -0.610245    3.821594
     17          1           0        5.576523   -6.223986   -0.076117
     18          1           0        5.371032   -6.222206    1.684532
     19          1           0        3.944259   -6.188547    0.621794
     20          1           0        4.049905   -1.929910   -1.243113
     21          1           0        5.115580   -1.848252    0.161559
     22          1           0        3.532043   -4.202104   -0.604360
     23          1           0        0.142410    0.173093    3.783095
 ---------------------------------------------------------------------
                    Distance matrix (angstroms):
                    1          2          3          4          5
     1  C    0.000000
     2  C    2.401973   0.000000
     3  C    1.395080   2.790829   0.000000
     4  C    2.778537   1.395524   2.417857   0.000000
     5  C    1.400884   1.398950   2.439693   2.431830   0.000000
     6  C    2.412206   2.421678   1.396211   1.399884   2.816742
     7  C    4.530941   3.718532   5.611764   4.971395   3.410704
     8  C    5.618386   4.996617   6.636299   6.112771   4.683374
     9  C    2.549009   2.534440   3.837802   3.823991   1.521016
    10  N    3.408723   3.275838   4.623241   4.522063   2.497685
    11  O    4.951292   3.595753   5.950725   4.870112   3.637050
    12  O    3.645214   3.692967   2.365847   2.431607   4.186240
    13  H    1.087867   3.391228   2.143936   3.866343   2.156550
    14  H    3.388236   1.086630   3.877396   2.152596   2.150343
    15  H    2.165188   3.876315   1.085521   3.398358   3.425664
    16  H    3.867139   2.154210   3.406332   1.088624   3.413518
    17  H    6.250380   5.824899   7.380384   7.019161   5.352755
    18  H    6.341704   5.365241   7.248637   6.403497   5.315770
    19  H    5.417220   5.104837   6.344698   6.075770   4.708003
    20  H    2.685740   3.402059   4.066839   4.571446   2.161467
    21  H    3.378990   2.707129   4.557174   4.076900   2.159441
    22  H    3.486476   3.888109   4.679580   4.984835   2.948236
    23  H    4.328772   3.841274   3.174818   2.456138   4.617371
                    6          7          8          9         10
     6  C    0.000000
     7  C    5.796687   0.000000
     8  C    6.853062   1.524158   0.000000
     9  C    4.337257   2.483852   3.831821   0.000000
    10  N    5.080802   1.368606   2.444013   1.460440   0.000000
    11  O    5.917555   1.226230   2.420392   2.812370   2.268871
    12  O    1.370339   7.084848   8.065896   5.706714   6.410866
    13  H    3.392117   4.818489   5.801010   2.753845   3.529915
    14  H    3.404815   3.336696   4.657145   2.724109   3.284109
    15  H    2.147811   6.529707   7.467100   4.712936   5.457821
    16  H    2.162626   5.522854   6.616668   4.687809   5.298171
    17  H    7.720617   2.161036   1.096112   4.267134   2.909324
    18  H    7.276667   2.143047   1.091089   4.596919   3.320592
    19  H    6.638275   2.190400   1.096010   4.068534   2.634107
    20  H    4.838905   3.276931   4.474171   1.097400   2.093926
    21  H    4.835696   2.535248   4.026262   1.091554   2.044733
    22  H    5.317869   2.058253   2.559170   2.129681   1.009474
    23  H    1.918786   7.297951   8.279932   6.117337   6.785653
                   11         12         13         14         15
    11  O    0.000000
    12  O    7.185740   0.000000
    13  H    5.399733   4.508066   0.000000
    14  H    2.893820   4.578640   4.291591   0.000000
    15  H    6.957960   2.576031   2.481213   4.962882   0.000000
    16  H    5.248273   2.696653   4.954957   2.475247   4.298963
    17  H    2.982204   8.974759   6.280726   5.485390   8.171668
    18  H    2.579006   8.426237   6.654393   4.865202   8.128701
    19  H    3.253208   7.782473   5.543262   4.966206   7.076680
    20  H    3.712992   6.176446   2.472772   3.726867   4.767880
    21  H    2.386983   6.189500   3.695724   2.518350   5.499102
    22  H    3.159351   6.594180   3.388544   4.081909   5.368743
    23  H    7.268894   0.970090   5.278610   4.556932   3.523284
                   16         17         18         19         20
    16  H    0.000000
    17  H    7.575971   0.000000
    18  H    6.741572   1.772601   0.000000
    19  H    6.635996   1.775562   1.779389   0.000000
    20  H    5.516351   4.704416   5.360996   4.650271   0.000000
    21  H    4.776616   4.406360   4.638553   4.519067   1.765060
    22  H    5.830179   2.923516   3.563947   2.370513   2.416413
    23  H    2.302389   9.238275   8.523045   8.057191   6.704767
                   21         22         23
    21  H    0.000000
    22  H    2.938510   0.000000
    23  H    6.475629   7.062699   0.000000
 Stoichiometry    C9H11NO2
 Framework group  C1[X(C9H11NO2)]
 Deg. of freedom    63
 Full point group                 C1      NOp   1
 Largest Abelian subgroup         C1      NOp   1
 Largest concise Abelian subgroup C1      NOp   1
                         Standard orientation:                         
 ---------------------------------------------------------------------
 Center     Atomic      Atomic             Coordinates (Angstroms)
 Number     Number       Type             X           Y           Z
 ---------------------------------------------------------------------
      1          6           0        1.263498    1.467691   -0.023435
      2          6           0        0.691994   -0.775809   -0.663410
      3          6           0        2.534923    1.048220    0.368702
      4          6           0        1.960061   -1.210309   -0.275203
      5          6           0        0.322929    0.568071   -0.541597
      6          6           0        2.886396   -0.297085    0.242100
      7          6           0       -2.909149   -0.291788    0.127143
      8          6           0       -3.884839   -0.354084    1.296419
      9          6           0       -1.078899    1.018630   -0.922862
     10          7           0       -2.074635    0.792940    0.121388
     11          8           0       -2.884631   -1.131746   -0.765891
     12          8           0        4.147864   -0.662194    0.633533
     13          1           0        1.003773    2.519622    0.073715
     14          1           0       -0.027550   -1.491076   -1.052532
     15          1           0        3.259407    1.752136    0.766171
     16          1           0        2.225977   -2.260989   -0.377477
     17          1           0       -4.768328    0.258120    1.081675
     18          1           0       -4.209055   -1.386991    1.432296
     19          1           0       -3.439556    0.004094    2.231656
     20          1           0       -1.075575    2.082711   -1.191204
     21          1           0       -1.434363    0.462356   -1.792169
     22          1           0       -2.098281    1.434904    0.900080
     23          1           0        4.258644   -1.615159    0.489797
 ---------------------------------------------------------------------
 Rotational constants (GHZ):      2.2716123      0.4267936      0.4017208
 Standard basis: 6-31G(d) (6D, 7F)
 There are   202 symmetry adapted basis functions of A   symmetry.
 Integral buffers will be    131072 words long.
 Raffenetti 2 integral format.
 Two-electron integral symmetry is turned on.
   202 basis functions,   380 primitive gaussians,   202 cartesian basis functions
    44 alpha electrons       44 beta electrons
       nuclear repulsion energy       658.3335071568 Hartrees.
 NAtoms=   23 NActive=   23 NUniq=   23 SFac= 1.00D+00 NAtFMM=   60 NAOKFM=F Big=F
 One-electron integrals computed using PRISM.
 NBasis=   202 RedAO= T  NBF=   202
 NBsUse=   202 1.00D-06 NBFU=   202
 Initial guess read from the read-write file.
 B after Tr=     0.000000    0.000000    0.000000
         Rot=    1.000000    0.000000    0.000000    0.000000 Ang=   0.00 deg.
 Initial guess orbital symmetries:
       Occupied  (A) (A) (A) (A) (A) (A) (A) (A) (A) (A) (A) (A)
                 (A) (A) (A) (A) (A) (A) (A) (A) (A) (A) (A) (A)
                 (A) (A) (A) (A) (A) (A) (A) (A) (A) (A) (A) (A)
                 (A) (A) (A) (A) (A) (A) (A) (A)
       Virtual   (A) (A) (A) (A) (A) (A) (A) (A) (A) (A) (A) (A)
                 (A) (A) (A) (A) (A) (A) (A) (A) (A) (A) (A) (A)
                 (A) (A) (A) (A) (A) (A) (A) (A) (A) (A) (A) (A)
                 (A) (A) (A) (A) (A) (A) (A) (A) (A) (A) (A) (A)
                 (A) (A) (A) (A) (A) (A) (A) (A) (A) (A) (A) (A)
                 (A) (A) (A) (A) (A) (A) (A) (A) (A) (A) (A) (A)
                 (A) (A) (A) (A) (A) (A) (A) (A) (A) (A) (A) (A)
                 (A) (A) (A) (A) (A) (A) (A) (A) (A) (A) (A) (A)
                 (A) (A) (A) (A) (A) (A) (A) (A) (A) (A) (A) (A)
                 (A) (A) (A) (A) (A) (A) (A) (A) (A) (A) (A) (A)
                 (A) (A) (A) (A) (A) (A) (A) (A) (A) (A) (A) (A)
                 (A) (A) (A) (A) (A) (A) (A) (A) (A) (A) (A) (A)
                 (A) (A) (A) (A) (A) (A) (A) (A) (A) (A) (A) (A)
                 (A) (A)
 Harris functional with IExCor=  402 diagonalized for initial guess.
 ExpMin= 1.61D-01 ExpMax= 5.48D+03 ExpMxC= 8.25D+02 IAcc=3 IRadAn=         5 AccDes= 0.00D+00
 HarFok:  IExCor=  402 AccDes= 0.00D+00 IRadAn=         5 IDoV= 1
 ScaDFX=  1.000000  1.000000  1.000000  1.000000
 FoFCou: FMM=F IPFlag=           0 FMFlag=      100000 FMFlg1=           0
         NFxFlg=           0 DoJE=T BraDBF=F KetDBF=T FulRan=T
         Omega=  0.000000  0.000000  1.000000  0.000000  0.000000 ICntrl=     500 IOpCl=  0
         NMat0=    1 NMatS0=    1 NMatT0=    0 NMatD0=    1 NMtDS0=    0 NMtDT0=    0
         I1Cent=           4 NGrid=           0.
 Petite list used in FoFCou.
 Requested convergence on RMS density matrix=1.00D-08 within 128 cycles.
 Requested convergence on MAX density matrix=1.00D-06.
 Requested convergence on             energy=1.00D-06.
 No special actions if energy rises.
 Integral accuracy reduced to 1.0D-05 until final iterations.
 Initial convergence to 1.0D-05 achieved.  Increase integral accuracy.
 SCF Done:  E(RB3LYP) =  -554.791522097     A.U. after   12 cycles
             Convg  =    0.8240D-08             -V/T =  2.0095
 Calling FoFJK, ICntrl=      2127 FMM=F ISym2X=0 I1Cent= 0 IOpClX= 0 NMat=1 NMatS=1 NMatT=0.
 ***** Axes restored to original set *****
 -------------------------------------------------------------------
 Center     Atomic                   Forces (Hartrees/Bohr)
 Number     Number              X              Y              Z
 -------------------------------------------------------------------
      1        6          -0.000604399    0.000688365    0.001169971
      2        6          -0.001485712   -0.000011981    0.001988477
      3        6           0.001183065   -0.000779017   -0.003008823
      4        6           0.001510219   -0.000576912   -0.000630111
      5        6           0.000737931   -0.001517363   -0.002197435
      6        6          -0.000097188    0.000730139    0.002068298
      7        6          -0.000756476    0.003902282    0.000329171
      8        6          -0.000618212    0.000394866    0.000329982
      9        6          -0.000361565    0.003229383    0.001604521
     10        7          -0.000584788   -0.002567165   -0.003597377
     11        8           0.001286676   -0.002273532    0.001518736
     12        8           0.000928423   -0.000679465   -0.000571942
     13        1          -0.000050877   -0.000048789   -0.000447208
     14        1           0.000090687   -0.000034001    0.000067203
     15        1          -0.000157351    0.000217574    0.000476762
     16        1          -0.000389080    0.000359938    0.000203576
     17        1           0.000152848    0.000024472   -0.000183905
     18        1           0.000572394    0.000595463    0.000197712
     19        1           0.000192393    0.000312034   -0.000683945
     20        1          -0.000842314   -0.001761955    0.000368471
     21        1           0.000298176    0.000643024    0.000559033
     22        1          -0.001177941   -0.000715469    0.000785065
     23        1           0.000173092   -0.000131892   -0.000346234
 -------------------------------------------------------------------
 Cartesian Forces:  Max     0.003902282 RMS     0.001233294

 GradGradGradGradGradGradGradGradGradGradGradGradGradGradGradGradGradGrad
 Berny optimization.
 Using GEDIIS/GDIIS optimizer.
 Internal  Forces:  Max     0.004434711 RMS     0.000815787
 Search for a local minimum.
 Step number   2 out of a maximum of  118
 All quantities printed in internal units (Hartrees-Bohrs-Radians)
 Mixed Optimization -- En-DIIS/RFO-DIIS
 Update second derivatives using D2CorX and points    1    2
 DE= -2.81D-03 DEPred=-3.16D-03 R= 8.90D-01
 SS=  1.41D+00  RLast= 2.30D-01 DXNew= 5.0454D-01 6.9110D-01
 Trust test= 8.90D-01 RLast= 2.30D-01 DXMaxT set to 5.05D-01
 ITU=  1  0
 Use linear search instead of GDIIS.
     Eigenvalues ---    0.00646   0.00706   0.01084   0.01246   0.01474
     Eigenvalues ---    0.01487   0.02048   0.02078   0.02097   0.02098
     Eigenvalues ---    0.02135   0.02171   0.02180   0.02181   0.02197
     Eigenvalues ---    0.02217   0.05185   0.06545   0.07103   0.07461
     Eigenvalues ---    0.10209   0.13619   0.15591   0.15975   0.15998
     Eigenvalues ---    0.16000   0.16000   0.16000   0.16000   0.16000
     Eigenvalues ---    0.16141   0.21222   0.22002   0.22221   0.22961
     Eigenvalues ---    0.24012   0.24855   0.24987   0.24999   0.27142
     Eigenvalues ---    0.31632   0.33224   0.34159   0.34319   0.34400
     Eigenvalues ---    0.34432   0.34525   0.34819   0.34969   0.35087
     Eigenvalues ---    0.35117   0.38612   0.41778   0.42074   0.45056
     Eigenvalues ---    0.45502   0.46072   0.46532   0.47345   0.50702
     Eigenvalues ---    0.51430   0.52848   0.91470
 RFO step:  Lambda=-4.93797306D-04 EMin= 6.46321745D-03
 Quartic linear search produced a step of -0.04974.
 Iteration  1 RMS(Cart)=  0.04605527 RMS(Int)=  0.00052084
 Iteration  2 RMS(Cart)=  0.00086611 RMS(Int)=  0.00004085
 Iteration  3 RMS(Cart)=  0.00000027 RMS(Int)=  0.00004085
 Variable       Old X    -DE/DX   Delta X   Delta X   Delta X     New X
                                 (Linear)    (Quad)   (Total)
    R1        2.63632  -0.00185   0.00010  -0.00402  -0.00392   2.63240
    R2        2.64729  -0.00047   0.00016  -0.00138  -0.00122   2.64607
    R3        2.05577   0.00045   0.00015   0.00089   0.00104   2.05681
    R4        2.63716  -0.00181   0.00010  -0.00395  -0.00384   2.63332
    R5        2.64363   0.00130   0.00041   0.00177   0.00219   2.64582
    R6        2.05343   0.00012   0.00032  -0.00042  -0.00010   2.05333
    R7        2.63846   0.00144  -0.00060   0.00430   0.00369   2.64215
    R8        2.05134  -0.00001   0.00020  -0.00051  -0.00030   2.05104
    R9        2.64540  -0.00046  -0.00089   0.00114   0.00025   2.64565
   R10        2.05720   0.00020  -0.00012   0.00082   0.00070   2.05790
   R11        2.87430  -0.00275  -0.00121  -0.00549  -0.00669   2.86761
   R12        2.58956  -0.00163  -0.00068  -0.00139  -0.00207   2.58750
   R13        2.88024  -0.00134  -0.00185   0.00029  -0.00155   2.87869
   R14        2.58629   0.00006   0.00027  -0.00050  -0.00023   2.58606
   R15        2.31724   0.00058   0.00028  -0.00005   0.00023   2.31747
   R16        2.07135   0.00021  -0.00027   0.00122   0.00095   2.07230
   R17        2.06186   0.00016   0.00022  -0.00006   0.00016   2.06202
   R18        2.07116  -0.00020  -0.00021  -0.00007  -0.00028   2.07088
   R19        2.75983   0.00019  -0.00136   0.00360   0.00224   2.76207
   R20        2.07379  -0.00073  -0.00017  -0.00162  -0.00179   2.07199
   R21        2.06274   0.00065   0.00040   0.00090   0.00129   2.06403
   R22        1.90763   0.00075   0.00058   0.00025   0.00083   1.90846
   R23        1.83320  -0.00030   0.00084  -0.00249  -0.00165   1.83156
    A1        2.12090  -0.00041  -0.00095   0.00046  -0.00049   2.12042
    A2        2.07514   0.00021   0.00027   0.00026   0.00051   2.07565
    A3        2.08714   0.00020   0.00068  -0.00075  -0.00008   2.08706
    A4        2.11133  -0.00008  -0.00032   0.00045   0.00013   2.11146
    A5        2.09021   0.00002  -0.00040   0.00102   0.00061   2.09082
    A6        2.08153   0.00006   0.00073  -0.00140  -0.00068   2.08085
    A7        2.08708  -0.00020   0.00010  -0.00093  -0.00083   2.08624
    A8        2.11320   0.00066  -0.00095   0.00584   0.00489   2.11809
    A9        2.08290  -0.00046   0.00085  -0.00491  -0.00406   2.07883
   A10        2.09551  -0.00053  -0.00052  -0.00098  -0.00149   2.09402
   A11        2.09016   0.00079  -0.00034   0.00495   0.00460   2.09476
   A12        2.09751  -0.00025   0.00086  -0.00397  -0.00311   2.09440
   A13        2.06233   0.00058   0.00071   0.00063   0.00134   2.06367
   A14        2.11915  -0.00022  -0.00073   0.00093   0.00018   2.11934
   A15        2.10120  -0.00035   0.00002  -0.00128  -0.00128   2.09991
   A16        2.08921   0.00065   0.00097   0.00038   0.00135   2.09056
   A17        2.05167  -0.00027   0.00034  -0.00189  -0.00155   2.05012
   A18        2.14230  -0.00038  -0.00132   0.00152   0.00021   2.14250
   A19        2.01081  -0.00199  -0.00125  -0.00471  -0.00596   2.00485
   A20        2.14541  -0.00245  -0.00042  -0.00834  -0.00877   2.13663
   A21        2.12664   0.00443   0.00167   0.01288   0.01454   2.14118
   A22        1.92074  -0.00012  -0.00069  -0.00020  -0.00090   1.91985
   A23        1.90123  -0.00088   0.00048  -0.00582  -0.00534   1.89589
   A24        1.96188  -0.00008  -0.00142   0.00341   0.00199   1.96388
   A25        1.88981   0.00026   0.00101  -0.00212  -0.00112   1.88869
   A26        1.88822  -0.00003   0.00103  -0.00343  -0.00239   1.88582
   A27        1.90058   0.00089  -0.00035   0.00811   0.00777   1.90835
   A28        1.98599  -0.00016  -0.00279   0.00404   0.00128   1.98727
   A29        1.92381   0.00050   0.00018   0.00115   0.00141   1.92522
   A30        1.92709  -0.00037  -0.00002  -0.00100  -0.00107   1.92602
   A31        1.90366  -0.00099  -0.00133  -0.00700  -0.00827   1.89539
   A32        1.84280   0.00048   0.00432  -0.00604  -0.00174   1.84105
   A33        1.87590   0.00057  -0.00021   0.00892   0.00869   1.88459
   A34        2.14269  -0.00182   0.00045  -0.00938  -0.00914   2.13355
   A35        2.07888   0.00042  -0.00001   0.00019  -0.00004   2.07885
   A36        2.05924   0.00135  -0.00037   0.00659   0.00600   2.06525
   A37        1.90131  -0.00051  -0.00053  -0.00178  -0.00231   1.89900
    D1        0.00249  -0.00009  -0.00045  -0.00222  -0.00267  -0.00018
    D2        3.13790  -0.00008  -0.00001  -0.00318  -0.00319   3.13471
    D3       -3.13437   0.00008  -0.00070   0.00545   0.00475  -3.12962
    D4        0.00103   0.00008  -0.00026   0.00448   0.00423   0.00527
    D5       -0.00395   0.00015   0.00095   0.00289   0.00384  -0.00011
    D6        3.10364   0.00029   0.00094   0.01241   0.01335   3.11699
    D7        3.13288  -0.00002   0.00120  -0.00482  -0.00362   3.12926
    D8       -0.04271   0.00013   0.00119   0.00470   0.00589  -0.03682
    D9       -0.00276   0.00009   0.00045   0.00223   0.00268  -0.00009
   D10        3.14024   0.00013   0.00021   0.00460   0.00481  -3.13813
   D11       -3.12807  -0.00007  -0.00020  -0.00291  -0.00312  -3.13118
   D12        0.01494  -0.00003  -0.00044  -0.00055  -0.00098   0.01396
   D13        0.00407  -0.00014  -0.00095  -0.00288  -0.00383   0.00024
   D14       -3.10388  -0.00029  -0.00092  -0.01235  -0.01326  -3.11714
   D15        3.12945   0.00001  -0.00031   0.00226   0.00195   3.13140
   D16        0.02150  -0.00014  -0.00028  -0.00720  -0.00748   0.01401
   D17       -0.00106   0.00003  -0.00007   0.00146   0.00140   0.00034
   D18        3.13597   0.00009   0.00031   0.00285   0.00316   3.13913
   D19       -3.13657   0.00002  -0.00051   0.00237   0.00187  -3.13471
   D20        0.00046   0.00008  -0.00013   0.00376   0.00363   0.00409
   D21        0.00120  -0.00003   0.00007  -0.00148  -0.00141  -0.00021
   D22       -3.13558  -0.00009  -0.00032  -0.00294  -0.00326  -3.13885
   D23        3.14138  -0.00006   0.00031  -0.00385  -0.00354   3.13784
   D24        0.00459  -0.00013  -0.00008  -0.00531  -0.00539  -0.00080
   D25       -1.67634  -0.00010   0.00445  -0.06945  -0.06499  -1.74133
   D26        0.46844  -0.00113   0.00101  -0.07482  -0.07382   0.39461
   D27        2.53842  -0.00034   0.00085  -0.06371  -0.06285   2.47557
   D28        1.43050   0.00007   0.00445  -0.05968  -0.05523   1.37527
   D29       -2.70791  -0.00096   0.00101  -0.06506  -0.06406  -2.77197
   D30       -0.63792  -0.00017   0.00085  -0.05394  -0.05309  -0.69102
   D31       -3.13797  -0.00003  -0.00025  -0.00029  -0.00055  -3.13852
   D32       -0.00108   0.00004   0.00013   0.00114   0.00127   0.00019
   D33        1.45516   0.00010  -0.00051   0.00992   0.00942   1.46458
   D34       -2.75869  -0.00018   0.00060   0.00371   0.00434  -2.75434
   D35       -0.65067   0.00028  -0.00042   0.01215   0.01175  -0.63892
   D36       -1.65928   0.00015  -0.00063   0.01691   0.01624  -1.64304
   D37        0.41006  -0.00013   0.00048   0.01070   0.01117   0.42123
   D38        2.51807   0.00033  -0.00054   0.01913   0.01858   2.53665
   D39       -3.13845   0.00019  -0.00078   0.00463   0.00392  -3.13453
   D40        0.07870   0.00078  -0.00221   0.04552   0.04330   0.12200
   D41       -0.02369   0.00002  -0.00070  -0.00263  -0.00332  -0.02701
   D42       -3.08972   0.00061  -0.00213   0.03826   0.03605  -3.05367
   D43       -1.71140   0.00034  -0.00225   0.02380   0.02153  -1.68987
   D44        1.35544  -0.00028  -0.00082  -0.01690  -0.01779   1.33765
   D45        2.41601   0.00055   0.00023   0.02476   0.02504   2.44105
   D46       -0.80033  -0.00007   0.00166  -0.01595  -0.01428  -0.81462
   D47        0.40471   0.00011  -0.00111   0.02083   0.01976   0.42447
   D48       -2.81163  -0.00051   0.00032  -0.01988  -0.01956  -2.83120
         Item               Value     Threshold  Converged?
 Maximum Force            0.004435     0.000450     NO 
 RMS     Force            0.000816     0.000300     NO 
 Maximum Displacement     0.181780     0.001800     NO 
 RMS     Displacement     0.046211     0.001200     NO 
 Predicted change in Energy=-2.647688D-04
 GradGradGradGradGradGradGradGradGradGradGradGradGradGradGradGradGradGrad

                          Input orientation:                          
 ---------------------------------------------------------------------
 Center     Atomic      Atomic             Coordinates (Angstroms)
 Number     Number       Type             X           Y           Z
 ---------------------------------------------------------------------
      1          6           0        1.789761   -1.216600    0.029276
      2          6           0        3.172265   -1.387099    1.987807
      3          6           0        0.759965   -0.662437    0.786169
      4          6           0        2.151908   -0.834080    2.759077
      5          6           0        3.007902   -1.587271    0.611865
      6          6           0        0.940573   -0.469660    2.159151
      7          6           0        5.055393   -4.288545    0.783702
      8          6           0        4.998397   -5.810775    0.772878
      9          6           0        4.117099   -2.219865   -0.208034
     10          7           0        4.190672   -3.674085   -0.080844
     11          8           0        5.843105   -3.665089    1.487087
     12          8           0       -0.097958    0.080738    2.861537
     13          1           0        1.642709   -1.351863   -1.040644
     14          1           0        4.107607   -1.677839    2.458183
     15          1           0       -0.181074   -0.370057    0.331231
     16          1           0        2.297727   -0.682281    3.827536
     17          1           0        5.622978   -6.203714   -0.038329
     18          1           0        5.395710   -6.181150    1.719254
     19          1           0        3.980490   -6.191723    0.632682
     20          1           0        3.998082   -1.967153   -1.268306
     21          1           0        5.090695   -1.848851    0.119756
     22          1           0        3.512499   -4.233554   -0.577833
     23          1           0        0.161366    0.159783    3.792068
 ---------------------------------------------------------------------
                    Distance matrix (angstroms):
                    1          2          3          4          5
     1  C    0.000000
     2  C    2.403379   0.000000
     3  C    1.393004   2.790745   0.000000
     4  C    2.780159   1.393491   2.420606   0.000000
     5  C    1.400241   1.400107   2.436990   2.431160   0.000000
     6  C    2.411515   2.418988   1.398164   1.400017   2.813716
     7  C    4.546467   3.662571   5.621331   4.926018   3.393910
     8  C    5.652853   4.937582   6.668573   6.067535   4.671829
     9  C    2.545459   2.531388   3.832019   3.819178   1.517474
    10  N    3.437402   3.247579   4.646663   4.504146   2.496714
    11  O    4.954787   3.545891   5.945210   4.822604   3.622391
    12  O    3.642563   3.689486   2.365479   2.430903   4.182062
    13  H    1.088416   3.392977   2.142846   3.868496   2.156376
    14  H    3.388915   1.086577   3.877290   2.151099   2.150917
    15  H    2.166103   3.876016   1.085361   3.398905   3.424899
    16  H    3.869148   2.155502   3.408082   1.088996   3.415245
    17  H    6.290424   5.771568   7.418520   6.979023   5.345364
    18  H    6.364405   5.291385   7.267528   6.339924   5.294493
    19  H    5.469484   5.057074   6.400652   6.047281   4.706096
    20  H    2.669032   3.408916   4.050747   4.572967   2.158660
    21  H    3.362156   2.717204   4.539482   4.078264   2.156066
    22  H    3.526815   3.847151   4.710607   4.954048   2.944964
    23  H    4.324893   3.835847   3.173295   2.452977   4.611796
                    6          7          8          9         10
     6  C    0.000000
     7  C    5.779921   0.000000
     8  C    6.849468   1.523336   0.000000
     9  C    4.330947   2.478583   3.825378   0.000000
    10  N    5.084197   1.368482   2.438587   1.461625   0.000000
    11  O    5.890438   1.226352   2.414041   2.818015   2.277943
    12  O    1.369244   7.068596   8.065064   5.699276   6.414721
    13  H    3.392634   4.857854   5.867828   2.751231   3.578553
    14  H    3.402826   3.243142   4.551364   2.720771   3.230875
    15  H    2.146929   6.555903   7.524852   4.710297   5.495323
    16  H    2.161154   5.465783   6.551794   4.686161   5.273478
    17  H    7.722254   2.160037   1.096612   4.262338   2.907289
    18  H    7.256920   2.138464   1.091174   4.587054   3.313283
    19  H    6.656817   2.190961   1.095860   4.062158   2.625224
    20  H    4.830974   3.273760   4.465478   1.096451   2.088247
    21  H    4.825433   2.528671   4.016458   1.092239   2.044936
    22  H    5.317216   2.058476   2.553417   2.134769   1.009912
    23  H    1.915667   7.265631   8.255904   6.108304   6.777411
                   11         12         13         14         15
    11  O    0.000000
    12  O    7.156575   0.000000
    13  H    5.420680   4.506582   0.000000
    14  H    2.811431   4.576250   4.292292   0.000000
    15  H    6.963044   2.571491   2.484385   4.962560   0.000000
    16  H    5.190814   2.693448   4.957476   2.478292   4.297219
    17  H    2.969843   8.979569   6.355126   5.386322   8.237424
    18  H    2.566052   8.408117   6.709997   4.741838   8.172878
    19  H    3.253186   7.806747   5.629342   4.870704   7.162492
    20  H    3.725492   6.166604   2.445035   3.739307   4.751272
    21  H    2.394669   6.177604   3.671802   2.542429   5.479334
    22  H    3.165244   6.593768   3.466187   4.012882   5.421761
    23  H    7.226669   0.969219   5.275847   4.552903   3.517867
                   16         17         18         19         20
    16  H    0.000000
    17  H    7.515878   0.000000
    18  H    6.654315   1.772359   0.000000
    19  H    6.587316   1.774307   1.784264   0.000000
    20  H    5.523560   4.701232   5.351322   4.632608   0.000000
    21  H    4.786354   4.390120   4.628201   4.511783   1.770456
    22  H    5.787442   2.937127   3.551932   2.349210   2.418495
    23  H    2.296600   9.219286   8.479526   8.056616   6.697137
                   21         22         23
    21  H    0.000000
    22  H    2.943492   0.000000
    23  H    6.466743   7.044682   0.000000
 Stoichiometry    C9H11NO2
 Framework group  C1[X(C9H11NO2)]
 Deg. of freedom    63
 Full point group                 C1      NOp   1
 Largest Abelian subgroup         C1      NOp   1
 Largest concise Abelian subgroup C1      NOp   1
                         Standard orientation:                         
 ---------------------------------------------------------------------
 Center     Atomic      Atomic             Coordinates (Angstroms)
 Number     Number       Type             X           Y           Z
 ---------------------------------------------------------------------
      1          6           0        1.287539    1.479058   -0.003140
      2          6           0        0.660927   -0.755048   -0.629525
      3          6           0        2.558141    1.037278    0.358607
      4          6           0        1.927500   -1.213053   -0.271976
      5          6           0        0.320671    0.596981   -0.500920
      6          6           0        2.881353   -0.316353    0.224150
      7          6           0       -2.897321   -0.294462    0.106105
      8          6           0       -3.889229   -0.410194    1.256443
      9          6           0       -1.073121    1.074051   -0.864893
     10          7           0       -2.078250    0.800489    0.160400
     11          8           0       -2.863009   -1.101986   -0.816211
     12          8           0        4.142847   -0.703673    0.589451
     13          1           0        1.050199    2.536741    0.094964
     14          1           0       -0.080260   -1.455210   -1.005109
     15          1           0        3.308010    1.723972    0.738287
     16          1           0        2.176543   -2.267520   -0.381472
     17          1           0       -4.780142    0.193450    1.045621
     18          1           0       -4.197457   -1.452982    1.347276
     19          1           0       -3.467723   -0.071978    2.209781
     20          1           0       -1.065493    2.151412   -1.068464
     21          1           0       -1.426758    0.563650   -1.763457
     22          1           0       -2.097908    1.388518    0.981227
     23          1           0        4.231282   -1.657753    0.443514
 ---------------------------------------------------------------------
 Rotational constants (GHZ):      2.2842642      0.4293878      0.4018205
 Standard basis: 6-31G(d) (6D, 7F)
 There are   202 symmetry adapted basis functions of A   symmetry.
 Integral buffers will be    131072 words long.
 Raffenetti 2 integral format.
 Two-electron integral symmetry is turned on.
   202 basis functions,   380 primitive gaussians,   202 cartesian basis functions
    44 alpha electrons       44 beta electrons
       nuclear repulsion energy       659.0488695808 Hartrees.
 NAtoms=   23 NActive=   23 NUniq=   23 SFac= 1.00D+00 NAtFMM=   60 NAOKFM=F Big=F
 One-electron integrals computed using PRISM.
 NBasis=   202 RedAO= T  NBF=   202
 NBsUse=   202 1.00D-06 NBFU=   202
 Initial guess read from the read-write file.
 B after Tr=     0.000000    0.000000    0.000000
         Rot=    1.000000    0.000000    0.000000    0.000000 Ang=   0.00 deg.
 Initial guess orbital symmetries:
       Occupied  (A) (A) (A) (A) (A) (A) (A) (A) (A) (A) (A) (A)
                 (A) (A) (A) (A) (A) (A) (A) (A) (A) (A) (A) (A)
                 (A) (A) (A) (A) (A) (A) (A) (A) (A) (A) (A) (A)
                 (A) (A) (A) (A) (A) (A) (A) (A)
       Virtual   (A) (A) (A) (A) (A) (A) (A) (A) (A) (A) (A) (A)
                 (A) (A) (A) (A) (A) (A) (A) (A) (A) (A) (A) (A)
                 (A) (A) (A) (A) (A) (A) (A) (A) (A) (A) (A) (A)
                 (A) (A) (A) (A) (A) (A) (A) (A) (A) (A) (A) (A)
                 (A) (A) (A) (A) (A) (A) (A) (A) (A) (A) (A) (A)
                 (A) (A) (A) (A) (A) (A) (A) (A) (A) (A) (A) (A)
                 (A) (A) (A) (A) (A) (A) (A) (A) (A) (A) (A) (A)
                 (A) (A) (A) (A) (A) (A) (A) (A) (A) (A) (A) (A)
                 (A) (A) (A) (A) (A) (A) (A) (A) (A) (A) (A) (A)
                 (A) (A) (A) (A) (A) (A) (A) (A) (A) (A) (A) (A)
                 (A) (A) (A) (A) (A) (A) (A) (A) (A) (A) (A) (A)
                 (A) (A) (A) (A) (A) (A) (A) (A) (A) (A) (A) (A)
                 (A) (A) (A) (A) (A) (A) (A) (A) (A) (A) (A) (A)
                 (A) (A)
 Harris functional with IExCor=  402 diagonalized for initial guess.
 ExpMin= 1.61D-01 ExpMax= 5.48D+03 ExpMxC= 8.25D+02 IAcc=3 IRadAn=         5 AccDes= 0.00D+00
 HarFok:  IExCor=  402 AccDes= 0.00D+00 IRadAn=         5 IDoV= 1
 ScaDFX=  1.000000  1.000000  1.000000  1.000000
 FoFCou: FMM=F IPFlag=           0 FMFlag=      100000 FMFlg1=           0
         NFxFlg=           0 DoJE=T BraDBF=F KetDBF=T FulRan=T
         Omega=  0.000000  0.000000  1.000000  0.000000  0.000000 ICntrl=     500 IOpCl=  0
         NMat0=    1 NMatS0=    1 NMatT0=    0 NMatD0=    1 NMtDS0=    0 NMtDT0=    0
         I1Cent=           4 NGrid=           0.
 Petite list used in FoFCou.
 Requested convergence on RMS density matrix=1.00D-08 within 128 cycles.
 Requested convergence on MAX density matrix=1.00D-06.
 Requested convergence on             energy=1.00D-06.
 No special actions if energy rises.
 Integral accuracy reduced to 1.0D-05 until final iterations.
 Initial convergence to 1.0D-05 achieved.  Increase integral accuracy.
 SCF Done:  E(RB3LYP) =  -554.791887943     A.U. after   12 cycles
             Convg  =    0.5244D-08             -V/T =  2.0094
 Calling FoFJK, ICntrl=      2127 FMM=F ISym2X=0 I1Cent= 0 IOpClX= 0 NMat=1 NMatS=1 NMatT=0.
 ***** Axes restored to original set *****
 -------------------------------------------------------------------
 Center     Atomic                   Forces (Hartrees/Bohr)
 Number     Number              X              Y              Z
 -------------------------------------------------------------------
      1        6           0.000174594    0.000651570   -0.000243017
      2        6          -0.000245122   -0.000239356    0.000894229
      3        6           0.000211542    0.000095052    0.000062571
      4        6          -0.000158357    0.000000191   -0.000057351
      5        6           0.000123884   -0.000729569   -0.000925405
      6        6          -0.000305527    0.000099297   -0.000058777
      7        6          -0.000929667   -0.000030820   -0.000333714
      8        6          -0.000020501   -0.000114847    0.000254124
      9        6          -0.000276792    0.001319653    0.000883718
     10        7           0.001358142   -0.000462329   -0.001155150
     11        8           0.000126241   -0.000125540    0.000117355
     12        8           0.000503669   -0.000388387   -0.000733662
     13        1           0.000001694   -0.000190275   -0.000065173
     14        1           0.000178728   -0.000017450   -0.000031688
     15        1          -0.000150547    0.000038016    0.000116795
     16        1          -0.000081724    0.000056415   -0.000014706
     17        1           0.000078301    0.000241214    0.000035033
     18        1          -0.000025431   -0.000054472    0.000113427
     19        1           0.000155226    0.000022615   -0.000145977
     20        1          -0.000335046   -0.000604924    0.000165778
     21        1           0.000123392    0.000540045   -0.000234221
     22        1          -0.000623681   -0.000201085    0.000774224
     23        1           0.000116982    0.000094986    0.000581587
 -------------------------------------------------------------------
 Cartesian Forces:  Max     0.001358142 RMS     0.000443459

 GradGradGradGradGradGradGradGradGradGradGradGradGradGradGradGradGradGrad
 Berny optimization.
 Using GEDIIS/GDIIS optimizer.
 Internal  Forces:  Max     0.000746837 RMS     0.000231770
 Search for a local minimum.
 Step number   3 out of a maximum of  118
 All quantities printed in internal units (Hartrees-Bohrs-Radians)
 Mixed Optimization -- En-DIIS/RFO-DIIS
 Swaping is turned off.
 Update second derivatives using D2CorX and points    1    2    3
 DE= -3.66D-04 DEPred=-2.65D-04 R= 1.38D+00
 SS=  1.41D+00  RLast= 1.78D-01 DXNew= 8.4853D-01 5.3445D-01
 Trust test= 1.38D+00 RLast= 1.78D-01 DXMaxT set to 5.34D-01
 ITU=  1  1  0
     Eigenvalues ---    0.00350   0.00706   0.01085   0.01254   0.01307
     Eigenvalues ---    0.01489   0.02032   0.02081   0.02095   0.02124
     Eigenvalues ---    0.02137   0.02172   0.02180   0.02182   0.02197
     Eigenvalues ---    0.02222   0.05212   0.06627   0.07080   0.07514
     Eigenvalues ---    0.10254   0.13583   0.15621   0.15951   0.15999
     Eigenvalues ---    0.15999   0.16000   0.16000   0.16000   0.16076
     Eigenvalues ---    0.16284   0.21942   0.22006   0.22294   0.22975
     Eigenvalues ---    0.24100   0.24802   0.24993   0.25094   0.29166
     Eigenvalues ---    0.31520   0.33568   0.34157   0.34331   0.34393
     Eigenvalues ---    0.34430   0.34497   0.34817   0.34952   0.35089
     Eigenvalues ---    0.35141   0.38673   0.41792   0.42331   0.45068
     Eigenvalues ---    0.45412   0.46395   0.46786   0.48219   0.50782
     Eigenvalues ---    0.52100   0.52618   0.91467
 En-DIIS/RFO-DIIS IScMMF=        0 using points:     3    2
 RFO step:  Lambda=-3.20261811D-05.
 DidBck=F Rises=F RFO-DIIS coefs:    1.72685   -0.72685
 Iteration  1 RMS(Cart)=  0.07967053 RMS(Int)=  0.00156516
 Iteration  2 RMS(Cart)=  0.00256394 RMS(Int)=  0.00018052
 Iteration  3 RMS(Cart)=  0.00000241 RMS(Int)=  0.00018051
 Iteration  4 RMS(Cart)=  0.00000000 RMS(Int)=  0.00018051
 Variable       Old X    -DE/DX   Delta X   Delta X   Delta X     New X
                                  (DIIS)     (GDIIS)  (Total)
    R1        2.63240   0.00003  -0.00285   0.00111  -0.00174   2.63066
    R2        2.64607   0.00005  -0.00088   0.00044  -0.00044   2.64563
    R3        2.05681   0.00009   0.00075  -0.00004   0.00071   2.05752
    R4        2.63332  -0.00018  -0.00279   0.00028  -0.00251   2.63080
    R5        2.64582   0.00064   0.00159   0.00146   0.00305   2.64887
    R6        2.05333   0.00014  -0.00007   0.00036   0.00028   2.05361
    R7        2.64215  -0.00013   0.00268  -0.00088   0.00180   2.64395
    R8        2.05104   0.00009  -0.00022   0.00029   0.00007   2.05111
    R9        2.64565  -0.00028   0.00018  -0.00008   0.00009   2.64574
   R10        2.05790  -0.00002   0.00051  -0.00014   0.00037   2.05827
   R11        2.86761  -0.00075  -0.00486  -0.00070  -0.00556   2.86205
   R12        2.58750  -0.00067  -0.00150  -0.00078  -0.00228   2.58521
   R13        2.87869  -0.00010  -0.00113   0.00223   0.00110   2.87978
   R14        2.58606  -0.00034  -0.00017  -0.00144  -0.00161   2.58444
   R15        2.31747   0.00008   0.00017  -0.00026  -0.00010   2.31737
   R16        2.07230  -0.00007   0.00069  -0.00027   0.00042   2.07271
   R17        2.06202   0.00011   0.00012   0.00022   0.00033   2.06236
[...]
 466,0.27310168,0.00187830,0.00486167,-0.00141247,0.08656733,-0.0723067
 5,0.03556742,-0.00028626,-0.00039552,-0.00020906,0.00985538,-0.0010484
 0,0.00552821,-0.00244758,0.00496443,-0.00127481,0.00344428,0.00578544,
 -0.00277688,-0.00091789,-0.00127514,-0.00186974,0.00008179,-0.00004517
 ,-0.00006966,-0.00120824,-0.00188816,-0.00005911,0.00053631,-0.0007571
 2,0.00088313,0.00054229,0.00024514,0.00108597,0.00063810,-0.00025253,0
 .00022674,-0.00011632,0.00037761,-0.00016658,-0.09569051,0.06553924,0.
 00008195,-0.00170094,-0.00597838,-0.09809742,0.03466246,-0.10761790,0.
 00072716,-0.00035804,-0.00064320,0.01733457,-0.00662025,0.01125411,-0.
 02804016,0.01081234,-0.00797956,0.00211950,-0.00239353,-0.00209929,-0.
 00124076,-0.00143325,-0.00148172,0.00017772,0.00011264,0.00000035,-0.0
 0100970,0.00117992,0.00099097,0.00037987,-0.00055045,0.00045645,0.0000
 8657,0.00144320,0.00101559,0.00109817,-0.00044430,0.00044953,-0.001561
 77,0.00056780,-0.00060838,0.10720970,-0.03653206,0.11125080,-0.0144447
 8,0.00560197,-0.01046424,0.00034533,-0.00032393,0.00041446,-0.26029775
 ,0.09075496,-0.09932947,0.00178516,0.00136720,-0.00078748,0.00035496,0
 .00363783,0.00349176,-0.00168568,0.00277601,0.00018706,0.00026827,-0.0
 0007996,0.00027037,-0.00000645,0.00001791,-0.00003861,-0.00023880,-0.0
 0006904,-0.00094466,-0.00034230,0.00040286,0.00002799,-0.00013068,-0.0
 0000177,-0.00009980,0.00023221,-0.00161150,0.00018311,0.00014770,-0.00
 187238,0.00039034,-0.00019196,-0.00033350,-0.00001907,0.27430980,0.009
 50477,-0.00250482,0.00639182,-0.00026199,-0.00041534,-0.00029386,0.091
 07649,-0.06927195,0.03565297,0.00150910,0.00417172,-0.00113689,0.00308
 288,0.00516465,-0.00275953,-0.00126508,0.00465604,-0.00174105,-0.00003
 264,0.00007251,-0.00002167,0.00001233,-0.00001038,0.00001390,0.0006620
 4,0.00045057,0.00020925,0.00001163,0.00006894,0.00016348,0.00002262,-0
 .00005520,0.00000252,-0.00162443,-0.00250229,0.00075410,-0.00195156,-0
 .00310083,0.00046128,-0.00033346,-0.00074347,0.00016655,-0.10020099,0.
 06445685,0.01701408,-0.00620928,0.01223283,0.00084265,-0.00044545,-0.0
 0109275,-0.09750622,0.03471559,-0.10524920,0.00041054,-0.00169851,-0.0
 0575353,0.00228819,-0.00234823,-0.00177148,-0.02933007,0.01187981,-0.0
 0724935,-0.00011840,-0.00001285,-0.00013038,0.00000088,0.00000001,0.00
 001259,0.00058679,-0.00012429,0.00062294,0.00014037,-0.00015289,-0.000
 03399,0.00003752,0.00004270,0.00006655,0.00039808,0.00061177,0.0024400
 2,-0.00018120,0.00076463,0.00091436,-0.00000726,0.00014223,0.00013004,
 0.10659384,-0.03768492,0.10512729,-0.00127929,0.00059549,0.00052502,0.
 00759819,0.00054337,0.02378682,-0.00387795,0.00365360,-0.00168414,-0.0
 6177376,0.00790106,-0.04345852,-0.00177722,0.00445478,0.00175230,-0.00
 032429,-0.00246811,-0.02681227,0.00033596,0.,0.00027513,-0.00001743,0.
 00000577,-0.00001650,0.00066131,-0.00014668,0.00099410,-0.00016979,0.0
 0009714,-0.00017871,-0.00016323,-0.00008596,-0.00018569,0.00226667,-0.
 00273585,-0.00089141,-0.00002605,-0.00039243,0.00005876,0.00011432,-0.
 00190191,-0.00008869,0.00007080,-0.00012318,-0.00150192,0.05945541,0.0
 0049475,-0.00032695,-0.00008690,-0.00365264,0.00079680,-0.01308926,0.0
 0351749,0.00306459,0.00018237,0.00776657,-0.03714587,-0.02276388,0.004
 61561,0.00493802,-0.00152449,0.00207535,0.00330457,0.01011989,-0.00018
 885,0.00009738,-0.00021120,0.00001411,-0.00001016,-0.00000534,-0.00018
 092,0.00069688,-0.00071243,0.00006484,-0.00019973,0.00019055,0.0000761
 1,-0.00000804,0.00011180,-0.00264570,-0.00208429,0.00139335,-0.0004045
 4,-0.00071556,0.00006369,-0.00187705,-0.00314748,0.00077270,0.00008911
 ,0.00028902,0.00056109,-0.01025091,0.03050175,0.00009889,0.00006268,0.
 00067222,-0.00436533,-0.00036800,-0.01502927,-0.00284589,0.00076645,0.
 00115762,-0.04345922,-0.02255280,-0.32210261,0.00295303,-0.00235343,0.
 00083816,0.00325203,-0.00375026,-0.01273697,-0.00041649,0.00018145,-0.
 00035386,0.00001483,-0.00002908,0.00003255,-0.00069624,0.00048165,-0.0
 0064256,0.00030146,-0.00030181,0.00018159,0.00023383,-0.00003002,0.000
 16578,0.00004751,0.00095977,0.00322730,0.00003679,0.00009711,-0.000145
 42,0.00033802,0.00056524,0.00091761,0.00000434,-0.00011302,-0.00060433
 ,0.04613987,0.02581399,0.34461820,0.00001020,0.00000491,0.00002095,-0.
 00002955,0.00000223,-0.00003382,0.00000389,0.00000426,0.00001396,0.000
 00020,0.00001394,0.00000071,-0.00000147,0.00000558,-0.00001403,0.00003
 422,-0.00002693,-0.00002899,0.00146098,-0.00079236,-0.00227278,-0.2753
 8114,0.09219565,0.04326347,0.00015665,-0.00016086,0.00008748,0.0002120
 6,0.00043277,0.00054969,0.00090259,-0.00077833,0.00018563,-0.00003359,
 0.00002816,0.00003024,0.00000109,-0.00000483,0.00000196,-0.00001591,0.
 00001007,0.00001622,-0.00000393,-0.00000070,0.00000083,-0.00000428,-0.
 00000252,0.00000406,0.29604291,0.00000505,0.00000235,-0.00003512,0.000
 02958,-0.00000356,0.00003182,0.00000532,-0.00000396,-0.00002774,0.0000
 2538,-0.00001457,-0.00001155,-0.00012090,0.00022111,0.00003860,-0.0000
 5902,0.00003896,0.00004553,0.03512994,-0.01323230,-0.00632462,0.092004
 18,-0.08443495,-0.02114114,-0.00000238,0.00008453,0.00187941,-0.001904
 26,-0.00482088,0.00026248,-0.00329186,0.00304456,0.00207923,0.00007624
 ,-0.00004387,-0.00006361,-0.00001777,0.00000423,-0.00000344,0.00002569
 ,0.00000043,-0.00000452,0.00000907,-0.00000523,-0.00000214,0.00000789,
 -0.00001052,-0.00001522,-0.10059205,0.09102056,-0.00001877,0.00000426,
 0.00000262,-0.00000679,-0.00000953,-0.00001473,0.00001102,-0.00000230,
 -0.00000596,-0.00001191,-0.00000356,0.00001815,0.00002757,-0.00012263,
 -0.00002341,-0.00000448,0.00000246,0.00001098,-0.00545579,0.00413469,-
 0.00021296,0.04258070,-0.02024975,-0.05362769,0.00034113,0.00019480,-0
 .00053151,0.00000666,0.00124671,-0.00036092,-0.00041156,-0.00129094,-0
 .00016260,0.00000594,-0.00000361,-0.00000282,0.00000195,-0.00000330,0.
 00000596,-0.00000224,0.00003350,0.00001642,0.00000049,0.00000020,0.000
 00032,0.00000085,0.00000511,0.00000054,-0.04765645,0.01893313,0.054940
 55,-0.00003625,0.00000869,0.00000859,-0.00001391,-0.00003383,-0.000003
 96,-0.00000320,-0.00001744,-0.00000486,-0.00002742,-0.00001718,0.00003
 581,0.00004523,0.00010364,-0.00004768,-0.00000617,0.00001917,0.0000184
 8,-0.00088927,0.00177336,-0.00129635,-0.06159696,-0.01724953,0.0616817
 6,-0.00031482,0.00012714,0.00036929,-0.00045594,0.00112401,0.00014972,
 0.00014975,-0.00112985,-0.00090933,0.00000575,-0.00001629,-0.00000348,
 0.00000649,0.00000484,0.00000259,0.00002328,0.00003967,0.00002455,-0.0
 0000022,0.00000296,0.00000072,0.00000324,0.00000704,0.00000075,-0.0067
 4048,-0.00769366,0.02974348,0.06295689,0.00002904,-0.00006018,-0.00012
 182,0.00009397,0.00001384,0.00006446,0.00003096,0.00003005,-0.00003976
 ,0.00007627,0.00000615,-0.00002296,-0.00010388,-0.00037779,0.00026283,
 -0.00005949,0.00000845,0.00004255,-0.00959112,-0.00765567,0.03566370,-
 0.01834397,-0.06007708,0.05836596,0.00139619,-0.00000758,-0.00083005,0
 .00023547,-0.00421177,-0.00092112,0.00236884,0.00127235,-0.00364656,0.
 00008931,-0.00003557,-0.00007999,-0.00002075,-0.00001556,0.00000174,-0
 .00009569,-0.00002168,0.00005286,0.00001544,-0.00000450,-0.00000976,0.
 00001303,-0.00002137,-0.00002527,0.00241214,0.00304380,-0.01264703,0.0
 1650735,0.06487860,0.00002763,0.00001067,0.00002326,-0.00004226,0.0000
 0967,-0.00004999,-0.00001470,-0.00000458,0.00003810,-0.00002631,-0.000
 00358,0.00001999,0.00003391,0.00010917,-0.00002317,0.00002799,-0.00000
 506,-0.00003839,-0.00121978,0.00094385,-0.00270782,0.06216880,0.056420
 49,-0.28791580,-0.00011527,-0.00026978,0.00009105,0.00038096,0.0013484
 8,0.00061974,-0.00019263,-0.00063156,0.00107451,-0.00004684,0.00001468
 ,0.00004304,0.00001148,0.00000178,0.00000237,0.00000136,0.00000902,0.0
 0000758,-0.00000580,0.00000044,0.00000218,-0.00000281,0.00000803,0.000
 00979,0.00092752,0.00080284,-0.00482817,-0.06801835,-0.06292889,0.3106
 4186,-0.00000337,-0.00000002,-0.00002295,-0.00003056,-0.00000067,-0.00
 004190,0.00000712,-0.00000702,-0.00000538,0.00001803,-0.00001362,0.000
 02884,-0.00002383,0.00002092,0.00004873,-0.00003434,0.00001881,0.00001
 993,-0.00386228,0.00191242,0.00045383,-0.16460590,-0.07389342,-0.10922
 795,0.00020135,-0.00041802,0.00031702,-0.00012281,0.00098359,0.0005843
 3,0.00283359,-0.00098677,-0.00017659,0.00004455,-0.00002251,-0.0000267
 3,0.00000083,-0.00000013,0.00000656,-0.00001231,0.00002449,0.00003843,
 0.00000490,-0.00000297,-0.00000050,-0.00000090,0.00000109,-0.00000343,
 -0.01689248,-0.01368654,-0.01929451,0.00640731,0.00508213,0.00551763,0
 .17487037,-0.00000833,0.00000797,0.00000526,-0.00009433,0.00001672,-0.
 00014553,0.00002400,-0.00000828,0.00000563,0.00003573,-0.00000107,0.00
 005443,-0.00002161,0.00007303,0.00002257,-0.00001008,-0.00000657,-0.00
 000474,-0.02445577,-0.00327758,-0.02473106,-0.07135174,-0.09961183,-0.
 06849244,0.00033731,0.00029639,0.00005493,0.00111715,0.00133479,0.0017
 3460,-0.00116420,-0.01072056,0.00092163,0.00002864,-0.00000264,-0.0000
 0422,0.00000541,-0.00000692,0.00001580,-0.00005286,0.00005033,0.000110
 42,0.00000262,-0.00000528,0.00000035,-0.00000537,-0.00000175,-0.000001
 86,0.00736520,0.00589641,0.00957393,0.00668573,0.00326310,0.00431451,0
 .08032576,0.10432204,0.00001440,0.00000809,-0.00000720,-0.00002493,0.0
 0000943,-0.00003297,0.00001975,0.00000220,-0.00000864,0.00001848,-0.00
 000559,0.00000639,-0.00003664,-0.00001982,0.00004378,-0.00002734,0.000
 00290,0.00001298,0.00363157,0.00225292,-0.00018343,-0.10970154,-0.0707
 5317,-0.15295367,0.00028719,-0.00032925,0.00029312,0.00000065,0.000435
 61,-0.00007308,0.00027969,0.00130593,0.00250635,0.00004045,-0.00000537
 ,-0.00002247,-0.00000602,-0.00000627,0.00000746,0.00000878,0.00002290,
 0.00000365,0.00000418,-0.00000708,0.00000073,-0.00000462,-0.00000105,-
 0.00000183,0.00449017,0.00405544,0.00427211,-0.02131102,-0.01367432,-0
 .01673784,0.12199553,0.07616232,0.16203070,0.00162408,-0.00052880,0.00
 151975,-0.00359848,0.00206327,0.00161936,0.00007457,-0.00006959,0.0000
 4050,0.00074228,0.00020023,0.00092411,0.00351438,-0.00268906,0.0246948
 4,0.00008255,-0.00010759,-0.00012639,-0.00081338,-0.00060298,-0.001545
 32,0.00005575,0.00000627,-0.00021276,-0.06243612,0.00737570,-0.0488805
 0,0.00026293,0.00024321,-0.00123333,-0.00000255,0.00212468,-0.00010621
 ,-0.00013989,0.00005596,0.00003514,-0.00032907,0.00006767,-0.00066604,
 -0.00006107,-0.00017035,0.00016785,0.00001333,-0.00001799,-0.00002133,
 -0.00024812,0.00016261,0.00021587,0.00002870,0.00001336,-0.00001109,-0
 .00000441,0.00005169,-0.00000576,0.00005248,0.00000549,0.00003126,0.06
 350505,-0.00059783,-0.00019615,-0.00077929,0.00272858,0.00002108,-0.00
 123353,0.00011999,-0.00007713,-0.00007468,-0.00026614,-0.00015916,-0.0
 0060075,-0.00214188,0.00316842,-0.01187076,-0.00018010,0.00015696,0.00
 015650,-0.00747220,-0.00494337,-0.00149370,0.00202713,-0.00037635,-0.0
 0030838,0.00401425,-0.05343316,0.03737425,0.01593161,-0.02023670,0.038
 13354,0.00097653,0.00263173,0.00082156,0.00021351,-0.00008723,-0.00012
 366,0.00011155,0.00018062,0.00027233,0.00006159,-0.00000046,0.00014784
 ,0.00002289,-0.00003552,-0.00001001,0.00009993,-0.00025494,-0.00014858
 ,0.00001697,-0.00062620,0.00014809,-0.00005637,0.00004168,0.00002399,-
 0.00006944,0.00001748,-0.00005506,-0.01482444,0.07004888,-0.00273830,0
 .00113144,0.00089395,0.00402199,-0.00158943,-0.00124942,0.00052205,-0.
 00037360,-0.00010834,-0.00079326,0.00017430,-0.00061793,-0.00452055,0.
 00134710,-0.01981958,-0.00014550,0.00015338,0.00049827,0.00167479,-0.0
 0047663,0.00048335,-0.00010053,-0.00001267,-0.00015280,-0.04696271,0.0
 4132708,-0.29332397,-0.00242707,0.00456742,0.00113349,-0.00005859,0.00
 040260,0.00008749,0.00034769,-0.00016524,-0.00011705,0.00106807,-0.000
 20647,0.00089468,0.00003521,0.00008060,0.00029165,0.00003868,0.0000034
 5,-0.00001863,0.00025561,-0.00018351,-0.00023282,0.00001747,0.00003712
 ,-0.00002752,0.00000031,0.00005686,-0.00001021,0.00001187,0.00001187,-
 0.00000121,0.05104044,-0.04740791,0.31644003,-0.00157922,0.00014487,0.
 00296775,0.00168600,-0.00003821,-0.00226378,-0.00017448,0.00073241,-0.
 00051437,-0.00051634,0.00087136,0.00008978,-0.02144444,-0.00361749,-0.
 00350538,0.00051006,-0.00028452,0.00003639,-0.00021661,0.00070121,-0.0
 0124465,-0.00034462,-0.00030251,-0.00008488,-0.26747497,-0.09555227,-0
 .05366943,0.00420738,-0.00287097,0.00040387,-0.00141475,0.00240142,-0.
 00066679,-0.00026971,0.00010363,0.00025514,-0.00006148,-0.00032086,0.0
 0005425,0.00007721,-0.00055030,0.00065704,-0.00013871,0.00017257,0.000
 13265,0.00000768,-0.00002979,-0.00000107,-0.00002380,0.00000574,-0.000
 02025,0.00001779,-0.00000305,0.00002797,0.00013464,-0.00019081,0.00010
 129,-0.00237822,-0.00037490,-0.00110357,0.28909619,0.00092686,-0.00002
 382,-0.00129656,0.00003739,0.00021097,0.00052107,0.00012343,-0.0009810
 2,-0.00038463,0.00015776,-0.00020543,0.00022794,0.01363119,0.00564398,
 0.00224747,-0.00009220,0.00019284,0.00047720,-0.00595747,-0.00178626,-
 0.00393917,0.00037159,0.00005990,-0.00012439,-0.08483369,-0.08192355,-
 0.02021157,-0.03302575,-0.02733773,-0.00967835,0.00284544,0.00319267,0
 .00072801,0.00039525,-0.00024709,-0.00041488,0.00011139,0.00038117,-0.
 00012313,-0.00016848,0.00014315,-0.00003671,0.00007929,-0.00014044,-0.
 00005600,-0.00001743,0.00000052,-0.00002500,0.00014561,-0.00002191,0.0
 0011413,0.00000858,0.00007028,0.00005566,0.00009806,0.00040437,0.00011
 490,0.00641951,0.00321435,0.00041890,0.09768799,0.10492775,0.00088348,
 -0.00019720,-0.00219395,0.00053489,-0.00031076,0.00108403,0.00029031,-
 0.00073536,0.00016829,-0.00008955,-0.00009183,0.00023838,0.01999818,0.
 00644079,0.00510382,-0.00000613,0.00036316,0.00038446,0.00113964,0.001
 51765,0.00142305,-0.00043339,-0.00048008,-0.00001800,-0.05650733,-0.02
 427641,-0.06695041,0.00443064,0.00181076,0.00149149,-0.00105474,-0.000
 17090,-0.00148016,0.00030288,-0.00028290,-0.00036548,0.00020201,0.0000
 3916,0.00027082,-0.00009509,0.00014905,-0.00051893,0.00009301,-0.00022
 143,-0.00010654,-0.00004517,-0.00003971,0.00000086,-0.00004021,-0.0000
 0994,-0.00002260,0.00000397,-0.00003372,-0.00000022,0.00003820,-0.0002
 6107,0.00003610,-0.02784281,-0.01285079,-0.00523787,0.05827556,0.02843
 542,0.06648180,-0.00017000,-0.00017248,-0.00012538,-0.00034408,-0.0000
 6619,0.00063484,-0.00021817,-0.00005289,0.00011133,0.00028334,-0.00015
 289,0.00001745,0.00137979,-0.00006824,-0.00065392,-0.00024147,0.000156
 84,-0.00010107,-0.01425735,-0.01945587,0.00187140,-0.00068660,-0.00038
 483,0.00055401,0.00452013,0.00633204,0.00507457,-0.26018677,-0.1647616
 8,-0.13266744,0.00063824,0.00305288,-0.00597486,0.00010492,-0.00008689
 ,-0.00006885,0.00008428,0.00014858,-0.00009970,0.00000334,0.00003502,-
 0.00003175,-0.00000602,0.00001152,0.00001154,-0.00000233,0.00001842,0.
 00000162,0.00027008,0.00003894,0.00017605,0.00047487,-0.00018128,0.000
 56131,0.00102210,0.00143137,0.00019836,0.00002687,-0.00029954,-0.00010
 893,0.00031720,0.00103551,-0.00010416,0.26699547,0.00012188,0.00016112
 ,-0.00015156,0.00039869,0.00004439,-0.00051773,0.00023008,-0.00010427,
 -0.00018992,-0.00024317,0.00014073,0.00003479,-0.00036449,0.00081373,0
 .00054228,0.00022393,-0.00013915,0.00017104,0.00993161,0.01402185,0.00
 140865,0.00155807,-0.00038255,0.00085814,-0.02497655,-0.01252600,-0.01
 153885,-0.16577547,-0.19585680,-0.07165102,0.00381167,0.00035635,0.005
 38582,-0.00008098,0.00005540,0.00004056,0.00002980,-0.00013497,0.00012
 128,0.00000975,-0.00009856,0.00000266,0.00000187,-0.00000454,-0.000015
 52,0.00000204,-0.00000926,0.00000391,-0.00026986,-0.00014220,-0.000062
 15,-0.00021148,-0.00012870,-0.00023681,0.00062869,-0.00203809,0.000489
 32,0.00022385,0.00093211,0.00065377,0.00133944,-0.00581658,0.00119772,
 0.17339132,0.20087086,0.00034347,-0.00013165,0.00042173,0.00011339,0.0
 0006335,-0.00036263,-0.00007510,0.00007794,0.00000466,-0.00002049,0.00
 005714,-0.00013192,-0.00046476,-0.00041055,-0.00038979,0.00020225,-0.0
 0018810,-0.00016514,-0.01260380,-0.01902433,-0.01289368,0.00232772,-0.
 00023446,-0.00216267,0.00781167,0.00363212,0.00113404,-0.12160058,-0.0
 6549011,-0.06662140,-0.00654728,0.00470474,0.00184416,-0.00021794,0.00
 016268,0.00015140,-0.00008710,0.00006476,-0.00012418,-0.00008551,-0.00
 002987,-0.00000165,-0.00003078,0.00002722,0.00001384,-0.00001602,-0.00
 001759,0.00001740,0.00044208,-0.00053806,0.00055148,-0.00044851,0.0004
 5753,-0.00025565,-0.00026731,0.00064920,0.00080569,0.00040226,-0.00016
 243,0.00014129,0.00009342,0.00290497,0.00017086,0.13070312,0.07346688,
 0.07788902,0.00153027,0.00021220,0.00076274,-0.00056169,-0.00004959,0.
 00010161,-0.00432278,0.00345336,0.00260173,0.00120654,-0.00050587,0.00
 342627,-0.00009866,0.00003038,-0.00052797,0.00553443,0.00184402,0.0388
 5747,-0.00006671,0.00019726,-0.00003229,0.00000296,-0.00003183,0.00002
 658,-0.00020391,0.00012686,-0.00006945,0.00012177,-0.00014243,0.000024
 49,0.00007340,-0.00014887,-0.00005107,-0.08046261,0.01138397,-0.158427
 02,-0.00027632,0.00003896,0.00014666,0.00006036,-0.00003014,-0.0000299
 8,-0.00004519,-0.00025391,0.00020825,-0.00084894,0.00032984,-0.0018552
 2,0.00000305,-0.00000792,-0.00000200,-0.00000153,-0.00000262,0.0000039
 6,-0.00000848,-0.00000931,-0.00000966,0.00002835,-0.00004170,-0.000075
 16,-0.00001680,0.00002017,0.00002581,-0.00000785,0.00001934,0.00002581
 ,0.07836031,-0.00005063,0.00173878,-0.00074611,-0.00005521,-0.00063100
 ,-0.00018603,0.00370221,0.00054540,-0.00136263,-0.00150669,-0.00041241
 ,-0.00053658,0.00013365,0.00014462,0.00035580,-0.00507794,-0.00370522,
 -0.02152809,0.00008928,-0.00005959,0.00000950,-0.00000821,0.00000883,-
 0.00000793,0.00002301,-0.00015781,-0.00000019,-0.00006818,0.00002455,0
 .00002359,-0.00008755,0.00002573,0.00001642,0.01885635,-0.01157831,0.0
 0638363,0.00006008,-0.00027335,-0.00005036,-0.00005807,0.00001301,0.00
 004265,-0.00028594,-0.00053049,0.00005167,0.00075374,0.00024635,0.0007
 8213,-0.00000905,0.00000320,0.00000378,0.00001345,-0.00001086,0.000006
 99,0.00000517,-0.00000208,-0.00000497,-0.00000268,0.00001308,0.0000495
 8,-0.00002495,0.00004189,0.00000838,0.00003034,-0.00001484,-0.00004137
 ,-0.01643218,0.01457050,-0.00124145,0.00018052,-0.00118725,-0.00004955
 ,-0.00007515,-0.00143649,0.00464044,-0.00235860,0.00094758,-0.00353699
 ,0.00261498,0.00596767,-0.00003843,0.00007727,0.00089436,-0.00832818,-
 0.00029847,-0.03100965,0.00025651,-0.00018108,0.00022303,-0.00001014,0
 .00003220,-0.00003494,0.00024976,-0.00027612,-0.00018474,-0.00029839,0
 .00029084,-0.00001828,-0.00016589,0.00007970,-0.00007721,-0.10757443,-
 0.01642920,-0.44898520,0.00034074,-0.00013900,-0.00013483,-0.00019411,
 0.00010624,0.00014426,0.00002028,0.00013228,0.00044650,0.00109802,-0.0
 0058721,0.00001007,-0.00000618,0.00001151,0.00000177,0.00000351,0.0000
 1276,-0.00000621,0.00000633,0.00000347,0.00000330,-0.00003983,0.000041
 46,0.00005313,-0.00002095,0.00004472,0.00004020,0.00002046,-0.00001326
 ,-0.00003688,0.11486845,0.01673014,0.47437982\\0.00000069,0.00000318,-
 0.00000248,0.00000941,-0.00000459,-0.00000715,0.00000032,-0.00000124,0
 .00000600,-0.00000855,0.00000852,0.00000291,-0.00000440,0.00000020,0.0
 0000144,0.00000250,-0.00000900,-0.00000070,-0.00002292,0.00000590,-0.0
 0002500,-0.00001833,0.00000765,-0.00001806,0.00000420,0.00001901,-0.00
 000288,0.00000976,-0.00002329,0.00001719,0.00001146,-0.00000496,0.0000
 1340,0.00000121,0.00001060,-0.00000102,0.00000006,0.00000018,0.0000005
 2,-0.00000115,0.00000073,0.00000134,0.00000027,-0.00000095,-0.00000164
 ,0.00000183,-0.00000174,-0.00000055,0.00000322,0.00000500,0.00000916,0
 .00001092,-0.00000092,0.00000300,0.00000551,-0.00000896,0.00000567,-0.
 00000100,-0.00000403,-0.00000017,-0.00000278,-0.00000253,0.00000012,0.
 00000032,0.00000722,-0.00000395,-0.00000253,-0.00000598,0.00000284\\\@


 EDUCATION IS NOT TRAINING BUT RATHER THE PROCESS THAT EQUIPS YOU TO
 ENTERTAIN YOURSELF, A FRIEND, OR AN IDEA.  -- WALLACE STERLING
 Job cpu time:  0 days  0 hours 57 minutes 41.1 seconds.
 File lengths (MBytes):  RWF=    126 Int=      0 D2E=      0 Chk=      4 Scr=      1
 Normal termination of Gaussian 09 at Fri Feb 16 22:17:07 2018.
