 Entering Gaussian System, Link 0=g09
 Initial command:
 /home/fb_chem/chemsoft/lx24-amd64/Gaussian_09_C.01_NBO_3.1_64_istanbul-64/g09/l1.exe /local/2400112.1.parallel/Gau-31275.inp -scrdir=/local/2400112.1.parallel/
 Entering Link 1 = /home/fb_chem/chemsoft/lx24-amd64/Gaussian_09_C.01_NBO_3.1_64_istanbul-64/g09/l1.exe PID=     31276.
  
 Copyright (c) 1988,1990,1992,1993,1995,1998,2003,2009,2011,
            Gaussian, Inc.  All Rights Reserved.
  
 This is part of the Gaussian(R) 09 program.  It is based on
 the Gaussian(R) 03 system (copyright 2003, Gaussian, Inc.),
 the Gaussian(R) 98 system (copyright 1998, Gaussian, Inc.),
 the Gaussian(R) 94 system (copyright 1995, Gaussian, Inc.),
 the Gaussian 92(TM) system (copyright 1992, Gaussian, Inc.),
 the Gaussian 90(TM) system (copyright 1990, Gaussian, Inc.),
 the Gaussian 88(TM) system (copyright 1988, Gaussian, Inc.),
 the Gaussian 86(TM) system (copyright 1986, Carnegie Mellon
 University), and the Gaussian 82(TM) system (copyright 1983,
 Carnegie Mellon University). Gaussian is a federally registered
 trademark of Gaussian, Inc.
  
 This software contains proprietary and confidential information,
 including trade secrets, belonging to Gaussian, Inc.
  
 This software is provided under written license and may be
 used, copied, transmitted, or stored only in accord with that
 written license.
  
 The following legend is applicable only to US Government
 contracts under FAR:
  
                    RESTRICTED RIGHTS LEGEND
  
 Use, reproduction and disclosure by the US Government is
 subject to restrictions as set forth in subparagraphs (a)
 and (c) of the Commercial Computer Software - Restricted
 Rights clause in FAR 52.227-19.
  
 Gaussian, Inc.
 340 Quinnipiac St., Bldg. 40, Wallingford CT 06492
  
  
 ---------------------------------------------------------------
 Warning -- This program may not be used in any manner that
 competes with the business of Gaussian, Inc. or will provide
 assistance to any competitor of Gaussian, Inc.  The licensee
 of this program is prohibited from giving any competitor of
 Gaussian, Inc. access to this program.  By using this program,
 the user acknowledges that Gaussian, Inc. is engaged in the
 business of creating and licensing software in the field of
 computational chemistry and represents and warrants to the
 licensee that it is not a competitor of Gaussian, Inc. and that
 it will not use this program in any manner prohibited above.
 ---------------------------------------------------------------
  

 Cite this work as:
 Gaussian 09, Revision C.01,
 M. J. Frisch, G. W. Trucks, H. B. Schlegel, G. E. Scuseria, 
 M. A. Robb, J. R. Cheeseman, G. Scalmani, V. Barone, B. Mennucci, 
 G. A. Petersson, H. Nakatsuji, M. Caricato, X. Li, H. P. Hratchian, 
 A. F. Izmaylov, J. Bloino, G. Zheng, J. L. Sonnenberg, M. Hada, 
 M. Ehara, K. Toyota, R. Fukuda, J. Hasegawa, M. Ishida, T. Nakajima, 
 Y. Honda, O. Kitao, H. Nakai, T. Vreven, J. A. Montgomery, Jr., 
 J. E. Peralta, F. Ogliaro, M. Bearpark, J. J. Heyd, E. Brothers, 
 K. N. Kudin, V. N. Staroverov, T. Keith, R. Kobayashi, J. Normand, 
 K. Raghavachari, A. Rendell, J. C. Burant, S. S. Iyengar, J. Tomasi, 
 M. Cossi, N. Rega, J. M. Millam, M. Klene, J. E. Knox, J. B. Cross, 
 V. Bakken, C. Adamo, J. Jaramillo, R. Gomperts, R. E. Stratmann, 
 O. Yazyev, A. J. Austin, R. Cammi, C. Pomelli, J. W. Ochterski, 
 R. L. Martin, K. Morokuma, V. G. Zakrzewski, G. A. Voth, 
 P. Salvador, J. J. Dannenberg, S. Dapprich, A. D. Daniels, 
 O. Farkas, J. B. Foresman, J. V. Ortiz, J. Cioslowski, 
 and D. J. Fox, Gaussian, Inc., Wallingford CT, 2010.
 
 ******************************************
 Gaussian 09:  AM64L-G09RevC.01 23-Sep-2011
                17-Feb-2018 
 ******************************************
 %nprocs=2
 Will use up to    2 processors via shared memory.
 %chk=frag57-conf1.chk
 ----------------------------------------------------------------------
 #HF/6-31G* Geom=AllCheck Guess=Read Pop=(MK,ReadRadii) Integral=(Grid=
 UltraFine) iop(6/33=2)
 ----------------------------------------------------------------------
 1/29=7,38=1/1;
 2/12=2,40=1/2;
 3/5=1,6=6,7=1,11=9,14=-4,16=1,25=1,30=1,75=-5,116=-2/1,2,3;
 4/5=1/1;
 5/5=2,38=6/2;
 6/7=2,8=2,9=2,10=2,15=8,20=101,28=1,33=2/1,2;
 99/5=1,9=1/99;
 Structure from the checkpoint file:  frag57-conf1.chk
 -----------------------------
 Optimization for frag57-conf1
 -----------------------------
 Charge =  0 Multiplicity = 1
 Redundant internal coordinates found in file.
 C,0,1.4287956277,-2.1300785185,-0.0982171422
 C,0,0.2885011801,-1.5354690506,0.4520167811
 C,0,2.6885184615,-1.8813592766,0.436430026
 C,0,1.6745698732,-0.4311303596,2.0962643137
 C,0,0.4075921397,-0.6818872305,1.5519016402
 C,0,2.8079074808,-1.0269904528,1.540467173
 C,0,-0.3699301786,2.3509513191,2.7595777586
 C,0,-0.455782176,3.79824282,2.2970871465
 C,0,-0.8122268441,-0.0114945755,2.1574319524
 N,0,-0.8885520151,1.4257653474,1.8963997534
 O,0,0.1223993742,2.0475862086,3.842194739
 O,0,4.0646507679,-0.8154291214,2.0370999768
 H,0,1.3329254088,-2.795381257,-0.9523307103
 H,0,-0.6916331447,-1.7409160542,0.0282260351
 H,0,3.5830523602,-2.3362013287,0.0228743139
 H,0,1.7624585258,0.2325408741,2.9545576236
 H,0,-0.9384428433,4.3875910716,3.0819807976
 H,0,0.5584901764,4.1911344408,2.1713536622
 H,0,-1.0065717975,3.93210927,1.3607758669
 H,0,-1.7265919073,-0.4765738521,1.7737693281
 H,0,-0.8074863751,-0.1183517072,3.2450792802
 H,0,-1.1372109507,1.7220929797,0.9630359112
 H,0,4.0017779852,-0.2176164808,2.7986409142
 Recover connectivity data from disk.
                          Input orientation:                          
 ---------------------------------------------------------------------
 Center     Atomic      Atomic             Coordinates (Angstroms)
 Number     Number       Type             X           Y           Z
 ---------------------------------------------------------------------
      1          6           0        1.428796   -2.130079   -0.098217
      2          6           0        0.288501   -1.535469    0.452017
      3          6           0        2.688518   -1.881359    0.436430
      4          6           0        1.674570   -0.431130    2.096264
      5          6           0        0.407592   -0.681887    1.551902
      6          6           0        2.807907   -1.026990    1.540467
      7          6           0       -0.369930    2.350951    2.759578
      8          6           0       -0.455782    3.798243    2.297087
      9          6           0       -0.812227   -0.011495    2.157432
     10          7           0       -0.888552    1.425765    1.896400
     11          8           0        0.122399    2.047586    3.842195
     12          8           0        4.064651   -0.815429    2.037100
     13          1           0        1.332925   -2.795381   -0.952331
     14          1           0       -0.691633   -1.740916    0.028226
     15          1           0        3.583052   -2.336201    0.022874
     16          1           0        1.762459    0.232541    2.954558
     17          1           0       -0.938443    4.387591    3.081981
     18          1           0        0.558490    4.191134    2.171354
     19          1           0       -1.006572    3.932109    1.360776
     20          1           0       -1.726592   -0.476574    1.773769
     21          1           0       -0.807486   -0.118352    3.245079
     22          1           0       -1.137211    1.722093    0.963036
     23          1           0        4.001778   -0.217616    2.798641
 ---------------------------------------------------------------------
                    Distance matrix (angstroms):
                    1          2          3          4          5
     1  C    0.000000
     2  C    1.398781   0.000000
     3  C    1.390903   2.424864   0.000000
     4  C    2.786140   2.417499   2.426171   0.000000
     5  C    2.421365   1.397330   2.808137   1.401586   0.000000
     6  C    2.409157   2.791179   1.401106   1.395856   2.425024
     7  C    5.610885   4.567563   5.715206   3.515671   3.355761
     8  C    6.665892   5.692690   6.753262   4.739866   4.623017
     9  C    3.820803   2.538216   4.325906   2.522696   1.517910
    10  N    4.689629   3.498658   5.085668   3.171372   2.498173
    11  O    5.889516   4.935502   5.798346   3.406104   3.574465
    12  O    3.638078   4.158155   2.364760   2.421502   3.691521
    13  H    1.086890   2.156477   2.145163   3.873027   3.405037
    14  H    2.159549   1.087415   3.407606   3.404591   2.156716
    15  H    2.167481   3.417514   1.085403   3.401551   3.893357
    16  H    3.874627   3.400165   3.415718   1.088509   2.153900
    17  H    7.628728   6.595813   7.710611   5.569520   5.463750
    18  H    6.772453   5.985232   6.664995   4.755692   4.914553
    19  H    6.694012   5.691878   6.950146   5.173715   4.829633
    20  H    4.024286   2.632278   4.822354   3.416719   2.155486
    21  H    4.497292   3.318224   4.818584   2.752855   2.158898
    22  H    4.748671   3.592423   5.281892   3.718426   2.917585
    23  H    4.320826   4.586045   3.173757   2.440250   3.832503
                    6          7          8          9         10
     6  C    0.000000
     7  C    4.795349   0.000000
     8  C    5.874268   1.521815   0.000000
     9  C    3.810151   2.477772   3.828924   0.000000
    10  N    4.450451   1.367485   2.444686   1.462764   0.000000
    11  O    4.686462   1.227387   2.405504   2.819887   2.279211
    12  O    1.367774   5.496676   6.464354   4.944161   5.438471
    13  H    3.393644   6.569834   7.565320   4.692795   5.555925
    14  H    3.878575   4.930229   5.990462   2.745717   3.681945
    15  H    2.148946   6.714538   7.688669   5.411014   6.136590
    16  H    2.163108   3.012103   4.250540   2.706283   3.093758
    17  H    6.762329   2.138937   1.093778   4.496963   3.190690
    18  H    5.717230   2.143419   1.094953   4.420537   3.133177
    19  H    6.259010   2.204999   1.094517   4.027958   2.565654
    20  H    4.573737   3.287438   4.490309   1.095244   2.082365
    21  H    4.099073   2.554334   4.045009   1.092894   2.051781
    22  H    4.843020   2.052254   2.560163   2.130146   1.010351
    23  H    1.914005   5.070592   6.020675   4.860893   5.237372
                   11         12         13         14         15
    11  O    0.000000
    12  O    5.195822   0.000000
    13  H    6.921501   4.507686   0.000000
    14  H    5.437072   5.245411   2.484396   0.000000
    15  H    6.766160   2.569395   2.494983   4.315939   0.000000
    16  H    2.602323   2.690736   4.961511   4.298897   4.302065
    17  H    2.679353   7.293431   8.545752   6.851637   8.660914
    18  H    2.752578   6.113662   7.692110   6.430010   7.507999
    19  H    3.314128   6.979530   7.488848   5.835931   7.883296
    20  H    3.750805   5.807121   4.708411   2.390946   5.892043
    21  H    2.431568   5.067825   5.419050   3.604758   5.880331
    22  H    3.159449   5.886595   5.493430   3.614532   6.295597
    23  H    4.611911   0.970195   5.276119   5.658953   3.516904
                   16         17         18         19         20
    16  H    0.000000
    17  H    4.957373   0.000000
    18  H    4.211106   1.763135   0.000000
    19  H    4.888198   1.781755   1.781446   0.000000
    20  H    3.751077   5.098303   5.212214   4.486143   0.000000
    21  H    2.610009   4.510795   4.646552   4.471741   1.771392
    22  H    3.820079   3.410911   3.229799   2.249319   2.416360
    23  H    2.289433   6.759734   5.629103   6.661175   5.825087
                   21         22         23
    21  H    0.000000
    22  H    2.950199   0.000000
    23  H    4.830961   5.791470   0.000000
 Stoichiometry    C9H11NO2
 Framework group  C1[X(C9H11NO2)]
 Deg. of freedom    63
 Full point group                 C1      NOp   1
 Largest Abelian subgroup         C1      NOp   1
 Largest concise Abelian subgroup C1      NOp   1
                         Standard orientation:                         
 ---------------------------------------------------------------------
 Center     Atomic      Atomic             Coordinates (Angstroms)
 Number     Number       Type             X           Y           Z
 ---------------------------------------------------------------------
      1          6           0       -2.704312   -1.313180    0.456741
      2          6           0       -1.441155   -1.747475    0.041519
      3          6           0       -3.027796    0.039577    0.452592
      4          6           0       -0.811179    0.545474   -0.394156
      5          6           0       -0.488479   -0.818425   -0.384867
      6          6           0       -2.073313    0.971113    0.023290
      7          6           0        2.667250    0.248323    0.020788
      8          6           0        3.675530    0.496208    1.133373
      9          6           0        0.894726   -1.262357   -0.825003
     10          7           0        1.956266   -0.915601    0.119758
     11          8           0        2.519802    1.040799   -0.904804
     12          8           0       -2.436235    2.289843    0.030159
     13          1           0       -3.444142   -2.038255    0.785753
     14          1           0       -1.201207   -2.808081    0.044915
     15          1           0       -4.003835    0.393087    0.769575
     16          1           0       -0.066856    1.265524   -0.729364
     17          1           0        4.651292    0.697260    0.681912
     18          1           0        3.380477    1.394408    1.685734
     19          1           0        3.772724   -0.336745    1.836729
     20          1           0        0.912113   -2.347281   -0.973988
     21          1           0        1.167330   -0.785431   -1.769803
     22          1           0        2.013786   -1.445179    0.978273
     23          1           0       -1.691726    2.819222   -0.296555
 ---------------------------------------------------------------------
 Rotational constants (GHZ):      1.6423612      0.5390126      0.4483105
 Standard basis: 6-31G(d) (6D, 7F)
 There are   202 symmetry adapted basis functions of A   symmetry.
 Integral buffers will be    131072 words long.
 Raffenetti 1 integral format.
 Two-electron integral symmetry is turned on.
   202 basis functions,   380 primitive gaussians,   202 cartesian basis functions
    44 alpha electrons       44 beta electrons
       nuclear repulsion energy       667.1359845731 Hartrees.
 NAtoms=   23 NActive=   23 NUniq=   23 SFac= 1.00D+00 NAtFMM=   60 NAOKFM=F Big=F
 One-electron integrals computed using PRISM.
 NBasis=   202 RedAO= T  NBF=   202
 NBsUse=   202 1.00D-06 NBFU=   202
 Initial guess read from the checkpoint file:  frag57-conf1.chk
 B after Tr=     0.000000    0.000000    0.000000
         Rot=    1.000000    0.000000    0.000000    0.000000 Ang=   0.00 deg.
 Initial guess orbital symmetries:
       Occupied  (A) (A) (A) (A) (A) (A) (A) (A) (A) (A) (A) (A)
                 (A) (A) (A) (A) (A) (A) (A) (A) (A) (A) (A) (A)
                 (A) (A) (A) (A) (A) (A) (A) (A) (A) (A) (A) (A)
                 (A) (A) (A) (A) (A) (A) (A) (A)
       Virtual   (A) (A) (A) (A) (A) (A) (A) (A) (A) (A) (A) (A)
                 (A) (A) (A) (A) (A) (A) (A) (A) (A) (A) (A) (A)
                 (A) (A) (A) (A) (A) (A) (A) (A) (A) (A) (A) (A)
                 (A) (A) (A) (A) (A) (A) (A) (A) (A) (A) (A) (A)
                 (A) (A) (A) (A) (A) (A) (A) (A) (A) (A) (A) (A)
                 (A) (A) (A) (A) (A) (A) (A) (A) (A) (A) (A) (A)
                 (A) (A) (A) (A) (A) (A) (A) (A) (A) (A) (A) (A)
                 (A) (A) (A) (A) (A) (A) (A) (A) (A) (A) (A) (A)
                 (A) (A) (A) (A) (A) (A) (A) (A) (A) (A) (A) (A)
                 (A) (A) (A) (A) (A) (A) (A) (A) (A) (A) (A) (A)
                 (A) (A) (A) (A) (A) (A) (A) (A) (A) (A) (A) (A)
                 (A) (A) (A) (A) (A) (A) (A) (A) (A) (A) (A) (A)
                 (A) (A) (A) (A) (A) (A) (A) (A) (A) (A) (A) (A)
                 (A) (A)
 Requested convergence on RMS density matrix=1.00D-08 within 128 cycles.
 Requested convergence on MAX density matrix=1.00D-06.
 Requested convergence on             energy=1.00D-06.
 No special actions if energy rises.
 SCF Done:  E(RHF) =  -551.406569933     A.U. after   14 cycles
             Convg  =    0.4616D-08             -V/T =  2.0025

 **********************************************************************

            Population analysis using the SCF density.

 **********************************************************************

 Orbital symmetries:
 BldTbl:  Degeneracy threshold= 1.00D-02
       Occupied  (A) (A) (A) (A) (A) (A) (A) (A) (A) (A) (A) (A)
                 (A) (A) (A) (A) (A) (A) (A) (A) (A) (A) (A) (A)
                 (A) (A) (A) (A) (A) (A) (A) (A) (A) (A) (A) (A)
                 (A) (A) (A) (A) (A) (A) (A) (A)
       Virtual   (A) (A) (A) (A) (A) (A) (A) (A) (A) (A) (A) (A)
                 (A) (A) (A) (A) (A) (A) (A) (A) (A) (A) (A) (A)
                 (A) (A) (A) (A) (A) (A) (A) (A) (A) (A) (A) (A)
                 (A) (A) (A) (A) (A) (A) (A) (A) (A) (A) (A) (A)
                 (A) (A) (A) (A) (A) (A) (A) (A) (A) (A) (A) (A)
                 (A) (A) (A) (A) (A) (A) (A) (A) (A) (A) (A) (A)
                 (A) (A) (A) (A) (A) (A) (A) (A) (A) (A) (A) (A)
                 (A) (A) (A) (A) (A) (A) (A) (A) (A) (A) (A) (A)
                 (A) (A) (A) (A) (A) (A) (A) (A) (A) (A) (A) (A)
                 (A) (A) (A) (A) (A) (A) (A) (A) (A) (A) (A) (A)
                 (A) (A) (A) (A) (A) (A) (A) (A) (A) (A) (A) (A)
                 (A) (A) (A) (A) (A) (A) (A) (A) (A) (A) (A) (A)
                 (A) (A) (A) (A) (A) (A) (A) (A) (A) (A) (A) (A)
                 (A) (A)
 The electronic state is 1-A.
 Alpha  occ. eigenvalues --  -20.59147 -20.52495 -15.59450 -11.35887 -11.30172
 Alpha  occ. eigenvalues --  -11.27386 -11.24736 -11.24271 -11.24143 -11.22895
 Alpha  occ. eigenvalues --  -11.22783 -11.22721  -1.39680  -1.37617  -1.23217
 Alpha  occ. eigenvalues --   -1.14437  -1.04484  -1.00479  -1.00003  -0.92743
 Alpha  occ. eigenvalues --   -0.83775  -0.80801  -0.78531  -0.72282  -0.69767
 Alpha  occ. eigenvalues --   -0.67615  -0.65243  -0.64147  -0.62285  -0.59848
 Alpha  occ. eigenvalues --   -0.58668  -0.58194  -0.57982  -0.56895  -0.55900
 Alpha  occ. eigenvalues --   -0.53773  -0.51933  -0.50218  -0.49052  -0.47263
 Alpha  occ. eigenvalues --   -0.42237  -0.39239  -0.33201  -0.30920
 Alpha virt. eigenvalues --    0.13322   0.15924   0.19207   0.21366   0.22686
 Alpha virt. eigenvalues --    0.24659   0.26427   0.28442   0.30104   0.31134
 Alpha virt. eigenvalues --    0.32139   0.33249   0.33567   0.34635   0.36050
 Alpha virt. eigenvalues --    0.39409   0.42250   0.43578   0.45857   0.47524
 Alpha virt. eigenvalues --    0.48792   0.53017   0.53261   0.58584   0.61071
 Alpha virt. eigenvalues --    0.64272   0.71336   0.73140   0.73564   0.74412
 Alpha virt. eigenvalues --    0.75071   0.76516   0.77734   0.80088   0.81889
 Alpha virt. eigenvalues --    0.82109   0.83331   0.84261   0.85364   0.86687
 Alpha virt. eigenvalues --    0.88420   0.88522   0.90066   0.92466   0.95009
 Alpha virt. eigenvalues --    0.95923   0.98135   1.00517   1.00936   1.03084
 Alpha virt. eigenvalues --    1.06976   1.07243   1.09372   1.11121   1.11340
 Alpha virt. eigenvalues --    1.14229   1.14700   1.15961   1.17263   1.17786
 Alpha virt. eigenvalues --    1.18952   1.18966   1.19491   1.20623   1.21388
 Alpha virt. eigenvalues --    1.23631   1.24875   1.27274   1.30363   1.32956
 Alpha virt. eigenvalues --    1.37727   1.38549   1.40897   1.42488   1.46965
 Alpha virt. eigenvalues --    1.48592   1.50173   1.53064   1.55353   1.58545
 Alpha virt. eigenvalues --    1.61052   1.63437   1.64899   1.66871   1.71941
 Alpha virt. eigenvalues --    1.73364   1.75706   1.76545   1.77334   1.79686
 Alpha virt. eigenvalues --    1.82723   1.93278   1.99975   2.02660   2.03605
 Alpha virt. eigenvalues --    2.05197   2.08471   2.08859   2.11500   2.13074
 Alpha virt. eigenvalues --    2.14883   2.17534   2.19570   2.22369   2.23346
 Alpha virt. eigenvalues --    2.24762   2.27223   2.28223   2.29676   2.31695
 Alpha virt. eigenvalues --    2.36676   2.39320   2.42466   2.43192   2.46462
 Alpha virt. eigenvalues --    2.51148   2.53836   2.54004   2.56989   2.60620
 Alpha virt. eigenvalues --    2.62165   2.64866   2.66300   2.70517   2.72877
 Alpha virt. eigenvalues --    2.74218   2.76589   2.77670   2.83765   2.89958
 Alpha virt. eigenvalues --    2.91003   2.94762   2.98892   3.01724   3.03099
 Alpha virt. eigenvalues --    3.04571   3.12114   3.12780   3.19010   3.24257
 Alpha virt. eigenvalues --    3.25015   3.31901   3.36221   3.49274   3.50784
 Alpha virt. eigenvalues --    3.79648   4.35910   4.37840   4.47262   4.52312
 Alpha virt. eigenvalues --    4.56658   4.60076   4.63113   4.74743   4.81748
 Alpha virt. eigenvalues --    4.87564   4.92576   5.18655
          Condensed to atoms (all electrons):
              1          2          3          4          5          6
     1  C    4.875508   0.536157   0.552033  -0.032166  -0.041790  -0.038348
     2  C    0.536157   4.964470  -0.052541  -0.057409   0.575644  -0.029410
     3  C    0.552033  -0.052541   4.956887  -0.058779  -0.026745   0.567483
     4  C   -0.032166  -0.057409  -0.058779   5.141270   0.513548   0.539554
     5  C   -0.041790   0.575644  -0.026745   0.513548   4.862704  -0.033718
     6  C   -0.038348  -0.029410   0.567483   0.539554  -0.033718   4.402852
     7  C   -0.000002  -0.000071  -0.000001   0.002236  -0.002270   0.000087
     8  C    0.000000  -0.000007   0.000000   0.000005  -0.000422   0.000003
     9  C    0.002897  -0.034982   0.000284  -0.039881   0.326076   0.000561
    10  N   -0.000015  -0.001281   0.000002  -0.000239  -0.072029  -0.000009
    11  O    0.000000  -0.000034   0.000001  -0.002520  -0.003244   0.000158
    12  O    0.001784   0.000283  -0.046748  -0.052733   0.003683   0.258643
    13  H    0.380635  -0.029440  -0.028426   0.000223   0.002183   0.002068
    14  H   -0.028422   0.379892   0.002146   0.003039  -0.032771   0.000317
    15  H   -0.027936   0.002407   0.376779   0.003443  -0.000046  -0.029042
    16  H    0.000078   0.002392   0.002216   0.362674  -0.018472  -0.031132
    17  H    0.000000   0.000000   0.000000   0.000001  -0.000004   0.000000
    18  H    0.000000   0.000000   0.000000   0.000015   0.000046  -0.000001
    19  H    0.000000   0.000001   0.000000  -0.000006   0.000013   0.000000
    20  H    0.000202  -0.001028  -0.000018   0.003185  -0.058304   0.000042
    21  H   -0.000056   0.001518   0.000000  -0.002590  -0.040324  -0.000013
    22  H    0.000001   0.000798  -0.000006   0.000259   0.001461  -0.000006
    23  H   -0.000164   0.000006   0.004257   0.002093   0.000648  -0.032607
              7          8          9         10         11         12
     1  C   -0.000002   0.000000   0.002897  -0.000015   0.000000   0.001784
     2  C   -0.000071  -0.000007  -0.034982  -0.001281  -0.000034   0.000283
     3  C   -0.000001   0.000000   0.000284   0.000002   0.000001  -0.046748
     4  C    0.002236   0.000005  -0.039881  -0.000239  -0.002520  -0.052733
     5  C   -0.002270  -0.000422   0.326076  -0.072029  -0.003244   0.003683
     6  C    0.000087   0.000003   0.000561  -0.000009   0.000158   0.258643
     7  C    4.158944   0.360760  -0.025684   0.282654   0.566012   0.000000
     8  C    0.360760   5.243667   0.004499  -0.101674  -0.067517   0.000000
     9  C   -0.025684   0.004499   4.940716   0.189711   0.003999  -0.000044
    10  N    0.282654  -0.101674   0.189711   7.345989  -0.094854   0.000000
    11  O    0.566012  -0.067517   0.003999  -0.094854   8.210825   0.000000
    12  O    0.000000   0.000000  -0.000044   0.000000   0.000000   8.337620
    13  H    0.000000   0.000000  -0.000105   0.000002   0.000000  -0.000043
    14  H    0.000000   0.000000  -0.002748   0.000100   0.000000   0.000001
    15  H    0.000000   0.000000   0.000006   0.000000   0.000000  -0.000079
    16  H    0.000805   0.000174  -0.000652  -0.001955   0.010485  -0.002148
    17  H   -0.027578   0.381076  -0.000115   0.001907   0.001016   0.000000
    18  H   -0.027602   0.379568  -0.000106   0.001170   0.000361   0.000000
    19  H   -0.039065   0.374971   0.000033   0.005423   0.002484   0.000000
    20  H    0.002506  -0.000034   0.416422  -0.041287   0.000365   0.000000
    21  H   -0.000821   0.000318   0.408244  -0.042207   0.006765   0.000000
    22  H   -0.015806   0.000290  -0.021752   0.317408   0.002170   0.000000
    23  H    0.000000   0.000000  -0.000012   0.000001  -0.000011   0.264457
             13         14         15         16         17         18
     1  C    0.380635  -0.028422  -0.027936   0.000078   0.000000   0.000000
     2  C   -0.029440   0.379892   0.002407   0.002392   0.000000   0.000000
     3  C   -0.028426   0.002146   0.376779   0.002216   0.000000   0.000000
     4  C    0.000223   0.003039   0.003443   0.362674   0.000001   0.000015
     5  C    0.002183  -0.032771  -0.000046  -0.018472  -0.000004   0.000046
     6  C    0.002068   0.000317  -0.029042  -0.031132   0.000000  -0.000001
     7  C    0.000000   0.000000   0.000000   0.000805  -0.027578  -0.027602
     8  C    0.000000   0.000000   0.000000   0.000174   0.381076   0.379568
     9  C   -0.000105  -0.002748   0.000006  -0.000652  -0.000115  -0.000106
    10  N    0.000002   0.000100   0.000000  -0.001955   0.001907   0.001170
    11  O    0.000000   0.000000   0.000000   0.010485   0.001016   0.000361
    12  O   -0.000043   0.000001  -0.000079  -0.002148   0.000000   0.000000
    13  H    0.470877  -0.001307  -0.001774   0.000007   0.000000   0.000000
    14  H   -0.001307   0.484598  -0.000093  -0.000104   0.000000   0.000000
    15  H   -0.001774  -0.000093   0.458097  -0.000083   0.000000   0.000000
    16  H    0.000007  -0.000104  -0.000083   0.428428   0.000000  -0.000014
    17  H    0.000000   0.000000   0.000000   0.000000   0.474256  -0.019624
    18  H    0.000000   0.000000   0.000000  -0.000014  -0.019624   0.482968
    19  H    0.000000   0.000000   0.000000  -0.000008  -0.022673  -0.023042
    20  H   -0.000004   0.002671   0.000000  -0.000055   0.000006  -0.000001
    21  H    0.000002   0.000025   0.000000   0.000567   0.000006  -0.000009
    22  H    0.000000   0.000035   0.000000  -0.000043   0.000082  -0.000087
    23  H    0.000003   0.000000  -0.000159   0.003854   0.000000   0.000000
             19         20         21         22         23
     1  C    0.000000   0.000202  -0.000056   0.000001  -0.000164
     2  C    0.000001  -0.001028   0.001518   0.000798   0.000006
     3  C    0.000000  -0.000018   0.000000  -0.000006   0.004257
     4  C   -0.000006   0.003185  -0.002590   0.000259   0.002093
     5  C    0.000013  -0.058304  -0.040324   0.001461   0.000648
     6  C    0.000000   0.000042  -0.000013  -0.000006  -0.032607
     7  C   -0.039065   0.002506  -0.000821  -0.015806   0.000000
     8  C    0.374971  -0.000034   0.000318   0.000290   0.000000
     9  C    0.000033   0.416422   0.408244  -0.021752  -0.000012
    10  N    0.005423  -0.041287  -0.042207   0.317408   0.000001
    11  O    0.002484   0.000365   0.006765   0.002170  -0.000011
    12  O    0.000000   0.000000   0.000000   0.000000   0.264457
    13  H    0.000000  -0.000004   0.000002   0.000000   0.000003
    14  H    0.000000   0.002671   0.000025   0.000035   0.000000
    15  H    0.000000   0.000000   0.000000   0.000000  -0.000159
    16  H   -0.000008  -0.000055   0.000567  -0.000043   0.003854
    17  H   -0.022673   0.000006   0.000006   0.000082   0.000000
    18  H   -0.023042  -0.000001  -0.000009  -0.000087   0.000000
    19  H    0.531430  -0.000024  -0.000021   0.001143   0.000000
    20  H   -0.000024   0.508671  -0.020013  -0.001920   0.000000
    21  H   -0.000021  -0.020013   0.451802   0.002957   0.000001
    22  H    0.001143  -0.001920   0.002957   0.328515   0.000000
    23  H    0.000000   0.000000   0.000001   0.000000   0.297875
 Mulliken atomic charges:
              1
     1  C   -0.180394
     2  C   -0.257365
     3  C   -0.248822
     4  C   -0.325224
     5  C    0.044132
     6  C    0.422519
     7  C    0.764895
     8  C   -0.575678
     9  C   -0.167368
    10  N   -0.788816
    11  O   -0.636460
    12  O   -0.764678
    13  H    0.205100
    14  H    0.192623
    15  H    0.218482
    16  H    0.242987
    17  H    0.211645
    18  H    0.206357
    19  H    0.169341
    20  H    0.188618
    21  H    0.233850
    22  H    0.384499
    23  H    0.459758
 Sum of Mulliken atomic charges =   0.00000
 Mulliken charges with hydrogens summed into heavy atoms:
              1
     1  C    0.024706
     2  C   -0.064742
     3  C   -0.030340
     4  C   -0.082237
     5  C    0.044132
     6  C    0.422519
     7  C    0.764895
     8  C    0.011664
     9  C    0.255100
    10  N   -0.404317
    11  O   -0.636460
    12  O   -0.304920
 Sum of Mulliken charges with hydrogens summed into heavy atoms =   0.00000
 DipInt: DoE/N= T F RetVal/Mat= T F Init=T NMatP=  1 IDeriv=0 Min/MaxMlt=  0  4
 Entering OneElI...
 OneElI was handed    33447197 working-precision words.
 Multipole integrals L=0 to 4 MinM= 0 MaxM= 0.
 Requested accuracy = 0.1000D-12
 PrsmSu:  NPrtUS=   1 ThrOK=F IAlg=1 NPAlg=1 LenDen=           0.
 Prism:   IPart=     0 DynPar=F LinDyn=F Incr=          21.
 PRISM was handed    33252115 working-precision words and  2185 shell-pairs
 IPart=  0 NShTot=        2185 NBatch=          55 AvBLen=        39.7
 PrSmSu:  NxtVal=             22.
 Electronic moments (au):
        -88.00000000          0.53341566         -0.99989970          0.90891653
      -1773.80897387       -550.74923949       -183.55800132         -0.63307151
          5.15176757         -0.20768976      -1396.45092242       -164.17798470
        -42.83290856        963.15741126       -938.76283561      -1124.97229036
       -438.63125694         -1.94045695         61.65221981       -124.74432444
     -60778.85851242      -8223.22199698      -1289.33648242      -3203.11077052
      -3142.81149394       1859.99716741        -30.60802085       -540.73630419
       -138.31523650      -9507.33327773      -4839.59803307       -898.69972212
        168.45829175        452.30930033       -515.11203589
 Electronic spatial extent (au):  <R**2>=           2508.1162
 DipInt: DoE/N= F T RetVal/Mat= T F Init=T NMatP=  1 IDeriv=0 Min/MaxMlt=  0  4
 Nuclear    moments (au):
         88.00000000          0.00000000          0.00000000          0.00000000
       1720.81582073        501.85468409        129.68514192          0.00000000
          0.00000000          0.00000000       1431.43010355        178.76432839
         41.64382181       -959.61230579        905.08103370       1168.78513453
        449.53059781          3.73114997        -61.35841699        139.94908598
      54867.29814054       6587.33805953        652.34068293       3301.91643583
       3189.33819965      -1883.61107835        -27.21713024        556.11702581
        132.23027537       8048.01320890       3663.37462026        487.21436577
       -166.50228588       -406.93230805        465.92042884
 Total      moments (au):
          0.00000000          0.53341566         -0.99989970          0.90891653
        -52.99315314        -48.89455540        -53.87285940         -0.63307151
          5.15176757         -0.20768976         34.97918113         14.58634369
         -1.18908675          3.54510546        -33.68180192         43.81284417
         10.89934086          1.79069302          0.29380282         15.20476154
      -5911.56037188      -1635.88393745       -636.99579950         98.80566531
         46.52670571        -23.61391094        -57.82515109         15.38072162
         -6.08496113      -1459.32006884      -1176.22341281       -411.48535635
          1.95600587         45.37699228        -49.19160705
 Traceless Quadrup. (au):
         -1.07296383          3.02563391         -1.95267009         -0.63307151
          5.15176757         -0.20768976
 Charge=              0.0000 electrons
 Dipole moment (field-independent basis, Debye):
    X=              1.3558    Y=             -2.5415    Z=              2.3102  Tot=              3.6925
 Quadrupole moment (field-independent basis, Debye-Ang):
   XX=            -71.2776   YY=            -65.7648   ZZ=            -72.4608
   XY=             -0.8515   XZ=              6.9293   YZ=             -0.2793
 Traceless Quadrupole moment (field-independent basis, Debye-Ang):
   XX=             -1.4432   YY=              4.0696   ZZ=             -2.6264
   XY=             -0.8515   XZ=              6.9293   YZ=             -0.2793
 Octapole moment (field-independent basis, Debye-Ang**2):
  XXX=             24.8968  YYY=             10.3820  ZZZ=             -0.8463  XYY=              2.5233
  XXY=            -23.9734  XXZ=             31.1843  XZZ=              7.7577  YZZ=              1.2745
  YYZ=              0.2091  XYZ=             10.8222
 Hexadecapole moment (field-independent basis, Debye-Ang**3):
 XXXX=          -2226.5770 YYYY=           -616.1523 ZZZZ=           -239.9231 XXXY=             37.2149
 XXXZ=             17.5242 YYYX=             -8.8941 YYYZ=            -21.7797 ZZZX=              5.7931
 ZZZY=             -2.2919 XXYY=           -549.6499 XXZZ=           -443.0221 YYZZ=           -154.9851
 XXYZ=              0.7367 YYXZ=             17.0912 ZZXY=            -18.5279
 N-N= 6.671359845731D+02 E-N=-2.624950212707D+03  KE= 5.500354328387D+02
 Entering OneElI...
 OneElI was handed    33364812 working-precision words.
 Calculate electrostatic properties
    NBasis =   202  MinDer = 0  MaxDer = 0
    NGrid  =    23  NMatD  =   1
 Requested accuracy = 0.1000D-12
 PrsmSu:  NPrtUS=   2 ThrOK=T IAlg=1 NPAlg=1 LenDen=           0.
 Prism:   IPart=     0 DynPar=F LinDyn=F Incr=         233.
 PRISM was handed    16559600 working-precision words and  2027 shell-pairs
 PRISM was handed    16559600 working-precision words and  2027 shell-pairs
 IPart=  0 NShTot=       23529 NBatch=        1023 AvBLen=        23.0
 IPart=  1 NShTot=       23092 NBatch=        1004 AvBLen=        23.0
 PrSmSu:  NxtVal=            467.
 --------------------------------------------------------
       Center         ----      EFG at Nuclei      ----
                      3XX-RR        3YY-RR        3ZZ-RR
 --------------------------------------------------------
     1   Atom        0.122237      0.183117     -0.305354
     2   Atom        0.111829      0.080051     -0.191880
     3   Atom        0.051011      0.144605     -0.195616
     4   Atom        0.049501      0.117494     -0.166995
     5   Atom        0.098182      0.203826     -0.302008
     6   Atom        0.310362     -0.109357     -0.201004
     7   Atom       -0.135443      0.008526      0.126916
     8   Atom       -0.002587      0.025419     -0.022832
     9   Atom       -0.102087      0.118425     -0.016338
    10   Atom        0.209594     -0.033031     -0.176563
    11   Atom        0.541508     -0.056649     -0.484859
    12   Atom        0.111817     -1.531964      1.420147
    13   Atom       -0.062663     -0.057258      0.119921
    14   Atom        0.120394     -0.286576      0.166182
    15   Atom       -0.222686      0.096634      0.126052
    16   Atom       -0.055176     -0.066277      0.121453
    17   Atom       -0.208468      0.138968      0.069501
    18   Atom        0.113407     -0.147048      0.033641
    19   Atom        0.143865     -0.112252     -0.031612
    20   Atom        0.138996     -0.279972      0.140975
    21   Atom        0.111872      0.074022     -0.185893
    22   Atom        0.195847      0.032312     -0.228159
    23   Atom       -0.171093     -0.000996      0.172089
 --------------------------------------------------------
                        XY            XZ            YZ
 --------------------------------------------------------
     1   Atom       -0.047494     -0.173443     -0.032297
     2   Atom        0.002745     -0.122812     -0.025096
     3   Atom       -0.025352     -0.100198     -0.025679
     4   Atom       -0.022551     -0.090029     -0.019206
     5   Atom        0.019686     -0.153805     -0.058326
     6   Atom        0.104653     -0.223980     -0.053915
     7   Atom        0.232395      0.350831     -0.245792
     8   Atom       -0.003221     -0.053811     -0.000110
     9   Atom       -0.038230     -0.197225     -0.119696
    10   Atom       -0.571737     -0.486170      0.379331
    11   Atom        0.985515      0.597715      0.673748
    12   Atom       -0.401736      0.627531      0.460585
    13   Atom       -0.204465      0.099253      0.092885
    14   Atom        0.098563      0.009115      0.003673
    15   Atom        0.131037      0.128026     -0.040395
    16   Atom       -0.192073      0.098609      0.091503
    17   Atom       -0.073446      0.160682      0.031870
    18   Atom        0.100035      0.055663     -0.185994
    19   Atom        0.020994     -0.030247      0.217263
    20   Atom        0.005531     -0.005633     -0.058608
    21   Atom       -0.043064      0.083822      0.158833
    22   Atom       -0.016313     -0.053503      0.267773
    23   Atom       -0.263367      0.181525      0.121771
 --------------------------------------------------------


 ---------------------------------------------------------------------------------
              Nuclear Quadrupole in Principal Axis System
 ---------------------------------------------------------------------------------

       Atom             a.u.   MegaHertz   Gauss  10(-4) cm-1        Axes

              Baa    -0.3707   -49.751   -17.752   -16.595  0.3379  0.0836  0.9375
     1 C(13)  Bbb     0.1515    20.328     7.253     6.781  0.6616  0.6873 -0.2998
              Bcc     0.2193    29.423    10.499     9.814 -0.6694  0.7215  0.1769
 
              Baa    -0.2370   -31.798   -11.346   -10.607  0.3308  0.0716  0.9410
     2 C(13)  Bbb     0.0801    10.748     3.835     3.585 -0.1594  0.9870 -0.0191
              Bcc     0.1569    21.050     7.511     7.021  0.9302  0.1436 -0.3379
 
              Baa    -0.2340   -31.403   -11.205   -10.475  0.3372  0.0862  0.9375
     3 C(13)  Bbb     0.0830    11.136     3.974     3.715  0.9091  0.2290 -0.3481
              Bcc     0.1510    20.267     7.232     6.760 -0.2447  0.9696 -0.0011
 
              Baa    -0.2016   -27.056    -9.654    -9.025  0.3428  0.0806  0.9360
     4 C(13)  Bbb     0.0770    10.335     3.688     3.448  0.8791  0.3238 -0.3498
              Bcc     0.1246    16.720     5.966     5.577 -0.3312  0.9427  0.0402
 
              Baa    -0.3586   -48.115   -17.169   -16.050  0.3146  0.0870  0.9452
     5 C(13)  Bbb     0.1322    17.738     6.329     5.917  0.8640 -0.4386 -0.2471
              Bcc     0.2264    30.378    10.840    10.133  0.3931  0.8944 -0.2132
 
              Baa    -0.2864   -38.434   -13.714   -12.820  0.3367  0.0865  0.9376
     6 C(13)  Bbb    -0.1340   -17.981    -6.416    -5.998 -0.2322  0.9726 -0.0063
              Bcc     0.4204    56.416    20.130    18.818  0.9125  0.2156 -0.3476
 
              Baa    -0.5700   -76.483   -27.291   -25.512  0.6900 -0.4997 -0.5236
     7 C(13)  Bbb     0.1795    24.088     8.595     8.035  0.5703  0.8208 -0.0318
              Bcc     0.3905    52.396    18.696    17.477  0.4457 -0.2767  0.8514
 
              Baa    -0.0675    -9.060    -3.233    -3.022  0.6386  0.0230  0.7692
     8 C(13)  Bbb     0.0251     3.372     1.203     1.125  0.0939  0.9898 -0.1076
              Bcc     0.0424     5.688     2.030     1.897  0.7638 -0.1409 -0.6299
 
              Baa    -0.2888   -38.756   -13.829   -12.927  0.7263  0.2557  0.6381
     9 C(13)  Bbb     0.0774    10.392     3.708     3.466 -0.6086  0.6706  0.4240
              Bcc     0.2114    28.364    10.121     9.461  0.3195  0.6963 -0.6427
 
              Baa    -0.5086   -19.615    -6.999    -6.543  0.6749  0.2608  0.6903
    10 N(14)  Bbb    -0.4882   -18.827    -6.718    -6.280  0.2615  0.7903 -0.5541
              Bcc     0.9967    38.442    13.717    12.823  0.6900 -0.5545 -0.4652
 
              Baa    -0.9938    71.912    25.660    23.987  0.1587 -0.6809  0.7150
    11 O(17)  Bbb    -0.6465    46.782    16.693    15.605  0.6719 -0.4561 -0.5835
              Bcc     1.6403  -118.694   -42.353   -39.592  0.7234  0.5730  0.3851
 
              Baa    -1.7399   125.900    44.924    41.996  0.2695  0.9438 -0.1911
    12 O(17)  Bbb     0.0424    -3.066    -1.094    -1.023  0.8984 -0.3179 -0.3029
              Bcc     1.6976  -122.835   -43.830   -40.973  0.3467  0.0900  0.9337
 
              Baa    -0.3076  -164.140   -58.569   -54.751  0.6800  0.6677 -0.3029
    13 H(1)   Bbb     0.1439    76.784    27.398    25.612 -0.6518  0.7397  0.1672
              Bcc     0.1637    87.356    31.171    29.139  0.3357  0.0838  0.9382
 
              Baa    -0.3092  -164.972   -58.866   -55.029 -0.2236  0.9747 -0.0032
    14 H(1)   Bbb     0.1395    74.420    26.555    24.824  0.9163  0.2090 -0.3416
              Bcc     0.1697    90.552    32.311    30.205  0.3322  0.0793  0.9399
 
              Baa    -0.3108  -165.816   -59.167   -55.310  0.9011 -0.3190 -0.2936
    15 H(1)   Bbb     0.1426    76.066    27.142    25.373  0.2741  0.9439 -0.1842
              Bcc     0.1682    89.750    32.025    29.938  0.3359  0.0855  0.9380
 
              Baa    -0.2961  -157.992   -56.375   -52.700  0.6669  0.6793 -0.3063
    16 H(1)   Bbb     0.1302    69.449    24.781    23.166 -0.6608  0.7291  0.1781
              Bcc     0.1659    88.543    31.594    29.535  0.3443  0.0837  0.9351
 
              Baa    -0.2966  -158.275   -56.477   -52.795  0.8947  0.1807 -0.4084
    17 H(1)   Bbb     0.1428    76.166    27.178    25.406  0.3884  0.1363  0.9113
              Bcc     0.1539    82.109    29.299    27.389 -0.2204  0.9740 -0.0517
 
              Baa    -0.2955  -157.640   -56.250   -52.583 -0.2693  0.8182  0.5080
    18 H(1)   Bbb     0.1416    75.540    26.955    25.198  0.8001 -0.1034  0.5908
              Bcc     0.1539    82.099    29.295    27.385 -0.5359 -0.5656  0.6268
 
              Baa    -0.2958  -157.809   -56.310   -52.639 -0.0805  0.7653 -0.6386
    19 H(1)   Bbb     0.1380    73.638    26.276    24.563  0.7449  0.4719  0.4717
              Bcc     0.1578    84.171    30.034    28.076  0.6623 -0.4377 -0.6080
 
              Baa    -0.2880  -153.680   -54.837   -51.262 -0.0110  0.9908  0.1352
    20 H(1)   Bbb     0.1360    72.547    25.887    24.199  0.8992 -0.0493  0.4347
              Bcc     0.1521    81.133    28.950    27.063 -0.4374 -0.1264  0.8904
 
              Baa    -0.2836  -151.312   -53.992   -50.472 -0.2317 -0.4180  0.8784
    21 H(1)   Bbb     0.1337    71.362    25.464    23.804  0.9558  0.0703  0.2856
              Bcc     0.1498    79.950    28.528    26.668 -0.1811  0.9057  0.3833
 
              Baa    -0.3980  -212.337   -75.767   -70.828  0.0620 -0.5257  0.8484
    22 H(1)   Bbb     0.1568    83.687    29.862    27.915  0.7128  0.6184  0.3310
              Bcc     0.2411   128.650    45.905    42.913  0.6986 -0.5842 -0.4130
 
              Baa    -0.4407  -235.124   -83.898   -78.429  0.7642  0.5507 -0.3358
    23 H(1)   Bbb     0.1897   101.211    36.115    33.760 -0.5449  0.8297  0.1209
              Bcc     0.2510   133.913    47.783    44.668  0.3452  0.0906  0.9341
 

 ---------------------------------------------------------------------------------

 No NMR shielding tensors so no spin-rotation constants.
 Leave Link  601 at Sat Feb 17 21:08:01 2018, MaxMem=   33554432 cpu:       0.5
 Merz-Kollman atomic radii used.
 Read replacement radii for each type of atom:
 Atom Element Radius
    1     6    1.50
    2     6    1.50
    3     6    1.50
    4     6    1.50
    5     6    1.50
    6     6    1.50
    7     6    1.50
    8     6    1.50
    9     6    1.50
   10     7    1.50
   11     8    1.40
   12     8    1.40
   13     1    1.20
   14     1    1.20
   15     1    1.20
   16     1    1.20
   17     1    1.20
   18     1    1.20
   19     1    1.20
   20     1    1.20
   21     1    1.20
   22     1    1.20
   23     1    1.20
 Generate VDW surfaces: Layer= 4 Dens= 1 Start= 1.400 Inc= 0.200

 **********************************************************************

            Electrostatic Properties Using The SCF Density

 **********************************************************************

       Atomic Center    1 is at  -2.704312 -1.313180  0.456741
       Atomic Center    2 is at  -1.441155 -1.747475  0.041519
       Atomic Center    3 is at  -3.027796  0.039577  0.452592
       Atomic Center    4 is at  -0.811179  0.545474 -0.394156
       Atomic Center    5 is at  -0.488479 -0.818425 -0.384867
       Atomic Center    6 is at  -2.073313  0.971113  0.023290
       Atomic Center    7 is at   2.667250  0.248323  0.020788
       Atomic Center    8 is at   3.675530  0.496208  1.133373
       Atomic Center    9 is at   0.894726 -1.262357 -0.825003
       Atomic Center   10 is at   1.956266 -0.915601  0.119758
       Atomic Center   11 is at   2.519802  1.040799 -0.904804
       Atomic Center   12 is at  -2.436235  2.289843  0.030159
       Atomic Center   13 is at  -3.444142 -2.038255  0.785753
       Atomic Center   14 is at  -1.201207 -2.808081  0.044915
       Atomic Center   15 is at  -4.003835  0.393087  0.769575
       Atomic Center   16 is at  -0.066856  1.265524 -0.729364
       Atomic Center   17 is at   4.651292  0.697260  0.681912
       Atomic Center   18 is at   3.380477  1.394408  1.685734
       Atomic Center   19 is at   3.772724 -0.336745  1.836729
       Atomic Center   20 is at   0.912113 -2.347281 -0.973988
       Atomic Center   21 is at   1.167330 -0.785431 -1.769803
       Atomic Center   22 is at   2.013786 -1.445179  0.978273
       Atomic Center   23 is at  -1.691726  2.819222 -0.296555
      ESP Fit Center   24 is at  -2.704312 -1.313180  2.556741
      ESP Fit Center   25 is at  -1.654312 -1.313180  2.275395
      ESP Fit Center   26 is at  -3.754312 -1.313180  2.275395
      ESP Fit Center   27 is at  -2.179312 -2.222507  2.275395
      ESP Fit Center   28 is at  -4.449298 -1.825554 -0.593259
      ESP Fit Center   29 is at  -2.963134 -3.113323 -0.593259
      ESP Fit Center   30 is at  -3.754312 -1.313180 -1.361912
      ESP Fit Center   31 is at  -3.229312 -2.222507 -1.361912
      ESP Fit Center   32 is at  -2.704312 -1.313180 -1.643259
      ESP Fit Center   33 is at  -1.441155 -1.747475  2.141519
      ESP Fit Center   34 is at  -0.391155 -1.747475  1.860173
      ESP Fit Center   35 is at  -0.916155 -0.838149  1.860173
      ESP Fit Center   36 is at  -0.916155 -2.656802  1.860173
      ESP Fit Center   37 is at  -2.632119 -3.121922 -1.008481
      ESP Fit Center   38 is at  -2.491155 -1.747475 -1.777134
      ESP Fit Center   39 is at  -1.966155 -2.656802 -1.777134
      ESP Fit Center   40 is at  -0.916155 -2.656802 -1.777134
      ESP Fit Center   41 is at  -1.441155 -1.747475 -2.058481
      ESP Fit Center   42 is at  -3.027796  0.039577  2.552592
      ESP Fit Center   43 is at  -1.977796  0.039577  2.271246
      ESP Fit Center   44 is at  -2.502796  0.948903  2.271246
      ESP Fit Center   45 is at  -4.218760  1.414023 -0.597408
      ESP Fit Center   46 is at  -4.772781 -0.472797 -0.597408
      ESP Fit Center   47 is at  -4.077796  0.039577 -1.366061
      ESP Fit Center   48 is at  -3.027796  0.039577 -1.647408
      ESP Fit Center   49 is at  -0.811179  0.545474  1.705844
      ESP Fit Center   50 is at   0.238821  0.545474  1.424497
      ESP Fit Center   51 is at  -0.286179  1.454801  1.424497
      ESP Fit Center   52 is at  -1.336179  1.454801 -2.212809
      ESP Fit Center   53 is at  -1.861179  0.545474 -2.212809
      ESP Fit Center   54 is at  -0.811179  0.545474 -2.494156
      ESP Fit Center   55 is at  -0.488479 -0.818425  1.715133
      ESP Fit Center   56 is at  -1.538479 -0.818425 -2.203520
      ESP Fit Center   57 is at  -1.013479 -1.727752 -2.203520
      ESP Fit Center   58 is at  -0.488479 -0.818425 -2.484867
      ESP Fit Center   59 is at  -2.073313  0.971113  2.123290
      ESP Fit Center   60 is at  -1.023313  0.971113  1.841943
      ESP Fit Center   61 is at  -1.548313  1.880440  1.841943
      ESP Fit Center   62 is at  -3.123313  0.971113 -1.795363
      ESP Fit Center   63 is at  -2.598313  0.061787 -1.795363
      ESP Fit Center   64 is at  -2.073313  0.971113 -2.076710
      ESP Fit Center   65 is at   1.617250  0.248323  1.839441
      ESP Fit Center   66 is at   1.476285  1.622770  1.070788
      ESP Fit Center   67 is at   0.922265  0.760697  1.070788
      ESP Fit Center   68 is at   4.485903  0.248323 -1.029212
      ESP Fit Center   69 is at   4.197199 -0.734915 -1.029212
      ESP Fit Center   70 is at   3.192250 -0.661003 -1.797865
      ESP Fit Center   71 is at   4.725530  0.496208  2.952026
      ESP Fit Center   72 is at   2.625530  0.496208  2.952026
      ESP Fit Center   73 is at   5.494183  0.496208  2.183373
      ESP Fit Center   74 is at   5.205479  1.479447  2.183373
      ESP Fit Center   75 is at   1.930545 -0.016165  2.183373
      ESP Fit Center   76 is at   4.431026 -1.158097  0.083373
      ESP Fit Center   77 is at   2.424675 -2.245595 -1.875003
      ESP Fit Center   78 is at   0.369726 -2.171683 -2.643656
      ESP Fit Center   79 is at   1.431266 -0.006275  1.938412
      ESP Fit Center   80 is at   0.765302  0.458845  1.169758
      ESP Fit Center   81 is at   2.209393 -3.000290  0.119758
      ESP Fit Center   82 is at   3.149202 -2.643867  0.119758
      ESP Fit Center   83 is at   3.815724 -1.891520  0.119758
      ESP Fit Center   84 is at   2.711762 -2.569907 -0.930242
      ESP Fit Center   85 is at   3.486215 -1.898840 -0.930242
      ESP Fit Center   86 is at   3.006266 -0.915601 -1.698895
      ESP Fit Center   87 is at   3.044331  2.655131  0.075196
      ESP Fit Center   88 is at   1.995274  2.655131  0.075196
      ESP Fit Center   89 is at   4.217212  2.020799 -0.904804
      ESP Fit Center   90 is at   3.499802  2.738209 -0.904804
      ESP Fit Center   91 is at   2.519802  3.000799 -0.904804
      ESP Fit Center   92 is at   1.539802  2.738209 -0.904804
      ESP Fit Center   93 is at   4.217212  1.040799 -1.884804
      ESP Fit Center   94 is at   3.893036  2.038511 -1.884804
      ESP Fit Center   95 is at   3.044331  2.655131 -1.884804
      ESP Fit Center   96 is at   1.995274  2.655131 -1.884804
      ESP Fit Center   97 is at   1.146569  2.038511 -1.884804
      ESP Fit Center   98 is at   3.044331 -0.573534 -1.884804
      ESP Fit Center   99 is at   3.893036  0.043086 -1.884804
      ESP Fit Center  100 is at   3.499802  1.040799 -2.602214
      ESP Fit Center  101 is at   3.009802  1.889504 -2.602214
      ESP Fit Center  102 is at   2.029802  1.889504 -2.602214
      ESP Fit Center  103 is at   1.539802  1.040799 -2.602214
      ESP Fit Center  104 is at   3.009802  0.192094 -2.602214
      ESP Fit Center  105 is at   2.519802  1.040799 -2.864804
      ESP Fit Center  106 is at  -2.436235  2.289843  1.990159
      ESP Fit Center  107 is at  -1.456235  2.289843  1.727569
      ESP Fit Center  108 is at  -1.946235  3.138548  1.727569
      ESP Fit Center  109 is at  -2.926235  3.138548  1.727569
      ESP Fit Center  110 is at  -3.416235  2.289843  1.727569
      ESP Fit Center  111 is at  -0.738825  2.289843  1.010159
      ESP Fit Center  112 is at  -1.911706  3.904175  1.010159
      ESP Fit Center  113 is at  -2.960763  3.904175  1.010159
      ESP Fit Center  114 is at  -3.809468  3.287555  1.010159
      ESP Fit Center  115 is at  -4.133645  2.289843  1.010159
      ESP Fit Center  116 is at  -3.416235  3.987253  0.030159
      ESP Fit Center  117 is at  -4.133645  3.269843  0.030159
      ESP Fit Center  118 is at  -4.396235  2.289843  0.030159
      ESP Fit Center  119 is at  -2.960763  3.904175 -0.949841
      ESP Fit Center  120 is at  -3.809468  3.287555 -0.949841
      ESP Fit Center  121 is at  -4.133645  2.289843 -0.949841
      ESP Fit Center  122 is at  -2.926235  3.138548 -1.667251
      ESP Fit Center  123 is at  -3.416235  2.289843 -1.667251
      ESP Fit Center  124 is at  -2.436235  2.289843 -1.929841
      ESP Fit Center  125 is at  -3.444142 -2.038255  2.465753
      ESP Fit Center  126 is at  -4.243029 -1.457829  2.144901
      ESP Fit Center  127 is at  -4.243029 -2.618681  2.144901
      ESP Fit Center  128 is at  -3.138994 -2.977404  2.144901
      ESP Fit Center  129 is at  -4.945559 -1.491784  1.304901
      ESP Fit Center  130 is at  -4.945559 -2.584726  1.304901
      ESP Fit Center  131 is at  -4.243029 -3.421969  1.304901
      ESP Fit Center  132 is at  -3.166691 -3.611756  1.304901
      ESP Fit Center  133 is at  -4.945559 -1.491784  0.266604
      ESP Fit Center  134 is at  -4.945559 -2.584726  0.266604
      ESP Fit Center  135 is at  -4.243029 -3.421969  0.266604
      ESP Fit Center  136 is at  -3.166691 -3.611756  0.266604
      ESP Fit Center  137 is at  -4.243029 -2.618681 -0.573396
      ESP Fit Center  138 is at  -0.213728 -2.808081  1.404064
      ESP Fit Center  139 is at  -2.000095 -3.388507  1.404064
      ESP Fit Center  140 is at  -0.896059 -3.747230  1.404064
      ESP Fit Center  141 is at   0.396568 -2.808081  0.564064
      ESP Fit Center  142 is at  -2.000095 -4.191795  0.564064
      ESP Fit Center  143 is at  -0.923757 -4.381582  0.564064
      ESP Fit Center  144 is at   0.022759 -3.835111  0.564064
      ESP Fit Center  145 is at  -2.702625 -3.354552 -0.474233
      ESP Fit Center  146 is at  -2.000095 -4.191795 -0.474233
      ESP Fit Center  147 is at  -0.923757 -4.381582 -0.474233
      ESP Fit Center  148 is at   0.022759 -3.835111 -0.474233
      ESP Fit Center  149 is at  -2.000095 -3.388507 -1.314233
      ESP Fit Center  150 is at  -0.896059 -3.747230 -1.314233
      ESP Fit Center  151 is at  -4.003835  0.393087  2.449575
      ESP Fit Center  152 is at  -3.698687  1.332235  2.128724
      ESP Fit Center  153 is at  -4.802723  0.973512  2.128724
      ESP Fit Center  154 is at  -4.802723 -0.187339  2.128724
      ESP Fit Center  155 is at  -4.802723  1.776800  1.288724
      ESP Fit Center  156 is at  -5.505252  0.939558  1.288724
      ESP Fit Center  157 is at  -5.505252 -0.153384  1.288724
      ESP Fit Center  158 is at  -4.802723 -0.990627  1.288724
      ESP Fit Center  159 is at  -4.802723  1.776800  0.250426
      ESP Fit Center  160 is at  -5.505252  0.939558  0.250426
      ESP Fit Center  161 is at  -5.505252 -0.153384  0.250426
      ESP Fit Center  162 is at  -4.802723  0.973512 -0.589574
      ESP Fit Center  163 is at   0.920623  1.265524  0.629785
      ESP Fit Center  164 is at   0.238292  2.204672  0.629785
      ESP Fit Center  165 is at   1.157110  2.292554 -0.210215
      ESP Fit Center  166 is at   0.210594  2.839025 -0.210215
      ESP Fit Center  167 is at   0.210594  2.839025 -1.248512
      ESP Fit Center  168 is at   0.920623  1.265524 -2.088512
      ESP Fit Center  169 is at   0.238292  2.204672 -2.088512
      ESP Fit Center  170 is at  -0.865744  1.845949 -2.088512
      ESP Fit Center  171 is at  -0.066856  1.265524 -2.409364
      ESP Fit Center  172 is at   5.638771  0.697260  2.041060
      ESP Fit Center  173 is at   6.249067  0.697260  1.201060
      ESP Fit Center  174 is at   5.875259  1.724290  1.201060
      ESP Fit Center  175 is at   4.928743  2.270761  1.201060
      ESP Fit Center  176 is at   5.875259 -0.329770  1.201060
      ESP Fit Center  177 is at   6.249067  0.697260  0.162763
      ESP Fit Center  178 is at   5.875259  1.724290  0.162763
      ESP Fit Center  179 is at   4.928743  2.270761  0.162763
      ESP Fit Center  180 is at   5.875259 -0.329770  0.162763
      ESP Fit Center  181 is at   5.638771  0.697260 -0.677237
      ESP Fit Center  182 is at   4.956440  1.636409 -0.677237
      ESP Fit Center  183 is at   4.956440 -0.241888 -0.677237
      ESP Fit Center  184 is at   4.651292  0.697260 -0.998088
      ESP Fit Center  185 is at   3.380477  1.394408  3.365734
      ESP Fit Center  186 is at   4.367956  1.394408  3.044882
      ESP Fit Center  187 is at   3.685625  2.333557  3.044882
      ESP Fit Center  188 is at   2.581589  1.974834  3.044882
      ESP Fit Center  189 is at   2.581589  0.813982  3.044882
      ESP Fit Center  190 is at   4.604443  2.421438  2.204882
      ESP Fit Center  191 is at   3.657927  2.967909  2.204882
      ESP Fit Center  192 is at   2.581589  2.778122  2.204882
      ESP Fit Center  193 is at   1.879059  1.940879  2.204882
      ESP Fit Center  194 is at   1.879059  0.847937  2.204882
      ESP Fit Center  195 is at   4.604443  2.421438  1.166585
      ESP Fit Center  196 is at   3.657927  2.967909  1.166585
      ESP Fit Center  197 is at   2.581589  2.778122  1.166585
      ESP Fit Center  198 is at   1.879059  1.940879  1.166585
      ESP Fit Center  199 is at   3.772724 -0.336745  3.516729
      ESP Fit Center  200 is at   4.760204 -0.336745  3.195877
      ESP Fit Center  201 is at   4.077872  0.602403  3.195877
      ESP Fit Center  202 is at   2.973837  0.243680  3.195877
      ESP Fit Center  203 is at   2.973837 -0.917171  3.195877
      ESP Fit Center  204 is at   4.077872 -1.275894  3.195877
      ESP Fit Center  205 is at   5.370499 -0.336745  2.355877
      ESP Fit Center  206 is at   2.973837 -1.720459  2.355877
      ESP Fit Center  207 is at   4.050175 -1.910246  2.355877
      ESP Fit Center  208 is at   4.996691 -1.363775  2.355877
      ESP Fit Center  209 is at   4.050175 -1.910246  1.317580
      ESP Fit Center  210 is at   4.996691 -1.363775  1.317580
      ESP Fit Center  211 is at   1.217261 -3.286429  0.385161
      ESP Fit Center  212 is at   0.113225 -3.730995 -0.454839
      ESP Fit Center  213 is at   1.189563 -3.920782 -0.454839
      ESP Fit Center  214 is at   2.136079 -3.374311 -0.454839
      ESP Fit Center  215 is at   0.113225 -3.730995 -1.493136
      ESP Fit Center  216 is at   1.189563 -3.920782 -1.493136
      ESP Fit Center  217 is at   2.136079 -3.374311 -1.493136
      ESP Fit Center  218 is at   1.899592 -2.347281 -2.333136
      ESP Fit Center  219 is at   0.113225 -2.927707 -2.333136
      ESP Fit Center  220 is at   1.217261 -3.286429 -2.333136
      ESP Fit Center  221 is at   0.912113 -2.347281 -2.653988
      ESP Fit Center  222 is at   2.765105 -0.785431 -2.288951
      ESP Fit Center  223 is at   0.368442  0.598282 -2.288951
      ESP Fit Center  224 is at   2.391297 -1.812461 -2.288951
      ESP Fit Center  225 is at   2.154809 -0.785431 -3.128951
      ESP Fit Center  226 is at   1.472478  0.153717 -3.128951
      ESP Fit Center  227 is at   0.368442 -0.205006 -3.128951
      ESP Fit Center  228 is at   0.368442 -1.365857 -3.128951
      ESP Fit Center  229 is at   1.472478 -1.724580 -3.128951
      ESP Fit Center  230 is at   1.167330 -0.785431 -3.449803
      ESP Fit Center  231 is at   2.013786 -1.445179  2.658273
      ESP Fit Center  232 is at   1.214899 -0.864754  2.337422
      ESP Fit Center  233 is at   1.214899 -2.025605  2.337422
      ESP Fit Center  234 is at   2.318934 -2.384328  2.337422
      ESP Fit Center  235 is at   0.512369 -1.991651  1.497422
      ESP Fit Center  236 is at   1.214899 -2.828893  1.497422
      ESP Fit Center  237 is at   2.291237 -3.018681  1.497422
      ESP Fit Center  238 is at   3.237753 -2.472209  1.497422
      ESP Fit Center  239 is at   2.291237 -3.018681  0.459125
      ESP Fit Center  240 is at  -0.704247  2.819222  1.062593
      ESP Fit Center  241 is at  -1.386578  3.758370  1.062593
      ESP Fit Center  242 is at  -0.093951  2.819222  0.222593
      ESP Fit Center  243 is at  -0.467759  3.846252  0.222593
      ESP Fit Center  244 is at  -1.414275  4.392723  0.222593
      ESP Fit Center  245 is at  -0.467759  3.846252 -0.815704
      ESP Fit Center  246 is at  -1.414275  4.392723 -0.815704
      ESP Fit Center  247 is at  -2.490614  4.202936 -0.815704
      ESP Fit Center  248 is at  -0.704247  2.819222 -1.655704
      ESP Fit Center  249 is at  -1.386578  3.758370 -1.655704
      ESP Fit Center  250 is at  -2.490614  3.399648 -1.655704
      ESP Fit Center  251 is at  -1.691726  2.819222 -1.976555
      ESP Fit Center  252 is at  -2.704312 -1.313180  2.856741
      ESP Fit Center  253 is at  -1.662992 -1.313180  2.619067
      ESP Fit Center  254 is at  -3.745633 -1.313180  2.619067
      ESP Fit Center  255 is at  -2.183652 -2.214991  2.619067
      ESP Fit Center  256 is at  -1.125788 -0.298724  1.953117
      ESP Fit Center  257 is at  -5.044139 -1.313180 -0.077309
      ESP Fit Center  258 is at  -4.504701 -1.841822 -1.039634
      ESP Fit Center  259 is at  -3.933090 -2.731266 -1.039634
      ESP Fit Center  260 is at  -3.745633 -1.313180 -1.705584
      ESP Fit Center  261 is at  -3.224973 -2.214991 -1.705584
      ESP Fit Center  262 is at  -0.399834 -1.747475  2.203845
      ESP Fit Center  263 is at  -0.920494 -0.845665  2.203845
      ESP Fit Center  264 is at  -0.920494 -2.649286  2.203845
      ESP Fit Center  265 is at   0.137370 -2.761932  1.537895
      ESP Fit Center  266 is at  -2.900013 -3.576826 -0.492531
      ESP Fit Center  267 is at  -2.669932 -3.165561 -1.454856
      ESP Fit Center  268 is at  -2.482476 -1.747475 -2.120806
      ESP Fit Center  269 is at  -1.961815 -2.649286 -2.120806
      ESP Fit Center  270 is at  -0.920494 -2.649286 -2.120806
      ESP Fit Center  271 is at  -3.027796  0.039577  2.852592
      ESP Fit Center  272 is at  -1.986475  0.039577  2.614917
      ESP Fit Center  273 is at  -2.507135  0.941387  2.614917
      ESP Fit Center  274 is at  -3.548456  0.941387  2.614917
      ESP Fit Center  275 is at  -5.135907 -0.975636 -0.081458
      ESP Fit Center  276 is at  -4.256573  1.457662 -1.043783
      ESP Fit Center  277 is at  -4.828184  0.568218 -1.043783
      ESP Fit Center  278 is at  -4.828184 -0.489065 -1.043783
      ESP Fit Center  279 is at  -4.069117  0.039577 -1.709733
      ESP Fit Center  280 is at   0.230142  0.545474  1.768169
      ESP Fit Center  281 is at  -0.290518  1.447284  1.768169
      ESP Fit Center  282 is at   0.767346  1.559930  1.102220
      ESP Fit Center  283 is at  -0.031696  2.252303  1.102220
      ESP Fit Center  284 is at  -1.331839  1.447284 -2.556481
      ESP Fit Center  285 is at  -1.852500  0.545474 -2.556481
      ESP Fit Center  286 is at  -0.811179  0.545474 -2.794156
      ESP Fit Center  287 is at  -1.529800 -0.818425 -2.547192
      ESP Fit Center  288 is at  -1.009139 -1.720235 -2.547192
      ESP Fit Center  289 is at  -0.488479 -0.818425 -2.784867
      ESP Fit Center  290 is at  -1.031992  0.971113  2.185615
      ESP Fit Center  291 is at  -1.552653  1.872924  2.185615
      ESP Fit Center  292 is at  -0.494789  1.985570  1.519665
      ESP Fit Center  293 is at  -3.114634  0.971113 -2.139035
      ESP Fit Center  294 is at  -2.593974  0.069303 -2.139035
      ESP Fit Center  295 is at   1.438472  1.666409  1.517163
      ESP Fit Center  296 is at   0.866862  0.776965  1.517163
      ESP Fit Center  297 is at   4.543646  0.248323 -1.475588
      ESP Fit Center  298 is at   4.245775 -0.766133 -1.475588
      ESP Fit Center  299 is at   4.716851  0.496208  3.295698
      ESP Fit Center  300 is at   2.634209  0.496208  3.295698
      ESP Fit Center  301 is at   5.551926  0.496208  2.629748
      ESP Fit Center  302 is at   5.254055  1.510665  2.629748
      ESP Fit Center  303 is at   1.875142 -0.032433  2.629748
      ESP Fit Center  304 is at   5.134388  2.325559  1.667423
      ESP Fit Center  305 is at   5.783641 -0.519004  1.667423
      ESP Fit Center  306 is at   4.196191  2.777371  0.599323
      ESP Fit Center  307 is at   4.196191 -1.784954  0.599323
      ESP Fit Center  308 is at   5.134388 -1.333142  0.599323
      ESP Fit Center  309 is at   2.473251 -2.276813 -2.321378
      ESP Fit Center  310 is at   0.374066 -2.164167 -2.987328
      ESP Fit Center  311 is at   1.435606 -0.013791  2.282084
      ESP Fit Center  312 is at   0.727489  0.502484  1.616134
      ESP Fit Center  313 is at   3.415125 -2.744952  0.653809
      ESP Fit Center  314 is at   4.064378 -1.930814  0.653809
      ESP Fit Center  315 is at   3.415125 -2.744952 -0.414292
      ESP Fit Center  316 is at   4.064378 -1.930814 -0.414292
      ESP Fit Center  317 is at   3.534791 -1.930057 -1.376617
      ESP Fit Center  318 is at   1.978620  2.706387  0.491813
      ESP Fit Center  319 is at   3.760364  2.838063 -0.406357
      ESP Fit Center  320 is at   2.783035  3.208715 -0.406357
      ESP Fit Center  321 is at   1.745402  3.082723 -0.406357
      ESP Fit Center  322 is at   4.703641  1.040799 -1.403251
      ESP Fit Center  323 is at   4.453495  2.055679 -1.403251
      ESP Fit Center  324 is at   3.760364  2.838063 -1.403251
      ESP Fit Center  325 is at   2.783035  3.208715 -1.403251
      ESP Fit Center  326 is at   1.745402  3.082723 -1.403251
      ESP Fit Center  327 is at   4.271105  1.040799 -2.301421
      ESP Fit Center  328 is at   3.936636  2.070189 -2.301421
      ESP Fit Center  329 is at   3.060985  2.706387 -2.301421
      ESP Fit Center  330 is at   1.978620  2.706387 -2.301421
      ESP Fit Center  331 is at   1.102969  2.070189 -2.301421
      ESP Fit Center  332 is at   3.060985 -0.624789 -2.301421
      ESP Fit Center  333 is at   3.936636  0.011409 -2.301421
      ESP Fit Center  334 is at   3.491702  1.040799 -2.922974
      ESP Fit Center  335 is at   3.005752  1.882489 -2.922974
      ESP Fit Center  336 is at   2.033853  1.882489 -2.922974
      ESP Fit Center  337 is at   1.547903  1.040799 -2.922974
      ESP Fit Center  338 is at   3.005752  0.199109 -2.922974
      ESP Fit Center  339 is at   2.519802  1.040799 -3.144804
      ESP Fit Center  340 is at  -2.436235  2.289843  2.270159
      ESP Fit Center  341 is at  -1.464335  2.289843  2.048329
      ESP Fit Center  342 is at  -1.950285  3.131532  2.048329
      ESP Fit Center  343 is at  -2.922185  3.131532  2.048329
      ESP Fit Center  344 is at  -3.408134  2.289843  2.048329
      ESP Fit Center  345 is at  -1.895053  3.955430  1.426776
      ESP Fit Center  346 is at  -2.977417  3.955430  1.426776
      ESP Fit Center  347 is at  -3.853068  3.319233  1.426776
      ESP Fit Center  348 is at  -4.187537  2.289843  1.426776
      ESP Fit Center  349 is at  -3.210635  4.331767  0.528606
      ESP Fit Center  350 is at  -4.070861  3.737996  0.528606
      ESP Fit Center  351 is at  -4.556615  2.812469  0.528606
      ESP Fit Center  352 is at  -3.210635  4.331767 -0.468288
      ESP Fit Center  353 is at  -4.070861  3.737996 -0.468288
      ESP Fit Center  354 is at  -4.556615  2.812469 -0.468288
      ESP Fit Center  355 is at  -4.556615  1.767216 -0.468288
      ESP Fit Center  356 is at  -2.977417  3.955430 -1.366458
      ESP Fit Center  357 is at  -3.853068  3.319233 -1.366458
      ESP Fit Center  358 is at  -4.187537  2.289843 -1.366458
      ESP Fit Center  359 is at  -2.922185  3.131532 -1.988011
      ESP Fit Center  360 is at  -3.408134  2.289843 -1.988011
      ESP Fit Center  361 is at  -2.436235  2.289843 -2.209841
      ESP Fit Center  362 is at  -3.444142 -2.038255  2.705753
      ESP Fit Center  363 is at  -4.404142 -2.038255  2.448522
      ESP Fit Center  364 is at  -3.924142 -2.869640  2.448522
      ESP Fit Center  365 is at  -2.964142 -2.869640  2.448522
      ESP Fit Center  366 is at  -5.106910 -2.038255  1.745753
      ESP Fit Center  367 is at  -4.789350 -3.015606  1.745753
      ESP Fit Center  368 is at  -3.957965 -3.619642  1.745753
      ESP Fit Center  369 is at  -2.930318 -3.619642  1.745753
      ESP Fit Center  370 is at  -5.364142 -2.038255  0.785753
      ESP Fit Center  371 is at  -5.106910 -2.998255  0.785753
      ESP Fit Center  372 is at  -4.404142 -3.701024  0.785753
      ESP Fit Center  373 is at  -3.444142 -3.958255  0.785753
      ESP Fit Center  374 is at  -5.106910 -2.038255 -0.174247
      ESP Fit Center  375 is at  -4.789350 -3.015606 -0.174247
      ESP Fit Center  376 is at  -3.957965 -3.619642 -0.174247
      ESP Fit Center  377 is at  -2.930318 -3.619642 -0.174247
      ESP Fit Center  378 is at  -1.681207 -3.639465  1.707684
      ESP Fit Center  379 is at  -0.721207 -3.639465  1.707684
      ESP Fit Center  380 is at  -2.546416 -3.785432  1.004915
      ESP Fit Center  381 is at  -1.715031 -4.389468  1.004915
      ESP Fit Center  382 is at  -0.687384 -4.389468  1.004915
      ESP Fit Center  383 is at   0.144001 -3.785432  1.004915
      ESP Fit Center  384 is at  -2.863976 -3.768081  0.044915
      ESP Fit Center  385 is at  -2.161207 -4.470850  0.044915
      ESP Fit Center  386 is at  -1.201207 -4.728081  0.044915
      ESP Fit Center  387 is at  -0.241207 -4.470850  0.044915
      ESP Fit Center  388 is at  -2.546416 -3.785432 -0.915085
      ESP Fit Center  389 is at  -1.715031 -4.389468 -0.915085
      ESP Fit Center  390 is at  -0.687384 -4.389468 -0.915085
      ESP Fit Center  391 is at  -1.681207 -3.639465 -1.617853
      ESP Fit Center  392 is at  -0.721207 -3.639465 -1.617853
      ESP Fit Center  393 is at  -4.003835  0.393087  2.689575
      ESP Fit Center  394 is at  -4.483835  1.224471  2.432344
      ESP Fit Center  395 is at  -4.963835  0.393087  2.432344
      ESP Fit Center  396 is at  -4.483835 -0.438298  2.432344
      ESP Fit Center  397 is at  -4.517659  1.974474  1.729575
      ESP Fit Center  398 is at  -5.349043  1.370438  1.729575
      ESP Fit Center  399 is at  -5.666604  0.393087  1.729575
      ESP Fit Center  400 is at  -5.349043 -0.584264  1.729575
      ESP Fit Center  401 is at  -4.963835  2.055856  0.769575
      ESP Fit Center  402 is at  -5.666604  1.353087  0.769575
      ESP Fit Center  403 is at  -5.923835  0.393087  0.769575
      ESP Fit Center  404 is at  -5.666604 -0.566913  0.769575
      ESP Fit Center  405 is at  -5.349043  1.370438 -0.190425
      ESP Fit Center  406 is at  -5.666604  0.393087 -0.190425
      ESP Fit Center  407 is at  -5.349043 -0.584264 -0.190425
      ESP Fit Center  408 is at   0.446968  2.846911  0.230636
      ESP Fit Center  409 is at   0.893144  2.928292 -0.729364
      ESP Fit Center  410 is at   0.446968  2.846911 -1.689364
      ESP Fit Center  411 is at   0.413144  2.096908 -2.392132
      ESP Fit Center  412 is at  -0.546856  2.096908 -2.392132
      ESP Fit Center  413 is at  -0.066856  1.265524 -2.649364
      ESP Fit Center  414 is at   6.314061  0.697260  1.641912
      ESP Fit Center  415 is at   5.996500  1.674611  1.641912
      ESP Fit Center  416 is at   5.996500 -0.280091  1.641912
      ESP Fit Center  417 is at   6.571292  0.697260  0.681912
      ESP Fit Center  418 is at   6.314061  1.657260  0.681912
      ESP Fit Center  419 is at   5.611292  2.360029  0.681912
      ESP Fit Center  420 is at   5.611292 -0.965509  0.681912
      ESP Fit Center  421 is at   6.314061 -0.262740  0.681912
      ESP Fit Center  422 is at   6.314061  0.697260 -0.278088
      ESP Fit Center  423 is at   5.996500  1.674611 -0.278088
      ESP Fit Center  424 is at   5.165116  2.278647 -0.278088
      ESP Fit Center  425 is at   5.165116 -0.884127 -0.278088
      ESP Fit Center  426 is at   5.996500 -0.280091 -0.278088
      ESP Fit Center  427 is at   5.611292  0.697260 -0.980857
      ESP Fit Center  428 is at   5.131292  1.528645 -0.980857
      ESP Fit Center  429 is at   5.131292 -0.134124 -0.980857
      ESP Fit Center  430 is at   3.380477  1.394408  3.605734
      ESP Fit Center  431 is at   4.340477  1.394408  3.348502
      ESP Fit Center  432 is at   3.860477  2.225792  3.348502
      ESP Fit Center  433 is at   2.900477  2.225792  3.348502
      ESP Fit Center  434 is at   2.420477  1.394408  3.348502
      ESP Fit Center  435 is at   4.725685  2.371759  2.645734
      ESP Fit Center  436 is at   3.894301  2.975795  2.645734
      ESP Fit Center  437 is at   2.866653  2.975795  2.645734
      ESP Fit Center  438 is at   2.035269  2.371759  2.645734
      ESP Fit Center  439 is at   1.717708  1.394408  2.645734
      ESP Fit Center  440 is at   4.340477  3.057177  1.685734
      ESP Fit Center  441 is at   3.380477  3.314408  1.685734
      ESP Fit Center  442 is at   2.420477  3.057177  1.685734
      ESP Fit Center  443 is at   1.717708  2.354408  1.685734
      ESP Fit Center  444 is at   3.894301  2.975795  0.725734
      ESP Fit Center  445 is at   2.866653  2.975795  0.725734
      ESP Fit Center  446 is at   3.772724 -0.336745  3.756729
      ESP Fit Center  447 is at   4.732724 -0.336745  3.499498
      ESP Fit Center  448 is at   4.252724  0.494639  3.499498
      ESP Fit Center  449 is at   2.812724 -0.336745  3.499498
      ESP Fit Center  450 is at   3.292724 -1.168130  3.499498
      ESP Fit Center  451 is at   4.252724 -1.168130  3.499498
      ESP Fit Center  452 is at   5.435493 -0.336745  2.796729
      ESP Fit Center  453 is at   2.109956 -0.336745  2.796729
      ESP Fit Center  454 is at   3.258900 -1.918132  2.796729
      ESP Fit Center  455 is at   4.286548 -1.918132  2.796729
      ESP Fit Center  456 is at   5.117932 -1.314096  2.796729
      ESP Fit Center  457 is at   3.772724 -2.256745  1.836729
      ESP Fit Center  458 is at   4.732724 -1.999514  1.836729
      ESP Fit Center  459 is at   5.435493 -1.296745  1.836729
      ESP Fit Center  460 is at   4.286548 -1.918132  0.876729
      ESP Fit Center  461 is at   0.398289 -3.928668 -0.013988
      ESP Fit Center  462 is at   1.425937 -3.928668 -0.013988
      ESP Fit Center  463 is at   2.257321 -3.324632 -0.013988
      ESP Fit Center  464 is at  -0.047887 -4.010050 -0.973988
      ESP Fit Center  465 is at   0.912113 -4.267281 -0.973988
      ESP Fit Center  466 is at   1.872113 -4.010050 -0.973988
      ESP Fit Center  467 is at   2.574882 -3.307281 -0.973988
      ESP Fit Center  468 is at  -0.433095 -3.324632 -1.933988
      ESP Fit Center  469 is at   0.398289 -3.928668 -1.933988
      ESP Fit Center  470 is at   1.425937 -3.928668 -1.933988
      ESP Fit Center  471 is at   2.257321 -3.324632 -1.933988
      ESP Fit Center  472 is at   0.432113 -3.178665 -2.636757
      ESP Fit Center  473 is at   1.392113 -3.178665 -2.636757
      ESP Fit Center  474 is at   2.830099 -0.785431 -2.729803
      ESP Fit Center  475 is at   0.653506  0.795956 -2.729803
      ESP Fit Center  476 is at  -0.177878  0.191920 -2.729803
      ESP Fit Center  477 is at   2.512538 -1.762782 -2.729803
      ESP Fit Center  478 is at   2.127330 -0.785431 -3.432571
      ESP Fit Center  479 is at   1.647330  0.045953 -3.432571
      ESP Fit Center  480 is at   0.687330  0.045953 -3.432571
      ESP Fit Center  481 is at   0.207330 -0.785431 -3.432571
      ESP Fit Center  482 is at   0.687330 -1.616816 -3.432571
      ESP Fit Center  483 is at   1.647330 -1.616816 -3.432571
      ESP Fit Center  484 is at   1.167330 -0.785431 -3.689803
      ESP Fit Center  485 is at   2.013786 -1.445179  2.898273
      ESP Fit Center  486 is at   1.533786 -0.613795  2.641042
      ESP Fit Center  487 is at   1.053786 -1.445179  2.641042
      ESP Fit Center  488 is at   1.533786 -2.276564  2.641042
      ESP Fit Center  489 is at   2.493786 -2.276564  2.641042
      ESP Fit Center  490 is at   0.351017 -1.445179  1.938273
      ESP Fit Center  491 is at   0.668578 -2.422530  1.938273
      ESP Fit Center  492 is at   1.499962 -3.026566  1.938273
      ESP Fit Center  493 is at   2.527610 -3.026566  1.938273
      ESP Fit Center  494 is at   3.358994 -2.422530  1.938273
      ESP Fit Center  495 is at   1.053786 -3.107948  0.978273
      ESP Fit Center  496 is at   2.013786 -3.365179  0.978273
      ESP Fit Center  497 is at   2.973786 -3.107948  0.978273
      ESP Fit Center  498 is at   3.676555 -2.405179  0.978273
      ESP Fit Center  499 is at  -1.211726  3.650606  1.366214
      ESP Fit Center  500 is at  -0.028957  2.819222  0.663445
      ESP Fit Center  501 is at  -0.346518  3.796573  0.663445
      ESP Fit Center  502 is at  -1.177902  4.400609  0.663445
      ESP Fit Center  503 is at  -0.028957  3.779222 -0.296555
      ESP Fit Center  504 is at  -0.731726  4.481991 -0.296555
      ESP Fit Center  505 is at  -1.691726  4.739222 -0.296555
      ESP Fit Center  506 is at  -0.346518  3.796573 -1.256555
      ESP Fit Center  507 is at  -1.177902  4.400609 -1.256555
      ESP Fit Center  508 is at  -2.205550  4.400609 -1.256555
      ESP Fit Center  509 is at  -0.731726  2.819222 -1.959324
      ESP Fit Center  510 is at  -1.211726  3.650606 -1.959324
      ESP Fit Center  511 is at  -2.171726  3.650606 -1.959324
      ESP Fit Center  512 is at  -1.691726  2.819222 -2.216555
      ESP Fit Center  513 is at  -2.704312 -1.313180  3.156741
      ESP Fit Center  514 is at  -1.671067 -1.313180  2.951216
      ESP Fit Center  515 is at  -3.737558 -1.313180  2.951216
      ESP Fit Center  516 is at  -3.220935 -2.207997  2.951216
      ESP Fit Center  517 is at  -2.187690 -2.207997  2.951216
      ESP Fit Center  518 is at  -1.098201 -0.280995  2.365930
      ESP Fit Center  519 is at  -1.911207 -3.049839  2.365930
      ESP Fit Center  520 is at  -5.198787 -1.313180 -0.576504
      ESP Fit Center  521 is at  -3.259385 -3.745114 -0.576504
      ESP Fit Center  522 is at  -4.536165 -1.851061 -1.452447
      ESP Fit Center  523 is at  -3.954565 -2.756049 -1.452447
      ESP Fit Center  524 is at  -3.737558 -1.313180 -2.037733
      ESP Fit Center  525 is at  -3.220935 -2.207997 -2.037733
      ESP Fit Center  526 is at  -0.407909 -1.747475  2.535994
      ESP Fit Center  527 is at  -0.924532 -0.852659  2.535994
      ESP Fit Center  528 is at  -0.924532 -2.642292  2.535994
      ESP Fit Center  529 is at   0.164957 -2.779661  1.950708
      ESP Fit Center  530 is at  -2.996434 -3.697734 -0.991726
      ESP Fit Center  531 is at  -2.691407 -3.190344 -1.867669
      ESP Fit Center  532 is at  -2.474400 -1.747475 -2.452955
      ESP Fit Center  533 is at  -1.957777 -2.642292 -2.452955
      ESP Fit Center  534 is at  -0.924532 -2.642292 -2.452955
      ESP Fit Center  535 is at  -3.027796  0.039577  3.152592
      ESP Fit Center  536 is at  -1.994550  0.039577  2.947067
      ESP Fit Center  537 is at  -2.511173  0.934393  2.947067
      ESP Fit Center  538 is at  -3.544418  0.934393  2.947067
      ESP Fit Center  539 is at  -4.061041  0.039577  2.947067
      ESP Fit Center  540 is at  -5.275240 -1.042735 -0.580653
      ESP Fit Center  541 is at  -4.859648  0.577457 -1.456596
      ESP Fit Center  542 is at  -4.859648 -0.498304 -1.456596
      ESP Fit Center  543 is at  -4.061041  0.039577 -2.041883
      ESP Fit Center  544 is at   0.222067  0.545474  2.100319
      ESP Fit Center  545 is at  -0.294556  1.440291  2.100319
      ESP Fit Center  546 is at   0.794933  1.577659  1.515032
      ESP Fit Center  547 is at  -0.018073  2.282133  1.515032
      ESP Fit Center  548 is at  -0.294556  1.440291 -2.888631
      ESP Fit Center  549 is at  -1.327801  1.440291 -2.888631
      ESP Fit Center  550 is at  -1.844424  0.545474 -2.888631
      ESP Fit Center  551 is at  -0.811179  0.545474 -3.094156
      ESP Fit Center  552 is at  -1.521724 -0.818425 -2.879341
      ESP Fit Center  553 is at  -1.005101 -1.713242 -2.879341
      ESP Fit Center  554 is at  -1.040068  0.971113  2.517765
      ESP Fit Center  555 is at  -1.556691  1.865930  2.517765
      ESP Fit Center  556 is at  -2.589936  1.865930  2.517765
      ESP Fit Center  557 is at  -0.467202  2.003299  1.932478
      ESP Fit Center  558 is at  -3.905166  1.508994 -1.885898
      ESP Fit Center  559 is at  -2.589936  1.865930 -2.471185
      ESP Fit Center  560 is at  -3.106559  0.971113 -2.471185
      ESP Fit Center  561 is at  -2.589936  0.076297 -2.471185
[...]
  364 Fit       0.008470
  365 Fit       0.004676
  366 Fit       0.009639
  367 Fit       0.011419
  368 Fit       0.011846
  369 Fit       0.010566
  370 Fit       0.008395
  371 Fit       0.010343
  372 Fit       0.011567
  373 Fit       0.012280
  374 Fit       0.002747
  375 Fit       0.006114
  376 Fit       0.007636
  377 Fit       0.009434
  378 Fit       0.008804
  379 Fit       0.011252
  380 Fit       0.013641
  381 Fit       0.013776
  382 Fit       0.016376
  383 Fit       0.020095
  384 Fit       0.011376
  385 Fit       0.012656
  386 Fit       0.015653
  387 Fit       0.019172
  388 Fit       0.004210
  389 Fit       0.010487
  390 Fit       0.015444
  391 Fit       0.002644
  392 Fit       0.010517
  393 Fit      -0.006187
  394 Fit      -0.004390
  395 Fit       0.001605
  396 Fit       0.000866
  397 Fit      -0.011190
  398 Fit      -0.000149
  399 Fit       0.004747
  400 Fit       0.006729
  401 Fit      -0.012193
  402 Fit      -0.000904
  403 Fit       0.003538
  404 Fit       0.005376
  405 Fit      -0.007456
  406 Fit      -0.001958
  407 Fit      -0.001638
  408 Fit       0.010342
  409 Fit      -0.006882
  410 Fit      -0.000683
  411 Fit      -0.011625
  412 Fit       0.000460
  413 Fit      -0.010903
  414 Fit       0.012264
  415 Fit       0.010151
  416 Fit       0.013402
  417 Fit       0.011555
  418 Fit       0.009049
  419 Fit       0.004350
  420 Fit       0.012764
  421 Fit       0.012281
  422 Fit       0.008388
  423 Fit       0.003907
  424 Fit      -0.006088
  425 Fit       0.010242
  426 Fit       0.009585
  427 Fit       0.000513
  428 Fit      -0.011328
  429 Fit       0.002589
  430 Fit       0.014521
  431 Fit       0.013670
  432 Fit       0.013385
  433 Fit       0.013852
  434 Fit       0.014390
  435 Fit       0.010855
  436 Fit       0.011091
  437 Fit       0.011632
  438 Fit       0.011916
  439 Fit       0.013038
  440 Fit       0.005744
  441 Fit       0.005485
  442 Fit       0.005909
  443 Fit       0.007432
  444 Fit      -0.005742
  445 Fit      -0.009468
  446 Fit       0.018791
  447 Fit       0.017074
  448 Fit       0.015472
  449 Fit       0.021045
  450 Fit       0.024852
  451 Fit       0.021276
  452 Fit       0.015281
  453 Fit       0.026412
  454 Fit       0.033405
  455 Fit       0.024383
  456 Fit       0.018713
  457 Fit       0.031145
  458 Fit       0.020810
  459 Fit       0.016007
  460 Fit       0.018897
  461 Fit       0.023761
  462 Fit       0.022112
  463 Fit       0.020334
  464 Fit       0.019817
  465 Fit       0.018372
  466 Fit       0.016302
  467 Fit       0.010800
  468 Fit       0.009952
  469 Fit       0.013952
  470 Fit       0.013383
  471 Fit       0.009374
  472 Fit       0.008981
  473 Fit       0.008724
  474 Fit      -0.012708
  475 Fit      -0.016191
  476 Fit      -0.008645
  477 Fit      -0.000294
  478 Fit      -0.005722
  479 Fit      -0.012656
  480 Fit      -0.006202
  481 Fit      -0.000865
  482 Fit       0.002852
  483 Fit       0.001696
  484 Fit      -0.001315
  485 Fit       0.034821
  486 Fit       0.025723
  487 Fit       0.025854
  488 Fit       0.033926
  489 Fit       0.038065
  490 Fit       0.011444
  491 Fit       0.026498
  492 Fit       0.034341
  493 Fit       0.035299
  494 Fit       0.035783
  495 Fit       0.032779
  496 Fit       0.031177
  497 Fit       0.026636
  498 Fit       0.023575
  499 Fit       0.002792
  500 Fit       0.016664
  501 Fit       0.019451
  502 Fit       0.014810
  503 Fit       0.023752
  504 Fit       0.023590
  505 Fit       0.016356
  506 Fit       0.024249
  507 Fit       0.022474
  508 Fit       0.011597
  509 Fit       0.018553
  510 Fit       0.019449
  511 Fit       0.008399
  512 Fit       0.009368
  513 Fit      -0.007396
  514 Fit      -0.010062
  515 Fit      -0.002297
  516 Fit       0.000279
  517 Fit      -0.003598
  518 Fit      -0.017078
  519 Fit       0.001956
  520 Fit      -0.003830
  521 Fit       0.004828
  522 Fit      -0.009109
  523 Fit      -0.005820
  524 Fit      -0.017252
  525 Fit      -0.014027
  526 Fit      -0.000893
  527 Fit      -0.012388
  528 Fit       0.000829
  529 Fit       0.014749
  530 Fit       0.001823
  531 Fit      -0.005884
  532 Fit      -0.016800
  533 Fit      -0.008702
  534 Fit      -0.001190
  535 Fit      -0.011355
  536 Fit      -0.015120
  537 Fit      -0.014638
  538 Fit      -0.010488
  539 Fit      -0.005105
  540 Fit      -0.004471
  541 Fit      -0.014325
  542 Fit      -0.012881
  543 Fit      -0.018447
  544 Fit      -0.005461
  545 Fit      -0.007789
  546 Fit       0.001059
  547 Fit       0.000483
  548 Fit      -0.009689
  549 Fit      -0.009457
  550 Fit      -0.016017
  551 Fit      -0.012112
  552 Fit      -0.014757
  553 Fit      -0.006611
  554 Fit      -0.012806
  555 Fit      -0.013674
  556 Fit      -0.019012
  557 Fit      -0.005459
  558 Fit      -0.020898
  559 Fit      -0.012064
  560 Fit      -0.017225
  561 Fit      -0.020541
  562 Fit       0.002986
  563 Fit      -0.000162
  564 Fit       0.003209
  565 Fit      -0.008818
  566 Fit       0.014722
  567 Fit       0.013526
  568 Fit       0.015208
  569 Fit       0.011976
  570 Fit       0.010507
  571 Fit       0.018714
  572 Fit       0.007836
  573 Fit       0.013111
  574 Fit       0.013023
  575 Fit      -0.014429
  576 Fit       0.010209
  577 Fit      -0.000470
  578 Fit       0.003457
  579 Fit       0.001589
  580 Fit       0.002934
  581 Fit       0.017173
  582 Fit       0.001474
  583 Fit       0.014819
  584 Fit       0.009828
  585 Fit       0.009914
  586 Fit       0.002996
  587 Fit       0.000981
  588 Fit      -0.003421
  589 Fit      -0.011253
  590 Fit      -0.005300
  591 Fit      -0.024358
  592 Fit      -0.026734
  593 Fit      -0.022011
  594 Fit      -0.017301
  595 Fit      -0.027312
  596 Fit      -0.033406
  597 Fit      -0.033892
  598 Fit      -0.028583
  599 Fit      -0.028892
  600 Fit      -0.034806
  601 Fit      -0.036858
  602 Fit      -0.033954
  603 Fit      -0.026752
  604 Fit      -0.015926
  605 Fit      -0.022172
  606 Fit      -0.032914
  607 Fit      -0.036191
  608 Fit      -0.033548
  609 Fit      -0.027069
  610 Fit      -0.026254
  611 Fit      -0.032158
  612 Fit      -0.019069
  613 Fit      -0.012173
  614 Fit      -0.014494
  615 Fit      -0.021444
  616 Fit      -0.020351
  617 Fit       0.002496
  618 Fit      -0.003950
  619 Fit      -0.015058
  620 Fit      -0.022981
  621 Fit      -0.022402
  622 Fit      -0.010356
  623 Fit      -0.021122
  624 Fit      -0.024569
  625 Fit      -0.004714
  626 Fit      -0.018445
  627 Fit      -0.024387
  628 Fit      -0.021877
  629 Fit      -0.016023
  630 Fit      -0.022819
  631 Fit      -0.021901
  632 Fit      -0.009179
  633 Fit      -0.018220
  634 Fit      -0.007988
  635 Fit       0.005210
  636 Fit       0.006826
  637 Fit       0.003908
  638 Fit       0.007017
  639 Fit       0.008349
  640 Fit       0.009520
  641 Fit       0.009784
  642 Fit       0.008962
  643 Fit       0.006023
  644 Fit       0.007213
  645 Fit       0.008698
  646 Fit       0.009706
  647 Fit       0.011005
  648 Fit       0.003011
  649 Fit       0.005205
  650 Fit       0.006506
  651 Fit       0.007959
  652 Fit       0.010694
  653 Fit       0.011543
  654 Fit       0.012579
  655 Fit       0.015235
  656 Fit       0.019986
  657 Fit       0.009981
  658 Fit       0.011558
  659 Fit       0.014180
  660 Fit       0.017760
  661 Fit       0.005584
  662 Fit       0.010058
  663 Fit       0.014384
  664 Fit       0.001964
  665 Fit       0.009239
  666 Fit      -0.005384
  667 Fit       0.000316
  668 Fit       0.000270
  669 Fit      -0.016844
  670 Fit      -0.004954
  671 Fit       0.001182
  672 Fit       0.004048
  673 Fit       0.006380
  674 Fit      -0.005819
  675 Fit       0.000152
  676 Fit       0.002814
  677 Fit       0.005121
  678 Fit      -0.013079
  679 Fit      -0.004781
  680 Fit      -0.002331
  681 Fit       0.003652
  682 Fit      -0.008749
  683 Fit      -0.013134
  684 Fit      -0.001022
  685 Fit      -0.011250
  686 Fit       0.010590
  687 Fit       0.008799
  688 Fit       0.012056
  689 Fit       0.009330
  690 Fit       0.007153
  691 Fit       0.003459
  692 Fit       0.011349
  693 Fit       0.010375
  694 Fit       0.005962
  695 Fit       0.002174
  696 Fit      -0.005679
  697 Fit       0.008058
  698 Fit       0.007397
  699 Fit      -0.001949
  700 Fit      -0.013903
  701 Fit      -0.000031
  702 Fit       0.012884
  703 Fit       0.012295
  704 Fit       0.011336
  705 Fit       0.011503
  706 Fit       0.012452
  707 Fit       0.009356
  708 Fit       0.008859
  709 Fit       0.009020
  710 Fit       0.009281
  711 Fit       0.009632
  712 Fit       0.004245
  713 Fit       0.003377
  714 Fit       0.003439
  715 Fit       0.004488
  716 Fit       0.006177
  717 Fit      -0.010993
  718 Fit       0.016671
  719 Fit       0.015107
  720 Fit       0.018754
  721 Fit       0.022075
  722 Fit       0.018731
  723 Fit       0.013638
  724 Fit       0.027502
  725 Fit       0.020461
  726 Fit       0.016154
  727 Fit       0.024963
  728 Fit       0.017614
  729 Fit       0.014118
  730 Fit       0.015455
  731 Fit       0.020680
  732 Fit       0.020104
  733 Fit       0.016920
  734 Fit       0.015721
  735 Fit       0.013804
  736 Fit       0.008837
  737 Fit       0.009859
  738 Fit       0.011868
  739 Fit       0.010850
  740 Fit       0.007245
  741 Fit       0.007028
  742 Fit       0.007005
  743 Fit      -0.013487
  744 Fit      -0.022523
  745 Fit      -0.001814
  746 Fit      -0.007093
  747 Fit      -0.013973
  748 Fit      -0.007755
  749 Fit      -0.002659
  750 Fit       0.001379
  751 Fit       0.000392
  752 Fit      -0.002989
  753 Fit       0.029154
  754 Fit       0.021105
  755 Fit       0.020527
  756 Fit       0.028069
  757 Fit       0.032145
  758 Fit       0.024982
  759 Fit       0.029422
  760 Fit       0.029822
  761 Fit       0.028359
  762 Fit       0.025891
  763 Fit       0.022301
  764 Fit       0.010685
  765 Fit       0.013774
  766 Fit       0.011512
  767 Fit       0.001976
  768 Fit       0.015677
  769 Fit       0.017448
  770 Fit       0.013356
  771 Fit       0.002905
  772 Fit       0.016065
  773 Fit       0.016854
  774 Fit       0.010625
  775 Fit       0.011262
  776 Fit       0.013260
  777 Fit       0.004530
  778 Fit       0.004733
  779 Fit      -0.005464
  780 Fit      -0.006840
  781 Fit      -0.002170
  782 Fit       0.000052
  783 Fit      -0.002217
  784 Fit      -0.012191
  785 Fit       0.002114
  786 Fit      -0.003919
  787 Fit      -0.000939
  788 Fit       0.000906
  789 Fit      -0.009016
  790 Fit      -0.006249
  791 Fit      -0.014933
  792 Fit      -0.012150
  793 Fit       0.001017
  794 Fit      -0.008523
  795 Fit       0.001933
  796 Fit       0.006005
  797 Fit       0.008401
  798 Fit       0.013671
  799 Fit       0.001528
  800 Fit      -0.005389
  801 Fit       0.000268
  802 Fit      -0.013599
  803 Fit      -0.007124
  804 Fit      -0.001377
  805 Fit      -0.008951
  806 Fit      -0.011426
  807 Fit      -0.011745
  808 Fit      -0.008982
  809 Fit      -0.004831
  810 Fit      -0.012526
  811 Fit      -0.015154
  812 Fit      -0.014533
  813 Fit      -0.008496
  814 Fit      -0.006624
  815 Fit      -0.013639
  816 Fit      -0.012146
  817 Fit      -0.016185
  818 Fit      -0.002768
  819 Fit      -0.006174
  820 Fit      -0.000849
  821 Fit       0.000855
  822 Fit       0.001071
  823 Fit      -0.009868
  824 Fit      -0.009116
  825 Fit      -0.013414
  826 Fit      -0.010647
  827 Fit      -0.011960
  828 Fit      -0.005668
  829 Fit      -0.010289
  830 Fit      -0.011531
  831 Fit      -0.015383
  832 Fit      -0.005202
  833 Fit      -0.017346
  834 Fit      -0.010794
  835 Fit      -0.015030
  836 Fit      -0.017394
  837 Fit       0.004250
  838 Fit       0.006152
  839 Fit      -0.000959
  840 Fit      -0.001400
  841 Fit      -0.010462
  842 Fit       0.013288
  843 Fit       0.012357
  844 Fit       0.011435
  845 Fit       0.013591
  846 Fit       0.011112
  847 Fit       0.009770
  848 Fit       0.015897
  849 Fit       0.010219
  850 Fit       0.008743
  851 Fit       0.007711
  852 Fit       0.007932
  853 Fit       0.012149
  854 Fit      -0.002741
  855 Fit       0.012233
  856 Fit       0.010335
  857 Fit       0.007298
  858 Fit      -0.000652
  859 Fit       0.001785
  860 Fit       0.000674
  861 Fit       0.001396
  862 Fit       0.003407
  863 Fit       0.021309
  864 Fit       0.017100
  865 Fit       0.014144
  866 Fit       0.009932
  867 Fit       0.006310
  868 Fit       0.006252
  869 Fit       0.002212
  870 Fit      -0.000127
  871 Fit      -0.003066
  872 Fit      -0.016398
  873 Fit      -0.014671
  874 Fit      -0.006139
  875 Fit      -0.021468
  876 Fit      -0.024641
  877 Fit      -0.023699
  878 Fit      -0.017893
  879 Fit      -0.017766
  880 Fit      -0.023952
  881 Fit      -0.028107
  882 Fit      -0.028857
  883 Fit      -0.025751
  884 Fit      -0.017824
  885 Fit      -0.024605
  886 Fit      -0.028608
  887 Fit      -0.030372
  888 Fit      -0.029029
  889 Fit      -0.024762
  890 Fit      -0.019731
  891 Fit      -0.015239
  892 Fit      -0.019966
  893 Fit      -0.026986
  894 Fit      -0.029563
  895 Fit      -0.027431
  896 Fit      -0.022232
  897 Fit      -0.021658
  898 Fit      -0.026091
  899 Fit      -0.015457
  900 Fit      -0.012108
  901 Fit      -0.016879
  902 Fit      -0.016490
  903 Fit      -0.001285
  904 Fit      -0.004669
  905 Fit      -0.011276
  906 Fit      -0.017101
  907 Fit      -0.018831
  908 Fit      -0.007822
  909 Fit      -0.015714
  910 Fit      -0.019509
  911 Fit      -0.017326
  912 Fit      -0.007603
  913 Fit      -0.015710
  914 Fit      -0.019633
  915 Fit      -0.018478
  916 Fit      -0.011056
  917 Fit      -0.017899
  918 Fit      -0.019519
  919 Fit      -0.009068
  920 Fit      -0.016289
  921 Fit      -0.018407
  922 Fit      -0.007707
  923 Fit      -0.014563
  924 Fit      -0.007685
  925 Fit       0.003643
  926 Fit       0.005129
  927 Fit       0.005127
  928 Fit       0.006528
  929 Fit       0.007570
  930 Fit       0.007857
  931 Fit       0.007005
  932 Fit       0.005936
  933 Fit       0.007042
  934 Fit       0.008066
  935 Fit       0.008871
  936 Fit       0.010015
  937 Fit       0.003503
  938 Fit       0.005153
  939 Fit       0.006491
  940 Fit       0.007677
  941 Fit       0.000344
  942 Fit       0.002531
  943 Fit       0.003763
  944 Fit       0.009338
  945 Fit       0.009916
  946 Fit       0.010785
  947 Fit       0.013262
  948 Fit       0.018006
  949 Fit       0.010126
  950 Fit       0.011140
  951 Fit       0.013306
  952 Fit       0.016734
  953 Fit       0.007578
  954 Fit       0.009897
  955 Fit       0.012607
  956 Fit       0.016539
  957 Fit       0.003366
  958 Fit       0.007657
  959 Fit       0.011733
  960 Fit      -0.005624
  961 Fit      -0.001001
  962 Fit      -0.013762
  963 Fit      -0.005184
  964 Fit      -0.000138
  965 Fit       0.002504
  966 Fit       0.004364
  967 Fit      -0.008401
  968 Fit      -0.001914
  969 Fit       0.001412
  970 Fit       0.003562
  971 Fit      -0.012114
  972 Fit      -0.004354
  973 Fit      -0.000870
  974 Fit       0.000921
  975 Fit      -0.014433
  976 Fit      -0.007049
  977 Fit      -0.004841
  978 Fit       0.003443
  979 Fit       0.005037
  980 Fit      -0.010992
  981 Fit      -0.013367
  982 Fit       0.009748
  983 Fit       0.008268
  984 Fit       0.008552
  985 Fit       0.006900
  986 Fit       0.004603
  987 Fit       0.009750
  988 Fit       0.006604
  989 Fit       0.004400
  990 Fit       0.000710
  991 Fit      -0.005077
  992 Fit       0.008755
  993 Fit       0.007824
  994 Fit       0.002670
  995 Fit      -0.001295
  996 Fit      -0.009573
  997 Fit       0.004893
  998 Fit       0.004335
  999 Fit      -0.005278
 1000 Fit       0.011615
 1001 Fit       0.010080
 1002 Fit       0.010025
 1003 Fit       0.011117
 1004 Fit       0.008852
 1005 Fit       0.008194
 1006 Fit       0.008135
 1007 Fit       0.008231
 1008 Fit       0.008525
 1009 Fit       0.005501
 1010 Fit       0.004794
 1011 Fit       0.004782
 1012 Fit       0.005279
 1013 Fit       0.005641
 1014 Fit      -0.001661
 1015 Fit      -0.002570
 1016 Fit      -0.001864
 1017 Fit       0.014969
 1018 Fit       0.013759
 1019 Fit       0.016463
 1020 Fit       0.018877
 1021 Fit       0.016520
 1022 Fit       0.012642
 1023 Fit       0.022928
 1024 Fit       0.027094
 1025 Fit       0.023030
 1026 Fit       0.018126
 1027 Fit       0.014728
 1028 Fit       0.020908
 1029 Fit       0.015936
 1030 Fit       0.013197
 1031 Fit       0.019111
 1032 Fit       0.014224
 1033 Fit       0.020876
 1034 Fit       0.016715
 1035 Fit       0.015510
 1036 Fit       0.014218
 1037 Fit       0.012652
 1038 Fit       0.012035
 1039 Fit       0.010212
 1040 Fit       0.006189
 1041 Fit       0.006967
 1042 Fit       0.008988
 1043 Fit       0.008324
 1044 Fit       0.005523
 1045 Fit       0.005167
 1046 Fit       0.005297
 1047 Fit      -0.011820
 1048 Fit      -0.018465
 1049 Fit      -0.002396
 1050 Fit      -0.007012
 1051 Fit      -0.012189
 1052 Fit      -0.007831
 1053 Fit      -0.003527
 1054 Fit      -0.000083
 1055 Fit      -0.000869
 1056 Fit      -0.003969
 1057 Fit       0.024832
 1058 Fit       0.018849
 1059 Fit       0.018033
 1060 Fit       0.023815
 1061 Fit       0.027520
 1062 Fit       0.021146
 1063 Fit       0.025396
 1064 Fit       0.026558
 1065 Fit       0.024701
 1066 Fit       0.023836
 1067 Fit       0.022557
 1068 Fit       0.008312
 1069 Fit       0.006060
 1070 Fit       0.009845
 1071 Fit       0.011890
 1072 Fit       0.009299
 1073 Fit       0.001986
 1074 Fit       0.008669
 1075 Fit       0.012721
 1076 Fit       0.011342
 1077 Fit       0.005183
 1078 Fit       0.009758
 1079 Fit       0.011424
 1080 Fit       0.007036
 1081 Fit       0.008004
 1082 Fit       0.002025
 1083 Fit       0.001526
 -----------------------------------------------------------------
 Leave Link  602 at Sat Feb 17 21:08:02 2018, MaxMem=   33554432 cpu:       0.3

 Test job not archived.
 1\1\GINC-NODE051\SP\RHF\6-31G(d)\C9H11N1O2\WULSDORT\17-Feb-2018\0\\#HF
 /6-31G* Geom=AllCheck Guess=Read Pop=(MK,ReadRadii) Integral=(Grid=Ult
 raFine) iop(6/33=2)\\Optimization for frag57-conf1\\0,1\C,0,1.42879562
 77,-2.1300785185,-0.0982171422\C,0,0.2885011801,-1.5354690506,0.452016
 7811\C,0,2.6885184615,-1.8813592766,0.436430026\C,0,1.6745698732,-0.43
 11303596,2.0962643137\C,0,0.4075921397,-0.6818872305,1.5519016402\C,0,
 2.8079074808,-1.0269904528,1.540467173\C,0,-0.3699301786,2.3509513191,
 2.7595777586\C,0,-0.455782176,3.79824282,2.2970871465\C,0,-0.812226844
 1,-0.0114945755,2.1574319524\N,0,-0.8885520151,1.4257653474,1.89639975
 34\O,0,0.1223993742,2.0475862086,3.842194739\O,0,4.0646507679,-0.81542
 91214,2.0370999768\H,0,1.3329254088,-2.795381257,-0.9523307103\H,0,-0.
 6916331447,-1.7409160542,0.0282260351\H,0,3.5830523602,-2.3362013287,0
 .0228743139\H,0,1.7624585258,0.2325408741,2.9545576236\H,0,-0.93844284
 33,4.3875910716,3.0819807976\H,0,0.5584901764,4.1911344408,2.171353662
 2\H,0,-1.0065717975,3.93210927,1.3607758669\H,0,-1.7265919073,-0.47657
 38521,1.7737693281\H,0,-0.8074863751,-0.1183517072,3.2450792802\H,0,-1
 .1372109507,1.7220929797,0.9630359112\H,0,4.0017779852,-0.2176164808,2
 .7986409142\\Version=AM64L-G09RevC.01\State=1-A\HF=-551.4065699\RMSD=4
 .616e-09\Dipole=-0.8740289,0.5149189,-1.0399005\Quadrupole=0.6187509,2
 .9401095,-3.5588604,0.2177678,4.5494822,-1.5660258\PG=C01 [X(C9H11N1O2
 )]\\@


 ERWIN WITH HIS PSI CAN DO
 CALCULATIONS QUITE A FEW.
 BUT ONE THING HAS NOT BEEN SEEN
 JUST WHAT DOES PSI REALLY MEAN.
 -- WALTER HUCKEL, TRANS. BY FELIX BLOCH
 Job cpu time:  0 days  0 hours  1 minutes 47.5 seconds.
 File lengths (MBytes):  RWF=     27 Int=      0 D2E=      0 Chk=      4 Scr=      1
 Normal termination of Gaussian 09 at Sat Feb 17 21:08:02 2018.
