 Entering Gaussian System, Link 0=g09
 Initial command:
 /home/fb_chem/chemsoft/lx24-amd64/Gaussian_09_C.01_NBO_3.1_64_istanbul-64/g09/l1.exe /local/2400009.1.parallel_long/Gau-2567.inp -scrdir=/local/2400009.1.parallel_long/
 Entering Link 1 = /home/fb_chem/chemsoft/lx24-amd64/Gaussian_09_C.01_NBO_3.1_64_istanbul-64/g09/l1.exe PID=      2568.
  
 Copyright (c) 1988,1990,1992,1993,1995,1998,2003,2009,2011,
            Gaussian, Inc.  All Rights Reserved.
  
 This is part of the Gaussian(R) 09 program.  It is based on
 the Gaussian(R) 03 system (copyright 2003, Gaussian, Inc.),
 the Gaussian(R) 98 system (copyright 1998, Gaussian, Inc.),
 the Gaussian(R) 94 system (copyright 1995, Gaussian, Inc.),
 the Gaussian 92(TM) system (copyright 1992, Gaussian, Inc.),
 the Gaussian 90(TM) system (copyright 1990, Gaussian, Inc.),
 the Gaussian 88(TM) system (copyright 1988, Gaussian, Inc.),
 the Gaussian 86(TM) system (copyright 1986, Carnegie Mellon
 University), and the Gaussian 82(TM) system (copyright 1983,
 Carnegie Mellon University). Gaussian is a federally registered
 trademark of Gaussian, Inc.
  
 This software contains proprietary and confidential information,
 including trade secrets, belonging to Gaussian, Inc.
  
 This software is provided under written license and may be
 used, copied, transmitted, or stored only in accord with that
 written license.
  
 The following legend is applicable only to US Government
 contracts under FAR:
  
                    RESTRICTED RIGHTS LEGEND
  
 Use, reproduction and disclosure by the US Government is
 subject to restrictions as set forth in subparagraphs (a)
 and (c) of the Commercial Computer Software - Restricted
 Rights clause in FAR 52.227-19.
  
 Gaussian, Inc.
 340 Quinnipiac St., Bldg. 40, Wallingford CT 06492
  
  
 ---------------------------------------------------------------
 Warning -- This program may not be used in any manner that
 competes with the business of Gaussian, Inc. or will provide
 assistance to any competitor of Gaussian, Inc.  The licensee
 of this program is prohibited from giving any competitor of
 Gaussian, Inc. access to this program.  By using this program,
 the user acknowledges that Gaussian, Inc. is engaged in the
 business of creating and licensing software in the field of
 computational chemistry and represents and warrants to the
 licensee that it is not a competitor of Gaussian, Inc. and that
 it will not use this program in any manner prohibited above.
 ---------------------------------------------------------------
  

 Cite this work as:
 Gaussian 09, Revision C.01,
 M. J. Frisch, G. W. Trucks, H. B. Schlegel, G. E. Scuseria, 
 M. A. Robb, J. R. Cheeseman, G. Scalmani, V. Barone, B. Mennucci, 
 G. A. Petersson, H. Nakatsuji, M. Caricato, X. Li, H. P. Hratchian, 
 A. F. Izmaylov, J. Bloino, G. Zheng, J. L. Sonnenberg, M. Hada, 
 M. Ehara, K. Toyota, R. Fukuda, J. Hasegawa, M. Ishida, T. Nakajima, 
 Y. Honda, O. Kitao, H. Nakai, T. Vreven, J. A. Montgomery, Jr., 
 J. E. Peralta, F. Ogliaro, M. Bearpark, J. J. Heyd, E. Brothers, 
 K. N. Kudin, V. N. Staroverov, T. Keith, R. Kobayashi, J. Normand, 
 K. Raghavachari, A. Rendell, J. C. Burant, S. S. Iyengar, J. Tomasi, 
 M. Cossi, N. Rega, J. M. Millam, M. Klene, J. E. Knox, J. B. Cross, 
 V. Bakken, C. Adamo, J. Jaramillo, R. Gomperts, R. E. Stratmann, 
 O. Yazyev, A. J. Austin, R. Cammi, C. Pomelli, J. W. Ochterski, 
 R. L. Martin, K. Morokuma, V. G. Zakrzewski, G. A. Voth, 
 P. Salvador, J. J. Dannenberg, S. Dapprich, A. D. Daniels, 
 O. Farkas, J. B. Foresman, J. V. Ortiz, J. Cioslowski, 
 and D. J. Fox, Gaussian, Inc., Wallingford CT, 2010.
 
 ******************************************
 Gaussian 09:  AM64L-G09RevC.01 23-Sep-2011
                17-Feb-2018 
 ******************************************
 %nprocs=2
 Will use up to    2 processors via shared memory.
 %chk=frag18-conf1.chk
 ----------------------------------------------------------------------
 #HF/6-31G* Geom=AllCheck Guess=Read Pop=(MK,ReadRadii) Integral=(Grid=
 UltraFine) iop(6/33=2)
 ----------------------------------------------------------------------
 1/29=7,38=1/1;
 2/12=2,40=1/2;
 3/5=1,6=6,7=1,11=9,14=-4,16=1,25=1,30=1,75=-5,116=-2/1,2,3;
 4/5=1/1;
 5/5=2,38=6/2;
 6/7=2,8=2,9=2,10=2,15=8,20=101,28=1,33=2/1,2;
 99/5=1,9=1/99;
 Structure from the checkpoint file:  frag18-conf1.chk
 -----------------------------
 Optimization for frag18-conf1
 -----------------------------
 Charge =  1 Multiplicity = 1
 Redundant internal coordinates found in file.
 C,0,1.0503509481,0.0781719009,0.6586219597
 C,0,2.1221177057,-0.4583043126,-0.0517533179
 C,0,0.7973978047,-0.3578036588,1.9492692502
 C,0,2.6326706127,-1.8318681853,1.838231919
 C,0,2.9358501453,-1.4395178344,0.5440670121
 C,0,3.6439549481,-2.1403145907,-2.6010691071
 C,0,3.5311822817,-3.0327694118,-3.8178497814
 C,0,1.2889033353,-1.7857027374,3.8877831044
 C,0,4.1302922066,-2.0318098322,-0.1927738089
 N,0,1.5854253032,-1.2976664252,2.5185122442
 N,0,3.7668278978,-2.779472937,-1.3869007763
 O,0,3.637585317,-0.9154290465,-2.6655451776
 H,0,0.4117911749,0.8393372112,0.2243355228
 H,0,2.355394938,-0.1359677105,-1.063441552
 H,0,-0.018326191,0.0211924816,2.5530073869
 H,0,3.2117811504,-2.5755242148,2.3746530821
 H,0,2.7602000178,-2.6330489183,-4.4806775977
 H,0,4.4804993604,-3.0034522887,-4.3642790536
 H,0,3.2997329286,-4.0740351243,-3.5756521948
 H,0,0.7443203286,-2.7309863054,3.8253902432
 H,0,2.226138278,-1.9284978595,4.4268782026
 H,0,0.6836789041,-1.0436819806,4.4076657976
 H,0,4.7899235182,-1.209297302,-0.490645758
 H,0,4.6909878241,-2.6904785543,0.4762394432
 H,0,3.8298667356,-3.7875950982,-1.3609957393
 Recover connectivity data from disk.
                          Input orientation:                          
 ---------------------------------------------------------------------
 Center     Atomic      Atomic             Coordinates (Angstroms)
 Number     Number       Type             X           Y           Z
 ---------------------------------------------------------------------
      1          6           0        1.050351    0.078172    0.658622
      2          6           0        2.122118   -0.458304   -0.051753
      3          6           0        0.797398   -0.357804    1.949269
      4          6           0        2.632671   -1.831868    1.838232
      5          6           0        2.935850   -1.439518    0.544067
      6          6           0        3.643955   -2.140315   -2.601069
      7          6           0        3.531182   -3.032769   -3.817850
      8          6           0        1.288903   -1.785703    3.887783
      9          6           0        4.130292   -2.031810   -0.192774
     10          7           0        1.585425   -1.297666    2.518512
     11          7           0        3.766828   -2.779473   -1.386901
     12          8           0        3.637585   -0.915429   -2.665545
     13          1           0        0.411791    0.839337    0.224336
     14          1           0        2.355395   -0.135968   -1.063442
     15          1           0       -0.018326    0.021192    2.553007
     16          1           0        3.211781   -2.575524    2.374653
     17          1           0        2.760200   -2.633049   -4.480678
     18          1           0        4.480499   -3.003452   -4.364279
     19          1           0        3.299733   -4.074035   -3.575652
     20          1           0        0.744320   -2.730986    3.825390
     21          1           0        2.226138   -1.928498    4.426878
     22          1           0        0.683679   -1.043682    4.407666
     23          1           0        4.789924   -1.209297   -0.490646
     24          1           0        4.690988   -2.690479    0.476239
     25          1           0        3.829867   -3.787595   -1.360996
 ---------------------------------------------------------------------
                    Distance matrix (angstroms):
                    1          2          3          4          5
     1  C    0.000000
     2  C    1.393242   0.000000
     3  C    1.385579   2.401890   0.000000
     4  C    2.746538   2.391524   2.356570   0.000000
     5  C    2.423141   1.407104   2.778071   1.385900   0.000000
     6  C    4.719539   3.412354   5.655600   4.563467   3.299153
     7  C    5.989264   4.774601   6.920165   5.851559   4.681793
     8  C    3.736097   4.239833   2.457297   2.451225   3.743356
     9  C    3.829221   2.555107   4.301027   2.531369   1.523298
    10  N    2.374537   2.756598   1.352171   1.358262   2.396289
    11  N    4.441795   3.142533   5.080554   3.547640   2.492918
    12  O    4.327945   3.055734   5.447396   4.704649   3.326967
    13  H    1.084314   2.164559   2.134768   3.830445   3.415594
    14  H    2.171290   1.087121   3.398969   3.372339   2.149478
    15  H    2.175779   3.405319   1.083302   3.312480   3.859621
    16  H    3.828661   3.399623   3.305826   1.084500   2.172025
    17  H    6.056955   4.975142   7.097433   6.370775   5.167536
    18  H    6.818494   5.535126   7.773390   6.577098   5.378075
    19  H    6.342682   5.184414   7.113144   5.897663   4.903588
    20  H    4.244225   4.700601   3.025664   2.884975   4.151840
    21  H    4.428200   4.714916   3.262963   2.622155   3.977313
    22  H    3.930437   4.722096   2.554814   3.319909   4.489583
    23  H    4.118592   2.806030   4.755890   3.234966   2.135701
    24  H    4.577437   3.443904   4.771921   2.613217   2.156389
    25  H    5.171916   3.964177   5.649530   3.936141   3.153093
                    6          7          8          9         10
     6  C    0.000000
     7  C    1.513191   0.000000
     8  C    6.912107   8.121562   0.000000
     9  C    2.459305   3.808153   4.978454   0.000000
    10  N    5.581909   6.851718   1.483579   3.790302   0.000000
    11  N    1.377616   2.455443   5.911851   1.455007   4.712379
    12  O    1.226598   2.412936   7.015682   2.757474   5.588552
    13  H    5.225717   6.408047   4.591406   4.716430   3.347753
    14  H    2.835858   4.166617   5.326693   2.739076   3.843539
    15  H    6.681985   7.906549   2.599105   5.381930   2.076679
    16  H    5.013381   6.217570   2.571155   2.780462   2.073318
    17  H    2.134652   1.092488   8.538960   4.541449   7.221634
    18  H    2.133945   1.095741   8.931166   4.297463   7.659241
    19  H    2.192619   1.093829   8.061189   4.037868   6.912736
    20  H    7.075037   8.141056   1.092714   5.300877   2.114189
    21  H    7.172664   8.420101   1.090607   4.997766   2.109579
    22  H    7.686885   8.928821   1.089573   5.832631   2.108686
    23  H    2.575640   3.997470   5.635603   1.095613   4.396777
    24  H    3.296784   4.461111   4.902186   1.093528   3.969297
    25  H    2.070236   2.587490   6.165529   2.130207   5.127167
                   11         12         13         14         15
    11  N    0.000000
    12  O    2.264132   0.000000
    13  H    5.191160   4.672939   0.000000
    14  H    3.014115   2.195065   2.527288   0.000000
    15  H    6.139544   6.440205   2.505409   4.328736   0.000000
    16  H    3.807750   5.323610   4.911730   4.301782   4.148294
    17  H    3.256715   2.648533   6.301558   4.251680   8.014857
    18  H    3.069898   2.820646   7.237182   4.861488   8.788445
    19  H    2.585479   3.304426   6.849915   4.765643   8.083370
    20  H    6.025436   7.334812   5.081868   5.764578   3.126512
    21  H    6.074365   7.302120   5.349218   5.776979   3.514300
    22  H    6.789387   7.666311   4.595643   5.792374   2.250895
    23  H    2.077366   2.478796   4.886322   2.721592   5.822130
    24  H    2.081654   3.759158   5.552889   3.788290   5.817539
    25  H    1.010423   3.160405   5.966994   3.949302   6.680933
                   16         17         18         19         20
    16  H    0.000000
    17  H    6.870429   0.000000
    18  H    6.870660   1.763569   0.000000
    19  H    6.136726   1.785107   1.778283   0.000000
    20  H    2.866561   8.547756   9.005773   7.944139   0.000000
    21  H    2.366804   8.951322   9.139044   8.354426   1.789290
    22  H    3.587615   9.265024   9.757231   8.930854   1.785978
    23  H    3.545003   4.697574   4.280160   4.465944   6.108241
    24  H    2.409407   5.319987   4.855191   4.501960   5.176354
    25  H    3.975703   3.494221   3.171421   2.295167   6.126632
                   21         22         23         24         25
    21  H    0.000000
    22  H    1.778328   0.000000
    23  H    5.592163   6.393913   0.000000
    24  H    4.718437   5.850348   1.771596   0.000000
    25  H    6.287104   7.120745   2.885626   2.306649   0.000000
 Stoichiometry    C9H13N2O(1+)
 Framework group  C1[X(C9H13N2O)]
 Deg. of freedom    69
 Full point group                 C1      NOp   1
 Largest Abelian subgroup         C1      NOp   1
 Largest concise Abelian subgroup C1      NOp   1
                         Standard orientation:                         
 ---------------------------------------------------------------------
 Center     Atomic      Atomic             Coordinates (Angstroms)
 Number     Number       Type             X           Y           Z
 ---------------------------------------------------------------------
      1          6           0        1.482418    1.822755    0.083224
      2          6           0        0.326121    1.132518   -0.274092
      3          6           0        2.661172    1.124028    0.288530
      4          6           0        1.572497   -0.907315   -0.203258
      5          6           0        0.362885   -0.266525   -0.419930
      6          6           0       -2.884141    0.031885    0.082254
      7          6           0       -4.111431   -0.133145    0.951893
      8          6           0        3.948227   -0.966408    0.397502
      9          6           0       -0.875159   -1.052393   -0.832359
     10          7           0        2.691762   -0.219889    0.142526
     11          7           0       -1.957865   -0.986348    0.137399
     12          8           0       -2.704176    1.002710   -0.645519
     13          1           0        1.481917    2.901138    0.196477
     14          1           0       -0.615031    1.647378   -0.450114
     15          1           0        3.592545    1.602732    0.565891
     16          1           0        1.691428   -1.980778   -0.301605
     17          1           0       -4.337036    0.821942    1.431936
     18          1           0       -4.963763   -0.387730    0.312076
     19          1           0       -4.004245   -0.908763    1.715693
     20          1           0        3.919058   -1.391705    1.403632
     21          1           0        4.047706   -1.761543   -0.342286
     22          1           0        4.792916   -0.283926    0.308682
     23          1           0       -1.239135   -0.642992   -1.781189
     24          1           0       -0.613060   -2.101606   -0.994406
     25          1           0       -2.152702   -1.804574    0.697310
 ---------------------------------------------------------------------
 Rotational constants (GHZ):      2.3565819      0.4591650      0.4128953
 Standard basis: 6-31G(d) (6D, 7F)
 There are   206 symmetry adapted basis functions of A   symmetry.
 Integral buffers will be    131072 words long.
 Raffenetti 1 integral format.
 Two-electron integral symmetry is turned on.
   206 basis functions,   388 primitive gaussians,   206 cartesian basis functions
    44 alpha electrons       44 beta electrons
       nuclear repulsion energy       682.8278151918 Hartrees.
 NAtoms=   25 NActive=   25 NUniq=   25 SFac= 1.00D+00 NAtFMM=   60 NAOKFM=F Big=F
 One-electron integrals computed using PRISM.
 NBasis=   206 RedAO= T  NBF=   206
 NBsUse=   206 1.00D-06 NBFU=   206
 Initial guess read from the checkpoint file:  frag18-conf1.chk
 B after Tr=     0.000000    0.000000    0.000000
         Rot=    1.000000    0.000000    0.000000    0.000000 Ang=   0.00 deg.
 Initial guess orbital symmetries:
       Occupied  (A) (A) (A) (A) (A) (A) (A) (A) (A) (A) (A) (A)
                 (A) (A) (A) (A) (A) (A) (A) (A) (A) (A) (A) (A)
                 (A) (A) (A) (A) (A) (A) (A) (A) (A) (A) (A) (A)
                 (A) (A) (A) (A) (A) (A) (A) (A)
       Virtual   (A) (A) (A) (A) (A) (A) (A) (A) (A) (A) (A) (A)
                 (A) (A) (A) (A) (A) (A) (A) (A) (A) (A) (A) (A)
                 (A) (A) (A) (A) (A) (A) (A) (A) (A) (A) (A) (A)
                 (A) (A) (A) (A) (A) (A) (A) (A) (A) (A) (A) (A)
                 (A) (A) (A) (A) (A) (A) (A) (A) (A) (A) (A) (A)
                 (A) (A) (A) (A) (A) (A) (A) (A) (A) (A) (A) (A)
                 (A) (A) (A) (A) (A) (A) (A) (A) (A) (A) (A) (A)
                 (A) (A) (A) (A) (A) (A) (A) (A) (A) (A) (A) (A)
                 (A) (A) (A) (A) (A) (A) (A) (A) (A) (A) (A) (A)
                 (A) (A) (A) (A) (A) (A) (A) (A) (A) (A) (A) (A)
                 (A) (A) (A) (A) (A) (A) (A) (A) (A) (A) (A) (A)
                 (A) (A) (A) (A) (A) (A) (A) (A) (A) (A) (A) (A)
                 (A) (A) (A) (A) (A) (A) (A) (A) (A) (A) (A) (A)
                 (A) (A) (A) (A) (A) (A)
 Requested convergence on RMS density matrix=1.00D-08 within 128 cycles.
 Requested convergence on MAX density matrix=1.00D-06.
 Requested convergence on             energy=1.00D-06.
 No special actions if energy rises.
 SCF Done:  E(RHF) =  -531.959968115     A.U. after   13 cycles
             Convg  =    0.9955D-08             -V/T =  2.0026

 **********************************************************************

            Population analysis using the SCF density.

 **********************************************************************

 Orbital symmetries:
 BldTbl:  Degeneracy threshold= 1.00D-02
       Occupied  (A) (A) (A) (A) (A) (A) (A) (A) (A) (A) (A) (A)
                 (A) (A) (A) (A) (A) (A) (A) (A) (A) (A) (A) (A)
                 (A) (A) (A) (A) (A) (A) (A) (A) (A) (A) (A) (A)
                 (A) (A) (A) (A) (A) (A) (A) (A)
       Virtual   (A) (A) (A) (A) (A) (A) (A) (A) (A) (A) (A) (A)
                 (A) (A) (A) (A) (A) (A) (A) (A) (A) (A) (A) (A)
                 (A) (A) (A) (A) (A) (A) (A) (A) (A) (A) (A) (A)
                 (A) (A) (A) (A) (A) (A) (A) (A) (A) (A) (A) (A)
                 (A) (A) (A) (A) (A) (A) (A) (A) (A) (A) (A) (A)
                 (A) (A) (A) (A) (A) (A) (A) (A) (A) (A) (A) (A)
                 (A) (A) (A) (A) (A) (A) (A) (A) (A) (A) (A) (A)
                 (A) (A) (A) (A) (A) (A) (A) (A) (A) (A) (A) (A)
                 (A) (A) (A) (A) (A) (A) (A) (A) (A) (A) (A) (A)
                 (A) (A) (A) (A) (A) (A) (A) (A) (A) (A) (A) (A)
                 (A) (A) (A) (A) (A) (A) (A) (A) (A) (A) (A) (A)
                 (A) (A) (A) (A) (A) (A) (A) (A) (A) (A) (A) (A)
                 (A) (A) (A) (A) (A) (A) (A) (A) (A) (A) (A) (A)
                 (A) (A) (A) (A) (A) (A)
 The electronic state is 1-A.
 Alpha  occ. eigenvalues --  -20.64263 -15.84910 -15.71555 -11.48416 -11.47972
 Alpha  occ. eigenvalues --  -11.47282 -11.44487 -11.43255 -11.42522 -11.41897
 Alpha  occ. eigenvalues --  -11.41883 -11.33840  -1.51088  -1.49563  -1.35553
 Alpha  occ. eigenvalues --   -1.28972  -1.24016  -1.15326  -1.13259  -1.08516
 Alpha  occ. eigenvalues --   -1.04223  -1.00868  -0.91274  -0.89936  -0.86989
 Alpha  occ. eigenvalues --   -0.83285  -0.81837  -0.80465  -0.79412  -0.78675
 Alpha  occ. eigenvalues --   -0.77498  -0.73984  -0.72639  -0.70805  -0.70381
 Alpha  occ. eigenvalues --   -0.69336  -0.69035  -0.67611  -0.65505  -0.61687
 Alpha  occ. eigenvalues --   -0.56061  -0.53994  -0.52660  -0.51634
 Alpha virt. eigenvalues --   -0.09039  -0.04157   0.06144   0.08002   0.09410
 Alpha virt. eigenvalues --    0.10694   0.12008   0.13254   0.13913   0.15548
 Alpha virt. eigenvalues --    0.16470   0.16996   0.17636   0.19171   0.20321
 Alpha virt. eigenvalues --    0.21192   0.22661   0.24204   0.26427   0.27368
 Alpha virt. eigenvalues --    0.30036   0.30959   0.31885   0.32515   0.37432
 Alpha virt. eigenvalues --    0.40770   0.43676   0.45749   0.49034   0.52599
 Alpha virt. eigenvalues --    0.55897   0.57791   0.59188   0.59892   0.61346
 Alpha virt. eigenvalues --    0.61597   0.62969   0.64715   0.65071   0.65709
 Alpha virt. eigenvalues --    0.68344   0.69632   0.70576   0.71670   0.74146
 Alpha virt. eigenvalues --    0.74342   0.77171   0.79684   0.80470   0.82758
 Alpha virt. eigenvalues --    0.83774   0.86057   0.88692   0.89440   0.90169
 Alpha virt. eigenvalues --    0.92040   0.95031   0.95316   0.97008   0.97621
 Alpha virt. eigenvalues --    0.97862   0.99479   1.01897   1.02327   1.04164
 Alpha virt. eigenvalues --    1.04539   1.05232   1.06810   1.08197   1.08792
 Alpha virt. eigenvalues --    1.10995   1.11800   1.14942   1.15993   1.19736
 Alpha virt. eigenvalues --    1.21092   1.23138   1.26054   1.28996   1.29558
 Alpha virt. eigenvalues --    1.32249   1.36886   1.40685   1.42999   1.43900
 Alpha virt. eigenvalues --    1.45720   1.50062   1.51239   1.54376   1.56300
 Alpha virt. eigenvalues --    1.56843   1.57934   1.60092   1.63272   1.71249
 Alpha virt. eigenvalues --    1.72093   1.80916   1.83374   1.88648   1.93431
 Alpha virt. eigenvalues --    1.95867   1.96043   1.99299   2.01242   2.03234
 Alpha virt. eigenvalues --    2.03637   2.04435   2.06422   2.07307   2.10276
 Alpha virt. eigenvalues --    2.13316   2.14948   2.16273   2.19952   2.23146
 Alpha virt. eigenvalues --    2.23991   2.26380   2.27199   2.31553   2.33513
 Alpha virt. eigenvalues --    2.37391   2.39151   2.41074   2.42138   2.44292
 Alpha virt. eigenvalues --    2.45621   2.47896   2.50439   2.51494   2.53355
 Alpha virt. eigenvalues --    2.54867   2.60567   2.65910   2.67508   2.74867
 Alpha virt. eigenvalues --    2.76817   2.78863   2.83013   2.87391   2.90099
 Alpha virt. eigenvalues --    2.91402   2.96362   2.98153   3.00329   3.02654
 Alpha virt. eigenvalues --    3.12127   3.25464   3.27710   3.37979   3.60934
 Alpha virt. eigenvalues --    4.23867   4.27240   4.34497   4.35577   4.39574
 Alpha virt. eigenvalues --    4.46472   4.51029   4.57828   4.59975   4.67551
 Alpha virt. eigenvalues --    4.80044   4.92604
          Condensed to atoms (all electrons):
              1          2          3          4          5          6
     1  C    4.974259   0.495967   0.555787  -0.026680  -0.034962   0.000044
     2  C    0.495967   4.915859  -0.047136  -0.047994   0.517274   0.002057
     3  C    0.555787  -0.047136   4.720096  -0.062382  -0.020475  -0.000004
     4  C   -0.026680  -0.047994  -0.062382   4.755709   0.587275   0.000065
     5  C   -0.034962   0.517274  -0.020475   0.587275   4.962590  -0.003540
     6  C    0.000044   0.002057  -0.000004   0.000065  -0.003540   4.200580
     7  C    0.000004   0.000062   0.000000  -0.000003  -0.000405   0.358152
     8  C    0.002702  -0.000138  -0.032778  -0.034988   0.001697   0.000000
     9  C    0.002652  -0.029635   0.000039  -0.030159   0.287066  -0.026501
    10  N   -0.029365  -0.032640   0.364283   0.337853  -0.023963   0.000000
    11  N   -0.000128  -0.001832   0.000008  -0.000629  -0.067590   0.260569
    12  O    0.000566  -0.007054  -0.000004  -0.000036  -0.007001   0.555383
    13  H    0.375629  -0.017576  -0.024351   0.000140   0.001728   0.000003
    14  H   -0.019518   0.346158   0.001893   0.002517  -0.018563  -0.001345
    15  H   -0.018433   0.001978   0.382286   0.001993  -0.000178   0.000000
    16  H   -0.000312   0.002599   0.002025   0.382156  -0.020443   0.000001
    17  H    0.000000  -0.000005   0.000000   0.000000   0.000020  -0.029740
    18  H    0.000000   0.000000   0.000000   0.000000  -0.000001  -0.026597
    19  H    0.000000  -0.000003   0.000000   0.000000   0.000008  -0.039335
    20  H   -0.000145   0.000052  -0.000848  -0.002036  -0.000177   0.000000
    21  H   -0.000078   0.000007   0.001863  -0.002613   0.000313   0.000000
    22  H    0.000434  -0.000016  -0.001819   0.002504  -0.000024   0.000000
    23  H    0.000026  -0.002776   0.000002   0.000912  -0.050553   0.000837
    24  H   -0.000030   0.002922  -0.000013   0.000303  -0.060148   0.002861
    25  H    0.000006   0.000029  -0.000001   0.000131   0.002116  -0.012595
              7          8          9         10         11         12
     1  C    0.000004   0.002702   0.002652  -0.029365  -0.000128   0.000566
     2  C    0.000062  -0.000138  -0.029635  -0.032640  -0.001832  -0.007054
     3  C    0.000000  -0.032778   0.000039   0.364283   0.000008  -0.000004
     4  C   -0.000003  -0.034988  -0.030159   0.337853  -0.000629  -0.000036
     5  C   -0.000405   0.001697   0.287066  -0.023963  -0.067590  -0.007001
     6  C    0.358152   0.000000  -0.026501   0.000000   0.260569   0.555383
     7  C    5.235384   0.000000   0.004775   0.000000  -0.095369  -0.061325
     8  C    0.000000   5.049467  -0.000055   0.163044   0.000001   0.000000
     9  C    0.004775  -0.000055   4.926056   0.002386   0.210016   0.011496
    10  N    0.000000   0.163044   0.002386   6.991449  -0.000030   0.000000
    11  N   -0.095369   0.000001   0.210016  -0.000030   7.347337  -0.102630
    12  O   -0.061325   0.000000   0.011496   0.000000  -0.102630   8.208387
    13  H    0.000000  -0.000055  -0.000064   0.002105   0.000002  -0.000001
    14  H    0.000204   0.000003  -0.000413  -0.000153  -0.001129   0.019935
    15  H    0.000000  -0.002254   0.000003  -0.036323   0.000000   0.000000
    16  H    0.000000  -0.001449  -0.000506  -0.037262   0.000031   0.000000
    17  H    0.382688   0.000000  -0.000104   0.000000   0.002825   0.000803
    18  H    0.379225   0.000000  -0.000181   0.000000   0.000582  -0.000142
    19  H    0.378208   0.000000   0.000071   0.000000   0.003796   0.002280
    20  H    0.000000   0.392263  -0.000002  -0.037098   0.000000   0.000000
    21  H    0.000000   0.395541   0.000001  -0.034516   0.000000   0.000000
    22  H    0.000000   0.396753   0.000001  -0.032860   0.000000   0.000000
    23  H    0.000194   0.000002   0.413326  -0.000070  -0.043647   0.005782
    24  H   -0.000011  -0.000004   0.418287   0.000172  -0.037169   0.000492
    25  H    0.001259   0.000000  -0.022713   0.000000   0.320580   0.002190
             13         14         15         16         17         18
     1  C    0.375629  -0.019518  -0.018433  -0.000312   0.000000   0.000000
     2  C   -0.017576   0.346158   0.001978   0.002599  -0.000005   0.000000
     3  C   -0.024351   0.001893   0.382286   0.002025   0.000000   0.000000
     4  C    0.000140   0.002517   0.001993   0.382156   0.000000   0.000000
     5  C    0.001728  -0.018563  -0.000178  -0.020443   0.000020  -0.000001
     6  C    0.000003  -0.001345   0.000000   0.000001  -0.029740  -0.026597
     7  C    0.000000   0.000204   0.000000   0.000000   0.382688   0.379225
     8  C   -0.000055   0.000003  -0.002254  -0.001449   0.000000   0.000000
     9  C   -0.000064  -0.000413   0.000003  -0.000506  -0.000104  -0.000181
    10  N    0.002105  -0.000153  -0.036323  -0.037262   0.000000   0.000000
    11  N    0.000002  -0.001129   0.000000   0.000031   0.002825   0.000582
    12  O   -0.000001   0.019935   0.000000   0.000000   0.000803  -0.000142
    13  H    0.373148  -0.000588  -0.000337   0.000007   0.000000   0.000000
    14  H   -0.000588   0.317802  -0.000041  -0.000052  -0.000003   0.000000
    15  H   -0.000337  -0.000041   0.374999  -0.000055   0.000000   0.000000
    16  H    0.000007  -0.000052  -0.000055   0.387127   0.000000   0.000000
    17  H    0.000000  -0.000003   0.000000   0.000000   0.450032  -0.016392
    18  H    0.000000   0.000000   0.000000   0.000000  -0.016392   0.451398
    19  H    0.000000  -0.000013   0.000000   0.000000  -0.021291  -0.020929
    20  H    0.000001   0.000000   0.000099   0.000179   0.000000   0.000000
    21  H    0.000001   0.000000   0.000034   0.000466   0.000000   0.000000
    22  H    0.000000   0.000000   0.000841   0.000031   0.000000   0.000000
    23  H    0.000001  -0.000103   0.000000   0.000008  -0.000012   0.000011
    24  H    0.000001  -0.000047   0.000000   0.002087   0.000000   0.000005
    25  H    0.000000  -0.000042   0.000000  -0.000010  -0.000017  -0.000043
             19         20         21         22         23         24
     1  C    0.000000  -0.000145  -0.000078   0.000434   0.000026  -0.000030
     2  C   -0.000003   0.000052   0.000007  -0.000016  -0.002776   0.002922
     3  C    0.000000  -0.000848   0.001863  -0.001819   0.000002  -0.000013
     4  C    0.000000  -0.002036  -0.002613   0.002504   0.000912   0.000303
     5  C    0.000008  -0.000177   0.000313  -0.000024  -0.050553  -0.060148
     6  C   -0.039335   0.000000   0.000000   0.000000   0.000837   0.002861
     7  C    0.378208   0.000000   0.000000   0.000000   0.000194  -0.000011
     8  C    0.000000   0.392263   0.395541   0.396753   0.000002  -0.000004
     9  C    0.000071  -0.000002   0.000001   0.000001   0.413326   0.418287
    10  N    0.000000  -0.037098  -0.034516  -0.032860  -0.000070   0.000172
    11  N    0.003796   0.000000   0.000000   0.000000  -0.043647  -0.037169
    12  O    0.002280   0.000000   0.000000   0.000000   0.005782   0.000492
    13  H    0.000000   0.000001   0.000001   0.000000   0.000001   0.000001
    14  H   -0.000013   0.000000   0.000000   0.000000  -0.000103  -0.000047
    15  H    0.000000   0.000099   0.000034   0.000841   0.000000   0.000000
    16  H    0.000000   0.000179   0.000466   0.000031   0.000008   0.002087
    17  H   -0.021291   0.000000   0.000000   0.000000  -0.000012   0.000000
    18  H   -0.020929   0.000000   0.000000   0.000000   0.000011   0.000005
    19  H    0.510521   0.000000   0.000000   0.000000  -0.000002  -0.000022
    20  H    0.000000   0.443898  -0.023233  -0.020615   0.000000   0.000000
    21  H    0.000000  -0.023233   0.442258  -0.019304   0.000000   0.000001
    22  H    0.000000  -0.020615  -0.019304   0.435682   0.000000   0.000000
    23  H   -0.000002   0.000000   0.000000   0.000000   0.433395  -0.015882
    24  H   -0.000022   0.000000   0.000001   0.000000  -0.015882   0.477046
    25  H    0.001225   0.000000   0.000000   0.000000   0.001842  -0.003140
             25
     1  C    0.000006
     2  C    0.000029
     3  C   -0.000001
     4  C    0.000131
     5  C    0.002116
     6  C   -0.012595
     7  C    0.001259
     8  C    0.000000
     9  C   -0.022713
    10  N    0.000000
    11  N    0.320580
    12  O    0.002190
    13  H    0.000000
    14  H   -0.000042
    15  H    0.000000
    16  H   -0.000010
    17  H   -0.000017
    18  H   -0.000043
    19  H    0.001225
    20  H    0.000000
    21  H    0.000000
    22  H    0.000000
    23  H    0.001842
    24  H   -0.003140
    25  H    0.303285
 Mulliken atomic charges:
              1
     1  C   -0.278424
     2  C   -0.098160
     3  C    0.161529
     4  C    0.135963
     5  C   -0.052064
     6  C    0.759104
     7  C   -0.583042
     8  C   -0.329751
     9  C   -0.165845
    10  N   -0.597012
    11  N   -0.795593
    12  O   -0.629119
    13  H    0.290206
    14  H    0.353500
    15  H    0.295389
    16  H    0.283373
    17  H    0.231195
    18  H    0.233064
    19  H    0.185484
    20  H    0.247662
    21  H    0.239259
    22  H    0.238392
    23  H    0.256706
    24  H    0.212287
    25  H    0.405898
 Sum of Mulliken atomic charges =   1.00000
 Mulliken charges with hydrogens summed into heavy atoms:
              1
     1  C    0.011782
     2  C    0.255339
     3  C    0.456917
     4  C    0.419335
     5  C   -0.052064
     6  C    0.759104
     7  C    0.066701
     8  C    0.395561
     9  C    0.303149
    10  N   -0.597012
    11  N   -0.389695
    12  O   -0.629119
 Sum of Mulliken charges with hydrogens summed into heavy atoms =   1.00000
 DipInt: DoE/N= T F RetVal/Mat= T F Init=T NMatP=  1 IDeriv=0 Min/MaxMlt=  0  4
 Entering OneElI...
 OneElI was handed    33442981 working-precision words.
 Multipole integrals L=0 to 4 MinM= 0 MaxM= 0.
 Requested accuracy = 0.1000D-12
 PrsmSu:  NPrtUS=   1 ThrOK=F IAlg=1 NPAlg=1 LenDen=           0.
 Prism:   IPart=     0 DynPar=F LinDyn=F Incr=          24.
 PRISM was handed    33234020 working-precision words and  2410 shell-pairs
 IPart=  0 NShTot=        2410 NBatch=          55 AvBLen=        43.8
 PrSmSu:  NxtVal=             25.
 Electronic moments (au):
        -88.00000000          3.07341394         -1.20511881          0.82304352
      -2147.15336932       -399.92140227       -155.28760293          5.14820373
         -1.97159598          1.69215785        806.17982427       -265.78149001
        -26.75807483       -451.68210328        503.76000704      -1353.57755582
        303.13007613         61.95156112         40.55624702        -97.21043288
     -98521.89133322      -4482.46321812       -999.40880054       5108.43499539
       3321.25888350       -835.37898405       -146.01522853        348.50165488
        -10.81413489      -7477.90933965      -4799.31823907       -666.41739784
       1141.96424659       -435.23571178         58.48274425
 Electronic spatial extent (au):  <R**2>=           2702.3624
 DipInt: DoE/N= F T RetVal/Mat= T F Init=T NMatP=  1 IDeriv=0 Min/MaxMlt=  0  4
 Nuclear    moments (au):
         89.00000000          0.00000000          0.00000000          0.00000000
       2130.27393392        359.28974831        103.78230020          0.00000000
          0.00000000          0.00000000       -693.68560328        264.52903420
         27.38118667        484.72608769       -545.27431394       1410.33202401
       -309.08324262        -70.25891852        -33.05886105         96.07453689
      93217.49097281       3342.78165385        482.54747057      -5055.90612734
      -3342.71502764        893.58138274        155.60659722       -326.06099609
         -0.87858518       6192.79819338       3508.56746960        357.50694568
      -1099.17989393        421.03745589        -67.56469168
 Total      moments (au):
          1.00000000          3.07341394         -1.20511881          0.82304352
        -16.87943540        -40.63165396        -51.50530272          5.14820373
         -1.97159598          1.69215785        112.49422099         -1.25245581
          0.62311184         33.04398441        -41.51430690         56.75446819
         -5.95316650         -8.30735740          7.49738597         -1.13589599
      -5304.40036041      -1139.68156428       -516.86132997         52.52886804
        -21.45614415         58.20239869          9.59136869         22.44065879
        -11.69272006      -1285.11114627      -1290.75076947       -308.91045217
         42.78435267        -14.19825590         -9.08194743
 Traceless Quadrup. (au):
         19.45936196         -4.29285660        -15.16650536          5.14820373
         -1.97159598          1.69215785
 Charge=              1.0000 electrons
 Dipole moment (field-independent basis, Debye):
    X=              7.8118    Y=             -3.0631    Z=              2.0920  Tot=              8.6478
 Quadrupole moment (field-independent basis, Debye-Ang):
   XX=            -22.7034   YY=            -54.6510   ZZ=            -69.2764
   XY=              6.9245   XZ=             -2.6519   YZ=              2.2760
 Traceless Quadrupole moment (field-independent basis, Debye-Ang):
   XX=             26.1735   YY=             -5.7740   ZZ=            -20.3995
   XY=              6.9245   XZ=             -2.6519   YZ=              2.2760
 Octapole moment (field-independent basis, Debye-Ang**2):
  XXX=             80.0690  YYY=             -0.8914  ZZZ=              0.4435  XYY=             23.5194
  XXY=            -29.5483  XXZ=             40.3956  XZZ=             -4.2372  YZZ=             -5.9129
  YYZ=              5.3364  XYZ=             -0.8085
 Hexadecapole moment (field-independent basis, Debye-Ang**3):
 XXXX=          -1997.8914 YYYY=           -429.2587 ZZZZ=           -194.6747 XXXY=             19.7849
 XXXZ=             -8.0814 YYYX=             21.9218 YYYZ=              3.6126 ZZZX=              8.4522
 ZZZY=             -4.4040 XXYY=           -484.0344 XXZZ=           -486.1586 YYZZ=           -116.3505
 XXYZ=             16.1146 YYXZ=             -5.3477 ZZXY=             -3.4207
 N-N= 6.828278151918D+02 E-N=-2.593613293112D+03  KE= 5.306051040365D+02
 Entering OneElI...
 OneElI was handed    33357278 working-precision words.
 Calculate electrostatic properties
    NBasis =   206  MinDer = 0  MaxDer = 0
    NGrid  =    25  NMatD  =   1
 Requested accuracy = 0.1000D-12
 PrsmSu:  NPrtUS=   2 ThrOK=T IAlg=1 NPAlg=1 LenDen=           0.
 Prism:   IPart=     0 DynPar=F LinDyn=F Incr=         276.
 PRISM was handed    16547683 working-precision words and  2209 shell-pairs
 PRISM was handed    16547683 working-precision words and  2209 shell-pairs
 IPart=  0 NShTot=       27875 NBatch=        1115 AvBLen=        25.0
 IPart=  1 NShTot=       27350 NBatch=        1094 AvBLen=        25.0
 PrSmSu:  NxtVal=            553.
 --------------------------------------------------------
       Center         ----      EFG at Nuclei      ----
                      3XX-RR        3YY-RR        3ZZ-RR
 --------------------------------------------------------
     1   Atom        0.099047      0.182250     -0.281296
     2   Atom        0.291591      0.256479     -0.548070
     3   Atom        0.351538     -0.010834     -0.340703
     4   Atom        0.098730      0.212238     -0.310968
     5   Atom        0.134856      0.170253     -0.305109
     6   Atom        0.070708      0.062393     -0.133101
     7   Atom       -0.047247      0.059731     -0.012484
     8   Atom       -0.268782      0.057092      0.211690
     9   Atom       -0.132762      0.115471      0.017291
    10   Atom       -0.087760     -0.135052      0.222812
    11   Atom       -0.089182     -0.160303      0.249485
    12   Atom        1.067984     -0.508449     -0.559535
    13   Atom        0.138406     -0.296073      0.157666
    14   Atom       -0.158748      0.030267      0.128481
    15   Atom       -0.182996      0.050279      0.132718
    16   Atom        0.126166     -0.284656      0.158489
    17   Atom        0.126440     -0.189602      0.063162
    18   Atom       -0.120451      0.128399     -0.007948
    19   Atom        0.135759     -0.073397     -0.062362
    20   Atom        0.132999      0.084887     -0.217886
    21   Atom        0.128986     -0.080040     -0.048946
    22   Atom       -0.120091     -0.038978      0.159069
    23   Atom        0.087498      0.090690     -0.178187
    24   Atom        0.107033     -0.250915      0.143882
    25   Atom        0.159290     -0.193057      0.033767
 --------------------------------------------------------
                        XY            XZ            YZ
 --------------------------------------------------------
     1   Atom        0.019234      0.101296      0.057242
     2   Atom       -0.066806      0.215094      0.080662
     3   Atom       -0.042574      0.169927      0.029113
     4   Atom       -0.197896      0.077188      0.020576
     5   Atom        0.023716      0.110290      0.061763
     6   Atom       -0.091338     -0.387074     -0.330632
     7   Atom       -0.013219      0.072048      0.023653
     8   Atom        0.283103     -0.091688      0.050774
     9   Atom       -0.075551      0.162731     -0.087050
    10   Atom       -0.014209     -0.093748     -0.040522
    11   Atom        0.370638      0.657096      0.466952
    12   Atom       -0.841273     -0.584589      0.406701
    13   Atom        0.000102     -0.006224     -0.048606
    14   Atom        0.174834     -0.055358      0.031842
    15   Atom       -0.160282     -0.100256     -0.051321
    16   Atom        0.046110     -0.003182     -0.041965
    17   Atom        0.076302      0.045783     -0.171807
    18   Atom       -0.081605     -0.194187     -0.061090
    19   Atom        0.040129     -0.026148      0.221435
    20   Atom        0.003484      0.014624      0.156595
    21   Atom        0.033888      0.015781     -0.218986
    22   Atom       -0.202084      0.024827      0.026318
    23   Atom        0.043490     -0.113794      0.135465
    24   Atom        0.099677      0.022037     -0.059263
    25   Atom       -0.065854      0.092916      0.271129
 --------------------------------------------------------


 ---------------------------------------------------------------------------------
              Nuclear Quadrupole in Principal Axis System
 ---------------------------------------------------------------------------------

       Atom             a.u.   MegaHertz   Gauss  10(-4) cm-1        Axes

              Baa    -0.3119   -41.848   -14.932   -13.959 -0.2335 -0.1029  0.9669
     1 C(13)  Bbb     0.1107    14.859     5.302     4.956  0.9054 -0.3856  0.1776
              Bcc     0.2011    26.989     9.631     9.003  0.3546  0.9169  0.1832
 
              Baa    -0.6102   -81.883   -29.218   -27.313 -0.2382 -0.1082  0.9652
     2 C(13)  Bbb     0.2454    32.925    11.749    10.983  0.3872  0.9008  0.1965
              Bcc     0.3648    48.958    17.469    16.331  0.8907 -0.4206  0.1727
 
              Baa    -0.3840   -51.536   -18.389   -17.190 -0.2295 -0.1017  0.9680
     3 C(13)  Bbb    -0.0100    -1.338    -0.477    -0.446  0.0610  0.9911  0.1186
              Bcc     0.3940    52.874    18.867    17.637  0.9714 -0.0862  0.2212
 
              Baa    -0.3317   -44.517   -15.885   -14.849 -0.2282 -0.1196  0.9662
     4 C(13)  Bbb    -0.0310    -4.157    -1.483    -1.387  0.7607  0.5975  0.2536
              Bcc     0.3627    48.674    17.368    16.236 -0.6077  0.7929 -0.0454
 
              Baa    -0.3371   -45.239   -16.142   -15.090 -0.2211 -0.1077  0.9693
     5 C(13)  Bbb     0.1307    17.540     6.259     5.851  0.7709 -0.6281  0.1061
              Bcc     0.2064    27.699     9.884     9.239  0.5974  0.7707  0.2219
 
              Baa    -0.5903   -79.211   -28.264   -26.422  0.4973  0.4464  0.7439
     6 C(13)  Bbb     0.1556    20.886     7.453     6.967 -0.6292  0.7759 -0.0450
              Bcc     0.4346    58.325    20.812    19.455 -0.5973 -0.4457  0.6668
 
              Baa    -0.1077   -14.457    -5.159    -4.822  0.7706  0.1484 -0.6198
     7 C(13)  Bbb     0.0398     5.340     1.905     1.781  0.6211 -0.3928  0.6782
              Bcc     0.0679     9.117     3.253     3.041  0.1428  0.9076  0.3949
 
              Baa    -0.4491   -60.266   -21.504   -20.102  0.8552 -0.4940  0.1566
     8 C(13)  Bbb     0.2203    29.567    10.550     9.862  0.4546  0.8602  0.2311
              Bcc     0.2288    30.699    10.954    10.240 -0.2489 -0.1265  0.9602
 
              Baa    -0.2378   -31.912   -11.387   -10.645  0.8499  0.0526 -0.5242
     9 C(13)  Bbb     0.0050     0.667     0.238     0.222  0.3352  0.7137  0.6151
              Bcc     0.2328    31.245    11.149    10.422 -0.4065  0.6985 -0.5890
 
              Baa    -0.1534    -5.916    -2.111    -1.973  0.4871  0.8471  0.2126
    10 N(14)  Bbb    -0.0987    -3.808    -1.359    -1.270  0.8334 -0.5236  0.1770
              Bcc     0.2521     9.724     3.470     3.244 -0.2612 -0.0910  0.9610
 
              Baa    -0.5987   -23.090    -8.239    -7.702  0.8002 -0.0392 -0.5984
    11 N(14)  Bbb    -0.4532   -17.479    -6.237    -5.830 -0.2363  0.8965 -0.3748
              Bcc     1.0519    40.569    14.476    13.532  0.5511  0.4413  0.7082
 
              Baa    -0.9689    70.111    25.017    23.387  0.1761  0.8125 -0.5557
    12 O(17)  Bbb    -0.6847    49.542    17.678    16.525  0.4644  0.4292  0.7747
              Bcc     1.6536  -119.653   -42.695   -39.912  0.8679 -0.3945 -0.3018
 
              Baa    -0.3012  -160.718   -57.348   -53.610  0.0013  0.9944  0.1053
    13 H(1)   Bbb     0.1369    73.055    26.068    24.369  0.9725 -0.0258  0.2315
              Bcc     0.1643    87.662    31.280    29.241 -0.2329 -0.1022  0.9671
 
              Baa    -0.2731  -145.732   -52.001   -48.611  0.8485 -0.5054  0.1570
    14 H(1)   Bbb     0.1343    71.645    25.565    23.898  0.4693  0.8557  0.2180
              Bcc     0.1389    74.087    26.436    24.713 -0.2446 -0.1113  0.9632
 
              Baa    -0.2943  -157.022   -56.029   -52.377  0.8616  0.4388  0.2550
    15 H(1)   Bbb     0.1319    70.359    25.106    23.469 -0.4556  0.8902  0.0078
              Bcc     0.1624    86.663    30.923    28.908 -0.2236 -0.1229  0.9669
 
              Baa    -0.2936  -156.626   -55.888   -52.245 -0.1081  0.9900  0.0911
    16 H(1)   Bbb     0.1294    69.067    24.645    23.038  0.9698  0.0848  0.2288
              Bcc     0.1641    87.559    31.243    29.206 -0.2188 -0.1131  0.9692
 
              Baa    -0.2952  -157.499   -56.200   -52.536 -0.2060  0.8719  0.4443
    17 H(1)   Bbb     0.1408    75.150    26.815    25.067  0.8085  0.4074 -0.4246
              Bcc     0.1543    82.349    29.384    27.469  0.5512 -0.2718  0.7888
 
              Baa    -0.2911  -155.337   -55.428   -51.815  0.7769  0.2361  0.5837
    18 H(1)   Bbb     0.1380    73.613    26.267    24.555 -0.5984 -0.0115  0.8011
              Bcc     0.1532    81.724    29.161    27.260 -0.1959  0.9717 -0.1324
 
              Baa    -0.2945  -157.140   -56.071   -52.416 -0.1086  0.7132 -0.6925
    19 H(1)   Bbb     0.1360    72.579    25.898    24.210  0.8799 -0.2552 -0.4009
              Bcc     0.1585    84.560    30.173    28.206  0.4626  0.6528  0.5998
 
              Baa    -0.2847  -151.880   -54.194   -50.662 -0.0290 -0.3898  0.9205
    20 H(1)   Bbb     0.1297    69.189    24.688    23.079  0.9242 -0.3613 -0.1239
              Bcc     0.1550    82.690    29.506    27.583  0.3808  0.8471  0.3707
 
              Baa    -0.2871  -153.167   -54.654   -51.091 -0.0852  0.7306  0.6775
    21 H(1)   Bbb     0.1273    67.899    24.228    22.649  0.9205 -0.2026  0.3342
              Bcc     0.1598    85.268    30.426    28.443 -0.3814 -0.6521  0.6552
 
              Baa    -0.2885  -153.944   -54.931   -51.350  0.7705  0.6324 -0.0799
    22 H(1)   Bbb     0.1260    67.221    23.986    22.423 -0.6371  0.7603 -0.1267
              Bcc     0.1625    86.722    30.945    28.927 -0.0193  0.1485  0.9887
 
              Baa    -0.2755  -146.970   -52.443   -49.024  0.3181 -0.3620  0.8762
    23 H(1)   Bbb     0.1277    68.161    24.321    22.736  0.9335  0.2809 -0.2229
              Bcc     0.1477    78.810    28.121    26.288 -0.1654  0.8889  0.4272
 
              Baa    -0.2860  -152.599   -54.451   -50.901 -0.2509  0.9571  0.1448
    24 H(1)   Bbb     0.1311    69.937    24.955    23.328  0.9191  0.2824 -0.2746
              Bcc     0.1549    82.662    29.496    27.573  0.3038 -0.0642  0.9506
 
              Baa    -0.3941  -210.253   -75.024   -70.133  0.1896  0.8102 -0.5546
    25 H(1)   Bbb     0.1533    81.813    29.193    27.290  0.8191 -0.4420 -0.3657
              Bcc     0.2407   128.440    45.831    42.843  0.5415  0.3850  0.7474
 

 ---------------------------------------------------------------------------------

 No NMR shielding tensors so no spin-rotation constants.
 Leave Link  601 at Sat Feb 17 20:58:38 2018, MaxMem=   33554432 cpu:       0.5
 Merz-Kollman atomic radii used.
 Read replacement radii for each type of atom:
 Atom Element Radius
    1     6    1.50
    2     6    1.50
    3     6    1.50
    4     6    1.50
    5     6    1.50
    6     6    1.50
    7     6    1.50
    8     6    1.50
    9     6    1.50
   10     7    1.50
   11     7    1.50
   12     8    1.40
   13     1    1.20
   14     1    1.20
   15     1    1.20
   16     1    1.20
   17     1    1.20
   18     1    1.20
   19     1    1.20
   20     1    1.20
   21     1    1.20
   22     1    1.20
   23     1    1.20
   24     1    1.20
   25     1    1.20
 Generate VDW surfaces: Layer= 4 Dens= 1 Start= 1.400 Inc= 0.200

 **********************************************************************

            Electrostatic Properties Using The SCF Density

 **********************************************************************

       Atomic Center    1 is at   1.482418  1.822755  0.083224
       Atomic Center    2 is at   0.326121  1.132518 -0.274092
       Atomic Center    3 is at   2.661172  1.124028  0.288530
       Atomic Center    4 is at   1.572497 -0.907315 -0.203258
       Atomic Center    5 is at   0.362885 -0.266525 -0.419930
       Atomic Center    6 is at  -2.884141  0.031885  0.082254
       Atomic Center    7 is at  -4.111431 -0.133145  0.951893
       Atomic Center    8 is at   3.948227 -0.966408  0.397502
       Atomic Center    9 is at  -0.875159 -1.052393 -0.832359
       Atomic Center   10 is at   2.691762 -0.219889  0.142526
       Atomic Center   11 is at  -1.957865 -0.986348  0.137399
       Atomic Center   12 is at  -2.704176  1.002710 -0.645519
       Atomic Center   13 is at   1.481917  2.901138  0.196477
       Atomic Center   14 is at  -0.615031  1.647378 -0.450114
       Atomic Center   15 is at   3.592545  1.602732  0.565891
       Atomic Center   16 is at   1.691428 -1.980778 -0.301605
       Atomic Center   17 is at  -4.337036  0.821942  1.431936
       Atomic Center   18 is at  -4.963763 -0.387730  0.312076
       Atomic Center   19 is at  -4.004245 -0.908763  1.715693
       Atomic Center   20 is at   3.919058 -1.391705  1.403632
       Atomic Center   21 is at   4.047706 -1.761543 -0.342286
       Atomic Center   22 is at   4.792916 -0.283926  0.308682
       Atomic Center   23 is at  -1.239135 -0.642992 -1.781189
       Atomic Center   24 is at  -0.613060 -2.101606 -0.994406
       Atomic Center   25 is at  -2.152702 -1.804574  0.697310
      ESP Fit Center   26 is at   1.482418  1.822755  2.183224
      ESP Fit Center   27 is at   2.007418  2.732082  1.901877
      ESP Fit Center   28 is at   0.957418  2.732082  1.901877
      ESP Fit Center   29 is at   0.432418  1.822755  1.901877
      ESP Fit Center   30 is at   0.957418  0.913429  1.901877
      ESP Fit Center   31 is at   3.012366  2.805994 -0.966776
      ESP Fit Center   32 is at   0.291453  3.197202 -0.966776
      ESP Fit Center   33 is at   2.532418  1.822755 -1.735430
      ESP Fit Center   34 is at   2.007418  2.732082 -1.735430
      ESP Fit Center   35 is at   0.957418  2.732082 -1.735430
      ESP Fit Center   36 is at   2.007418  0.913429 -1.735430
      ESP Fit Center   37 is at   1.482418  1.822755 -2.016776
      ESP Fit Center   38 is at   0.326121  1.132518  1.825908
      ESP Fit Center   39 is at  -0.198879  2.041845  1.544561
      ESP Fit Center   40 is at  -0.723879  1.132518  1.544561
      ESP Fit Center   41 is at  -0.198879  0.223191  1.544561
      ESP Fit Center   42 is at   0.067300  2.932660 -1.324092
      ESP Fit Center   43 is at   1.376121  1.132518 -2.092746
      ESP Fit Center   44 is at   0.851121  2.041845 -2.092746
      ESP Fit Center   45 is at  -0.198879  2.041845 -2.092746
      ESP Fit Center   46 is at  -0.723879  1.132518 -2.092746
      ESP Fit Center   47 is at   0.326121  1.132518 -2.374092
      ESP Fit Center   48 is at   2.661172  1.124028  2.388530
      ESP Fit Center   49 is at   2.136172  2.033355  2.107183
      ESP Fit Center   50 is at   1.611172  1.124028  2.107183
      ESP Fit Center   51 is at   3.416667  2.778333 -0.761470
      ESP Fit Center   52 is at   3.711172  1.124028 -1.530124
      ESP Fit Center   53 is at   3.186172  2.033355 -1.530124
      ESP Fit Center   54 is at   2.661172  1.124028 -1.811470
      ESP Fit Center   55 is at   1.572497 -0.907315  1.896742
      ESP Fit Center   56 is at   1.047497  0.002012  1.615395
      ESP Fit Center   57 is at   0.522497 -0.907315  1.615395
      ESP Fit Center   58 is at   1.047497 -1.816641  1.615395
      ESP Fit Center   59 is at   2.097497 -1.816641  1.615395
      ESP Fit Center   60 is at   0.381532 -2.281761  0.846742
      ESP Fit Center   61 is at   2.622497 -0.907315 -2.021912
      ESP Fit Center   62 is at   2.097497  0.002012 -2.021912
      ESP Fit Center   63 is at   1.047497 -1.816641 -2.021912
      ESP Fit Center   64 is at   2.097497 -1.816641 -2.021912
      ESP Fit Center   65 is at   1.572497 -0.907315 -2.303258
      ESP Fit Center   66 is at   0.362885 -0.266525  1.680070
      ESP Fit Center   67 is at  -0.162115 -1.175852  1.398723
      ESP Fit Center   68 is at   1.412885 -0.266525 -2.238584
      ESP Fit Center   69 is at   0.887885  0.642801 -2.238584
      ESP Fit Center   70 is at   0.887885 -1.175852 -2.238584
      ESP Fit Center   71 is at   0.362885 -0.266525 -2.519930
      ESP Fit Center   72 is at  -2.359141  0.941212  1.900907
      ESP Fit Center   73 is at  -1.354192  1.015123  1.132254
      ESP Fit Center   74 is at  -2.128645  1.686190  1.132254
      ESP Fit Center   75 is at  -4.075105 -1.342561 -0.967746
      ESP Fit Center   76 is at  -3.409141 -0.877442 -1.736399
      ESP Fit Center   77 is at  -5.161431 -0.133145  2.770546
      ESP Fit Center   78 is at  -2.581483  0.850093  2.001893
      ESP Fit Center   79 is at  -5.856416  0.379229  2.001893
      ESP Fit Center   80 is at  -5.856416 -0.645519  2.001893
      ESP Fit Center   81 is at  -5.302396  1.241301 -0.098107
      ESP Fit Center   82 is at  -4.370252 -1.933287 -0.098107
      ESP Fit Center   83 is at   5.807685 -1.942326  0.397502
      ESP Fit Center   84 is at   4.473227 -0.057081 -1.421151
      ESP Fit Center   85 is at  -2.066123 -2.426839 -1.882359
      ESP Fit Center   86 is at   0.174841 -1.052393 -2.651012
      ESP Fit Center   87 is at  -0.350159 -1.961720 -2.651012
      ESP Fit Center   88 is at   2.691762 -0.219889  2.242526
      ESP Fit Center   89 is at   1.641762 -0.219889  1.961179
      ESP Fit Center   90 is at   2.166762 -1.129216  1.961179
      ESP Fit Center   91 is at   3.741762 -0.219889 -1.676127
      ESP Fit Center   92 is at   3.216762 -1.129216 -1.676127
      ESP Fit Center   93 is at   2.691762 -0.219889 -1.957474
      ESP Fit Center   94 is at  -1.957865 -0.986348  2.237399
      ESP Fit Center   95 is at  -0.907865 -0.986348  1.956053
      ESP Fit Center   96 is at  -1.432865 -0.077021  1.956053
      ESP Fit Center   97 is at  -1.202369  0.667957  1.187399
      ESP Fit Center   98 is at  -0.427917 -1.969586  1.187399
      ESP Fit Center   99 is at  -3.148830 -2.360795 -0.912601
      ESP Fit Center  100 is at  -2.216687 -2.786490 -0.912601
      ESP Fit Center  101 is at  -2.214176  1.851415  1.051891
      ESP Fit Center  102 is at  -2.179648  2.617043  0.334481
      ESP Fit Center  103 is at  -3.228705  2.617043  0.334481
      ESP Fit Center  104 is at  -2.704176  2.962710 -0.645519
      ESP Fit Center  105 is at  -3.684176  2.700120 -0.645519
      ESP Fit Center  106 is at  -4.401586  1.982710 -0.645519
      ESP Fit Center  107 is at  -2.179648  2.617043 -1.625519
      ESP Fit Center  108 is at  -3.228705  2.617043 -1.625519
      ESP Fit Center  109 is at  -4.077410  2.000423 -1.625519
      ESP Fit Center  110 is at  -4.401586  1.002710 -1.625519
      ESP Fit Center  111 is at  -1.724176  1.002710 -2.342929
      ESP Fit Center  112 is at  -2.214176  1.851415 -2.342929
      ESP Fit Center  113 is at  -3.194176  1.851415 -2.342929
      ESP Fit Center  114 is at  -3.684176  1.002710 -2.342929
      ESP Fit Center  115 is at  -3.194176  0.154006 -2.342929
      ESP Fit Center  116 is at  -2.704176  1.002710 -2.605519
      ESP Fit Center  117 is at   1.787065  3.840287  1.555625
      ESP Fit Center  118 is at   0.683030  3.481564  1.555625
      ESP Fit Center  119 is at   2.705884  3.928168  0.715625
      ESP Fit Center  120 is at   1.759368  4.474639  0.715625
      ESP Fit Center  121 is at   0.683030  4.284852  0.715625
      ESP Fit Center  122 is at  -0.019500  3.447609  0.715625
      ESP Fit Center  123 is at   2.705884  3.928168 -0.322672
      ESP Fit Center  124 is at   1.759368  4.474639 -0.322672
      ESP Fit Center  125 is at   0.683030  4.284852 -0.322672
      ESP Fit Center  126 is at  -0.019500  3.447609 -0.322672
      ESP Fit Center  127 is at   1.787065  3.840287 -1.162672
      ESP Fit Center  128 is at   0.683030  3.481564 -1.162672
      ESP Fit Center  129 is at  -1.413918  2.227804  0.909034
      ESP Fit Center  130 is at  -0.337580  3.220879  0.069034
      ESP Fit Center  131 is at  -1.413918  3.031092  0.069034
      ESP Fit Center  132 is at  -0.337580  3.220879 -0.969263
      ESP Fit Center  133 is at  -1.413918  3.031092 -0.969263
      ESP Fit Center  134 is at  -0.309883  2.586527 -1.809263
      ESP Fit Center  135 is at  -1.413918  2.227804 -1.809263
      ESP Fit Center  136 is at  -0.615031  1.647378 -2.130114
      ESP Fit Center  137 is at   3.592545  1.602732  2.245891
      ESP Fit Center  138 is at   4.580024  1.602732  1.925039
      ESP Fit Center  139 is at   3.897693  2.541881  1.925039
      ESP Fit Center  140 is at   3.897693  0.663584  1.925039
      ESP Fit Center  141 is at   5.190320  1.602732  1.085039
      ESP Fit Center  142 is at   4.816512  2.629762  1.085039
      ESP Fit Center  143 is at   3.869996  3.176233  1.085039
      ESP Fit Center  144 is at   5.190320  1.602732  0.046742
      ESP Fit Center  145 is at   4.816512  2.629762  0.046742
      ESP Fit Center  146 is at   3.869996  3.176233  0.046742
      ESP Fit Center  147 is at   4.580024  1.602732 -0.793258
      ESP Fit Center  148 is at   3.897693  2.541881 -0.793258
      ESP Fit Center  149 is at   0.892541 -2.561204  1.057544
      ESP Fit Center  150 is at   1.996576 -2.919927  1.057544
      ESP Fit Center  151 is at   0.892541 -3.364492  0.217544
      ESP Fit Center  152 is at   1.968879 -3.554279  0.217544
      ESP Fit Center  153 is at   2.915395 -3.007808  0.217544
      ESP Fit Center  154 is at   0.892541 -3.364492 -0.820753
      ESP Fit Center  155 is at   1.968879 -3.554279 -0.820753
      ESP Fit Center  156 is at   2.915395 -3.007808 -0.820753
      ESP Fit Center  157 is at   2.678908 -1.980778 -1.660753
      ESP Fit Center  158 is at   0.892541 -2.561204 -1.660753
      ESP Fit Center  159 is at   1.996576 -2.919927 -1.660753
      ESP Fit Center  160 is at  -4.337036  0.821942  3.111936
      ESP Fit Center  161 is at  -3.349557  0.821942  2.791085
      ESP Fit Center  162 is at  -4.031889  1.761091  2.791085
      ESP Fit Center  163 is at  -5.135924  1.402368  2.791085
      ESP Fit Center  164 is at  -5.135924  0.241516  2.791085
      ESP Fit Center  165 is at  -3.113070  1.848972  1.951085
      ESP Fit Center  166 is at  -4.059586  2.395443  1.951085
      ESP Fit Center  167 is at  -5.135924  2.205656  1.951085
      ESP Fit Center  168 is at  -5.838454  1.368413  1.951085
      ESP Fit Center  169 is at  -4.059586  2.395443  0.912788
      ESP Fit Center  170 is at  -5.135924  2.205656  0.912788
      ESP Fit Center  171 is at  -5.838454  1.368413  0.912788
      ESP Fit Center  172 is at  -6.465180  0.158741  0.831225
      ESP Fit Center  173 is at  -6.465180 -0.934201  0.831225
      ESP Fit Center  174 is at  -5.762650 -1.771443  0.831225
      ESP Fit Center  175 is at  -5.762650  0.995984 -0.207072
      ESP Fit Center  176 is at  -6.465180  0.158741 -0.207072
      ESP Fit Center  177 is at  -6.465180 -0.934201 -0.207072
      ESP Fit Center  178 is at  -5.762650 -1.771443 -0.207072
      ESP Fit Center  179 is at  -4.686312 -1.961231 -0.207072
      ESP Fit Center  180 is at  -4.658615  0.551419 -1.047072
      ESP Fit Center  181 is at  -5.762650  0.192696 -1.047072
      ESP Fit Center  182 is at  -5.762650 -0.968155 -1.047072
      ESP Fit Center  183 is at  -4.658615 -1.326878 -1.047072
      ESP Fit Center  184 is at  -4.963763 -0.387730 -1.367924
      ESP Fit Center  185 is at  -4.004245 -0.908763  3.395693
      ESP Fit Center  186 is at  -3.016766 -0.908763  3.074842
      ESP Fit Center  187 is at  -3.699097  0.030385  3.074842
      ESP Fit Center  188 is at  -4.803133 -0.328337  3.074842
      ESP Fit Center  189 is at  -4.803133 -1.489189  3.074842
      ESP Fit Center  190 is at  -3.699097 -1.847912  3.074842
      ESP Fit Center  191 is at  -2.406470 -0.908763  2.234842
      ESP Fit Center  192 is at  -5.505662 -1.455234  2.234842
      ESP Fit Center  193 is at  -4.803133 -2.292477  2.234842
      ESP Fit Center  194 is at  -3.726794 -2.482264  2.234842
      ESP Fit Center  195 is at  -4.803133 -2.292477  1.196545
      ESP Fit Center  196 is at  -3.726794 -2.482264  1.196545
      ESP Fit Center  197 is at   3.919058 -1.391705  3.083632
      ESP Fit Center  198 is at   4.906537 -1.391705  2.762780
      ESP Fit Center  199 is at   4.224206 -0.452557  2.762780
      ESP Fit Center  200 is at   3.120170 -0.811279  2.762780
      ESP Fit Center  201 is at   3.120170 -1.972131  2.762780
      ESP Fit Center  202 is at   4.224206 -2.330854  2.762780
      ESP Fit Center  203 is at   5.516833 -1.391705  1.922780
      ESP Fit Center  204 is at   2.417640 -1.938176  1.922780
      ESP Fit Center  205 is at   3.120170 -2.775419  1.922780
      ESP Fit Center  206 is at   4.196508 -2.965206  1.922780
      ESP Fit Center  207 is at   5.143024 -2.418735  1.922780
      ESP Fit Center  208 is at   3.248818 -3.145257  0.176862
      ESP Fit Center  209 is at   4.325157 -3.335044  0.176862
      ESP Fit Center  210 is at   5.271673 -2.788573  0.176862
      ESP Fit Center  211 is at   5.645481 -1.761543 -0.861435
      ESP Fit Center  212 is at   3.248818 -3.145257 -0.861435
      ESP Fit Center  213 is at   4.325157 -3.335044 -0.861435
      ESP Fit Center  214 is at   5.271673 -2.788573 -0.861435
      ESP Fit Center  215 is at   5.035185 -1.761543 -1.701435
      ESP Fit Center  216 is at   4.352854 -0.822394 -1.701435
      ESP Fit Center  217 is at   3.248818 -1.181117 -1.701435
      ESP Fit Center  218 is at   3.248818 -2.341969 -1.701435
      ESP Fit Center  219 is at   4.352854 -2.700691 -1.701435
      ESP Fit Center  220 is at   4.047706 -1.761543 -2.022286
      ESP Fit Center  221 is at   5.780395 -0.283926  1.667830
      ESP Fit Center  222 is at   5.098064  0.655223  1.667830
      ESP Fit Center  223 is at   6.390691 -0.283926  0.827830
      ESP Fit Center  224 is at   6.016883  0.743104  0.827830
      ESP Fit Center  225 is at   6.016883 -1.310956  0.827830
      ESP Fit Center  226 is at   6.390691 -0.283926 -0.210467
      ESP Fit Center  227 is at   6.016883  0.743104 -0.210467
      ESP Fit Center  228 is at   5.070367  1.289575 -0.210467
      ESP Fit Center  229 is at   6.016883 -1.310956 -0.210467
      ESP Fit Center  230 is at   5.780395 -0.283926 -1.050467
      ESP Fit Center  231 is at   5.098064  0.655223 -1.050467
      ESP Fit Center  232 is at  -0.961684  0.930509 -2.300338
      ESP Fit Center  233 is at  -2.740552 -0.096521 -2.300338
      ESP Fit Center  234 is at  -2.740552 -1.189463 -2.300338
      ESP Fit Center  235 is at  -2.038023 -2.026705 -2.300338
      ESP Fit Center  236 is at  -0.251656 -0.642992 -3.140338
      ESP Fit Center  237 is at  -0.933987  0.296157 -3.140338
      ESP Fit Center  238 is at  -2.038023 -0.062566 -3.140338
      ESP Fit Center  239 is at  -2.038023 -1.223417 -3.140338
      ESP Fit Center  240 is at  -0.933987 -1.582140 -3.140338
      ESP Fit Center  241 is at  -1.239135 -0.642992 -3.461189
      ESP Fit Center  242 is at  -0.307912 -3.040754  0.364743
      ESP Fit Center  243 is at  -1.411948 -3.485320 -0.475257
      ESP Fit Center  244 is at  -0.335610 -3.675107 -0.475257
      ESP Fit Center  245 is at  -2.114478 -2.648077 -1.513554
      ESP Fit Center  246 is at  -1.411948 -3.485320 -1.513554
      ESP Fit Center  247 is at  -0.335610 -3.675107 -1.513554
      ESP Fit Center  248 is at   0.610906 -3.128636 -1.513554
      ESP Fit Center  249 is at   0.374419 -2.101606 -2.353554
      ESP Fit Center  250 is at  -1.411948 -2.682032 -2.353554
      ESP Fit Center  251 is at  -0.307912 -3.040754 -2.353554
      ESP Fit Center  252 is at  -0.613060 -2.101606 -2.674406
      ESP Fit Center  253 is at  -2.152702 -1.804574  2.377310
      ESP Fit Center  254 is at  -1.165223 -1.804574  2.056459
      ESP Fit Center  255 is at  -2.951590 -2.385000  2.056459
      ESP Fit Center  256 is at  -1.847554 -2.743723  2.056459
      ESP Fit Center  257 is at  -2.951590 -3.188288  1.216459
      ESP Fit Center  258 is at  -1.875251 -3.378075  1.216459
      ESP Fit Center  259 is at  -0.928736 -2.831604  1.216459
      ESP Fit Center  260 is at  -3.654119 -2.351045  0.178161
      ESP Fit Center  261 is at  -2.951590 -3.188288  0.178161
      ESP Fit Center  262 is at  -1.875251 -3.378075  0.178161
      ESP Fit Center  263 is at   1.482418  1.822755  2.483224
      ESP Fit Center  264 is at   2.003078  2.724566  2.245549
      ESP Fit Center  265 is at   0.961757  2.724566  2.245549
      ESP Fit Center  266 is at   0.441097  1.822755  2.245549
      ESP Fit Center  267 is at   0.961757  0.920945  2.245549
      ESP Fit Center  268 is at   3.060942  2.837211 -1.413152
      ESP Fit Center  269 is at   2.523739  1.822755 -2.079101
      ESP Fit Center  270 is at   2.003078  2.724566 -2.079101
      ESP Fit Center  271 is at   0.961757  2.724566 -2.079101
      ESP Fit Center  272 is at   2.003078  0.920945 -2.079101
      ESP Fit Center  273 is at   1.482418  1.822755 -2.316776
      ESP Fit Center  274 is at   0.326121  1.132518  2.125908
      ESP Fit Center  275 is at  -0.194539  2.034329  1.888233
      ESP Fit Center  276 is at  -0.715199  1.132518  1.888233
      ESP Fit Center  277 is at  -0.194539  0.230708  1.888233
      ESP Fit Center  278 is at   0.846782  0.230708  1.888233
      ESP Fit Center  279 is at  -0.902656  2.550603  1.222283
      ESP Fit Center  280 is at   0.059083  2.989815 -1.770468
      ESP Fit Center  281 is at   1.367442  1.132518 -2.436418
      ESP Fit Center  282 is at   0.846782  2.034329 -2.436418
      ESP Fit Center  283 is at  -0.194539  2.034329 -2.436418
      ESP Fit Center  284 is at  -0.715199  1.132518 -2.436418
      ESP Fit Center  285 is at   0.326121  1.132518 -2.674092
      ESP Fit Center  286 is at   2.661172  1.124028  2.688530
      ESP Fit Center  287 is at   3.702493  1.124028  2.450855
      ESP Fit Center  288 is at   3.181832  2.025838  2.450855
      ESP Fit Center  289 is at   2.140511  2.025838  2.450855
      ESP Fit Center  290 is at   1.619851  1.124028  2.450855
      ESP Fit Center  291 is at   2.140511  0.222218  2.450855
      ESP Fit Center  292 is at   3.181832  0.222218  2.450855
      ESP Fit Center  293 is at   4.537567  1.124028 -1.207846
      ESP Fit Center  294 is at   4.239696  2.138484 -1.207846
      ESP Fit Center  295 is at   3.440654  2.830857 -1.207846
      ESP Fit Center  296 is at   3.702493  1.124028 -1.873796
      ESP Fit Center  297 is at   3.181832  2.025838 -1.873796
      ESP Fit Center  298 is at   2.661172  1.124028 -2.111470
      ESP Fit Center  299 is at   1.572497 -0.907315  2.196742
      ESP Fit Center  300 is at   1.051836 -0.005504  1.959067
      ESP Fit Center  301 is at   0.531176 -0.907315  1.959067
      ESP Fit Center  302 is at   1.051836 -1.809125  1.959067
      ESP Fit Center  303 is at   2.093157 -1.809125  1.959067
      ESP Fit Center  304 is at   0.343719 -2.325400  1.293117
      ESP Fit Center  305 is at   2.613818 -0.907315 -2.365584
      ESP Fit Center  306 is at   2.093157 -0.005504 -2.365584
      ESP Fit Center  307 is at   1.051836 -1.809125 -2.365584
      ESP Fit Center  308 is at   2.093157 -1.809125 -2.365584
      ESP Fit Center  309 is at   1.572497 -0.907315 -2.603258
      ESP Fit Center  310 is at   0.362885 -0.266525  1.980070
      ESP Fit Center  311 is at  -0.157776 -1.168336  1.742395
      ESP Fit Center  312 is at   1.404205 -0.266525 -2.582256
      ESP Fit Center  313 is at   0.883545  0.635285 -2.582256
      ESP Fit Center  314 is at   0.883545 -1.168336 -2.582256
      ESP Fit Center  315 is at   0.362885 -0.266525 -2.819930
      ESP Fit Center  316 is at  -2.363480  0.933696  2.244579
      ESP Fit Center  317 is at  -1.305616  1.046341  1.578630
      ESP Fit Center  318 is at  -2.104658  1.738715  1.578630
      ESP Fit Center  319 is at  -4.112918 -1.386200 -1.414121
      ESP Fit Center  320 is at  -3.404801 -0.869925 -2.080071
      ESP Fit Center  321 is at  -5.152752 -0.133145  3.114218
      ESP Fit Center  322 is at  -2.235035 -0.133145  2.448268
      ESP Fit Center  323 is at  -2.532907  0.881311  2.448268
      ESP Fit Center  324 is at  -5.911819  0.395497  2.448268
      ESP Fit Center  325 is at  -5.911819 -0.661787  2.448268
      ESP Fit Center  326 is at  -4.632092 -2.414308  0.417843
      ESP Fit Center  327 is at   5.824623 -0.966408  1.893878
      ESP Fit Center  328 is at   3.427567 -3.247570  0.931553
      ESP Fit Center  329 is at   4.468888 -3.247570  0.931553
      ESP Fit Center  330 is at   5.407086 -2.795758  0.931553
      ESP Fit Center  331 is at   6.056339 -1.981621  0.931553
      ESP Fit Center  332 is at   6.056339 -1.981621 -0.136548
      ESP Fit Center  333 is at   4.468888 -0.064597 -1.764823
      ESP Fit Center  334 is at  -2.334017 -2.881743 -1.366409
      ESP Fit Center  335 is at  -2.103936 -2.470478 -2.328734
      ESP Fit Center  336 is at  -0.354498 -1.954203 -2.994684
      ESP Fit Center  337 is at   2.691762 -0.219889  2.542526
      ESP Fit Center  338 is at   1.650441 -0.219889  2.304851
      ESP Fit Center  339 is at   2.171102 -1.121700  2.304851
      ESP Fit Center  340 is at   3.733083 -0.219889 -2.019799
      ESP Fit Center  341 is at   3.212423  0.681921 -2.019799
      ESP Fit Center  342 is at   2.171102  0.681921 -2.019799
      ESP Fit Center  343 is at   3.212423 -1.121700 -2.019799
      ESP Fit Center  344 is at   2.691762 -0.219889 -2.257474
      ESP Fit Center  345 is at  -1.957865 -0.986348  2.537399
      ESP Fit Center  346 is at  -0.916544 -0.986348  2.299725
      ESP Fit Center  347 is at  -1.437205 -0.084538  2.299725
      ESP Fit Center  348 is at  -1.178382  0.720481  1.633775
      ESP Fit Center  349 is at  -0.379341 -2.000804  1.633775
      ESP Fit Center  350 is at  -3.416723 -2.815698 -0.396651
      ESP Fit Center  351 is at  -3.186643 -2.404433 -1.358976
      ESP Fit Center  352 is at  -2.162994  2.668298  0.751098
      ESP Fit Center  353 is at  -3.245359  2.668298  0.751098
      ESP Fit Center  354 is at  -2.440944  3.170626 -0.147072
      ESP Fit Center  355 is at  -3.478576  3.044635 -0.147072
      ESP Fit Center  356 is at  -4.338803  2.450863 -0.147072
      ESP Fit Center  357 is at  -2.440944  3.170626 -1.143966
      ESP Fit Center  358 is at  -3.478576  3.044635 -1.143966
      ESP Fit Center  359 is at  -4.338803  2.450863 -1.143966
      ESP Fit Center  360 is at  -4.824557  1.525337 -1.143966
      ESP Fit Center  361 is at  -2.162994  2.668298 -2.042136
      ESP Fit Center  362 is at  -3.245359  2.668298 -2.042136
      ESP Fit Center  363 is at  -4.121010  2.032100 -2.042136
      ESP Fit Center  364 is at  -4.455479  1.002710 -2.042136
      ESP Fit Center  365 is at  -4.121010 -0.026679 -2.042136
      ESP Fit Center  366 is at  -1.732277  1.002710 -2.663689
      ESP Fit Center  367 is at  -2.218227  1.844400 -2.663689
      ESP Fit Center  368 is at  -3.190126  1.844400 -2.663689
      ESP Fit Center  369 is at  -3.676076  1.002710 -2.663689
      ESP Fit Center  370 is at  -3.190126  0.161021 -2.663689
      ESP Fit Center  371 is at  -2.704176  1.002710 -2.885519
      ESP Fit Center  372 is at   1.961917  3.732523  1.859245
      ESP Fit Center  373 is at   1.001917  3.732523  1.859245
      ESP Fit Center  374 is at   2.827125  3.878489  1.156477
      ESP Fit Center  375 is at   1.995741  4.482525  1.156477
      ESP Fit Center  376 is at   0.968093  4.482525  1.156477
      ESP Fit Center  377 is at   0.136709  3.878489  1.156477
      ESP Fit Center  378 is at   3.144686  3.861138  0.196477
      ESP Fit Center  379 is at   2.441917  4.563907  0.196477
      ESP Fit Center  380 is at   1.481917  4.821138  0.196477
      ESP Fit Center  381 is at   0.521917  4.563907  0.196477
      ESP Fit Center  382 is at  -0.180852  3.861138  0.196477
      ESP Fit Center  383 is at   2.827125  3.878489 -0.763523
      ESP Fit Center  384 is at   1.995741  4.482525 -0.763523
      ESP Fit Center  385 is at   0.968093  4.482525 -0.763523
      ESP Fit Center  386 is at   0.136709  3.878489 -0.763523
      ESP Fit Center  387 is at   1.961917  3.732523 -1.466292
      ESP Fit Center  388 is at   1.001917  3.732523 -1.466292
      ESP Fit Center  389 is at  -1.095031  2.478762  1.212655
      ESP Fit Center  390 is at  -1.128855  3.228765  0.509886
      ESP Fit Center  391 is at  -0.615031  3.567378 -0.450114
      ESP Fit Center  392 is at  -1.575031  3.310147 -0.450114
      ESP Fit Center  393 is at  -0.101207  3.228765 -1.410114
      ESP Fit Center  394 is at  -1.128855  3.228765 -1.410114
      ESP Fit Center  395 is at  -1.095031  2.478762 -2.112883
      ESP Fit Center  396 is at   3.592545  1.602732  2.485891
      ESP Fit Center  397 is at   4.552545  1.602732  2.228660
      ESP Fit Center  398 is at   4.072545  2.434117  2.228660
      ESP Fit Center  399 is at   4.072545  0.771348  2.228660
      ESP Fit Center  400 is at   5.255314  1.602732  1.525891
      ESP Fit Center  401 is at   4.937753  2.580083  1.525891
      ESP Fit Center  402 is at   4.106369  3.184119  1.525891
      ESP Fit Center  403 is at   3.078721  3.184119  1.525891
      ESP Fit Center  404 is at   5.512545  1.602732  0.565891
      ESP Fit Center  405 is at   5.255314  2.562732  0.565891
      ESP Fit Center  406 is at   4.552545  3.265501  0.565891
      ESP Fit Center  407 is at   3.592545  3.522732  0.565891
      ESP Fit Center  408 is at   5.255314  1.602732 -0.394109
      ESP Fit Center  409 is at   4.937753  2.580083 -0.394109
      ESP Fit Center  410 is at   4.106369  3.184119 -0.394109
      ESP Fit Center  411 is at   1.211428 -2.812163  1.361164
      ESP Fit Center  412 is at   2.171428 -2.812163  1.361164
      ESP Fit Center  413 is at   0.346220 -2.958129  0.658395
      ESP Fit Center  414 is at   1.177605 -3.562165  0.658395
      ESP Fit Center  415 is at   2.205252 -3.562165  0.658395
      ESP Fit Center  416 is at   0.731428 -3.643547 -0.301605
      ESP Fit Center  417 is at   1.691428 -3.900778 -0.301605
      ESP Fit Center  418 is at   2.651428 -3.643547 -0.301605
      ESP Fit Center  419 is at   1.177605 -3.562165 -1.261605
      ESP Fit Center  420 is at   2.205252 -3.562165 -1.261605
      ESP Fit Center  421 is at   1.211428 -2.812163 -1.964373
      ESP Fit Center  422 is at   2.171428 -2.812163 -1.964373
      ESP Fit Center  423 is at  -4.337036  0.821942  3.351936
      ESP Fit Center  424 is at  -3.377036  0.821942  3.094705
      ESP Fit Center  425 is at  -3.857036  1.653326  3.094705
      ESP Fit Center  426 is at  -4.817036  1.653326  3.094705
      ESP Fit Center  427 is at  -5.297036  0.821942  3.094705
      ESP Fit Center  428 is at  -2.991828  1.799293  2.391936
      ESP Fit Center  429 is at  -3.823213  2.403329  2.391936
      ESP Fit Center  430 is at  -4.850860  2.403329  2.391936
      ESP Fit Center  431 is at  -5.682245  1.799293  2.391936
      ESP Fit Center  432 is at  -5.999805  0.821942  2.391936
      ESP Fit Center  433 is at  -3.377036  2.484711  1.431936
      ESP Fit Center  434 is at  -4.337036  2.741942  1.431936
      ESP Fit Center  435 is at  -5.297036  2.484711  1.431936
      ESP Fit Center  436 is at  -5.999805  1.781942  1.431936
      ESP Fit Center  437 is at  -4.850860  2.403329  0.471936
      ESP Fit Center  438 is at  -5.682245  1.799293  0.471936
      ESP Fit Center  439 is at  -6.626531 -0.387730  1.272076
      ESP Fit Center  440 is at  -6.308971 -1.365081  1.272076
      ESP Fit Center  441 is at  -6.626531  0.572270  0.312076
      ESP Fit Center  442 is at  -6.883763 -0.387730  0.312076
      ESP Fit Center  443 is at  -6.626531 -1.347730  0.312076
      ESP Fit Center  444 is at  -5.923763 -2.050498  0.312076
      ESP Fit Center  445 is at  -4.963763 -2.307730  0.312076
      ESP Fit Center  446 is at  -5.477586  1.193657 -0.647924
      ESP Fit Center  447 is at  -6.308971  0.589621 -0.647924
      ESP Fit Center  448 is at  -6.626531 -0.387730 -0.647924
      ESP Fit Center  449 is at  -6.308971 -1.365081 -0.647924
      ESP Fit Center  450 is at  -5.477586 -1.969117 -0.647924
      ESP Fit Center  451 is at  -4.449939 -1.969117 -0.647924
      ESP Fit Center  452 is at  -5.443763  0.443655 -1.350692
      ESP Fit Center  453 is at  -5.923763 -0.387730 -1.350692
      ESP Fit Center  454 is at  -5.443763 -1.219114 -1.350692
      ESP Fit Center  455 is at  -4.483763 -1.219114 -1.350692
      ESP Fit Center  456 is at  -4.963763 -0.387730 -1.607924
      ESP Fit Center  457 is at  -4.004245 -0.908763  3.635693
      ESP Fit Center  458 is at  -3.044245 -0.908763  3.378462
      ESP Fit Center  459 is at  -3.524245 -0.077379  3.378462
      ESP Fit Center  460 is at  -4.484245 -0.077379  3.378462
      ESP Fit Center  461 is at  -4.964245 -0.908763  3.378462
      ESP Fit Center  462 is at  -4.484245 -1.740147  3.378462
      ESP Fit Center  463 is at  -3.524245 -1.740147  3.378462
      ESP Fit Center  464 is at  -2.341476 -0.908763  2.675693
      ESP Fit Center  465 is at  -5.667014 -0.908763  2.675693
      ESP Fit Center  466 is at  -5.349453 -1.886114  2.675693
      ESP Fit Center  467 is at  -4.518069 -2.490150  2.675693
      ESP Fit Center  468 is at  -3.490421 -2.490150  2.675693
      ESP Fit Center  469 is at  -2.659037 -1.886114  2.675693
      ESP Fit Center  470 is at  -5.667014 -1.868763  1.715693
      ESP Fit Center  471 is at  -4.964245 -2.571532  1.715693
      ESP Fit Center  472 is at  -4.004245 -2.828763  1.715693
      ESP Fit Center  473 is at   3.919058 -1.391705  3.323632
      ESP Fit Center  474 is at   4.879058 -1.391705  3.066400
      ESP Fit Center  475 is at   4.399058 -0.560321  3.066400
      ESP Fit Center  476 is at   3.439058 -0.560321  3.066400
      ESP Fit Center  477 is at   2.959058 -1.391705  3.066400
      ESP Fit Center  478 is at   3.439058 -2.223090  3.066400
      ESP Fit Center  479 is at   4.399058 -2.223090  3.066400
      ESP Fit Center  480 is at   5.581826 -1.391705  2.363632
      ESP Fit Center  481 is at   5.264266 -0.414354  2.363632
      ESP Fit Center  482 is at   2.256289 -1.391705  2.363632
      ESP Fit Center  483 is at   2.573849 -2.369056  2.363632
      ESP Fit Center  484 is at   3.405234 -2.973092  2.363632
      ESP Fit Center  485 is at   4.432882 -2.973092  2.363632
      ESP Fit Center  486 is at   5.264266 -2.369056  2.363632
      ESP Fit Center  487 is at   2.959058 -3.054474  1.403632
      ESP Fit Center  488 is at   3.919058 -3.311705  1.403632
      ESP Fit Center  489 is at   4.879058 -3.054474  1.403632
      ESP Fit Center  490 is at   3.533882 -3.342930  0.617714
      ESP Fit Center  491 is at   4.561530 -3.342930  0.617714
      ESP Fit Center  492 is at   3.087706 -3.424312 -0.342286
      ESP Fit Center  493 is at   4.047706 -3.681543 -0.342286
      ESP Fit Center  494 is at   5.007706 -3.424312 -0.342286
      ESP Fit Center  495 is at   5.710475 -2.721543 -0.342286
      ESP Fit Center  496 is at   5.710475 -1.761543 -1.302286
      ESP Fit Center  497 is at   3.533882 -3.342930 -1.302286
      ESP Fit Center  498 is at   4.561530 -3.342930 -1.302286
      ESP Fit Center  499 is at   5.392914 -2.738894 -1.302286
      ESP Fit Center  500 is at   5.007706 -1.761543 -2.005055
      ESP Fit Center  501 is at   4.527706 -0.930158 -2.005055
      ESP Fit Center  502 is at   3.567706 -0.930158 -2.005055
      ESP Fit Center  503 is at   3.087706 -1.761543 -2.005055
      ESP Fit Center  504 is at   3.567706 -2.592927 -2.005055
      ESP Fit Center  505 is at   4.527706 -2.592927 -2.005055
      ESP Fit Center  506 is at   4.047706 -1.761543 -2.262286
[...]
  447 Fit       0.076610
  448 Fit       0.080645
  449 Fit       0.085332
  450 Fit       0.092637
  451 Fit       0.105647
  452 Fit       0.075781
  453 Fit       0.082135
  454 Fit       0.089399
  455 Fit       0.100307
  456 Fit       0.085782
  457 Fit       0.094525
  458 Fit       0.104254
  459 Fit       0.097017
  460 Fit       0.090710
  461 Fit       0.088854
  462 Fit       0.094177
  463 Fit       0.103160
  464 Fit       0.118254
  465 Fit       0.087020
  466 Fit       0.089957
  467 Fit       0.098661
  468 Fit       0.112891
  469 Fit       0.124685
  470 Fit       0.090710
  471 Fit       0.097519
  472 Fit       0.113411
  473 Fit       0.127849
  474 Fit       0.124853
  475 Fit       0.131613
  476 Fit       0.137203
  477 Fit       0.135528
  478 Fit       0.129229
  479 Fit       0.124007
  480 Fit       0.127147
  481 Fit       0.135549
  482 Fit       0.149755
  483 Fit       0.142240
  484 Fit       0.132082
  485 Fit       0.125433
  486 Fit       0.123875
  487 Fit       0.148212
  488 Fit       0.135374
  489 Fit       0.130461
  490 Fit       0.146216
  491 Fit       0.134277
  492 Fit       0.154041
  493 Fit       0.134266
  494 Fit       0.126865
  495 Fit       0.126710
  496 Fit       0.127859
  497 Fit       0.141046
  498 Fit       0.128318
  499 Fit       0.124503
  500 Fit       0.128614
  501 Fit       0.137822
  502 Fit       0.149270
  503 Fit       0.153177
  504 Fit       0.140551
  505 Fit       0.129210
  506 Fit       0.136154
  507 Fit       0.133597
  508 Fit       0.142890
  509 Fit       0.126838
  510 Fit       0.133098
  511 Fit       0.124605
  512 Fit       0.129520
  513 Fit       0.144728
  514 Fit       0.127764
  515 Fit       0.125757
  516 Fit       0.131367
  517 Fit       0.148110
  518 Fit       0.130276
  519 Fit       0.131030
  520 Fit       0.138791
  521 Fit       0.125917
  522 Fit       0.109648
  523 Fit       0.081907
  524 Fit       0.091251
  525 Fit       0.102548
  526 Fit       0.111895
  527 Fit       0.114919
  528 Fit       0.106811
  529 Fit       0.094272
  530 Fit       0.095530
  531 Fit       0.103610
  532 Fit       0.111998
  533 Fit       0.103281
  534 Fit       0.153855
  535 Fit       0.137065
  536 Fit       0.142195
  537 Fit       0.123465
  538 Fit       0.127169
  539 Fit       0.140317
  540 Fit       0.114907
  541 Fit       0.117619
  542 Fit       0.125954
  543 Fit       0.142041
  544 Fit       0.133215
  545 Fit       0.115178
  546 Fit       0.122960
  547 Fit       0.126344
  548 Fit       0.127581
  549 Fit       0.128484
  550 Fit       0.130164
  551 Fit       0.127656
  552 Fit       0.127898
  553 Fit       0.133621
  554 Fit       0.140668
  555 Fit       0.122171
  556 Fit       0.124078
  557 Fit       0.130921
  558 Fit       0.142579
  559 Fit       0.124232
  560 Fit       0.120630
  561 Fit       0.121593
  562 Fit       0.114478
  563 Fit       0.116095
  564 Fit       0.125150
  565 Fit       0.113628
  566 Fit       0.120886
  567 Fit       0.113704
  568 Fit       0.111260
  569 Fit       0.120594
  570 Fit       0.112067
  571 Fit       0.110878
  572 Fit       0.129037
  573 Fit       0.116198
  574 Fit       0.121001
  575 Fit       0.115408
  576 Fit       0.115735
  577 Fit       0.121757
  578 Fit       0.133764
  579 Fit       0.110731
  580 Fit       0.106651
  581 Fit       0.119195
  582 Fit       0.110611
  583 Fit       0.103726
  584 Fit       0.112809
  585 Fit       0.129511
  586 Fit       0.136763
  587 Fit       0.129244
  588 Fit       0.124372
  589 Fit       0.126332
  590 Fit       0.135542
  591 Fit       0.142151
  592 Fit       0.137975
  593 Fit       0.128694
  594 Fit       0.123937
  595 Fit       0.129758
  596 Fit       0.122524
  597 Fit       0.127399
  598 Fit       0.135888
  599 Fit       0.131131
  600 Fit       0.136011
  601 Fit       0.140545
  602 Fit       0.142427
  603 Fit       0.132207
  604 Fit       0.128953
  605 Fit       0.134014
  606 Fit       0.133012
  607 Fit       0.127869
  608 Fit       0.127969
  609 Fit       0.125084
  610 Fit       0.119531
  611 Fit       0.128768
  612 Fit       0.114597
  613 Fit       0.102272
  614 Fit       0.094216
  615 Fit       0.089652
  616 Fit       0.083954
  617 Fit       0.108805
  618 Fit       0.101711
  619 Fit       0.079645
  620 Fit       0.081299
  621 Fit       0.077743
  622 Fit       0.081246
  623 Fit       0.075550
  624 Fit       0.094986
  625 Fit       0.068204
  626 Fit       0.100761
  627 Fit       0.123330
  628 Fit       0.129812
  629 Fit       0.142995
  630 Fit       0.121406
  631 Fit       0.119626
  632 Fit       0.120705
  633 Fit       0.119476
  634 Fit       0.121147
  635 Fit       0.124071
  636 Fit       0.133647
  637 Fit       0.148671
  638 Fit       0.109060
  639 Fit       0.104724
  640 Fit       0.131354
  641 Fit       0.113997
  642 Fit       0.139747
  643 Fit       0.135693
  644 Fit       0.134135
  645 Fit       0.131461
  646 Fit       0.132848
  647 Fit       0.140568
  648 Fit       0.114562
  649 Fit       0.116158
  650 Fit       0.110708
  651 Fit       0.115424
  652 Fit       0.132266
  653 Fit       0.105495
  654 Fit       0.116236
  655 Fit       0.101903
  656 Fit       0.091189
  657 Fit       0.071880
  658 Fit       0.075034
  659 Fit       0.057191
  660 Fit       0.053795
  661 Fit       0.067861
  662 Fit       0.050678
  663 Fit       0.045321
  664 Fit       0.050177
  665 Fit       0.069001
  666 Fit       0.051210
  667 Fit       0.044871
  668 Fit       0.049544
  669 Fit       0.063551
  670 Fit       0.064534
  671 Fit       0.051526
  672 Fit       0.055413
  673 Fit       0.072240
  674 Fit       0.064784
  675 Fit       0.117911
  676 Fit       0.112438
  677 Fit       0.128023
  678 Fit       0.114109
  679 Fit       0.108925
  680 Fit       0.109103
  681 Fit       0.130854
  682 Fit       0.115300
  683 Fit       0.108705
  684 Fit       0.106793
  685 Fit       0.109237
  686 Fit       0.121921
  687 Fit       0.111352
  688 Fit       0.107498
  689 Fit       0.109050
  690 Fit       0.113212
  691 Fit       0.111328
  692 Fit       0.109302
  693 Fit       0.089468
  694 Fit       0.093205
  695 Fit       0.097018
  696 Fit       0.087991
  697 Fit       0.134021
  698 Fit       0.127960
  699 Fit       0.136457
  700 Fit       0.127173
  701 Fit       0.125869
  702 Fit       0.132476
  703 Fit       0.128273
  704 Fit       0.125360
  705 Fit       0.130297
  706 Fit       0.140787
  707 Fit       0.128945
  708 Fit       0.127784
  709 Fit       0.142754
  710 Fit       0.148357
  711 Fit       0.144631
  712 Fit       0.137878
  713 Fit       0.141707
  714 Fit       0.138503
  715 Fit       0.135754
  716 Fit       0.142926
  717 Fit       0.135836
  718 Fit       0.137465
  719 Fit       0.139175
  720 Fit       0.137553
  721 Fit       0.085644
  722 Fit       0.086266
  723 Fit       0.080310
  724 Fit       0.080344
  725 Fit       0.095621
  726 Fit       0.085028
  727 Fit       0.078753
  728 Fit       0.075957
  729 Fit       0.076103
  730 Fit       0.081505
  731 Fit       0.075245
  732 Fit       0.072902
  733 Fit       0.072632
  734 Fit       0.074784
  735 Fit       0.063588
  736 Fit       0.068526
  737 Fit       0.079169
  738 Fit       0.084527
  739 Fit       0.073406
  740 Fit       0.074504
  741 Fit       0.076996
  742 Fit       0.081184
  743 Fit       0.088494
  744 Fit       0.070621
  745 Fit       0.074011
  746 Fit       0.077617
  747 Fit       0.082881
  748 Fit       0.091725
  749 Fit       0.071003
  750 Fit       0.077297
  751 Fit       0.084874
  752 Fit       0.081045
  753 Fit       0.090375
  754 Fit       0.100599
  755 Fit       0.093815
  756 Fit       0.084596
  757 Fit       0.089492
  758 Fit       0.098671
  759 Fit       0.083336
  760 Fit       0.087809
  761 Fit       0.097241
  762 Fit       0.111213
  763 Fit       0.088323
  764 Fit       0.096856
  765 Fit       0.114610
  766 Fit       0.120443
  767 Fit       0.117446
  768 Fit       0.124668
  769 Fit       0.130370
  770 Fit       0.128512
  771 Fit       0.121855
  772 Fit       0.116404
  773 Fit       0.119846
  774 Fit       0.140831
  775 Fit       0.131819
  776 Fit       0.122612
  777 Fit       0.117316
  778 Fit       0.116442
  779 Fit       0.137292
  780 Fit       0.126802
  781 Fit       0.122896
  782 Fit       0.138639
  783 Fit       0.124161
  784 Fit       0.118691
  785 Fit       0.119277
  786 Fit       0.120594
  787 Fit       0.128595
  788 Fit       0.119157
  789 Fit       0.116797
  790 Fit       0.121263
  791 Fit       0.132869
  792 Fit       0.121397
  793 Fit       0.128722
  794 Fit       0.126215
  795 Fit       0.135351
  796 Fit       0.119008
  797 Fit       0.123974
  798 Fit       0.116630
  799 Fit       0.120595
  800 Fit       0.132950
  801 Fit       0.119384
  802 Fit       0.117979
  803 Fit       0.122358
  804 Fit       0.135806
  805 Fit       0.121880
  806 Fit       0.123744
  807 Fit       0.131178
  808 Fit       0.109443
  809 Fit       0.084947
  810 Fit       0.092401
  811 Fit       0.100876
  812 Fit       0.109904
  813 Fit       0.101541
  814 Fit       0.088833
  815 Fit       0.090022
  816 Fit       0.098295
  817 Fit       0.107003
  818 Fit       0.097733
  819 Fit       0.148171
  820 Fit       0.130167
  821 Fit       0.139206
  822 Fit       0.117800
  823 Fit       0.117322
  824 Fit       0.122469
  825 Fit       0.137519
  826 Fit       0.109195
  827 Fit       0.112681
  828 Fit       0.121798
  829 Fit       0.138109
  830 Fit       0.109159
  831 Fit       0.116852
  832 Fit       0.119298
  833 Fit       0.122667
  834 Fit       0.119834
  835 Fit       0.122515
  836 Fit       0.117749
  837 Fit       0.120147
  838 Fit       0.127004
  839 Fit       0.135563
  840 Fit       0.114006
  841 Fit       0.117124
  842 Fit       0.124934
  843 Fit       0.138084
  844 Fit       0.120558
  845 Fit       0.115532
  846 Fit       0.115106
  847 Fit       0.109266
  848 Fit       0.111482
  849 Fit       0.119814
  850 Fit       0.116085
  851 Fit       0.107003
  852 Fit       0.109168
  853 Fit       0.107241
  854 Fit       0.114682
  855 Fit       0.113212
  856 Fit       0.106512
  857 Fit       0.103770
  858 Fit       0.114626
  859 Fit       0.106770
  860 Fit       0.111597
  861 Fit       0.117923
  862 Fit       0.105810
  863 Fit       0.104466
  864 Fit       0.104144
  865 Fit       0.099282
  866 Fit       0.113070
  867 Fit       0.104897
  868 Fit       0.098275
  869 Fit       0.107024
  870 Fit       0.122263
  871 Fit       0.127275
  872 Fit       0.120912
  873 Fit       0.117772
  874 Fit       0.120276
  875 Fit       0.127861
  876 Fit       0.132481
  877 Fit       0.120976
  878 Fit       0.127363
  879 Fit       0.119584
  880 Fit       0.115713
  881 Fit       0.122077
  882 Fit       0.116040
  883 Fit       0.120927
  884 Fit       0.125938
  885 Fit       0.129297
  886 Fit       0.132317
  887 Fit       0.133395
  888 Fit       0.139379
  889 Fit       0.131345
  890 Fit       0.124014
  891 Fit       0.121776
  892 Fit       0.125221
  893 Fit       0.124393
  894 Fit       0.120988
  895 Fit       0.123643
  896 Fit       0.118327
  897 Fit       0.113196
  898 Fit       0.110185
  899 Fit       0.099780
  900 Fit       0.077986
  901 Fit       0.088242
  902 Fit       0.087530
  903 Fit       0.080555
  904 Fit       0.103556
  905 Fit       0.096950
  906 Fit       0.076252
  907 Fit       0.077916
  908 Fit       0.073548
  909 Fit       0.075203
  910 Fit       0.079485
  911 Fit       0.072546
  912 Fit       0.078632
  913 Fit       0.084201
  914 Fit       0.069879
  915 Fit       0.094750
  916 Fit       0.060211
  917 Fit       0.099759
  918 Fit       0.121076
  919 Fit       0.131460
  920 Fit       0.114038
  921 Fit       0.111978
  922 Fit       0.132466
  923 Fit       0.121245
  924 Fit       0.114965
  925 Fit       0.111623
  926 Fit       0.111077
  927 Fit       0.112964
  928 Fit       0.111643
  929 Fit       0.113590
  930 Fit       0.116566
  931 Fit       0.130804
  932 Fit       0.120732
  933 Fit       0.125528
  934 Fit       0.098279
  935 Fit       0.098574
  936 Fit       0.121030
  937 Fit       0.107040
  938 Fit       0.131520
  939 Fit       0.128651
  940 Fit       0.125955
  941 Fit       0.123856
  942 Fit       0.109724
  943 Fit       0.112686
  944 Fit       0.107877
  945 Fit       0.111319
  946 Fit       0.125017
  947 Fit       0.135900
  948 Fit       0.104319
  949 Fit       0.096671
  950 Fit       0.101344
  951 Fit       0.097674
  952 Fit       0.079919
  953 Fit       0.066761
  954 Fit       0.061414
  955 Fit       0.067183
  956 Fit       0.055237
  957 Fit       0.051641
  958 Fit       0.055106
  959 Fit       0.072184
  960 Fit       0.055858
  961 Fit       0.048559
  962 Fit       0.048749
  963 Fit       0.056087
  964 Fit       0.072661
  965 Fit       0.057462
  966 Fit       0.049841
  967 Fit       0.049892
  968 Fit       0.056908
  969 Fit       0.068611
  970 Fit       0.066917
  971 Fit       0.055612
  972 Fit       0.058502
  973 Fit       0.072584
  974 Fit       0.067285
  975 Fit       0.112556
  976 Fit       0.107720
  977 Fit       0.121229
  978 Fit       0.108503
  979 Fit       0.103533
  980 Fit       0.103726
  981 Fit       0.111193
  982 Fit       0.103722
  983 Fit       0.100852
  984 Fit       0.101446
  985 Fit       0.106473
  986 Fit       0.123879
  987 Fit       0.109585
  988 Fit       0.102808
  989 Fit       0.100267
  990 Fit       0.101164
  991 Fit       0.105350
  992 Fit       0.101771
  993 Fit       0.103193
  994 Fit       0.090912
  995 Fit       0.097114
  996 Fit       0.091637
  997 Fit       0.091185
  998 Fit       0.085523
  999 Fit       0.126388
 1000 Fit       0.121114
 1001 Fit       0.127489
 1002 Fit       0.119625
 1003 Fit       0.118411
 1004 Fit       0.123515
 1005 Fit       0.120381
 1006 Fit       0.117256
 1007 Fit       0.119985
 1008 Fit       0.121313
 1009 Fit       0.117998
 1010 Fit       0.121235
 1011 Fit       0.122155
 1012 Fit       0.121045
 1013 Fit       0.137450
 1014 Fit       0.131529
 1015 Fit       0.135448
 1016 Fit       0.129511
 1017 Fit       0.129384
 1018 Fit       0.128702
 1019 Fit       0.127878
 1020 Fit       0.128133
 1021 Fit       0.129258
 1022 Fit       0.131402
 1023 Fit       0.130009
 1024 Fit       0.082793
 1025 Fit       0.083185
 1026 Fit       0.077520
 1027 Fit       0.077701
 1028 Fit       0.092215
 1029 Fit       0.082624
 1030 Fit       0.076273
 1031 Fit       0.073318
 1032 Fit       0.073408
 1033 Fit       0.085882
 1034 Fit       0.076930
 1035 Fit       0.072343
 1036 Fit       0.070481
 1037 Fit       0.070796
 1038 Fit       0.068214
 1039 Fit       0.067205
 1040 Fit       0.067565
 1041 Fit       0.069684
 1042 Fit       0.071537
 1043 Fit       0.072453
 1044 Fit       0.075206
 1045 Fit       0.080315
 1046 Fit       0.068262
 1047 Fit       0.069552
 1048 Fit       0.071475
 1049 Fit       0.074550
 1050 Fit       0.079512
 1051 Fit       0.087854
 1052 Fit       0.067047
 1053 Fit       0.070386
 1054 Fit       0.073902
 1055 Fit       0.079168
 1056 Fit       0.087748
 1057 Fit       0.068240
 1058 Fit       0.073822
 1059 Fit       0.080982
 1060 Fit       0.077350
 1061 Fit       0.086813
 1062 Fit       0.095606
 1063 Fit       0.081513
 1064 Fit       0.085568
 1065 Fit       0.093363
 1066 Fit       0.108160
 1067 Fit       0.079745
 1068 Fit       0.083686
 1069 Fit       0.091622
 1070 Fit       0.102577
 1071 Fit       0.110357
 1072 Fit       0.085365
 1073 Fit       0.094250
 1074 Fit       0.109436
 1075 Fit       0.099426
 1076 Fit       0.114134
 1077 Fit       0.111233
 1078 Fit       0.117493
 1079 Fit       0.122407
 1080 Fit       0.120912
 1081 Fit       0.115067
 1082 Fit       0.110279
 1083 Fit       0.112148
 1084 Fit       0.118902
 1085 Fit       0.130245
 1086 Fit       0.122713
 1087 Fit       0.114961
 1088 Fit       0.110258
 1089 Fit       0.109315
 1090 Fit       0.133963
 1091 Fit       0.122484
 1092 Fit       0.115455
 1093 Fit       0.112633
 1094 Fit       0.127851
 1095 Fit       0.117441
 1096 Fit       0.113870
 1097 Fit       0.125487
 1098 Fit       0.114968
 1099 Fit       0.110760
 1100 Fit       0.111202
 1101 Fit       0.113777
 1102 Fit       0.121393
 1103 Fit       0.112888
 1104 Fit       0.110610
 1105 Fit       0.115502
 1106 Fit       0.125311
 1107 Fit       0.115505
 1108 Fit       0.122250
 1109 Fit       0.113779
 1110 Fit       0.118054
 1111 Fit       0.110390
 1112 Fit       0.113622
 1113 Fit       0.123747
 1114 Fit       0.112744
 1115 Fit       0.109998
 1116 Fit       0.113037
 1117 Fit       0.122363
 1118 Fit       0.112374
 1119 Fit       0.112504
 1120 Fit       0.116095
 1121 Fit       0.127267
 1122 Fit       0.118688
 1123 Fit       0.124744
 1124 Fit       0.101843
 1125 Fit       0.084038
 1126 Fit       0.077457
 1127 Fit       0.087306
 1128 Fit       0.094754
 1129 Fit       0.103399
 1130 Fit       0.096226
 1131 Fit       0.085908
 1132 Fit       0.086375
 1133 Fit       0.093393
 1134 Fit       0.100994
 1135 Fit       0.093100
 1136 Fit       0.128700
 1137 Fit       0.135801
 1138 Fit       0.118248
 1139 Fit       0.116562
 1140 Fit       0.122477
 1141 Fit       0.107272
 1142 Fit       0.109046
 1143 Fit       0.115551
 1144 Fit       0.129665
 1145 Fit       0.103004
 1146 Fit       0.106166
 1147 Fit       0.114108
 1148 Fit       0.127136
 1149 Fit       0.104304
 1150 Fit       0.110857
 1151 Fit       0.113363
 1152 Fit       0.112877
 1153 Fit       0.115573
 1154 Fit       0.111201
 1155 Fit       0.112892
 1156 Fit       0.118945
 1157 Fit       0.126742
 1158 Fit       0.108614
 1159 Fit       0.111825
 1160 Fit       0.119034
 1161 Fit       0.130581
 1162 Fit       0.106876
 1163 Fit       0.111996
 1164 Fit       0.122286
 -----------------------------------------------------------------
 Leave Link  602 at Sat Feb 17 20:58:38 2018, MaxMem=   33554432 cpu:       0.5

 Test job not archived.
 1\1\GINC-NODE014\SP\RHF\6-31G(d)\C9H13N2O1(1+)\WULSDORT\17-Feb-2018\0\
 \#HF/6-31G* Geom=AllCheck Guess=Read Pop=(MK,ReadRadii) Integral=(Grid
 =UltraFine) iop(6/33=2)\\Optimization for frag18-conf1\\1,1\C,0,1.0503
 509481,0.0781719009,0.6586219597\C,0,2.1221177057,-0.4583043126,-0.051
 7533179\C,0,0.7973978047,-0.3578036588,1.9492692502\C,0,2.6326706127,-
 1.8318681853,1.838231919\C,0,2.9358501453,-1.4395178344,0.5440670121\C
 ,0,3.6439549481,-2.1403145907,-2.6010691071\C,0,3.5311822817,-3.032769
 4118,-3.8178497814\C,0,1.2889033353,-1.7857027374,3.8877831044\C,0,4.1
 302922066,-2.0318098322,-0.1927738089\N,0,1.5854253032,-1.2976664252,2
 .5185122442\N,0,3.7668278978,-2.779472937,-1.3869007763\O,0,3.63758531
 7,-0.9154290465,-2.6655451776\H,0,0.4117911749,0.8393372112,0.22433552
 28\H,0,2.355394938,-0.1359677105,-1.063441552\H,0,-0.018326191,0.02119
 24816,2.5530073869\H,0,3.2117811504,-2.5755242148,2.3746530821\H,0,2.7
 602000178,-2.6330489183,-4.4806775977\H,0,4.4804993604,-3.0034522887,-
 4.3642790536\H,0,3.2997329286,-4.0740351243,-3.5756521948\H,0,0.744320
 3286,-2.7309863054,3.8253902432\H,0,2.226138278,-1.9284978595,4.426878
 2026\H,0,0.6836789041,-1.0436819806,4.4076657976\H,0,4.7899235182,-1.2
 09297302,-0.490645758\H,0,4.6909878241,-2.6904785543,0.4762394432\H,0,
 3.8298667356,-3.7875950982,-1.3609957393\\Version=AM64L-G09RevC.01\Sta
 te=1-A\HF=-531.9599681\RMSD=9.955e-09\Dipole=-1.1962129,-0.8370759,3.0
 731033\Quadrupole=-5.0256777,-7.0377009,12.0633787,-9.5136768,-9.62167
 41,7.3192335\PG=C01 [X(C9H13N2O1)]\\@


 THE MOST INCOMPREHENSIBLE THING ABOUT THE WORLD
 IS THAT IT IS COMPREHENSIBLE. -- A. EINSTEIN
 Job cpu time:  0 days  0 hours  2 minutes  3.8 seconds.
 File lengths (MBytes):  RWF=     27 Int=      0 D2E=      0 Chk=      4 Scr=      1
 Normal termination of Gaussian 09 at Sat Feb 17 20:58:38 2018.
