 Entering Gaussian System, Link 0=g09
 Initial command:
 /home/fb_chem/chemsoft/lx24-amd64/Gaussian_09_C.01_NBO_3.1_64_istanbul-64/g09/l1.exe /local/2400072.1.parallel/Gau-31698.inp -scrdir=/local/2400072.1.parallel/
 Entering Link 1 = /home/fb_chem/chemsoft/lx24-amd64/Gaussian_09_C.01_NBO_3.1_64_istanbul-64/g09/l1.exe PID=     31699.
  
 Copyright (c) 1988,1990,1992,1993,1995,1998,2003,2009,2011,
            Gaussian, Inc.  All Rights Reserved.
  
 This is part of the Gaussian(R) 09 program.  It is based on
 the Gaussian(R) 03 system (copyright 2003, Gaussian, Inc.),
 the Gaussian(R) 98 system (copyright 1998, Gaussian, Inc.),
 the Gaussian(R) 94 system (copyright 1995, Gaussian, Inc.),
 the Gaussian 92(TM) system (copyright 1992, Gaussian, Inc.),
 the Gaussian 90(TM) system (copyright 1990, Gaussian, Inc.),
 the Gaussian 88(TM) system (copyright 1988, Gaussian, Inc.),
 the Gaussian 86(TM) system (copyright 1986, Carnegie Mellon
 University), and the Gaussian 82(TM) system (copyright 1983,
 Carnegie Mellon University). Gaussian is a federally registered
 trademark of Gaussian, Inc.
  
 This software contains proprietary and confidential information,
 including trade secrets, belonging to Gaussian, Inc.
  
 This software is provided under written license and may be
 used, copied, transmitted, or stored only in accord with that
 written license.
  
 The following legend is applicable only to US Government
 contracts under FAR:
  
                    RESTRICTED RIGHTS LEGEND
  
 Use, reproduction and disclosure by the US Government is
 subject to restrictions as set forth in subparagraphs (a)
 and (c) of the Commercial Computer Software - Restricted
 Rights clause in FAR 52.227-19.
  
 Gaussian, Inc.
 340 Quinnipiac St., Bldg. 40, Wallingford CT 06492
  
  
 ---------------------------------------------------------------
 Warning -- This program may not be used in any manner that
 competes with the business of Gaussian, Inc. or will provide
 assistance to any competitor of Gaussian, Inc.  The licensee
 of this program is prohibited from giving any competitor of
 Gaussian, Inc. access to this program.  By using this program,
 the user acknowledges that Gaussian, Inc. is engaged in the
 business of creating and licensing software in the field of
 computational chemistry and represents and warrants to the
 licensee that it is not a competitor of Gaussian, Inc. and that
 it will not use this program in any manner prohibited above.
 ---------------------------------------------------------------
  

 Cite this work as:
 Gaussian 09, Revision C.01,
 M. J. Frisch, G. W. Trucks, H. B. Schlegel, G. E. Scuseria, 
 M. A. Robb, J. R. Cheeseman, G. Scalmani, V. Barone, B. Mennucci, 
 G. A. Petersson, H. Nakatsuji, M. Caricato, X. Li, H. P. Hratchian, 
 A. F. Izmaylov, J. Bloino, G. Zheng, J. L. Sonnenberg, M. Hada, 
 M. Ehara, K. Toyota, R. Fukuda, J. Hasegawa, M. Ishida, T. Nakajima, 
 Y. Honda, O. Kitao, H. Nakai, T. Vreven, J. A. Montgomery, Jr., 
 J. E. Peralta, F. Ogliaro, M. Bearpark, J. J. Heyd, E. Brothers, 
 K. N. Kudin, V. N. Staroverov, T. Keith, R. Kobayashi, J. Normand, 
 K. Raghavachari, A. Rendell, J. C. Burant, S. S. Iyengar, J. Tomasi, 
 M. Cossi, N. Rega, J. M. Millam, M. Klene, J. E. Knox, J. B. Cross, 
 V. Bakken, C. Adamo, J. Jaramillo, R. Gomperts, R. E. Stratmann, 
 O. Yazyev, A. J. Austin, R. Cammi, C. Pomelli, J. W. Ochterski, 
 R. L. Martin, K. Morokuma, V. G. Zakrzewski, G. A. Voth, 
 P. Salvador, J. J. Dannenberg, S. Dapprich, A. D. Daniels, 
 O. Farkas, J. B. Foresman, J. V. Ortiz, J. Cioslowski, 
 and D. J. Fox, Gaussian, Inc., Wallingford CT, 2010.
 
 ******************************************
 Gaussian 09:  AM64L-G09RevC.01 23-Sep-2011
                17-Feb-2018 
 ******************************************
 %nprocs=2
 Will use up to    2 processors via shared memory.
 %chk=frag40-conf2.chk
 ----------------------------------------------------------------------
 #HF/6-31G* Geom=AllCheck Guess=Read Pop=(MK,ReadRadii) Integral=(Grid=
 UltraFine) iop(6/33=2)
 ----------------------------------------------------------------------
 1/29=7,38=1/1;
 2/12=2,40=1/2;
 3/5=1,6=6,7=1,11=9,14=-4,16=1,25=1,30=1,75=-5,116=-2/1,2,3;
 4/5=1/1;
 5/5=2,38=6/2;
 6/7=2,8=2,9=2,10=2,15=8,20=101,28=1,33=2/1,2;
 99/5=1,9=1/99;
 Structure from the checkpoint file:  frag40-conf2.chk
 -----------------------------
 Optimization for frag40-conf2
 -----------------------------
 Charge =  1 Multiplicity = 1
 Redundant internal coordinates found in file.
 C,0,6.7691801041,-2.6437324346,-2.9572246619
 C,0,3.0986010674,-5.5043993117,-2.4914254776
 C,0,1.1219123664,-0.6781820525,-1.0345837691
 C,0,0.9915697902,-2.0818262485,-0.4269997355
 C,0,1.200993486,-0.7367226914,-2.566667943
 C,0,2.1303903495,-3.0081691279,-0.8869267396
 C,0,2.3353832286,-1.6607172055,-3.0420368172
 C,0,2.1990283334,-3.0715229565,-2.4287447575
 C,0,9.0172738621,-1.6636287679,-3.2235261593
 C,0,1.9277282914,-7.6273125095,-2.5428307417
 C,0,1.307594022,-5.8962502632,-4.1923308717
 C,0,5.8395706939,-3.8332633445,-3.2953205278
 C,0,3.2885553635,-4.0368460217,-2.9645102734
 N,0,8.0261141764,-2.72422987,-3.4130760267
 N,0,2.1583428114,-6.2751559754,-3.0657838682
 N,0,4.6441348271,-3.6679938742,-2.4161188487
 O,0,6.2916463061,-1.7030510398,-2.3200861852
 O,0,3.8271052747,-5.8823033604,-1.5604711408
 H,0,0.275231833,-0.0547410722,-0.7265961879
 H,0,2.0261716499,-0.1924624332,-0.6404141966
 H,0,0.9878007643,-2.0283820095,0.6672417548
 H,0,0.0284230779,-2.5227002677,-0.7211203138
 H,0,0.2467695579,-1.1045885101,-2.9697827537
 H,0,1.3492658962,0.2656668801,-2.9833314087
 H,0,3.077264298,-2.6176695687,-0.4831464539
 H,0,2.0008531381,-4.010876158,-0.4633661548
 H,0,2.3336675693,-1.7274856285,-4.1386966418
 H,0,3.2994066235,-1.2114826097,-2.7574871586
 H,0,1.2453567533,-3.4885179177,-2.7803334258
 H,0,8.5399698814,-0.8477822468,-2.6817498018
 H,0,9.3714995827,-1.3004715328,-4.1924491397
 H,0,9.865113719,-2.0386681002,-2.6432699962
 H,0,0.8776802911,-7.7322270609,-2.2503548825
 H,0,2.5690604676,-7.7906298215,-1.6793416689
 H,0,2.1550395462,-8.3678184059,-3.3172569779
 H,0,1.3727580426,-6.666829324,-4.9677118294
 H,0,1.6104498828,-4.9465780735,-4.6310295197
 H,0,0.262086918,-5.8168966621,-3.8728079724
 H,0,6.2933576743,-4.8098570598,-3.1124678854
 H,0,5.528509035,-3.7754699589,-4.3421433011
 H,0,3.3485502416,-3.9576000926,-4.0524658256
 H,0,8.31548432,-3.5607150728,-3.9040516852
 H,0,4.7305293205,-4.3146956806,-1.5982962002
 H,0,4.7054036672,-2.6789720135,-2.0951997847
 Recover connectivity data from disk.
                          Input orientation:                          
 ---------------------------------------------------------------------
 Center     Atomic      Atomic             Coordinates (Angstroms)
 Number     Number       Type             X           Y           Z
 ---------------------------------------------------------------------
      1          6           0        6.769180   -2.643732   -2.957225
      2          6           0        3.098601   -5.504399   -2.491425
      3          6           0        1.121912   -0.678182   -1.034584
      4          6           0        0.991570   -2.081826   -0.427000
      5          6           0        1.200993   -0.736723   -2.566668
      6          6           0        2.130390   -3.008169   -0.886927
      7          6           0        2.335383   -1.660717   -3.042037
      8          6           0        2.199028   -3.071523   -2.428745
      9          6           0        9.017274   -1.663629   -3.223526
     10          6           0        1.927728   -7.627313   -2.542831
     11          6           0        1.307594   -5.896250   -4.192331
     12          6           0        5.839571   -3.833263   -3.295321
     13          6           0        3.288555   -4.036846   -2.964510
     14          7           0        8.026114   -2.724230   -3.413076
     15          7           0        2.158343   -6.275156   -3.065784
     16          7           0        4.644135   -3.667994   -2.416119
     17          8           0        6.291646   -1.703051   -2.320086
     18          8           0        3.827105   -5.882303   -1.560471
     19          1           0        0.275232   -0.054741   -0.726596
     20          1           0        2.026172   -0.192462   -0.640414
     21          1           0        0.987801   -2.028382    0.667242
     22          1           0        0.028423   -2.522700   -0.721120
     23          1           0        0.246770   -1.104589   -2.969783
     24          1           0        1.349266    0.265667   -2.983331
     25          1           0        3.077264   -2.617670   -0.483146
     26          1           0        2.000853   -4.010876   -0.463366
     27          1           0        2.333668   -1.727486   -4.138697
     28          1           0        3.299407   -1.211483   -2.757487
     29          1           0        1.245357   -3.488518   -2.780333
     30          1           0        8.539970   -0.847782   -2.681750
     31          1           0        9.371500   -1.300472   -4.192449
     32          1           0        9.865114   -2.038668   -2.643270
     33          1           0        0.877680   -7.732227   -2.250355
     34          1           0        2.569060   -7.790630   -1.679342
     35          1           0        2.155040   -8.367818   -3.317257
     36          1           0        1.372758   -6.666829   -4.967712
     37          1           0        1.610450   -4.946578   -4.631030
     38          1           0        0.262087   -5.816897   -3.872808
     39          1           0        6.293358   -4.809857   -3.112468
     40          1           0        5.528509   -3.775470   -4.342143
     41          1           0        3.348550   -3.957600   -4.052466
     42          1           0        8.315484   -3.560715   -3.904052
     43          1           0        4.730529   -4.314696   -1.598296
     44          1           0        4.705404   -2.678972   -2.095200
 ---------------------------------------------------------------------
                    Distance matrix (angstroms):
                    1          2          3          4          5
     1  C    0.000000
     2  C    4.676915   0.000000
     3  C    6.281048   5.414985   0.000000
     4  C    6.332342   4.518345   1.535045   0.000000
     5  C    5.898637   5.131990   1.535240   2.536009   0.000000
     6  C    5.092869   3.121380   2.543161   1.538362   2.974017
     7  C    4.542253   3.957217   2.543178   2.970116   1.538370
     8  C    4.620453   2.594619   2.971859   2.538590   2.542909
     9  C    2.466870   7.093531   8.252230   8.509252   7.898408
    10  C    6.960420   2.424942   7.156435   6.008790   6.928848
    11  C    6.475591   2.500866   6.101973   5.369117   5.410626
    12  C    1.547083   3.309359   6.109155   5.898975   5.624580
    13  C    3.749076   1.553578   4.438421   3.941726   3.925176
    14  N    1.339464   5.732292   7.583636   7.669038   7.158831
    15  N    5.870165   1.344633   6.043681   5.090045   5.642684
    16  N    2.420274   2.401402   4.822205   4.451264   4.524405
    17  O    1.232423   4.967408   5.424852   5.640750   5.187421
    18  O    4.592937   1.241050   5.888761   4.875310   5.863949
    19  H    7.338252   6.386299   1.095629   2.170708   2.169792
    20  H    5.820006   5.726519   1.099535   2.164634   2.165085
    21  H    6.851260   5.149306   2.176519   1.095552   3.488840
    22  H    7.103001   4.631469   2.167078   1.099331   2.823240
    23  H    6.701564   5.264988   2.166262   2.824087   1.099259
    24  H    6.151484   6.049447   2.177190   3.489055   1.095618
    25  H    4.444320   3.516653   2.808753   2.154159   3.376302
    26  H    5.552059   2.747487   3.493662   2.177432   3.972875
    27  H    4.680722   4.190907   3.493552   3.962761   2.176198
    28  H    3.759064   4.305839   2.827417   3.393344   2.159895
    29  H    5.590848   2.753500   3.310720   2.753429   2.760434
    30  H    2.537128   7.164412   7.600625   7.974027   7.340719
    31  H    3.178395   7.740526   8.855227   9.220214   8.349739
    32  H    3.170091   7.603949   8.993462   9.146229   8.761730
    33  H    7.816790   3.154968   7.162213   5.938402   7.010112
    34  H    6.764950   2.483293   7.286759   6.053699   7.239928
    35  H    7.361051   3.125936   8.087549   7.015764   7.727044
    36  H    7.024866   3.234466   7.169122   6.464180   6.400053
    37  H    5.892132   2.665270   5.602883   5.124810   4.706604
    38  H    7.297227   3.170439   5.933060   5.133857   5.328763
    39  H    2.223197   3.327845   6.937736   6.539331   6.543737
    40  H    2.176716   3.509816   6.320699   6.227407   5.577965
    41  H    3.824462   2.211766   4.981979   4.713586   4.146522
    42  H    2.031845   5.743631   8.263796   8.241161   7.770425
    43  H    2.965620   2.208227   5.154039   4.509707   5.118326
    44  H    2.236851   3.274423   4.239042   4.114856   4.034291
                    6          7          8          9         10
     6  C    0.000000
     7  C    2.549931   0.000000
     8  C    1.544645   1.544375   0.000000
     9  C    7.395718   6.684356   7.007304   0.000000
    10  C    4.911168   6.001304   4.565286   9.289269   0.000000
    11  C    4.465837   4.507690   3.447314   8.848324   2.470221
    12  C    4.498795   4.130792   3.818999   3.848411   5.501233
    13  C    2.591501   2.561354   1.551117   6.206244   3.862786
    14  N    6.420406   5.801133   5.919835   1.463968   7.873237
    15  N    3.927009   4.617895   3.266610   8.266559   1.467989
    16  N    3.015412   3.122702   2.516840   4.877882   4.803241
    17  O    4.590570   4.021818   4.316717   2.871725   7.361404
    18  O    3.404872   4.716149   3.362294   6.892084   2.760022
    19  H    3.491426   3.490652   3.962231   9.232902   7.960734
    20  H    2.828398   2.831815   3.393670   7.596862   7.675016
    21  H    2.163547   3.963572   3.484300   8.929925   6.521967
    22  H    2.163663   3.384041   2.815797   9.370138   5.743088
    23  H    3.392630   2.162593   2.823627   8.791966   6.749358
    24  H    3.965233   2.164909   3.488051   7.910640   7.926398
    25  H    1.100954   2.830912   2.182346   6.610869   5.537170
    26  H    1.096177   3.504954   2.187320   7.896722   4.172305
    27  H    3.500783   1.098692   2.179105   6.746274   6.125319
    28  H    2.844939   1.100964   2.186013   5.754619   6.564332
    29  H    2.144530   2.144179   1.098630   7.995582   4.201388
    30  H    6.997955   6.267979   6.724327   1.089471   9.471170
    31  H    8.141030   7.138638   7.595500   1.093696   9.907567
    32  H    7.990658   7.549749   7.738325   1.093702   9.707993
    33  H    5.073947   6.294036   4.847674  10.199408   1.095057
    34  H    4.867472   6.283898   4.792546   9.027962   1.087931
    35  H    5.884977   6.715168   5.370487   9.594019   1.095333
    36  H    5.532866   5.449406   4.478315   9.301227   2.666565
    37  H    4.248067   3.721197   2.951663   8.223130   3.412855
    38  H    4.504997   4.718322   3.657067   9.712080   2.796570
    39  H    5.052664   5.058419   4.500313   4.163028   5.226974
    40  H    4.906575   4.044565   3.904110   4.228789   5.571341
    41  H    3.522211   2.706131   2.177844   6.171213   4.214798
    42  H    6.903893   6.333614   6.310854   2.134142   7.693735
    43  H    2.995627   3.855478   2.940003   5.295820   4.440864
    44  H    2.863388   2.747788   2.558763   4.571243   5.692269
                   11         12         13         14         15
    11  C    0.000000
    12  C    5.059581   0.000000
    13  C    2.981465   2.580419   0.000000
    14  N    7.470439   2.454546   4.936460   0.000000
    15  N    1.461660   4.423456   2.509516   6.867345   0.000000
    16  N    4.387774   1.493110   1.508105   3.649986   3.660399
    17  O    6.777094   2.386055   3.857517   2.290374   6.208414
    18  O    3.643462   3.355337   2.380562   5.571108   2.281462
    19  H    6.870249   7.199822   5.472252   8.626675   6.907349
    20  H    6.757637   5.903048   4.666296   7.077910   6.549736
    21  H    6.219173   6.519139   4.745210   8.165234   5.774144
    22  H    5.006638   6.489493   4.237204   8.440989   4.910695
    23  H    5.057667   6.231458   4.225000   7.958514   5.513447
    24  H    6.279541   6.087808   4.719408   7.328333   6.591189
    25  H    5.257269   4.125085   2.866334   5.752126   4.570737
    26  H    4.235613   4.773601   2.813285   6.830814   3.453164
    27  H    4.293519   4.175756   2.761099   5.824429   4.675809
    28  H    5.288964   3.689910   2.832959   5.005993   5.199794
    29  H    2.791914   4.635824   2.123498   6.852968   2.946248
    30  H    8.948528   4.072066   6.150401   2.078447   8.386241
    31  H    9.281581   4.437837   6.782167   2.108215   8.834392
    32  H    9.513762   4.455417   6.880918   2.108202   8.804582
    33  H    2.706826   6.396423   4.469695   8.805229   2.104300
    34  H    3.390440   5.382228   4.032397   7.645501   2.094653
    35  H    2.755461   5.842811   4.490725   8.144249   2.107720
    36  H    1.095105   5.547829   3.820983   7.888481   2.094727
    37  H    1.089062   4.572642   2.533957   6.898043   2.124923
    38  H    1.096119   5.947825   3.626720   8.369950   2.111179
    39  H    5.215764   1.092288   3.106167   2.728122   4.387212
    40  H    4.726127   1.093589   2.642647   2.864665   4.385834
    41  H    2.818409   2.606513   1.092486   4.879511   2.785893
    42  H    7.392453   2.564173   5.136093   1.012176   6.780949
    43  H    4.576769   2.083661   2.005749   4.084591   3.551488
    44  H    5.127763   2.014699   2.146388   3.572949   4.512437
                   16         17         18         19         20
    16  N    0.000000
    17  O    2.566031   0.000000
    18  O    2.510545   4.910919   0.000000
    19  H    5.915860   6.438430   6.875437   0.000000
    20  H    4.699593   4.826743   6.038556   1.758461   0.000000
    21  H    5.056107   6.095961   5.279874   2.519087   2.481689
    22  H    5.048714   6.515864   5.140178   2.480276   3.070427
    23  H    5.120001   6.109075   6.134454   2.476868   3.069887
    24  H    5.162517   5.361238   6.779510   2.519735   2.481400
    25  H    2.700860   3.813545   3.518625   3.805162   2.647859
    26  H    3.304202   5.213863   2.835679   4.324126   3.822600
    27  H    3.474350   4.355862   5.112740   4.321766   3.832601
    28  H    2.821219   3.063733   4.850555   3.822068   2.672364
    29  H    3.422946   5.372593   3.726083   4.117014   4.006608
    30  H    4.816813   2.432539   6.986756   8.529797   6.857555
    31  H    5.577498   3.626749   7.659034   9.813566   8.233983
    32  H    5.474022   3.603714   7.239028   9.978749   8.298730
    33  H    5.543613   8.103509   3.549263   7.850387   7.794805
    34  H    4.673853   7.164273   2.288781   8.124860   7.688059
    35  H    5.394070   7.907274   3.472735   8.908000   8.603403
    36  H    5.119135   7.472916   4.271837   7.931667   7.814722
    37  H    3.967852   6.146098   3.900958   6.399803   6.220888
    38  H    5.093336   7.462591   4.249769   6.565155   6.722695
    39  H    2.123367   3.206262   3.105034   8.032518   6.755757
    40  H    2.122084   2.994330   3.882167   7.383287   6.229535
    41  H    2.107141   4.092181   3.184892   5.978211   5.250433
    42  H    3.962860   3.171085   5.570250   9.329187   7.845502
    43  H    1.046194   3.127100   1.809696   6.225492   5.022340
    44  H    1.041589   1.875943   3.364324   5.327859   3.934135
                   21         22         23         24         25
    21  H    0.000000
    22  H    1.758495   0.000000
    23  H    3.824980   2.667433   0.000000
    24  H    4.326662   3.825861   1.758773   0.000000
    25  H    2.456931   3.059589   4.060108   4.189336   0.000000
    26  H    2.496965   2.484268   4.219649   5.006357   1.760704
    27  H    4.999894   4.198374   2.471741   2.505309   3.835155
    28  H    4.211842   4.070063   3.061877   2.456832   2.683158
    29  H    3.752880   2.579552   2.591561   3.761105   3.064528
    30  H    8.345347   8.893585   8.302173   7.282647   6.148781
    31  H    9.717657  10.041765   9.208365   8.262626   7.423701
    32  H    9.474507  10.034412   9.669109   8.828662   7.146767
    33  H    6.407679   5.495359   6.696359   8.045244   5.841224
    34  H    6.419528   5.926560   7.194541   8.251800   5.333730
    35  H    7.578069   6.740017   7.517762   8.677433   6.476642
    36  H    7.308631   6.083961   6.016485   7.210951   6.277927
    37  H    6.080727   4.864708   4.402300   5.472716   4.977981
    38  H    5.957479   4.565026   4.798076   6.242652   5.445189
    39  H    7.083201   7.085128   7.092997   7.086724   4.697049
    40  H    6.983143   6.703147   6.075669   5.970195   4.716032
    41  H    5.618777   4.917321   4.351198   4.793346   3.822179
    42  H    8.771529   8.937780   8.485846   8.001070   6.326996
    43  H    4.936386   5.107885   5.682417   5.859265   2.618538
    44  H    4.677063   4.877157   4.808638   4.552289   2.292010
                   26         27         28         29         30
    26  H    0.000000
    27  H    4.339665   0.000000
    28  H    3.845236   1.762569   0.000000
    29  H    2.492382   2.476046   3.066681   0.000000
    30  H    7.595159   6.435430   5.253715   7.758517   0.000000
    31  H    8.693606   7.050979   6.239980   8.533218   1.782858
    32  H    8.395724   7.684778   6.618594   8.741914   1.782048
    33  H    4.278235   6.460855   6.974385   4.292450  10.309819
    34  H    4.010984   6.547179   6.706786   4.633847   9.211933
    35  H    5.210702   6.693332   7.268842   4.992332   9.885451
    36  H    5.266661   5.099777   6.193374   3.860378   9.510828
    37  H    4.289216   3.335864   4.507069   2.384179   8.283602
    38  H    4.231939   4.591887   5.628418   2.753483   9.728004
    39  H    5.107025   5.121846   4.694470   5.228629   4.575021
    40  H    5.248303   3.800348   3.748875   4.568040   4.516321
    41  H    3.834157   2.451700   3.036535   2.502355   6.204891
    42  H    7.205243   6.260824   5.656372   7.159236   2.984028
    43  H    2.971785   4.346520   3.608569   3.771765   5.263573
    44  H    3.428038   3.272054   2.137517   3.618936   4.289661
                   31         32         33         34         35
    31  H    0.000000
    32  H    1.785650   0.000000
    33  H   10.829782  10.646359   0.000000
    34  H    9.731960   9.340590   1.786123   0.000000
    35  H   10.138572   9.997882   1.781545   1.785309   0.000000
    36  H    9.663265   9.947010   2.960440   3.675248   2.495862
    37  H    8.586055   8.974776   3.736898   4.209516   3.705059
    38  H   10.172594  10.392541   2.584531   3.745537   3.224765
    39  H    4.791357   4.545006   6.213940   4.980888   5.461383
    40  H    4.573467   4.970794   6.454589   5.654234   5.789676
    41  H    6.584516   6.937848   4.858046   4.575089   4.627637
    42  H    2.511383   2.511483   8.686608   7.474149   7.836048
    43  H    6.111774   5.712813   5.191257   4.093975   5.100566
    44  H    5.298223   5.228095   6.341209   5.555713   6.353011
                   36         37         38         39         40
    36  H    0.000000
    37  H    1.768931   0.000000
    38  H    1.776173   1.774947   0.000000
    39  H    5.576968   4.924870   6.161856   0.000000
    40  H    5.101133   4.099529   5.667707   1.779621   0.000000
    41  H    3.475824   2.081780   3.607702   3.206529   2.206650
    42  H    7.679894   6.885245   8.363524   2.505186   2.829359
    43  H    5.306611   4.396776   5.234213   2.231666   2.907960
    44  H    5.938085   4.599044   5.722720   2.845541   2.632217
                   41         42         43         44
    41  H    0.000000
    42  H    4.984975   0.000000
    43  H    2.839072   4.328614   0.000000
    44  H    2.703115   4.133050   1.709718   0.000000
 Stoichiometry    C13H26N3O2(1+)
 Framework group  C1[X(C13H26N3O2)]
 Deg. of freedom   126
 Full point group                 C1      NOp   1
 Largest Abelian subgroup         C1      NOp   1
 Largest concise Abelian subgroup C1      NOp   1
                         Standard orientation:                         
 ---------------------------------------------------------------------
 Center     Atomic      Atomic             Coordinates (Angstroms)
 Number     Number       Type             X           Y           Z
 ---------------------------------------------------------------------
      1          6           0        3.226722    0.243484    0.010421
      2          6           0       -1.209275    1.690946   -0.306317
      3          6           0       -1.643250   -3.706403   -0.354723
      4          6           0       -2.299899   -2.602683   -1.195543
      5          6           0       -1.406799   -3.243525    1.089853
      6          6           0       -1.483896   -1.299084   -1.159143
      7          6           0       -0.592341   -1.939502    1.142409
      8          6           0       -1.257658   -0.832372    0.295822
      9          6           0        5.686989    0.064296    0.030919
     10          6           0       -2.999430    3.319586   -0.458705
     11          6           0       -2.814302    1.956530    1.593074
     12          6           0        2.004106    1.153881    0.274720
     13          6           0       -0.491679    0.511854    0.406706
     14          7           0        4.431590    0.800346    0.190310
     15          7           0       -2.275860    2.271399    0.271186
     16          7           0        0.834575    0.430229   -0.306574
     17          8           0        3.013842   -0.924436   -0.320501
     18          8           0       -0.761814    2.018362   -1.416625
     19          1           0       -2.267406   -4.606834   -0.362299
     20          1           0       -0.682941   -3.989084   -0.809559
     21          1           0       -2.415569   -2.928585   -2.235084
     22          1           0       -3.312453   -2.403794   -0.816457
     23          1           0       -2.374014   -3.081932    1.586595
     24          1           0       -0.888212   -4.019916    1.663144
     25          1           0       -0.516186   -1.483875   -1.650559
     26          1           0       -1.985857   -0.518654   -1.742726
     27          1           0       -0.485912   -1.602305    2.182647
     28          1           0        0.424924   -2.143437    0.774029
     29          1           0       -2.246654   -0.638269    0.733086
     30          1           0        5.444498   -0.964390   -0.233560
     31          1           0        6.253339    0.076898    0.966472
     32          1           0        6.288757    0.512288   -0.764922
     33          1           0       -4.052236    3.035441   -0.558757
     34          1           0       -2.554913    3.440525   -1.444287
     35          1           0       -2.938689    4.264187    0.092470
     36          1           0       -2.915237    2.881661    2.170306
     37          1           0       -2.165678    1.279555    2.147193
     38          1           0       -3.805344    1.496919    1.503231
     39          1           0        2.085678    2.141532   -0.184612
     40          1           0        1.855913    1.273096    1.351643
     41          1           0       -0.280366    0.730222    1.456081
     42          1           0        4.485224    1.780283    0.437992
     43          1           0        0.605430    0.846179   -1.238775
     44          1           0        1.179804   -0.544992   -0.427682
 ---------------------------------------------------------------------
 Rotational constants (GHZ):      0.4292603      0.2677234      0.1874415
 Standard basis: 6-31G(d) (6D, 7F)
 There are   322 symmetry adapted basis functions of A   symmetry.
 Integral buffers will be    131072 words long.
 Raffenetti 1 integral format.
 Two-electron integral symmetry is turned on.
   322 basis functions,   608 primitive gaussians,   322 cartesian basis functions
    70 alpha electrons       70 beta electrons
       nuclear repulsion energy      1455.2338375095 Hartrees.
 NAtoms=   44 NActive=   44 NUniq=   44 SFac= 1.00D+00 NAtFMM=   60 NAOKFM=F Big=F
 One-electron integrals computed using PRISM.
 NBasis=   322 RedAO= T  NBF=   322
 NBsUse=   322 1.00D-06 NBFU=   322
 Initial guess read from the checkpoint file:  frag40-conf2.chk
 B after Tr=     0.000000    0.000000    0.000000
         Rot=    1.000000    0.000000    0.000000    0.000000 Ang=   0.00 deg.
 Initial guess orbital symmetries:
       Occupied  (A) (A) (A) (A) (A) (A) (A) (A) (A) (A) (A) (A)
                 (A) (A) (A) (A) (A) (A) (A) (A) (A) (A) (A) (A)
                 (A) (A) (A) (A) (A) (A) (A) (A) (A) (A) (A) (A)
                 (A) (A) (A) (A) (A) (A) (A) (A) (A) (A) (A) (A)
                 (A) (A) (A) (A) (A) (A) (A) (A) (A) (A) (A) (A)
                 (A) (A) (A) (A) (A) (A) (A) (A) (A) (A)
       Virtual   (A) (A) (A) (A) (A) (A) (A) (A) (A) (A) (A) (A)
                 (A) (A) (A) (A) (A) (A) (A) (A) (A) (A) (A) (A)
                 (A) (A) (A) (A) (A) (A) (A) (A) (A) (A) (A) (A)
                 (A) (A) (A) (A) (A) (A) (A) (A) (A) (A) (A) (A)
                 (A) (A) (A) (A) (A) (A) (A) (A) (A) (A) (A) (A)
                 (A) (A) (A) (A) (A) (A) (A) (A) (A) (A) (A) (A)
                 (A) (A) (A) (A) (A) (A) (A) (A) (A) (A) (A) (A)
                 (A) (A) (A) (A) (A) (A) (A) (A) (A) (A) (A) (A)
                 (A) (A) (A) (A) (A) (A) (A) (A) (A) (A) (A) (A)
                 (A) (A) (A) (A) (A) (A) (A) (A) (A) (A) (A) (A)
                 (A) (A) (A) (A) (A) (A) (A) (A) (A) (A) (A) (A)
                 (A) (A) (A) (A) (A) (A) (A) (A) (A) (A) (A) (A)
                 (A) (A) (A) (A) (A) (A) (A) (A) (A) (A) (A) (A)
                 (A) (A) (A) (A) (A) (A) (A) (A) (A) (A) (A) (A)
                 (A) (A) (A) (A) (A) (A) (A) (A) (A) (A) (A) (A)
                 (A) (A) (A) (A) (A) (A) (A) (A) (A) (A) (A) (A)
                 (A) (A) (A) (A) (A) (A) (A) (A) (A) (A) (A) (A)
                 (A) (A) (A) (A) (A) (A) (A) (A) (A) (A) (A) (A)
                 (A) (A) (A) (A) (A) (A) (A) (A) (A) (A) (A) (A)
                 (A) (A) (A) (A) (A) (A) (A) (A) (A) (A) (A) (A)
                 (A) (A) (A) (A) (A) (A) (A) (A) (A) (A) (A) (A)
 Requested convergence on RMS density matrix=1.00D-08 within 128 cycles.
 Requested convergence on MAX density matrix=1.00D-06.
 Requested convergence on             energy=1.00D-06.
 No special actions if energy rises.
 SCF Done:  E(RHF) =  -820.329019687     A.U. after   13 cycles
             Convg  =    0.7337D-08             -V/T =  2.0024

 **********************************************************************

            Population analysis using the SCF density.

 **********************************************************************

 Orbital symmetries:
 BldTbl:  Degeneracy threshold= 1.00D-02
       Occupied  (A) (A) (A) (A) (A) (A) (A) (A) (A) (A) (A) (A)
                 (A) (A) (A) (A) (A) (A) (A) (A) (A) (A) (A) (A)
                 (A) (A) (A) (A) (A) (A) (A) (A) (A) (A) (A) (A)
                 (A) (A) (A) (A) (A) (A) (A) (A) (A) (A) (A) (A)
                 (A) (A) (A) (A) (A) (A) (A) (A) (A) (A) (A) (A)
                 (A) (A) (A) (A) (A) (A) (A) (A) (A) (A)
       Virtual   (A) (A) (A) (A) (A) (A) (A) (A) (A) (A) (A) (A)
                 (A) (A) (A) (A) (A) (A) (A) (A) (A) (A) (A) (A)
                 (A) (A) (A) (A) (A) (A) (A) (A) (A) (A) (A) (A)
                 (A) (A) (A) (A) (A) (A) (A) (A) (A) (A) (A) (A)
                 (A) (A) (A) (A) (A) (A) (A) (A) (A) (A) (A) (A)
                 (A) (A) (A) (A) (A) (A) (A) (A) (A) (A) (A) (A)
                 (A) (A) (A) (A) (A) (A) (A) (A) (A) (A) (A) (A)
                 (A) (A) (A) (A) (A) (A) (A) (A) (A) (A) (A) (A)
                 (A) (A) (A) (A) (A) (A) (A) (A) (A) (A) (A) (A)
                 (A) (A) (A) (A) (A) (A) (A) (A) (A) (A) (A) (A)
                 (A) (A) (A) (A) (A) (A) (A) (A) (A) (A) (A) (A)
                 (A) (A) (A) (A) (A) (A) (A) (A) (A) (A) (A) (A)
                 (A) (A) (A) (A) (A) (A) (A) (A) (A) (A) (A) (A)
                 (A) (A) (A) (A) (A) (A) (A) (A) (A) (A) (A) (A)
                 (A) (A) (A) (A) (A) (A) (A) (A) (A) (A) (A) (A)
                 (A) (A) (A) (A) (A) (A) (A) (A) (A) (A) (A) (A)
                 (A) (A) (A) (A) (A) (A) (A) (A) (A) (A) (A) (A)
                 (A) (A) (A) (A) (A) (A) (A) (A) (A) (A) (A) (A)
                 (A) (A) (A) (A) (A) (A) (A) (A) (A) (A) (A) (A)
                 (A) (A) (A) (A) (A) (A) (A) (A) (A) (A) (A) (A)
                 (A) (A) (A) (A) (A) (A) (A) (A) (A) (A) (A) (A)
 The electronic state is 1-A.
 Alpha  occ. eigenvalues --  -20.68120 -20.67531 -15.82344 -15.73898 -15.73709
 Alpha  occ. eigenvalues --  -11.51328 -11.50665 -11.45686 -11.45388 -11.39767
 Alpha  occ. eigenvalues --  -11.38057 -11.37646 -11.37280 -11.34873 -11.34589
 Alpha  occ. eigenvalues --  -11.32613 -11.32495 -11.31727  -1.53958  -1.52965
 Alpha  occ. eigenvalues --   -1.44906  -1.38537  -1.37473  -1.25229  -1.18784
 Alpha  occ. eigenvalues --   -1.14018  -1.12013  -1.10230  -1.09839  -1.06618
 Alpha  occ. eigenvalues --   -1.04496  -0.95995  -0.95017  -0.93287  -0.92414
 Alpha  occ. eigenvalues --   -0.89259  -0.87314  -0.86158  -0.82508  -0.81538
 Alpha  occ. eigenvalues --   -0.80084  -0.78584  -0.78520  -0.76781  -0.76053
 Alpha  occ. eigenvalues --   -0.74346  -0.73052  -0.72231  -0.71251  -0.71032
 Alpha  occ. eigenvalues --   -0.70071  -0.70062  -0.68740  -0.67892  -0.66941
 Alpha  occ. eigenvalues --   -0.66690  -0.66063  -0.65662  -0.64397  -0.63394
 Alpha  occ. eigenvalues --   -0.62757  -0.60832  -0.59849  -0.58280  -0.57574
 Alpha  occ. eigenvalues --   -0.56245  -0.54755  -0.54102  -0.52912  -0.50886
 Alpha virt. eigenvalues --    0.03362   0.03898   0.07357   0.08311   0.09140
 Alpha virt. eigenvalues --    0.11168   0.11885   0.13148   0.13681   0.14995
 Alpha virt. eigenvalues --    0.15849   0.16878   0.17187   0.17728   0.18266
 Alpha virt. eigenvalues --    0.18961   0.19891   0.20248   0.20861   0.21038
 Alpha virt. eigenvalues --    0.21395   0.21672   0.21830   0.22312   0.22567
 Alpha virt. eigenvalues --    0.22979   0.23210   0.23606   0.24130   0.25013
 Alpha virt. eigenvalues --    0.25700   0.27141   0.27353   0.28739   0.29657
 Alpha virt. eigenvalues --    0.30616   0.31987   0.32671   0.33871   0.34781
 Alpha virt. eigenvalues --    0.37038   0.37758   0.38619   0.41696   0.43994
 Alpha virt. eigenvalues --    0.47945   0.55110   0.55974   0.57487   0.58380
 Alpha virt. eigenvalues --    0.59015   0.61269   0.61690   0.62355   0.62554
 Alpha virt. eigenvalues --    0.64006   0.64696   0.65798   0.65977   0.66614
 Alpha virt. eigenvalues --    0.68293   0.69471   0.70980   0.74250   0.75646
 Alpha virt. eigenvalues --    0.76502   0.76891   0.78435   0.79234   0.79898
 Alpha virt. eigenvalues --    0.80831   0.82040   0.83070   0.83626   0.84587
 Alpha virt. eigenvalues --    0.86326   0.87255   0.88122   0.88352   0.89009
 Alpha virt. eigenvalues --    0.89783   0.90272   0.91174   0.92755   0.94262
 Alpha virt. eigenvalues --    0.94811   0.96184   0.96504   0.98074   0.98330
 Alpha virt. eigenvalues --    0.98955   1.00200   1.01031   1.02547   1.03557
 Alpha virt. eigenvalues --    1.03817   1.04026   1.04105   1.05141   1.05300
 Alpha virt. eigenvalues --    1.05977   1.06538   1.06899   1.07100   1.07835
 Alpha virt. eigenvalues --    1.08543   1.09042   1.09907   1.10649   1.11148
 Alpha virt. eigenvalues --    1.12110   1.12502   1.12685   1.14159   1.14332
 Alpha virt. eigenvalues --    1.16886   1.17526   1.19258   1.22651   1.24115
 Alpha virt. eigenvalues --    1.24835   1.25664   1.27521   1.28729   1.30864
 Alpha virt. eigenvalues --    1.33003   1.35142   1.36350   1.42495   1.43154
 Alpha virt. eigenvalues --    1.46053   1.47663   1.48655   1.50416   1.50956
 Alpha virt. eigenvalues --    1.52178   1.54745   1.55592   1.56761   1.58262
 Alpha virt. eigenvalues --    1.59807   1.63140   1.64897   1.67681   1.68533
 Alpha virt. eigenvalues --    1.72832   1.74698   1.77527   1.81260   1.82188
 Alpha virt. eigenvalues --    1.87057   1.87729   1.88475   1.88977   1.90257
 Alpha virt. eigenvalues --    1.91281   1.94215   1.96614   1.97750   1.98213
 Alpha virt. eigenvalues --    2.01447   2.02255   2.03183   2.03557   2.04821
 Alpha virt. eigenvalues --    2.07561   2.08238   2.08617   2.09234   2.10584
 Alpha virt. eigenvalues --    2.11647   2.12463   2.14409   2.15298   2.16845
 Alpha virt. eigenvalues --    2.17554   2.19382   2.21054   2.22273   2.22616
 Alpha virt. eigenvalues --    2.23967   2.24770   2.25554   2.26351   2.28058
 Alpha virt. eigenvalues --    2.29277   2.30073   2.33169   2.33255   2.37019
 Alpha virt. eigenvalues --    2.38797   2.40396   2.41494   2.44543   2.47826
 Alpha virt. eigenvalues --    2.48362   2.50511   2.51021   2.51898   2.53081
 Alpha virt. eigenvalues --    2.55744   2.56472   2.58241   2.58766   2.60626
 Alpha virt. eigenvalues --    2.61601   2.62091   2.62667   2.64768   2.66349
 Alpha virt. eigenvalues --    2.67944   2.73908   2.74774   2.75288   2.75908
 Alpha virt. eigenvalues --    2.82721   2.84754   2.85078   2.86804   2.87078
 Alpha virt. eigenvalues --    2.90193   2.91354   2.91977   2.95843   2.96362
 Alpha virt. eigenvalues --    2.99267   3.04704   3.10575   3.13264   3.18009
 Alpha virt. eigenvalues --    3.22322   3.25704   3.37837   3.42389   4.21925
 Alpha virt. eigenvalues --    4.27511   4.32152   4.36931   4.44044   4.47465
 Alpha virt. eigenvalues --    4.51148   4.53580   4.57743   4.58975   4.61139
 Alpha virt. eigenvalues --    4.66871   4.73059   4.78608   4.86375   4.88595
 Alpha virt. eigenvalues --    4.90154   4.99532
          Condensed to atoms (all electrons):
              1          2          3          4          5          6
     1  C    4.116720  -0.000016   0.000000   0.000000   0.000000  -0.000029
     2  C   -0.000016   4.139999   0.000004   0.000025  -0.000056  -0.002108
     3  C    0.000000   0.000004   5.114989   0.334645   0.336263  -0.056172
     4  C    0.000000   0.000025   0.334645   5.103018  -0.058507   0.327374
     5  C    0.000000  -0.000056   0.336263  -0.058507   5.097529  -0.004238
     6  C   -0.000029  -0.002108  -0.056172   0.327374  -0.004238   5.191333
     7  C    0.000007   0.003116  -0.056074  -0.004842   0.329411  -0.053034
     8  C   -0.000096  -0.037950  -0.005117  -0.045787  -0.046535   0.318966
     9  C   -0.024606   0.000000   0.000000   0.000000   0.000000   0.000000
    10  C    0.000000  -0.032382   0.000000   0.000000   0.000000   0.000013
    11  C    0.000000  -0.031197   0.000000  -0.000002  -0.000002   0.000108
    12  C    0.341746  -0.000429   0.000000   0.000000   0.000003   0.000257
    13  C    0.002362   0.345853  -0.000353   0.004089   0.003787  -0.054319
    14  N    0.344417   0.000000   0.000000   0.000000   0.000000   0.000000
    15  N    0.000000   0.355402   0.000000  -0.000028   0.000000  -0.000456
    16  N   -0.039818  -0.053788   0.000003  -0.000093   0.000044  -0.007568
    17  O    0.549843  -0.000032   0.000000   0.000000   0.000006  -0.000006
    18  O    0.000061   0.515985  -0.000001   0.000056   0.000000   0.001281
    19  H    0.000000   0.000000   0.406000  -0.035490  -0.035768   0.004293
    20  H    0.000000   0.000000   0.397264  -0.042896  -0.043114  -0.003204
    21  H    0.000000  -0.000003  -0.033885   0.406626   0.004115  -0.038087
    22  H    0.000000  -0.000001  -0.041752   0.399883  -0.002567  -0.045434
    23  H    0.000000  -0.000001  -0.041626  -0.002459   0.400185   0.000511
    24  H    0.000000   0.000001  -0.033573   0.004090   0.405658  -0.000336
    25  H   -0.000021  -0.000362  -0.002685  -0.037454   0.000432   0.392833
    26  H    0.000001   0.004219   0.003619  -0.030596  -0.000338   0.401064
    27  H    0.000001  -0.000058   0.003861  -0.000364  -0.031848   0.003861
    28  H    0.000039  -0.000110  -0.002345   0.000487  -0.034321  -0.002567
    29  H    0.000002  -0.002349  -0.000132  -0.001820  -0.001351  -0.038189
    30  H   -0.001739   0.000000   0.000000   0.000000   0.000000   0.000000
    31  H    0.000989   0.000000   0.000000   0.000000   0.000000   0.000000
    32  H    0.000507   0.000000   0.000000   0.000000   0.000000   0.000000
    33  H    0.000000   0.001740   0.000000   0.000000   0.000000   0.000003
    34  H    0.000000  -0.004269   0.000000   0.000000   0.000000  -0.000003
    35  H    0.000000   0.000433   0.000000   0.000000   0.000000   0.000000
    36  H    0.000000   0.000797   0.000000   0.000000   0.000000  -0.000003
    37  H    0.000000  -0.003665   0.000001  -0.000002  -0.000013   0.000060
    38  H    0.000000   0.000954   0.000000   0.000004   0.000001   0.000030
    39  H   -0.025057   0.001403   0.000000   0.000000   0.000000  -0.000005
    40  H   -0.025244  -0.000167   0.000000   0.000000  -0.000001  -0.000010
    41  H   -0.000311  -0.030236   0.000006  -0.000048  -0.000009   0.003568
    42  H   -0.025754   0.000000   0.000000   0.000000   0.000000   0.000000
    43  H   -0.000613  -0.012568  -0.000001   0.000033   0.000001   0.000882
    44  H   -0.008900   0.002292   0.000011  -0.000143  -0.000142   0.001094
              7          8          9         10         11         12
     1  C    0.000007  -0.000096  -0.024606   0.000000   0.000000   0.341746
     2  C    0.003116  -0.037950   0.000000  -0.032382  -0.031197  -0.000429
     3  C   -0.056074  -0.005117   0.000000   0.000000   0.000000   0.000000
     4  C   -0.004842  -0.045787   0.000000   0.000000  -0.000002   0.000000
     5  C    0.329411  -0.046535   0.000000   0.000000  -0.000002   0.000003
     6  C   -0.053034   0.318966   0.000000   0.000013   0.000108   0.000257
     7  C    5.184453   0.321530   0.000000   0.000002  -0.000001  -0.000126
     8  C    0.321530   5.227890   0.000000  -0.000200  -0.002439   0.002307
     9  C    0.000000   0.000000   4.995717   0.000000   0.000000   0.003403
    10  C    0.000002  -0.000200   0.000000   5.013318  -0.044652   0.000000
    11  C   -0.000001  -0.002439   0.000000  -0.044652   4.985946  -0.000001
    12  C   -0.000126   0.002307   0.003403   0.000000  -0.000001   5.227392
    13  C   -0.058884   0.320404   0.000001   0.003336   0.001483  -0.030893
    14  N   -0.000001   0.000000   0.156692   0.000000   0.000000  -0.104935
    15  N    0.000007   0.002551   0.000000   0.188742   0.203579  -0.000063
    16  N   -0.002910  -0.039065  -0.000053  -0.000066   0.000300   0.162682
    17  O   -0.000793  -0.000116  -0.002371   0.000000   0.000000  -0.084145
    18  O   -0.000074  -0.002236   0.000000  -0.006158   0.001528   0.000835
    19  H    0.004332  -0.000162   0.000000   0.000000   0.000000   0.000000
    20  H   -0.002973   0.000107   0.000000   0.000000   0.000000   0.000000
    21  H   -0.000318   0.004244   0.000000   0.000000   0.000000   0.000000
    22  H    0.000532  -0.005074   0.000000   0.000000  -0.000003   0.000000
    23  H   -0.045681  -0.004709   0.000000   0.000000  -0.000001   0.000000
    24  H   -0.037572   0.004246   0.000000   0.000000   0.000000   0.000000
    25  H   -0.002409  -0.046834   0.000000   0.000000  -0.000003   0.000189
    26  H    0.003502  -0.037704   0.000000   0.000065   0.000004  -0.000027
    27  H    0.401343  -0.043528   0.000000   0.000000  -0.000025   0.000006
    28  H    0.390221  -0.044389   0.000000   0.000000  -0.000001   0.000036
    29  H   -0.037730   0.404975   0.000000  -0.000047  -0.001401  -0.000058
    30  H    0.000000   0.000000   0.397289   0.000000   0.000000   0.000471
    31  H    0.000000   0.000000   0.399682   0.000000   0.000000  -0.000082
    32  H    0.000000   0.000000   0.399713   0.000000   0.000000  -0.000086
    33  H    0.000000   0.000003   0.000000   0.398503  -0.001754   0.000000
    34  H    0.000000  -0.000013   0.000000   0.395402   0.002677  -0.000001
    35  H    0.000000   0.000001   0.000000   0.399041  -0.002136   0.000000
    36  H    0.000001   0.000096   0.000000  -0.002032   0.400304   0.000000
    37  H    0.000283  -0.003304   0.000000   0.003158   0.396325  -0.000005
    38  H   -0.000033   0.000096   0.000000  -0.000834   0.399413   0.000000
    39  H   -0.000002  -0.000028  -0.000062   0.000002  -0.000001   0.386330
    40  H    0.000059  -0.000015  -0.000100   0.000000   0.000002   0.388592
    41  H   -0.003150  -0.032356   0.000000  -0.000102  -0.002262  -0.000434
    42  H    0.000000   0.000000  -0.017425   0.000000   0.000000   0.001074
    43  H   -0.000041   0.000127   0.000000  -0.000021  -0.000059  -0.012278
    44  H    0.003506  -0.003179  -0.000023   0.000001  -0.000001  -0.034622
             13         14         15         16         17         18
     1  C    0.002362   0.344417   0.000000  -0.039818   0.549843   0.000061
     2  C    0.345853   0.000000   0.355402  -0.053788  -0.000032   0.515985
     3  C   -0.000353   0.000000   0.000000   0.000003   0.000000  -0.000001
     4  C    0.004089   0.000000  -0.000028  -0.000093   0.000000   0.000056
     5  C    0.003787   0.000000   0.000000   0.000044   0.000006   0.000000
     6  C   -0.054319   0.000000  -0.000456  -0.007568  -0.000006   0.001281
     7  C   -0.058884  -0.000001   0.000007  -0.002910  -0.000793  -0.000074
     8  C    0.320404   0.000000   0.002551  -0.039065  -0.000116  -0.002236
     9  C    0.000001   0.156692   0.000000  -0.000053  -0.002371   0.000000
    10  C    0.003336   0.000000   0.188742  -0.000066   0.000000  -0.006158
    11  C    0.001483   0.000000   0.203579   0.000300   0.000000   0.001528
    12  C   -0.030893  -0.104935  -0.000063   0.162682  -0.084145   0.000835
    13  C    5.311977  -0.000020  -0.098363   0.136684   0.000767  -0.082631
    14  N   -0.000020   7.257473   0.000000   0.001047  -0.079707   0.000000
    15  N   -0.098363   0.000000   7.336857   0.000669   0.000000  -0.084860
    16  N    0.136684   0.001047   0.000669   7.351292  -0.026871  -0.038127
    17  O    0.000767  -0.079707   0.000000  -0.026871   8.222739   0.000000
    18  O   -0.082631   0.000000  -0.084860  -0.038127   0.000000   8.301824
    19  H    0.000010   0.000000   0.000000   0.000000   0.000000   0.000000
    20  H   -0.000049   0.000000   0.000000  -0.000011  -0.000001   0.000000
    21  H   -0.000084   0.000000   0.000000   0.000002   0.000000   0.000000
    22  H   -0.000135   0.000000  -0.000001  -0.000002   0.000000   0.000001
    23  H   -0.000135   0.000000   0.000000  -0.000003   0.000000   0.000000
    24  H   -0.000090   0.000000   0.000000   0.000001   0.000000   0.000000
    25  H   -0.005507   0.000000  -0.000014   0.001328  -0.000099   0.000020
    26  H   -0.003882   0.000000  -0.000462   0.000227   0.000000   0.001331
    27  H   -0.003702   0.000000   0.000011   0.000387  -0.000002   0.000000
    28  H   -0.005012  -0.000001  -0.000001   0.000439   0.002183   0.000002
    29  H   -0.047538   0.000000   0.001049   0.003612  -0.000001   0.000034
    30  H    0.000000  -0.032358   0.000000   0.000002   0.005313   0.000000
    31  H    0.000000  -0.040895   0.000000   0.000000   0.000248   0.000000
    32  H    0.000000  -0.040326   0.000000   0.000002   0.000255   0.000000
    33  H   -0.000017   0.000000  -0.044209   0.000000   0.000000   0.000418
    34  H    0.000472   0.000000  -0.028291  -0.000006   0.000000   0.006204
    35  H   -0.000122   0.000000  -0.043684   0.000003   0.000000   0.000377
    36  H   -0.000217   0.000000  -0.042820   0.000004   0.000000  -0.000015
    37  H    0.001982   0.000000  -0.035600   0.000191   0.000000   0.000037
    38  H   -0.000286   0.000000  -0.046761  -0.000010   0.000000  -0.000004
    39  H   -0.001457   0.002899  -0.000020  -0.029149   0.001220   0.001960
    40  H   -0.000513  -0.000640  -0.000044  -0.036720   0.000821  -0.000010
    41  H    0.405735  -0.000005   0.001873  -0.040329   0.000043   0.001642
    42  H   -0.000002   0.324763   0.000000   0.000062   0.001852   0.000000
    43  H   -0.027829   0.000015   0.001878   0.256716   0.000492   0.054630
    44  H   -0.019857   0.001759  -0.000031   0.256031   0.049849   0.000181
             19         20         21         22         23         24
     1  C    0.000000   0.000000   0.000000   0.000000   0.000000   0.000000
     2  C    0.000000   0.000000  -0.000003  -0.000001  -0.000001   0.000001
     3  C    0.406000   0.397264  -0.033885  -0.041752  -0.041626  -0.033573
     4  C   -0.035490  -0.042896   0.406626   0.399883  -0.002459   0.004090
     5  C   -0.035768  -0.043114   0.004115  -0.002567   0.400185   0.405658
     6  C    0.004293  -0.003204  -0.038087  -0.045434   0.000511  -0.000336
     7  C    0.004332  -0.002973  -0.000318   0.000532  -0.045681  -0.037572
     8  C   -0.000162   0.000107   0.004244  -0.005074  -0.004709   0.004246
     9  C    0.000000   0.000000   0.000000   0.000000   0.000000   0.000000
    10  C    0.000000   0.000000   0.000000   0.000000   0.000000   0.000000
    11  C    0.000000   0.000000   0.000000  -0.000003  -0.000001   0.000000
    12  C    0.000000   0.000000   0.000000   0.000000   0.000000   0.000000
    13  C    0.000010  -0.000049  -0.000084  -0.000135  -0.000135  -0.000090
    14  N    0.000000   0.000000   0.000000   0.000000   0.000000   0.000000
    15  N    0.000000   0.000000   0.000000  -0.000001   0.000000   0.000000
    16  N    0.000000  -0.000011   0.000002  -0.000002  -0.000003   0.000001
    17  O    0.000000  -0.000001   0.000000   0.000000   0.000000   0.000000
    18  O    0.000000   0.000000   0.000000   0.000001   0.000000   0.000000
    19  H    0.496406  -0.024679  -0.002145  -0.002948  -0.002998  -0.002147
    20  H   -0.024679   0.542740  -0.002801   0.004259   0.004269  -0.002838
    21  H   -0.002145  -0.002801   0.495620  -0.024741  -0.000077  -0.000073
    22  H   -0.002948   0.004259  -0.024741   0.541517   0.002690  -0.000075
    23  H   -0.002998   0.004269  -0.000077   0.002690   0.541496  -0.024980
    24  H   -0.002147  -0.002838  -0.000073  -0.000075  -0.024980   0.497267
    25  H   -0.000097   0.002907  -0.003117   0.004371   0.000066  -0.000032
    26  H   -0.000064  -0.000077  -0.002352  -0.002508  -0.000035   0.000010
    27  H   -0.000073  -0.000077   0.000010  -0.000039  -0.002797  -0.002416
    28  H   -0.000086   0.002637  -0.000030   0.000058   0.004146  -0.003172
    29  H   -0.000067   0.000102  -0.000047   0.003046   0.002972  -0.000044
    30  H    0.000000   0.000000   0.000000   0.000000   0.000000   0.000000
    31  H    0.000000   0.000000   0.000000   0.000000   0.000000   0.000000
    32  H    0.000000   0.000000   0.000000   0.000000   0.000000   0.000000
    33  H    0.000000   0.000000   0.000000   0.000000   0.000000   0.000000
    34  H    0.000000   0.000000   0.000000   0.000000   0.000000   0.000000
    35  H    0.000000   0.000000   0.000000   0.000000   0.000000   0.000000
    36  H    0.000000   0.000000   0.000000   0.000000   0.000000   0.000000
    37  H    0.000000   0.000000   0.000000   0.000000   0.000000   0.000000
    38  H    0.000000   0.000000   0.000000   0.000003   0.000002   0.000000
    39  H    0.000000   0.000000   0.000000   0.000000   0.000000   0.000000
    40  H    0.000000   0.000000   0.000000   0.000000   0.000000   0.000000
    41  H    0.000000   0.000000   0.000001  -0.000001   0.000006  -0.000006
    42  H    0.000000   0.000000   0.000000   0.000000   0.000000   0.000000
    43  H    0.000000   0.000000  -0.000001   0.000000   0.000000   0.000000
    44  H   -0.000001   0.000019   0.000001   0.000003   0.000004   0.000004
             25         26         27         28         29         30
     1  C   -0.000021   0.000001   0.000001   0.000039   0.000002  -0.001739
     2  C   -0.000362   0.004219  -0.000058  -0.000110  -0.002349   0.000000
     3  C   -0.002685   0.003619   0.003861  -0.002345  -0.000132   0.000000
     4  C   -0.037454  -0.030596  -0.000364   0.000487  -0.001820   0.000000
     5  C    0.000432  -0.000338  -0.031848  -0.034321  -0.001351   0.000000
     6  C    0.392833   0.401064   0.003861  -0.002567  -0.038189   0.000000
     7  C   -0.002409   0.003502   0.401343   0.390221  -0.037730   0.000000
     8  C   -0.046834  -0.037704  -0.043528  -0.044389   0.404975   0.000000
     9  C    0.000000   0.000000   0.000000   0.000000   0.000000   0.397289
    10  C    0.000000   0.000065   0.000000   0.000000  -0.000047   0.000000
    11  C   -0.000003   0.000004  -0.000025  -0.000001  -0.001401   0.000000
    12  C    0.000189  -0.000027   0.000006   0.000036  -0.000058   0.000471
    13  C   -0.005507  -0.003882  -0.003702  -0.005012  -0.047538   0.000000
    14  N    0.000000   0.000000   0.000000  -0.000001   0.000000  -0.032358
    15  N   -0.000014  -0.000462   0.000011  -0.000001   0.001049   0.000000
    16  N    0.001328   0.000227   0.000387   0.000439   0.003612   0.000002
    17  O   -0.000099   0.000000  -0.000002   0.002183  -0.000001   0.005313
    18  O    0.000020   0.001331   0.000000   0.000002   0.000034   0.000000
    19  H   -0.000097  -0.000064  -0.000073  -0.000086  -0.000067   0.000000
    20  H    0.002907  -0.000077  -0.000077   0.002637   0.000102   0.000000
    21  H   -0.003117  -0.002352   0.000010  -0.000030  -0.000047   0.000000
    22  H    0.004371  -0.002508  -0.000039   0.000058   0.003046   0.000000
    23  H    0.000066  -0.000035  -0.002797   0.004146   0.002972   0.000000
    24  H   -0.000032   0.000010  -0.002416  -0.003172  -0.000044   0.000000
    25  H    0.555881  -0.026122  -0.000061   0.001546   0.004111   0.000000
    26  H   -0.026122   0.489345  -0.000078  -0.000054  -0.002005   0.000000
    27  H   -0.000061  -0.000078   0.528403  -0.027209  -0.002551   0.000000
    28  H    0.001546  -0.000054  -0.027209   0.532363   0.003892   0.000000
    29  H    0.004111  -0.002005  -0.002551   0.003892   0.505948   0.000000
    30  H    0.000000   0.000000   0.000000   0.000000   0.000000   0.425328
    31  H    0.000000   0.000000   0.000000   0.000000   0.000000  -0.020903
    32  H    0.000000   0.000000   0.000000   0.000000   0.000000  -0.020847
    33  H    0.000000   0.000011   0.000000   0.000000  -0.000008   0.000000
    34  H    0.000000   0.000016   0.000000   0.000000  -0.000001   0.000000
    35  H    0.000000  -0.000001   0.000000   0.000000   0.000002   0.000000
    36  H    0.000000   0.000000   0.000000   0.000000   0.000158   0.000000
    37  H   -0.000001  -0.000005   0.000146  -0.000007  -0.000963   0.000000
    38  H    0.000000   0.000013   0.000000   0.000000  -0.000360   0.000000
    39  H   -0.000005   0.000000   0.000001   0.000005   0.000001  -0.000007
    40  H   -0.000005   0.000000   0.000012   0.000001  -0.000009  -0.000008
    41  H   -0.000122  -0.000053   0.003021   0.000186  -0.001933   0.000000
    42  H    0.000000   0.000000   0.000000   0.000000   0.000000   0.002203
    43  H   -0.000601   0.000165  -0.000009   0.000090  -0.000045   0.000000
    44  H    0.003103  -0.000081  -0.000195   0.006062   0.000260  -0.000018
             31         32         33         34         35         36
     1  C    0.000989   0.000507   0.000000   0.000000   0.000000   0.000000
     2  C    0.000000   0.000000   0.001740  -0.004269   0.000433   0.000797
     3  C    0.000000   0.000000   0.000000   0.000000   0.000000   0.000000
     4  C    0.000000   0.000000   0.000000   0.000000   0.000000   0.000000
     5  C    0.000000   0.000000   0.000000   0.000000   0.000000   0.000000
     6  C    0.000000   0.000000   0.000003  -0.000003   0.000000  -0.000003
     7  C    0.000000   0.000000   0.000000   0.000000   0.000000   0.000001
     8  C    0.000000   0.000000   0.000003  -0.000013   0.000001   0.000096
     9  C    0.399682   0.399713   0.000000   0.000000   0.000000   0.000000
    10  C    0.000000   0.000000   0.398503   0.395402   0.399041  -0.002032
    11  C    0.000000   0.000000  -0.001754   0.002677  -0.002136   0.400304
    12  C   -0.000082  -0.000086   0.000000  -0.000001   0.000000   0.000000
    13  C    0.000000   0.000000  -0.000017   0.000472  -0.000122  -0.000217
    14  N   -0.040895  -0.040326   0.000000   0.000000   0.000000   0.000000
    15  N    0.000000   0.000000  -0.044209  -0.028291  -0.043684  -0.042820
    16  N    0.000000   0.000002   0.000000  -0.000006   0.000003   0.000004
    17  O    0.000248   0.000255   0.000000   0.000000   0.000000   0.000000
    18  O    0.000000   0.000000   0.000418   0.006204   0.000377  -0.000015
    19  H    0.000000   0.000000   0.000000   0.000000   0.000000   0.000000
    20  H    0.000000   0.000000   0.000000   0.000000   0.000000   0.000000
    21  H    0.000000   0.000000   0.000000   0.000000   0.000000   0.000000
    22  H    0.000000   0.000000   0.000000   0.000000   0.000000   0.000000
    23  H    0.000000   0.000000   0.000000   0.000000   0.000000   0.000000
    24  H    0.000000   0.000000   0.000000   0.000000   0.000000   0.000000
    25  H    0.000000   0.000000   0.000000   0.000000   0.000000   0.000000
    26  H    0.000000   0.000000   0.000011   0.000016  -0.000001   0.000000
    27  H    0.000000   0.000000   0.000000   0.000000   0.000000   0.000000
    28  H    0.000000   0.000000   0.000000   0.000000   0.000000   0.000000
    29  H    0.000000   0.000000  -0.000008  -0.000001   0.000002   0.000158
    30  H   -0.020903  -0.020847   0.000000   0.000000   0.000000   0.000000
    31  H    0.486211  -0.030166   0.000000   0.000000   0.000000   0.000000
    32  H   -0.030166   0.484073   0.000000   0.000000   0.000000   0.000000
    33  H    0.000000   0.000000   0.496736  -0.019615  -0.032855  -0.001010
    34  H    0.000000   0.000000  -0.019615   0.415444  -0.020063  -0.000003
    35  H    0.000000   0.000000  -0.032855  -0.020063   0.498833   0.003369
    36  H    0.000000   0.000000  -0.001010  -0.000003   0.003369   0.481414
    37  H    0.000000   0.000000  -0.000021  -0.000082  -0.000035  -0.023360
    38  H    0.000000   0.000000   0.002960  -0.000044  -0.000564  -0.032095
    39  H   -0.000001   0.000001   0.000000   0.000000   0.000000   0.000000
    40  H    0.000014  -0.000003   0.000000   0.000000   0.000000   0.000001
    41  H    0.000000   0.000000  -0.000001  -0.000009   0.000002   0.000020
    42  H   -0.001172  -0.001024   0.000000   0.000000   0.000000   0.000000
    43  H    0.000000   0.000000   0.000000  -0.000009   0.000000   0.000001
    44  H    0.000000   0.000001   0.000000   0.000000   0.000000   0.000000
             37         38         39         40         41         42
     1  C    0.000000   0.000000  -0.025057  -0.025244  -0.000311  -0.025754
     2  C   -0.003665   0.000954   0.001403  -0.000167  -0.030236   0.000000
     3  C    0.000001   0.000000   0.000000   0.000000   0.000006   0.000000
     4  C   -0.000002   0.000004   0.000000   0.000000  -0.000048   0.000000
     5  C   -0.000013   0.000001   0.000000  -0.000001  -0.000009   0.000000
     6  C    0.000060   0.000030  -0.000005  -0.000010   0.003568   0.000000
     7  C    0.000283  -0.000033  -0.000002   0.000059  -0.003150   0.000000
     8  C   -0.003304   0.000096  -0.000028  -0.000015  -0.032356   0.000000
     9  C    0.000000   0.000000  -0.000062  -0.000100   0.000000  -0.017425
    10  C    0.003158  -0.000834   0.000002   0.000000  -0.000102   0.000000
    11  C    0.396325   0.399413  -0.000001   0.000002  -0.002262   0.000000
    12  C   -0.000005   0.000000   0.386330   0.388592  -0.000434   0.001074
    13  C    0.001982  -0.000286  -0.001457  -0.000513   0.405735  -0.000002
    14  N    0.000000   0.000000   0.002899  -0.000640  -0.000005   0.324763
    15  N   -0.035600  -0.046761  -0.000020  -0.000044   0.001873   0.000000
    16  N    0.000191  -0.000010  -0.029149  -0.036720  -0.040329   0.000062
    17  O    0.000000   0.000000   0.001220   0.000821   0.000043   0.001852
    18  O    0.000037  -0.000004   0.001960  -0.000010   0.001642   0.000000
    19  H    0.000000   0.000000   0.000000   0.000000   0.000000   0.000000
    20  H    0.000000   0.000000   0.000000   0.000000   0.000000   0.000000
    21  H    0.000000   0.000000   0.000000   0.000000   0.000001   0.000000
    22  H    0.000000   0.000003   0.000000   0.000000  -0.000001   0.000000
    23  H    0.000000   0.000002   0.000000   0.000000   0.000006   0.000000
    24  H    0.000000   0.000000   0.000000   0.000000  -0.000006   0.000000
    25  H   -0.000001   0.000000  -0.000005  -0.000005  -0.000122   0.000000
    26  H   -0.000005   0.000013   0.000000   0.000000  -0.000053   0.000000
    27  H    0.000146   0.000000   0.000001   0.000012   0.003021   0.000000
    28  H   -0.000007   0.000000   0.000005   0.000001   0.000186   0.000000
    29  H   -0.000963  -0.000360   0.000001  -0.000009  -0.001933   0.000000
    30  H    0.000000   0.000000  -0.000007  -0.000008   0.000000   0.002203
    31  H    0.000000   0.000000  -0.000001   0.000014   0.000000  -0.001172
    32  H    0.000000   0.000000   0.000001  -0.000003   0.000000  -0.001024
    33  H   -0.000021   0.002960   0.000000   0.000000  -0.000001   0.000000
    34  H   -0.000082  -0.000044   0.000000   0.000000  -0.000009   0.000000
    35  H   -0.000035  -0.000564   0.000000   0.000000   0.000002   0.000000
    36  H   -0.023360  -0.032095   0.000000   0.000001   0.000020   0.000000
    37  H    0.507896  -0.025588  -0.000001   0.000005  -0.000744   0.000000
    38  H   -0.025588   0.491702   0.000000   0.000000   0.000088   0.000000
    39  H   -0.000001   0.000000   0.412234  -0.016284   0.000087   0.000768
    40  H    0.000005   0.000000  -0.016284   0.429753   0.001945   0.000166
    41  H   -0.000744   0.000088   0.000087   0.001945   0.454383   0.000000
    42  H    0.000000   0.000000   0.000768   0.000166   0.000000   0.306379
    43  H   -0.000011   0.000002  -0.001819   0.001542   0.002584  -0.000004
    44  H    0.000001   0.000000   0.002393   0.001660   0.000035  -0.000052
             43         44
     1  C   -0.000613  -0.008900
     2  C   -0.012568   0.002292
     3  C   -0.000001   0.000011
     4  C    0.000033  -0.000143
     5  C    0.000001  -0.000142
     6  C    0.000882   0.001094
     7  C   -0.000041   0.003506
     8  C    0.000127  -0.003179
     9  C    0.000000  -0.000023
    10  C   -0.000021   0.000001
    11  C   -0.000059  -0.000001
    12  C   -0.012278  -0.034622
    13  C   -0.027829  -0.019857
    14  N    0.000015   0.001759
    15  N    0.001878  -0.000031
    16  N    0.256716   0.256031
    17  O    0.000492   0.049849
    18  O    0.054630   0.000181
    19  H    0.000000  -0.000001
    20  H    0.000000   0.000019
    21  H   -0.000001   0.000001
    22  H    0.000000   0.000003
    23  H    0.000000   0.000004
    24  H    0.000000   0.000004
    25  H   -0.000601   0.003103
    26  H    0.000165  -0.000081
    27  H   -0.000009  -0.000195
    28  H    0.000090   0.006062
    29  H   -0.000045   0.000260
    30  H    0.000000  -0.000018
    31  H    0.000000   0.000000
    32  H    0.000000   0.000001
    33  H    0.000000   0.000000
    34  H   -0.000009   0.000000
    35  H    0.000000   0.000000
    36  H    0.000001   0.000000
    37  H   -0.000011   0.000001
    38  H    0.000002   0.000000
    39  H   -0.001819   0.002393
    40  H    0.001542   0.001660
    41  H    0.002584   0.000035
    42  H   -0.000004  -0.000052
    43  H    0.238508  -0.004564
    44  H   -0.004564   0.230194
 Mulliken atomic charges:
              1
     1  C    0.795508
     2  C    0.839523
     3  C   -0.322954
     4  C   -0.319798
     5  C   -0.318628
     6  C   -0.341764
     7  C   -0.335659
     8  C   -0.206707
     9  C   -0.307856
    10  C   -0.315091
    11  C   -0.305728
    12  C   -0.247139
    13  C   -0.097047
    14  N   -0.790178
    15  N   -0.666913
    16  N   -0.857140
    17  O   -0.641486
    18  O   -0.674291
    19  H    0.195683
    20  H    0.168414
    21  H    0.197141
    22  H    0.168918
    23  H    0.169154
    24  H    0.196078
    25  H    0.158764
    26  H    0.202850
    27  H    0.173974
    28  H    0.174911
    29  H    0.208488
    30  H    0.245273
    31  H    0.206075
    32  H    0.207900
    33  H    0.199117
    34  H    0.252194
    35  H    0.197399
    36  H    0.215393
    37  H    0.183322
    38  H    0.211312
    39  H    0.264594
    40  H    0.255195
    41  H    0.236884
    42  H    0.408165
    43  H    0.502804
    44  H    0.513345
 Sum of Mulliken atomic charges =   1.00000
 Mulliken charges with hydrogens summed into heavy atoms:
              1
     1  C    0.795508
     2  C    0.839523
     3  C    0.041144
     4  C    0.046261
     5  C    0.046604
     6  C    0.019850
     7  C    0.013226
     8  C    0.001782
     9  C    0.351392
    10  C    0.333620
    11  C    0.304298
    12  C    0.272650
    13  C    0.139838
    14  N   -0.382013
    15  N   -0.666913
    16  N    0.159008
    17  O   -0.641486
    18  O   -0.674291
 Sum of Mulliken charges with hydrogens summed into heavy atoms =   1.00000
 DipInt: DoE/N= T F RetVal/Mat= T F Init=T NMatP=  1 IDeriv=0 Min/MaxMlt=  0  4
 Entering OneElI...
 OneElI was handed    33286775 working-precision words.
 Multipole integrals L=0 to 4 MinM= 0 MaxM= 0.
 Requested accuracy = 0.1000D-12
 PrsmSu:  NPrtUS=   1 ThrOK=F IAlg=1 NPAlg=1 LenDen=           0.
 Prism:   IPart=     0 DynPar=F LinDyn=F Incr=          62.
 PRISM was handed    32795684 working-precision words and  6250 shell-pairs
 IPart=  0 NShTot=        6250 NBatch=          82 AvBLen=        76.2
 PrSmSu:  NxtVal=             63.
 Electronic moments (au):
       -140.00000000          0.89205726          1.86822462          1.48373994
      -3500.66856295      -2108.45839403       -488.39869957          5.31563505
         -0.66823695          5.08954129     -14002.82783743       2382.33067669
       -128.67865010       6340.16077893      -2435.53897651       -337.61333181
       1099.43327121        149.97557058        143.15480176        335.08457344
    -226341.94820965     -73718.26581457      -4928.76789486       3770.93361601
       -446.88198029       -830.05519740       1837.32614616        682.93895731
       -385.98959546     -37419.93020788      -8575.35228626      -8713.57805504
      -3829.97026709      -1171.11629399         92.18528260
 Electronic spatial extent (au):  <R**2>=           6097.5257
 DipInt: DoE/N= F T RetVal/Mat= T F Init=T NMatP=  1 IDeriv=0 Min/MaxMlt=  0  4
 Nuclear    moments (au):
        141.00000000          0.00000000          0.00000000          0.00000000
       3459.26217261       2040.05642272        408.98469421          0.00000000
          0.00000000          0.00000000      14247.73039050      -2335.87461544
        136.44885903      -6375.38136030       2555.75385465        362.94959032
      -1098.46159187       -144.75191932       -126.56490329       -343.15836163
     217901.80092888      66871.60591002       3287.43523819      -3645.98582877
        511.13509242        698.35755332      -1802.11432652       -713.42532244
        440.51061004      34699.46400268       6363.23420899       7228.02265940
       3891.76821973       1186.98198090       -123.70542262
 Total      moments (au):
          1.00000000          0.89205726          1.86822462          1.48373994
        -41.40639034        -68.40197131        -79.41400536          5.31563505
         -0.66823695          5.08954129        244.90255307         46.45606125
          7.77020893        -35.22058137        120.21487814         25.33625851
          0.97167934          5.22365126         16.58989848         -8.07378818
      -8440.14728077      -6846.65990455      -1641.33265667        124.94778724
         64.25311213       -131.69764408         35.21181964        -30.48636513
         54.52101458      -2720.46620520      -2212.11807727      -1485.55539564
         61.79795264         15.86568691        -31.52014002
 Traceless Quadrup. (au):
         21.66773200         -5.32784897        -16.33988302          5.31563505
         -0.66823695          5.08954129
 Charge=              1.0000 electrons
 Dipole moment (field-independent basis, Debye):
    X=              2.2674    Y=              4.7486    Z=              3.7713  Tot=              6.4740
 Quadrupole moment (field-independent basis, Debye-Ang):
   XX=            -55.6930   YY=            -92.0030   ZZ=           -106.8146
   XY=              7.1497   XZ=             -0.8988   YZ=              6.8456
 Traceless Quadrupole moment (field-independent basis, Debye-Ang):
   XX=             29.1438   YY=             -7.1661   ZZ=            -21.9777
   XY=              7.1497   XZ=             -0.8988   YZ=              6.8456
 Octapole moment (field-independent basis, Debye-Ang**2):
  XXX=            174.3122  YYY=             33.0656  ZZZ=              5.5305  XYY=            -25.0687
  XXY=             85.5643  XXZ=             18.0334  XZZ=              0.6916  YZZ=              3.7180
  YYZ=             11.8080  XYZ=             -5.7466
 Hexadecapole moment (field-independent basis, Debye-Ang**3):
 XXXX=          -3178.9640 YYYY=          -2578.7803 ZZZZ=           -618.2045 XXXY=             47.0613
 XXXZ=             24.2008 YYYX=            -49.6036 YYYZ=             13.2625 ZZZX=            -11.4826
 ZZZY=             20.5352 XXYY=          -1024.6580 XXZZ=           -833.1897 YYZZ=           -559.5314
 XXYZ=             23.2761 YYXZ=              5.9758 ZZXY=            -11.8720
 N-N= 1.455233837509D+03 E-N=-4.807511878123D+03  KE= 8.183923601636D+02
 Entering OneElI...
 OneElI was handed    33077985 working-precision words.
 Calculate electrostatic properties
    NBasis =   322  MinDer = 0  MaxDer = 0
    NGrid  =    44  NMatD  =   1
 Requested accuracy = 0.1000D-12
 PrsmSu:  NPrtUS=   2 ThrOK=T IAlg=1 NPAlg=1 LenDen=           0.
 Prism:   IPart=     0 DynPar=F LinDyn=F Incr=         512.
 PRISM was handed    16246517 working-precision words and  5488 shell-pairs
 PRISM was handed    16246517 working-precision words and  5488 shell-pairs
 IPart=  1 NShTot=      120296 NBatch=        2734 AvBLen=        44.0
 IPart=  0 NShTot=      121176 NBatch=        2754 AvBLen=        44.0
 PrSmSu:  NxtVal=           1025.
 --------------------------------------------------------
       Center         ----      EFG at Nuclei      ----
                      3XX-RR        3YY-RR        3ZZ-RR
 --------------------------------------------------------
     1   Atom        0.212087      0.254839     -0.466927
     2   Atom       -0.051684     -0.095428      0.147112
     3   Atom        0.020759      0.006232     -0.026990
     4   Atom       -0.008361     -0.040184      0.048545
     5   Atom        0.004165     -0.034675      0.030510
     6   Atom        0.012785      0.052651     -0.065436
     7   Atom        0.003475      0.010437     -0.013912
     8   Atom        0.009484     -0.113559      0.104074
     9   Atom       -0.232817      0.067750      0.165067
    10   Atom        0.035336     -0.119085      0.083749
    11   Atom        0.089328      0.145042     -0.234370
    12   Atom       -0.201331      0.080214      0.121116
    13   Atom       -0.276841      0.210955      0.065886
    14   Atom       -0.474355     -0.356566      0.830921
    15   Atom        0.004508      0.221263     -0.225771
    16   Atom       -0.205775      0.105594      0.100181
    17   Atom        1.362337     -0.857172     -0.505165
    18   Atom        0.387041      0.509711     -0.896752
    19   Atom        0.004552     -0.147215      0.142663
    20   Atom       -0.184919      0.117578      0.067341
    21   Atom        0.144028      0.103273     -0.247301
    22   Atom       -0.218204      0.124377      0.093827
    23   Atom       -0.188749      0.130551      0.058197
    24   Atom        0.047288     -0.075031      0.027743
    25   Atom       -0.194150      0.133471      0.060679
    26   Atom        0.056274     -0.078708      0.022433
    27   Atom        0.145419      0.094567     -0.239987
    28   Atom       -0.215937      0.122437      0.093499
    29   Atom       -0.197126      0.117854      0.079272
    30   Atom        0.114860     -0.245085      0.130224
    31   Atom        0.024506      0.148686     -0.173192
    32   Atom        0.009379      0.069201     -0.078580
    33   Atom       -0.254160      0.108694      0.145466
    34   Atom        0.078522      0.136281     -0.214803
    35   Atom        0.148288     -0.177900      0.029612
    36   Atom        0.148592     -0.165001      0.016409
    37   Atom       -0.016013     -0.014871      0.030884
    38   Atom       -0.203095      0.073714      0.129381
    39   Atom        0.130097     -0.202369      0.072272
    40   Atom        0.121240      0.147229     -0.268468
    41   Atom        0.111055      0.137284     -0.248339
    42   Atom        0.150988     -0.349056      0.198068
    43   Atom        0.110749      0.089699     -0.200448
    44   Atom        0.104680     -0.239777      0.135096
 --------------------------------------------------------
                        XY            XZ            YZ
 --------------------------------------------------------
     1   Atom        0.001288      0.015935      0.217879
     2   Atom       -0.293929     -0.207585     -0.262815
     3   Atom        0.023398     -0.013679     -0.000715
     4   Atom       -0.043836     -0.003074      0.003499
     5   Atom       -0.054837      0.008238     -0.007046
     6   Atom        0.001791      0.000636     -0.038140
     7   Atom        0.041633     -0.022497      0.039828
     8   Atom       -0.115533      0.008731     -0.012219
     9   Atom        0.262474      0.057002     -0.020356
    10   Atom        0.187101     -0.162093      0.178319
    11   Atom       -0.022028      0.152821      0.097073
    12   Atom       -0.176766     -0.174784     -0.114428
    13   Atom        0.113953      0.243053     -0.002400
    14   Atom       -0.040201     -0.040875     -0.327212
    15   Atom        0.574359      0.372796      0.341038
    16   Atom       -0.132776      0.009126     -0.103131
    17   Atom       -0.518658     -0.113735     -0.114263
    18   Atom       -0.979182      0.393326     -0.039346
    19   Atom       -0.205334     -0.003830     -0.000354
    20   Atom        0.095096      0.153736     -0.043410
    21   Atom       -0.015488     -0.042206     -0.121354
    22   Atom        0.071819      0.138538     -0.027454
    23   Atom        0.055632      0.169930     -0.032136
    24   Atom        0.144395     -0.111376      0.159596
    25   Atom        0.055321      0.161670     -0.036229
    26   Atom        0.141865     -0.107773      0.156792
    27   Atom       -0.012033     -0.039364     -0.126815
    28   Atom        0.066615      0.135940     -0.017494
    29   Atom        0.065419      0.152604     -0.033766
    30   Atom       -0.079979     -0.020774     -0.102647
    31   Atom        0.006921     -0.190108     -0.010870
    32   Atom       -0.088657      0.175924      0.134998
    33   Atom       -0.106872     -0.040520      0.001135
    34   Atom       -0.011885      0.155714      0.054854
    35   Atom       -0.015269     -0.021550     -0.184364
    36   Atom        0.030858      0.025850     -0.185004
    37   Atom        0.175674     -0.123909      0.142423
    38   Atom       -0.165650     -0.031965     -0.011992
    39   Atom       -0.037231      0.005123      0.162441
    40   Atom       -0.001728      0.056784     -0.047009
    41   Atom       -0.015099     -0.074080     -0.085256
    42   Atom       -0.022158     -0.007535     -0.147433
    43   Atom        0.009411     -0.051194      0.127989
    44   Atom        0.094746      0.010357     -0.048648
 --------------------------------------------------------


 ---------------------------------------------------------------------------------
              Nuclear Quadrupole in Principal Axis System
 ---------------------------------------------------------------------------------

       Atom             a.u.   MegaHertz   Gauss  10(-4) cm-1        Axes

              Baa    -0.5279   -70.839   -25.277   -23.629 -0.0203 -0.2681  0.9632
     1 C(13)  Bbb     0.2121    28.461    10.156     9.494  0.9984 -0.0567  0.0052
              Bcc     0.3158    42.378    15.122    14.136  0.0532  0.9617  0.2688
 
              Baa    -0.5325   -71.458   -25.498   -23.836  0.5990  0.6682  0.4413
     2 C(13)  Bbb     0.2154    28.902    10.313     9.641  0.7930 -0.5715 -0.2109
              Bcc     0.3171    42.556    15.185    14.195 -0.1113 -0.4763  0.8722
 
              Baa    -0.0316    -4.244    -1.514    -1.416  0.3240 -0.1828  0.9282
     3 C(13)  Bbb    -0.0084    -1.121    -0.400    -0.374 -0.4921  0.8054  0.3303
              Bcc     0.0400     5.365     1.914     1.790  0.8080  0.5638 -0.1711
 
              Baa    -0.0709    -9.516    -3.396    -3.174  0.5735  0.8191 -0.0092
     4 C(13)  Bbb     0.0216     2.899     1.034     0.967  0.8087 -0.5644  0.1656
              Bcc     0.0493     6.618     2.361     2.207 -0.1304  0.1024  0.9862
 
              Baa    -0.0734    -9.855    -3.516    -3.287  0.5764  0.8171  0.0097
     5 C(13)  Bbb     0.0243     3.257     1.162     1.086 -0.4142  0.2819  0.8654
              Bcc     0.0492     6.598     2.354     2.201  0.7044 -0.5028  0.5010
 
              Baa    -0.0767   -10.292    -3.672    -3.433 -0.0125  0.2830  0.9590
     6 C(13)  Bbb     0.0128     1.711     0.611     0.571  0.9995 -0.0253  0.0205
              Bcc     0.0639     8.581     3.062     2.862  0.0301  0.9588 -0.2825
 
              Baa    -0.0698    -9.363    -3.341    -3.123  0.5220 -0.5810  0.6244
     7 C(13)  Bbb     0.0167     2.238     0.799     0.747 -0.6657  0.1802  0.7241
              Bcc     0.0531     7.125     2.542     2.377  0.5332  0.7937  0.2927
 
              Baa    -0.1831   -24.564    -8.765    -8.194  0.5137  0.8577  0.0209
     8 C(13)  Bbb     0.0728     9.771     3.486     3.259  0.7899 -0.4633 -0.4017
              Bcc     0.1102    14.793     5.279     4.935  0.3349 -0.2229  0.9155
 
              Baa    -0.3914   -52.516   -18.739   -17.518  0.8612 -0.4971 -0.1064
     9 C(13)  Bbb     0.1691    22.690     8.096     7.569 -0.0150 -0.2340  0.9721
              Bcc     0.2223    29.826    10.643     9.949  0.5081  0.8356  0.2090
 
              Baa    -0.3701   -49.665   -17.722   -16.566 -0.5175  0.7172 -0.4666
    10 C(13)  Bbb     0.1455    19.523     6.966     6.512  0.6156  0.6909  0.3791
              Bcc     0.2246    30.142    10.755    10.054 -0.5943  0.0911  0.7991
 
              Baa    -0.3161   -42.419   -15.136   -14.150 -0.3548 -0.2088  0.9113
    11 C(13)  Bbb     0.1410    18.925     6.753     6.313  0.8379 -0.5034  0.2109
              Bcc     0.1751    23.494     8.383     7.837  0.4147  0.8385  0.3536
 
              Baa    -0.3735   -50.122   -17.885   -16.719  0.8219  0.4178  0.3871
    12 C(13)  Bbb     0.1540    20.660     7.372     6.891 -0.5554  0.7387  0.3819
              Bcc     0.2196    29.462    10.513     9.827 -0.1264 -0.5289  0.8392
 
              Baa    -0.4196   -56.301   -20.090   -18.780  0.8822 -0.1611 -0.4425
    13 C(13)  Bbb     0.1570    21.072     7.519     7.029  0.2844 -0.5666  0.7733
              Bcc     0.2625    35.229    12.571    11.751  0.3753  0.8081  0.4540
 
              Baa    -0.5099   -19.665    -7.017    -6.559  0.8150  0.5567  0.1607
    14 N(14)  Bbb    -0.4059   -15.653    -5.586    -5.221 -0.5791  0.7927  0.1906
              Bcc     0.9157    35.318    12.602    11.781 -0.0213 -0.2484  0.9684
 
              Baa    -0.5235   -20.192    -7.205    -6.735  0.7507 -0.3124 -0.5821
[...]
  921 Fit       0.090213
  922 Fit       0.084176
  923 Fit       0.077406
  924 Fit       0.073757
  925 Fit       0.072843
  926 Fit       0.073821
  927 Fit       0.076537
  928 Fit       0.082018
  929 Fit       0.081806
  930 Fit       0.084228
  931 Fit       0.080300
  932 Fit       0.075238
  933 Fit       0.073814
  934 Fit       0.076362
  935 Fit       0.077339
  936 Fit       0.097584
  937 Fit       0.106852
  938 Fit       0.092663
  939 Fit       0.085361
  940 Fit       0.083932
  941 Fit       0.109055
  942 Fit       0.095340
  943 Fit       0.085582
  944 Fit       0.079919
  945 Fit       0.078166
  946 Fit       0.090765
  947 Fit       0.081922
  948 Fit       0.076968
  949 Fit       0.087867
  950 Fit       0.097159
  951 Fit       0.085859
  952 Fit       0.079983
  953 Fit       0.104529
  954 Fit       0.091146
  955 Fit       0.082424
  956 Fit       0.077881
  957 Fit       0.108463
  958 Fit       0.093582
  959 Fit       0.084667
  960 Fit       0.080187
  961 Fit       0.083369
  962 Fit       0.085679
  963 Fit       0.077032
  964 Fit       0.078642
  965 Fit       0.087769
  966 Fit       0.075299
  967 Fit       0.074369
  968 Fit       0.076062
  969 Fit       0.080277
  970 Fit       0.089690
  971 Fit       0.075384
  972 Fit       0.074920
  973 Fit       0.077019
  974 Fit       0.081571
  975 Fit       0.083397
  976 Fit       0.101183
  977 Fit       0.106927
  978 Fit       0.092480
  979 Fit       0.095575
  980 Fit       0.097212
  981 Fit       0.100646
  982 Fit       0.090785
  983 Fit       0.091378
  984 Fit       0.105403
  985 Fit       0.100404
  986 Fit       0.091528
  987 Fit       0.090987
  988 Fit       0.084705
  989 Fit       0.084959
  990 Fit       0.086160
  991 Fit       0.086258
  992 Fit       0.101521
  993 Fit       0.103686
  994 Fit       0.114954
  995 Fit       0.114295
  996 Fit       0.102886
  997 Fit       0.094907
  998 Fit       0.095166
  999 Fit       0.108918
 1000 Fit       0.127106
 1001 Fit       0.115803
 1002 Fit       0.097508
 1003 Fit       0.097598
 1004 Fit       0.090476
 1005 Fit       0.087330
 1006 Fit       0.081943
 1007 Fit       0.119346
 1008 Fit       0.111239
 1009 Fit       0.109814
 1010 Fit       0.115464
 1011 Fit       0.079680
 1012 Fit       0.082198
 1013 Fit       0.071623
 1014 Fit       0.077785
 1015 Fit       0.080399
 1016 Fit       0.074806
 1017 Fit       0.078771
 1018 Fit       0.082411
 1019 Fit       0.076465
 1020 Fit       0.080591
 1021 Fit       0.093971
 1022 Fit       0.087912
 1023 Fit       0.095164
 1024 Fit       0.105363
 1025 Fit       0.103463
 1026 Fit       0.093243
 1027 Fit       0.087307
 1028 Fit       0.084825
 1029 Fit       0.089390
 1030 Fit       0.099395
 1031 Fit       0.088114
 1032 Fit       0.084533
 1033 Fit       0.083475
 1034 Fit       0.085022
 1035 Fit       0.088891
 1036 Fit       0.097940
 1037 Fit       0.084009
 1038 Fit       0.084333
 1039 Fit       0.086950
 1040 Fit       0.093759
 1041 Fit       0.107194
 1042 Fit       0.082652
 1043 Fit       0.085794
 1044 Fit       0.092313
 1045 Fit       0.102183
 1046 Fit       0.082374
 1047 Fit       0.083698
 1048 Fit       0.088478
 1049 Fit       0.095239
 1050 Fit       0.095115
 1051 Fit       0.087556
 1052 Fit       0.083559
 1053 Fit       0.087399
 1054 Fit       0.093023
 1055 Fit       0.092899
 1056 Fit       0.098728
 1057 Fit       0.086849
 1058 Fit       0.087261
 1059 Fit       0.090919
 1060 Fit       0.097733
 1061 Fit       0.107687
 1062 Fit       0.085447
 1063 Fit       0.084753
 1064 Fit       0.087536
 1065 Fit       0.093056
 1066 Fit       0.100800
 1067 Fit       0.085470
 1068 Fit       0.089687
 1069 Fit       0.087975
 1070 Fit       0.076721
 1071 Fit       0.081694
 1072 Fit       0.083155
 1073 Fit       0.077941
 1074 Fit       0.080541
 1075 Fit       0.082155
 1076 Fit       0.081397
 1077 Fit       0.077527
 1078 Fit       0.104507
 1079 Fit       0.100519
 1080 Fit       0.103226
 1081 Fit       0.094933
 1082 Fit       0.091024
 1083 Fit       0.090889
 1084 Fit       0.095388
 1085 Fit       0.098887
 1086 Fit       0.091715
 1087 Fit       0.087666
 1088 Fit       0.086201
 1089 Fit       0.087453
 1090 Fit       0.087606
 1091 Fit       0.085783
 1092 Fit       0.102544
 1093 Fit       0.110662
 1094 Fit       0.101919
 1095 Fit       0.097259
 1096 Fit       0.098874
 1097 Fit       0.111546
 1098 Fit       0.103262
 1099 Fit       0.098541
 1100 Fit       0.096166
 1101 Fit       0.096913
 1102 Fit       0.120634
 1103 Fit       0.110697
 1104 Fit       0.106120
 1105 Fit       0.102312
 1106 Fit       0.099765
 1107 Fit       0.112443
 1108 Fit       0.123439
 1109 Fit       0.116537
 1110 Fit       0.112233
 1111 Fit       0.120281
 1112 Fit       0.134491
 1113 Fit       0.114693
 1114 Fit       0.121551
 1115 Fit       0.100217
 1116 Fit       0.105264
 1117 Fit       0.096482
 1118 Fit       0.096829
 1119 Fit       0.101605
 1120 Fit       0.111878
 1121 Fit       0.101640
 1122 Fit       0.097451
 1123 Fit       0.097393
 1124 Fit       0.101345
 1125 Fit       0.110731
 1126 Fit       0.102087
 1127 Fit       0.106905
 1128 Fit       0.113497
 1129 Fit       0.138224
 1130 Fit       0.132265
 1131 Fit       0.139712
 1132 Fit       0.134360
 1133 Fit       0.124455
 1134 Fit       0.121896
 1135 Fit       0.132841
 1136 Fit       0.122553
 1137 Fit       0.115609
 1138 Fit       0.130277
 1139 Fit       0.120911
 1140 Fit       0.112297
 1141 Fit       0.129686
 1142 Fit       0.132814
 1143 Fit       0.130412
 1144 Fit       0.131719
 1145 Fit       0.136824
 1146 Fit       0.140276
 1147 Fit       0.130893
 1148 Fit       0.142486
 1149 Fit       0.137528
 1150 Fit       0.137073
 1151 Fit       0.146555
 1152 Fit       0.140762
 1153 Fit       0.136088
 1154 Fit       0.142831
 1155 Fit       0.141094
 1156 Fit       0.122957
 1157 Fit       0.135823
 1158 Fit       0.118293
 1159 Fit       0.122513
 1160 Fit       0.132289
 1161 Fit       0.117370
 1162 Fit       0.119374
 1163 Fit       0.126116
 1164 Fit       0.139717
 1165 Fit       0.116981
 1166 Fit       0.119798
 1167 Fit       0.130052
 1168 Fit       0.118866
 1169 Fit       0.104629
 1170 Fit       0.118490
 1171 Fit       0.103733
 1172 Fit       0.119464
 1173 Fit       0.107698
 1174 Fit       0.095033
 1175 Fit       0.095152
 1176 Fit       0.105889
 1177 Fit       0.118372
 1178 Fit       0.101529
 1179 Fit       0.135019
 1180 Fit       0.112006
 1181 Fit       0.071602
 1182 Fit       0.069029
 1183 Fit       0.070886
 1184 Fit       0.073388
 1185 Fit       0.084591
 1186 Fit       0.077679
 1187 Fit       0.073499
 1188 Fit       0.083714
 1189 Fit       0.086474
 1190 Fit       0.079088
 1191 Fit       0.075599
 1192 Fit       0.073283
 1193 Fit       0.073643
 1194 Fit       0.087503
 1195 Fit       0.084758
 1196 Fit       0.092456
 1197 Fit       0.103764
 1198 Fit       0.127060
 1199 Fit       0.092175
 1200 Fit       0.095112
 1201 Fit       0.086992
 1202 Fit       0.110471
 1203 Fit       0.081219
 1204 Fit       0.081651
 1205 Fit       0.084755
 1206 Fit       0.090717
 1207 Fit       0.102630
 1208 Fit       0.078988
 1209 Fit       0.079831
 1210 Fit       0.080939
 1211 Fit       0.078223
 1212 Fit       0.078825
 1213 Fit       0.078454
 1214 Fit       0.079258
 1215 Fit       0.091791
 1216 Fit       0.083022
 1217 Fit       0.081575
 1218 Fit       0.090233
 1219 Fit       0.085686
 1220 Fit       0.089273
 1221 Fit       0.081787
 1222 Fit       0.082131
 1223 Fit       0.080768
 1224 Fit       0.080055
 1225 Fit       0.080752
 1226 Fit       0.096639
 1227 Fit       0.079793
 1228 Fit       0.080974
 1229 Fit       0.086972
 1230 Fit       0.089480
 1231 Fit       0.101815
 1232 Fit       0.097159
 1233 Fit       0.101694
 1234 Fit       0.112391
 1235 Fit       0.094437
 1236 Fit       0.096003
 1237 Fit       0.100589
 1238 Fit       0.125644
 1239 Fit       0.093860
 1240 Fit       0.105730
 1241 Fit       0.095505
 1242 Fit       0.133835
 1243 Fit       0.131498
 1244 Fit       0.137726
 1245 Fit       0.122727
 1246 Fit       0.109373
 1247 Fit       0.110867
 1248 Fit       0.122484
 1249 Fit       0.110398
 1250 Fit       0.101384
 1251 Fit       0.111317
 1252 Fit       0.103010
 1253 Fit       0.111937
 1254 Fit       0.098948
 1255 Fit       0.107887
 1256 Fit       0.097908
 1257 Fit       0.116810
 1258 Fit       0.116528
 1259 Fit       0.104009
 1260 Fit       0.112755
 1261 Fit       0.101322
 1262 Fit       0.092074
 1263 Fit       0.080963
 1264 Fit       0.078841
 1265 Fit       0.075999
 1266 Fit       0.070235
 1267 Fit       0.078069
 1268 Fit       0.067829
 1269 Fit       0.067003
 1270 Fit       0.086685
 1271 Fit       0.070719
 1272 Fit       0.065133
 1273 Fit       0.083420
 1274 Fit       0.070289
 1275 Fit       0.067510
 1276 Fit       0.081203
 1277 Fit       0.109586
 1278 Fit       0.103145
 1279 Fit       0.082695
 1280 Fit       0.073681
 1281 Fit       0.086592
 1282 Fit       0.102744
 1283 Fit       0.090383
 1284 Fit       0.085879
 1285 Fit       0.103417
 1286 Fit       0.085504
 1287 Fit       0.076444
 1288 Fit       0.095529
 1289 Fit       0.081972
 1290 Fit       0.072126
 1291 Fit       0.069454
 1292 Fit       0.078047
 1293 Fit       0.077626
 1294 Fit       0.068830
 1295 Fit       0.067089
 1296 Fit       0.069939
 1297 Fit       0.075381
 1298 Fit       0.080922
 1299 Fit       0.069676
 1300 Fit       0.075627
 1301 Fit       0.071373
 1302 Fit       0.070593
 1303 Fit       0.073506
 1304 Fit       0.076960
 1305 Fit       0.071219
 1306 Fit       0.068303
 1307 Fit       0.067297
 1308 Fit       0.068127
 1309 Fit       0.075345
 1310 Fit       0.070106
 1311 Fit       0.067312
 1312 Fit       0.066201
 1313 Fit       0.066697
 1314 Fit       0.072060
 1315 Fit       0.068355
 1316 Fit       0.067099
 1317 Fit       0.068354
 1318 Fit       0.071433
 1319 Fit       0.084733
 1320 Fit       0.073591
 1321 Fit       0.078036
 1322 Fit       0.081844
 1323 Fit       0.069219
 1324 Fit       0.071475
 1325 Fit       0.075716
 1326 Fit       0.081735
 1327 Fit       0.070769
 1328 Fit       0.074630
 1329 Fit       0.081444
 1330 Fit       0.074760
 1331 Fit       0.071802
 1332 Fit       0.071318
 1333 Fit       0.072253
 1334 Fit       0.085126
 1335 Fit       0.080221
 1336 Fit       0.074455
 1337 Fit       0.070986
 1338 Fit       0.069880
 1339 Fit       0.070670
 1340 Fit       0.073269
 1341 Fit       0.078185
 1342 Fit       0.078255
 1343 Fit       0.080385
 1344 Fit       0.077018
 1345 Fit       0.072501
 1346 Fit       0.071057
 1347 Fit       0.073379
 1348 Fit       0.074358
 1349 Fit       0.092434
 1350 Fit       0.084935
 1351 Fit       0.083604
 1352 Fit       0.102609
 1353 Fit       0.089664
 1354 Fit       0.081691
 1355 Fit       0.077813
 1356 Fit       0.077921
 1357 Fit       0.094420
 1358 Fit       0.084339
 1359 Fit       0.077790
 1360 Fit       0.074538
 1361 Fit       0.078894
 1362 Fit       0.074523
 1363 Fit       0.085813
 1364 Fit       0.093698
 1365 Fit       0.083434
 1366 Fit       0.078371
 1367 Fit       0.099985
 1368 Fit       0.087697
 1369 Fit       0.079602
 1370 Fit       0.075525
 1371 Fit       0.094825
 1372 Fit       0.084412
 1373 Fit       0.078268
 1374 Fit       0.075477
 1375 Fit       0.087706
 1376 Fit       0.081270
 1377 Fit       0.081295
 1378 Fit       0.083118
 1379 Fit       0.075219
 1380 Fit       0.076411
 1381 Fit       0.085031
 1382 Fit       0.073094
 1383 Fit       0.071914
 1384 Fit       0.073441
 1385 Fit       0.077620
 1386 Fit       0.086585
 1387 Fit       0.071450
 1388 Fit       0.071843
 1389 Fit       0.074277
 1390 Fit       0.078915
 1391 Fit       0.073132
 1392 Fit       0.075409
 1393 Fit       0.080202
 1394 Fit       0.093001
 1395 Fit       0.099313
 1396 Fit       0.087656
 1397 Fit       0.090382
 1398 Fit       0.092076
 1399 Fit       0.094679
 1400 Fit       0.087011
 1401 Fit       0.087842
 1402 Fit       0.094431
 1403 Fit       0.090886
 1404 Fit       0.085840
 1405 Fit       0.085748
 1406 Fit       0.082378
 1407 Fit       0.081642
 1408 Fit       0.082577
 1409 Fit       0.083148
 1410 Fit       0.097692
 1411 Fit       0.099551
 1412 Fit       0.108833
 1413 Fit       0.108240
 1414 Fit       0.098757
 1415 Fit       0.091839
 1416 Fit       0.092089
 1417 Fit       0.104110
 1418 Fit       0.118696
 1419 Fit       0.109313
 1420 Fit       0.090296
 1421 Fit       0.094050
 1422 Fit       0.098648
 1423 Fit       0.089824
 1424 Fit       0.084517
 1425 Fit       0.082420
 1426 Fit       0.083127
 1427 Fit       0.107684
 1428 Fit       0.104052
 1429 Fit       0.107977
 1430 Fit       0.079096
 1431 Fit       0.080294
 1432 Fit       0.073444
 1433 Fit       0.075935
 1434 Fit       0.077937
 1435 Fit       0.071051
 1436 Fit       0.074335
 1437 Fit       0.076420
 1438 Fit       0.072564
 1439 Fit       0.075364
 1440 Fit       0.078626
 1441 Fit       0.075652
 1442 Fit       0.077866
 1443 Fit       0.090462
 1444 Fit       0.084537
 1445 Fit       0.091150
 1446 Fit       0.100435
 1447 Fit       0.099682
 1448 Fit       0.090277
 1449 Fit       0.084259
 1450 Fit       0.081214
 1451 Fit       0.085583
 1452 Fit       0.094561
 1453 Fit       0.085235
 1454 Fit       0.081255
 1455 Fit       0.079970
 1456 Fit       0.080302
 1457 Fit       0.083859
 1458 Fit       0.091279
 1459 Fit       0.079822
 1460 Fit       0.079133
 1461 Fit       0.084528
 1462 Fit       0.090989
 1463 Fit       0.079056
 1464 Fit       0.081400
 1465 Fit       0.086668
 1466 Fit       0.095989
 1467 Fit       0.079105
 1468 Fit       0.078516
 1469 Fit       0.081401
 1470 Fit       0.087207
 1471 Fit       0.095707
 1472 Fit       0.078198
 1473 Fit       0.080028
 1474 Fit       0.084328
 1475 Fit       0.090648
 1476 Fit       0.090987
 1477 Fit       0.080159
 1478 Fit       0.083829
 1479 Fit       0.091748
 1480 Fit       0.084498
 1481 Fit       0.086777
 1482 Fit       0.092419
 1483 Fit       0.082485
 1484 Fit       0.081285
 1485 Fit       0.082955
 1486 Fit       0.087122
 1487 Fit       0.093950
 1488 Fit       0.103442
 1489 Fit       0.081353
 1490 Fit       0.080571
 1491 Fit       0.082999
 1492 Fit       0.088113
 1493 Fit       0.082018
 1494 Fit       0.085945
 1495 Fit       0.082042
 1496 Fit       0.082308
 1497 Fit       0.074101
 1498 Fit       0.077442
 1499 Fit       0.078384
 1500 Fit       0.079710
 1501 Fit       0.074677
 1502 Fit       0.076604
 1503 Fit       0.078189
 1504 Fit       0.078028
 1505 Fit       0.074656
 1506 Fit       0.102226
 1507 Fit       0.093222
 1508 Fit       0.089027
 1509 Fit       0.089009
 1510 Fit       0.093845
 1511 Fit       0.100498
 1512 Fit       0.091429
 1513 Fit       0.086133
 1514 Fit       0.083697
 1515 Fit       0.083793
 1516 Fit       0.086911
 1517 Fit       0.087631
 1518 Fit       0.083462
 1519 Fit       0.081647
 1520 Fit       0.082209
 1521 Fit       0.098188
 1522 Fit       0.105437
 1523 Fit       0.097444
 1524 Fit       0.093039
 1525 Fit       0.094578
 1526 Fit       0.106077
 1527 Fit       0.098003
 1528 Fit       0.093294
 1529 Fit       0.091194
 1530 Fit       0.092099
 1531 Fit       0.116303
 1532 Fit       0.105285
 1533 Fit       0.099190
 1534 Fit       0.095426
 1535 Fit       0.093120
 1536 Fit       0.093162
 1537 Fit       0.107292
 1538 Fit       0.116120
 1539 Fit       0.106781
 1540 Fit       0.113402
 1541 Fit       0.125175
 1542 Fit       0.113968
 1543 Fit       0.092531
 1544 Fit       0.092698
 1545 Fit       0.097237
 1546 Fit       0.092827
 1547 Fit       0.091301
 1548 Fit       0.093040
 1549 Fit       0.098418
 1550 Fit       0.108873
 1551 Fit       0.096707
 1552 Fit       0.093919
 1553 Fit       0.095220
 1554 Fit       0.101042
 1555 Fit       0.099577
 1556 Fit       0.104072
 1557 Fit       0.133841
 1558 Fit       0.129304
 1559 Fit       0.122155
 1560 Fit       0.119790
 1561 Fit       0.124725
 1562 Fit       0.115802
 1563 Fit       0.111719
 1564 Fit       0.121965
 1565 Fit       0.114041
 1566 Fit       0.107538
 1567 Fit       0.122120
 1568 Fit       0.113798
 1569 Fit       0.125648
 1570 Fit       0.123018
 1571 Fit       0.124328
 1572 Fit       0.129124
 1573 Fit       0.131754
 1574 Fit       0.123794
 1575 Fit       0.130479
 1576 Fit       0.128069
 1577 Fit       0.128973
 1578 Fit       0.137579
 1579 Fit       0.131823
 1580 Fit       0.128844
 1581 Fit       0.133614
 1582 Fit       0.132753
 1583 Fit       0.144070
 1584 Fit       0.116240
 1585 Fit       0.127814
 1586 Fit       0.111236
 1587 Fit       0.115112
 1588 Fit       0.124213
 1589 Fit       0.110008
 1590 Fit       0.111414
 1591 Fit       0.116686
 1592 Fit       0.126890
 1593 Fit       0.110642
 1594 Fit       0.115695
 1595 Fit       0.126342
 1596 Fit       0.112206
 1597 Fit       0.121534
 1598 Fit       0.120592
 1599 Fit       0.109045
 1600 Fit       0.109041
 1601 Fit       0.097560
 -----------------------------------------------------------------
 Leave Link  602 at Sat Feb 17 21:06:26 2018, MaxMem=   33554432 cpu:       1.0

 Test job not archived.
 1\1\GINC-NODE025\SP\RHF\6-31G(d)\C13H26N3O2(1+)\WULSDORT\17-Feb-2018\0
 \\#HF/6-31G* Geom=AllCheck Guess=Read Pop=(MK,ReadRadii) Integral=(Gri
 d=UltraFine) iop(6/33=2)\\Optimization for frag40-conf2\\1,1\C,0,6.769
 1801041,-2.6437324346,-2.9572246619\C,0,3.0986010674,-5.5043993117,-2.
 4914254776\C,0,1.1219123664,-0.6781820525,-1.0345837691\C,0,0.99156979
 02,-2.0818262485,-0.4269997355\C,0,1.200993486,-0.7367226914,-2.566667
 943\C,0,2.1303903495,-3.0081691279,-0.8869267396\C,0,2.3353832286,-1.6
 607172055,-3.0420368172\C,0,2.1990283334,-3.0715229565,-2.4287447575\C
 ,0,9.0172738621,-1.6636287679,-3.2235261593\C,0,1.9277282914,-7.627312
 5095,-2.5428307417\C,0,1.307594022,-5.8962502632,-4.1923308717\C,0,5.8
 395706939,-3.8332633445,-3.2953205278\C,0,3.2885553635,-4.0368460217,-
 2.9645102734\N,0,8.0261141764,-2.72422987,-3.4130760267\N,0,2.15834281
 14,-6.2751559754,-3.0657838682\N,0,4.6441348271,-3.6679938742,-2.41611
 88487\O,0,6.2916463061,-1.7030510398,-2.3200861852\O,0,3.8271052747,-5
 .8823033604,-1.5604711408\H,0,0.275231833,-0.0547410722,-0.7265961879\
 H,0,2.0261716499,-0.1924624332,-0.6404141966\H,0,0.9878007643,-2.02838
 20095,0.6672417548\H,0,0.0284230779,-2.5227002677,-0.7211203138\H,0,0.
 2467695579,-1.1045885101,-2.9697827537\H,0,1.3492658962,0.2656668801,-
 2.9833314087\H,0,3.077264298,-2.6176695687,-0.4831464539\H,0,2.0008531
 381,-4.010876158,-0.4633661548\H,0,2.3336675693,-1.7274856285,-4.13869
 66418\H,0,3.2994066235,-1.2114826097,-2.7574871586\H,0,1.2453567533,-3
 .4885179177,-2.7803334258\H,0,8.5399698814,-0.8477822468,-2.6817498018
 \H,0,9.3714995827,-1.3004715328,-4.1924491397\H,0,9.865113719,-2.03866
 81002,-2.6432699962\H,0,0.8776802911,-7.7322270609,-2.2503548825\H,0,2
 .5690604676,-7.7906298215,-1.6793416689\H,0,2.1550395462,-8.3678184059
 ,-3.3172569779\H,0,1.3727580426,-6.666829324,-4.9677118294\H,0,1.61044
 98828,-4.9465780735,-4.6310295197\H,0,0.262086918,-5.8168966621,-3.872
 8079724\H,0,6.2933576743,-4.8098570598,-3.1124678854\H,0,5.528509035,-
 3.7754699589,-4.3421433011\H,0,3.3485502416,-3.9576000926,-4.052465825
 6\H,0,8.31548432,-3.5607150728,-3.9040516852\H,0,4.7305293205,-4.31469
 56806,-1.5982962002\H,0,4.7054036672,-2.6789720135,-2.0951997847\\Vers
 ion=AM64L-G09RevC.01\State=1-A\HF=-820.3290197\RMSD=7.337e-09\Dipole=1
 .0969055,-1.1310405,-2.0012644\Quadrupole=20.5316552,-8.0509114,-12.48
 07438,5.7966515,-7.0689354,5.6922412\PG=C01 [X(C13H26N3O2)]\\@


 The cat could very well be man's best friend
 but would never stoop to admitting it.
                               -- Doug Larson
 Job cpu time:  0 days  0 hours  7 minutes 25.5 seconds.
 File lengths (MBytes):  RWF=     58 Int=      0 D2E=      0 Chk=      9 Scr=      1
 Normal termination of Gaussian 09 at Sat Feb 17 21:06:27 2018.
