 Entering Gaussian System, Link 0=g09
 Initial command:
 /home/fb_chem/chemsoft/lx24-amd64/Gaussian_09_C.01_NBO_3.1_64_istanbul-64/g09/l1.exe /local/2397408.1.parallel_long/Gau-18541.inp -scrdir=/local/2397408.1.parallel_long/
 Entering Link 1 = /home/fb_chem/chemsoft/lx24-amd64/Gaussian_09_C.01_NBO_3.1_64_istanbul-64/g09/l1.exe PID=     18542.
  
 Copyright (c) 1988,1990,1992,1993,1995,1998,2003,2009,2011,
            Gaussian, Inc.  All Rights Reserved.
  
 This is part of the Gaussian(R) 09 program.  It is based on
 the Gaussian(R) 03 system (copyright 2003, Gaussian, Inc.),
 the Gaussian(R) 98 system (copyright 1998, Gaussian, Inc.),
 the Gaussian(R) 94 system (copyright 1995, Gaussian, Inc.),
 the Gaussian 92(TM) system (copyright 1992, Gaussian, Inc.),
 the Gaussian 90(TM) system (copyright 1990, Gaussian, Inc.),
 the Gaussian 88(TM) system (copyright 1988, Gaussian, Inc.),
 the Gaussian 86(TM) system (copyright 1986, Carnegie Mellon
 University), and the Gaussian 82(TM) system (copyright 1983,
 Carnegie Mellon University). Gaussian is a federally registered
 trademark of Gaussian, Inc.
  
 This software contains proprietary and confidential information,
 including trade secrets, belonging to Gaussian, Inc.
  
 This software is provided under written license and may be
 used, copied, transmitted, or stored only in accord with that
 written license.
  
 The following legend is applicable only to US Government
 contracts under FAR:
  
                    RESTRICTED RIGHTS LEGEND
  
 Use, reproduction and disclosure by the US Government is
 subject to restrictions as set forth in subparagraphs (a)
 and (c) of the Commercial Computer Software - Restricted
 Rights clause in FAR 52.227-19.
  
 Gaussian, Inc.
 340 Quinnipiac St., Bldg. 40, Wallingford CT 06492
  
  
 ---------------------------------------------------------------
 Warning -- This program may not be used in any manner that
 competes with the business of Gaussian, Inc. or will provide
 assistance to any competitor of Gaussian, Inc.  The licensee
 of this program is prohibited from giving any competitor of
 Gaussian, Inc. access to this program.  By using this program,
 the user acknowledges that Gaussian, Inc. is engaged in the
 business of creating and licensing software in the field of
 computational chemistry and represents and warrants to the
 licensee that it is not a competitor of Gaussian, Inc. and that
 it will not use this program in any manner prohibited above.
 ---------------------------------------------------------------
  

 Cite this work as:
 Gaussian 09, Revision C.01,
 M. J. Frisch, G. W. Trucks, H. B. Schlegel, G. E. Scuseria, 
 M. A. Robb, J. R. Cheeseman, G. Scalmani, V. Barone, B. Mennucci, 
 G. A. Petersson, H. Nakatsuji, M. Caricato, X. Li, H. P. Hratchian, 
 A. F. Izmaylov, J. Bloino, G. Zheng, J. L. Sonnenberg, M. Hada, 
 M. Ehara, K. Toyota, R. Fukuda, J. Hasegawa, M. Ishida, T. Nakajima, 
 Y. Honda, O. Kitao, H. Nakai, T. Vreven, J. A. Montgomery, Jr., 
 J. E. Peralta, F. Ogliaro, M. Bearpark, J. J. Heyd, E. Brothers, 
 K. N. Kudin, V. N. Staroverov, T. Keith, R. Kobayashi, J. Normand, 
 K. Raghavachari, A. Rendell, J. C. Burant, S. S. Iyengar, J. Tomasi, 
 M. Cossi, N. Rega, J. M. Millam, M. Klene, J. E. Knox, J. B. Cross, 
 V. Bakken, C. Adamo, J. Jaramillo, R. Gomperts, R. E. Stratmann, 
 O. Yazyev, A. J. Austin, R. Cammi, C. Pomelli, J. W. Ochterski, 
 R. L. Martin, K. Morokuma, V. G. Zakrzewski, G. A. Voth, 
 P. Salvador, J. J. Dannenberg, S. Dapprich, A. D. Daniels, 
 O. Farkas, J. B. Foresman, J. V. Ortiz, J. Cioslowski, 
 and D. J. Fox, Gaussian, Inc., Wallingford CT, 2010.
 
 ******************************************
 Gaussian 09:  AM64L-G09RevC.01 23-Sep-2011
                16-Feb-2018 
 ******************************************
 %nprocs=4
 Will use up to    4 processors via shared memory.
 %chk=frag40-conf2.chk
 ---------------------------------------------------------
 #B3LYP/6-31G* Integral=(Grid=UltraFine) freq Opt pop=none
 ---------------------------------------------------------
 1/14=-1,18=20,19=15,26=3,38=1/1,3;
 2/9=110,12=2,17=6,18=5,40=1/2;
 3/5=1,6=6,7=1,11=2,16=1,25=1,30=1,71=1,74=-5,75=-5/1,2,3;
 4//1;
 5/5=2,38=5/2;
 7//1,2,3,16;
 1/14=-1,18=20,19=15/3(2);
 2/9=110/2;
 99//99;
 2/9=110/2;
 3/5=1,6=6,7=1,11=2,16=1,25=1,30=1,71=1,74=-5,75=-5/1,2,3;
 4/5=5,16=3/1;
 5/5=2,38=5/2;
 7//1,2,3,16;
 1/14=-1,18=20,19=15/3(-5);
 2/9=110/2;
 99/9=1/99;
 -----------------------------
 Optimization for frag40-conf2
 -----------------------------
 Charge =  1 Multiplicity = 1
 Symbolic Z-Matrix:
 C                     6.57065  -2.89006  -3.03356 
 C                     3.2288   -5.31518  -2.38999 
 C                     0.78158  -0.78456  -0.7517 
 C                     0.61026  -2.2415   -0.33412 
 C                     1.21557  -0.66592  -2.20896 
 C                     1.87244  -3.05857  -0.60871 
 C                     2.47672  -1.48114  -2.4904 
 C                     2.30023  -2.95709  -2.08593 
 C                     8.21134  -2.59513  -4.85357 
 C                     2.26217  -7.33737  -3.407 
 C                     2.16585  -5.23458  -4.68728 
 C                     6.04833  -3.85703  -1.96527 
 C                     3.55524  -3.79691  -2.43469 
 N                     7.60213  -3.37597  -3.80564 
 N                     2.57032  -5.91323  -3.4591 
 N                     4.6838   -3.481    -1.48232 
 O                     6.09603  -1.76132  -3.18917 
 O                     3.57466  -5.97471  -1.3965 
 H                    -0.16017  -0.24468  -0.60207 
 H                     1.53013  -0.30621  -0.1081 
 H                     0.36448  -2.29201   0.73265 
 H                    -0.23502  -2.68132  -0.87762 
 H                     0.40438  -1.01207  -2.86128 
 H                     1.39534   0.38666  -2.45527 
 H                     2.67064  -2.69616   0.04986 
 H                     1.68342  -4.1038   -0.33945 
 H                     2.71438  -1.41384  -3.55874 
 H                     3.31566  -1.02961  -1.94848 
 H                     1.46267  -3.34844  -2.67966 
 H                     7.43522  -2.18532  -5.5055 
 H                     8.88159  -3.2392   -5.42712 
 H                     8.77617  -1.77604  -4.40078 
 H                     1.18272  -7.46799  -3.52829 
 H                     2.56716  -7.79504  -2.46291 
 H                     2.7846   -7.83888  -4.22708 
 H                     2.68465  -5.70289  -5.52906 
 H                     2.39494  -4.17024  -4.6867 
 H                     1.08605  -5.35801  -4.81364 
 H                     6.71245  -3.80451  -1.09722 
 H                     6.0143   -4.88383  -2.34016 
 H                     3.92355  -3.53693  -3.43122 
 H                     7.97195  -4.3044   -3.61415 
 H                     4.50142  -3.98483  -0.60908 
 H                     4.70202  -2.48291  -1.26131 
 

 GradGradGradGradGradGradGradGradGradGradGradGradGradGradGradGradGradGrad
 Berny optimization.
 Initialization pass.
                           ----------------------------
                           !    Initial Parameters    !
                           ! (Angstroms and Degrees)  !
 --------------------------                            --------------------------
 ! Name  Definition              Value          Derivative Info.                !
 --------------------------------------------------------------------------------
 ! R1    R(1,12)                 1.5327         estimate D2E/DX2                !
 ! R2    R(1,14)                 1.377          estimate D2E/DX2                !
 ! R3    R(1,17)                 1.2343         estimate D2E/DX2                !
 ! R4    R(2,13)                 1.5536         estimate D2E/DX2                !
 ! R5    R(2,15)                 1.3908         estimate D2E/DX2                !
 ! R6    R(2,18)                 1.2416         estimate D2E/DX2                !
 ! R7    R(3,4)                  1.5253         estimate D2E/DX2                !
 ! R8    R(3,5)                  1.5251         estimate D2E/DX2                !
 ! R9    R(3,19)                 1.0958         estimate D2E/DX2                !
 ! R10   R(3,20)                 1.097          estimate D2E/DX2                !
 ! R11   R(4,6)                  1.5284         estimate D2E/DX2                !
 ! R12   R(4,21)                 1.0959         estimate D2E/DX2                !
 ! R13   R(4,22)                 1.097          estimate D2E/DX2                !
 ! R14   R(5,7)                  1.5278         estimate D2E/DX2                !
 ! R15   R(5,23)                 1.097          estimate D2E/DX2                !
 ! R16   R(5,24)                 1.0959         estimate D2E/DX2                !
 ! R17   R(6,8)                  1.5413         estimate D2E/DX2                !
 ! R18   R(6,25)                 1.0964         estimate D2E/DX2                !
 ! R19   R(6,26)                 1.0958         estimate D2E/DX2                !
 ! R20   R(7,8)                  1.5405         estimate D2E/DX2                !
 ! R21   R(7,27)                 1.0965         estimate D2E/DX2                !
 ! R22   R(7,28)                 1.0961         estimate D2E/DX2                !
 ! R23   R(8,13)                 1.5498         estimate D2E/DX2                !
 ! R24   R(8,29)                 1.0987         estimate D2E/DX2                !
 ! R25   R(9,14)                 1.4419         estimate D2E/DX2                !
 ! R26   R(9,30)                 1.0933         estimate D2E/DX2                !
 ! R27   R(9,31)                 1.0922         estimate D2E/DX2                !
 ! R28   R(9,32)                 1.0931         estimate D2E/DX2                !
 ! R29   R(10,15)                1.458          estimate D2E/DX2                !
 ! R30   R(10,33)                1.0941         estimate D2E/DX2                !
 ! R31   R(10,34)                1.0926         estimate D2E/DX2                !
 ! R32   R(10,35)                1.0941         estimate D2E/DX2                !
 ! R33   R(11,15)                1.4603         estimate D2E/DX2                !
 ! R34   R(11,36)                1.0941         estimate D2E/DX2                !
 ! R35   R(11,37)                1.0887         estimate D2E/DX2                !
 ! R36   R(11,38)                1.0941         estimate D2E/DX2                !
 ! R37   R(12,16)                1.4955         estimate D2E/DX2                !
 ! R38   R(12,39)                1.0942         estimate D2E/DX2                !
 ! R39   R(12,40)                1.0936         estimate D2E/DX2                !
 ! R40   R(13,16)                1.5101         estimate D2E/DX2                !
 ! R41   R(13,41)                1.0938         estimate D2E/DX2                !
 ! R42   R(14,42)                1.0176         estimate D2E/DX2                !
 ! R43   R(16,43)                1.0245         estimate D2E/DX2                !
 ! R44   R(16,44)                1.0224         estimate D2E/DX2                !
 ! A1    A(12,1,14)            115.0527         estimate D2E/DX2                !
 ! A2    A(12,1,17)            122.2608         estimate D2E/DX2                !
 ! A3    A(14,1,17)            122.6863         estimate D2E/DX2                !
 ! A4    A(13,2,15)            119.8412         estimate D2E/DX2                !
 ! A5    A(13,2,18)            118.9206         estimate D2E/DX2                !
 ! A6    A(15,2,18)            121.2356         estimate D2E/DX2                !
 ! A7    A(4,3,5)              111.5838         estimate D2E/DX2                !
 ! A8    A(4,3,19)             109.6762         estimate D2E/DX2                !
 ! A9    A(4,3,20)             109.4234         estimate D2E/DX2                !
 ! A10   A(5,3,19)             109.6763         estimate D2E/DX2                !
 ! A11   A(5,3,20)             109.4202         estimate D2E/DX2                !
 ! A12   A(19,3,20)            106.9476         estimate D2E/DX2                !
 ! A13   A(3,4,6)              111.6352         estimate D2E/DX2                !
 ! A14   A(3,4,21)             109.6162         estimate D2E/DX2                !
 ! A15   A(3,4,22)             109.5049         estimate D2E/DX2                !
 ! A16   A(6,4,21)             109.5999         estimate D2E/DX2                !
 ! A17   A(6,4,22)             109.4504         estimate D2E/DX2                !
 ! A18   A(21,4,22)            106.9178         estimate D2E/DX2                !
 ! A19   A(3,5,7)              111.6782         estimate D2E/DX2                !
 ! A20   A(3,5,23)             109.4644         estimate D2E/DX2                !
 ! A21   A(3,5,24)             109.6432         estimate D2E/DX2                !
 ! A22   A(7,5,23)             109.4194         estimate D2E/DX2                !
 ! A23   A(7,5,24)             109.6144         estimate D2E/DX2                !
 ! A24   A(23,5,24)            106.902          estimate D2E/DX2                !
 ! A25   A(4,6,8)              111.4814         estimate D2E/DX2                !
 ! A26   A(4,6,25)             108.4557         estimate D2E/DX2                !
 ! A27   A(4,6,26)             108.864          estimate D2E/DX2                !
 ! A28   A(8,6,25)             110.6017         estimate D2E/DX2                !
 ! A29   A(8,6,26)             110.2548         estimate D2E/DX2                !
 ! A30   A(25,6,26)            107.0537         estimate D2E/DX2                !
 ! A31   A(5,7,8)              111.6094         estimate D2E/DX2                !
 ! A32   A(5,7,27)             109.0041         estimate D2E/DX2                !
 ! A33   A(5,7,28)             108.7184         estimate D2E/DX2                !
 ! A34   A(8,7,27)             109.8427         estimate D2E/DX2                !
 ! A35   A(8,7,28)             110.6445         estimate D2E/DX2                !
 ! A36   A(27,7,28)            106.8901         estimate D2E/DX2                !
 ! A37   A(6,8,7)              110.2749         estimate D2E/DX2                !
 ! A38   A(6,8,13)             113.8761         estimate D2E/DX2                !
 ! A39   A(6,8,29)             106.4335         estimate D2E/DX2                !
 ! A40   A(7,8,13)             111.5498         estimate D2E/DX2                !
 ! A41   A(7,8,29)             106.6614         estimate D2E/DX2                !
 ! A42   A(13,8,29)            107.6188         estimate D2E/DX2                !
 ! A43   A(14,9,30)            109.6594         estimate D2E/DX2                !
 ! A44   A(14,9,31)            108.7585         estimate D2E/DX2                !
 ! A45   A(14,9,32)            108.8478         estimate D2E/DX2                !
 ! A46   A(30,9,31)            110.0917         estimate D2E/DX2                !
 ! A47   A(30,9,32)            109.4464         estimate D2E/DX2                !
 ! A48   A(31,9,32)            110.0152         estimate D2E/DX2                !
 ! A49   A(15,10,33)           108.7338         estimate D2E/DX2                !
 ! A50   A(15,10,34)           112.3976         estimate D2E/DX2                !
 ! A51   A(15,10,35)           108.6651         estimate D2E/DX2                !
 ! A52   A(33,10,34)           108.7349         estimate D2E/DX2                !
 ! A53   A(33,10,35)           109.4693         estimate D2E/DX2                !
 ! A54   A(34,10,35)           108.807          estimate D2E/DX2                !
 ! A55   A(15,11,36)           108.4702         estimate D2E/DX2                !
 ! A56   A(15,11,37)           113.3023         estimate D2E/DX2                !
 ! A57   A(15,11,38)           108.5444         estimate D2E/DX2                !
 ! A58   A(36,11,37)           108.6079         estimate D2E/DX2                !
 ! A59   A(36,11,38)           109.3186         estimate D2E/DX2                !
 ! A60   A(37,11,38)           108.5425         estimate D2E/DX2                !
 ! A61   A(1,12,16)            112.1719         estimate D2E/DX2                !
 ! A62   A(1,12,39)            108.4102         estimate D2E/DX2                !
 ! A63   A(1,12,40)            111.3477         estimate D2E/DX2                !
 ! A64   A(16,12,39)           106.59           estimate D2E/DX2                !
 ! A65   A(16,12,40)           108.5655         estimate D2E/DX2                !
 ! A66   A(39,12,40)           109.6269         estimate D2E/DX2                !
 ! A67   A(2,13,8)             110.6667         estimate D2E/DX2                !
 ! A68   A(2,13,16)            110.0796         estimate D2E/DX2                !
 ! A69   A(2,13,41)            109.2237         estimate D2E/DX2                !
 ! A70   A(8,13,16)            110.4807         estimate D2E/DX2                !
 ! A71   A(8,13,41)            110.4202         estimate D2E/DX2                !
 ! A72   A(16,13,41)           105.8554         estimate D2E/DX2                !
 ! A73   A(1,14,9)             122.2014         estimate D2E/DX2                !
 ! A74   A(1,14,42)            119.2544         estimate D2E/DX2                !
 ! A75   A(9,14,42)            118.511          estimate D2E/DX2                !
 ! A76   A(2,15,10)            119.5124         estimate D2E/DX2                !
 ! A77   A(2,15,11)            125.2965         estimate D2E/DX2                !
 ! A78   A(10,15,11)           115.1784         estimate D2E/DX2                !
 ! A79   A(12,16,13)           115.1896         estimate D2E/DX2                !
 ! A80   A(12,16,43)           108.3016         estimate D2E/DX2                !
 ! A81   A(12,16,44)           107.3976         estimate D2E/DX2                !
 ! A82   A(13,16,43)           107.5544         estimate D2E/DX2                !
 ! A83   A(13,16,44)           110.7238         estimate D2E/DX2                !
 ! A84   A(43,16,44)           107.3971         estimate D2E/DX2                !
 ! D1    D(14,1,12,16)        -161.0463         estimate D2E/DX2                !
 ! D2    D(14,1,12,39)          81.5282         estimate D2E/DX2                !
 ! D3    D(14,1,12,40)         -39.1479         estimate D2E/DX2                !
 ! D4    D(17,1,12,16)          18.7579         estimate D2E/DX2                !
 ! D5    D(17,1,12,39)         -98.6676         estimate D2E/DX2                !
 ! D6    D(17,1,12,40)         140.6563         estimate D2E/DX2                !
 ! D7    D(12,1,14,9)         -179.8671         estimate D2E/DX2                !
 ! D8    D(12,1,14,42)          -1.9929         estimate D2E/DX2                !
 ! D9    D(17,1,14,9)            0.3296         estimate D2E/DX2                !
 ! D10   D(17,1,14,42)         178.2038         estimate D2E/DX2                !
 ! D11   D(15,2,13,8)           79.1325         estimate D2E/DX2                !
 ! D12   D(15,2,13,16)        -158.4528         estimate D2E/DX2                !
 ! D13   D(15,2,13,41)         -42.6334         estimate D2E/DX2                !
 ! D14   D(18,2,13,8)         -101.4567         estimate D2E/DX2                !
 ! D15   D(18,2,13,16)          20.9579         estimate D2E/DX2                !
 ! D16   D(18,2,13,41)         136.7773         estimate D2E/DX2                !
 ! D17   D(13,2,15,10)        -179.7254         estimate D2E/DX2                !
 ! D18   D(13,2,15,11)           1.6397         estimate D2E/DX2                !
 ! D19   D(18,2,15,10)           0.8778         estimate D2E/DX2                !
 ! D20   D(18,2,15,11)        -177.7571         estimate D2E/DX2                !
 ! D21   D(5,3,4,6)             54.6017         estimate D2E/DX2                !
 ! D22   D(5,3,4,21)           176.2343         estimate D2E/DX2                !
 ! D23   D(5,3,4,22)           -66.7664         estimate D2E/DX2                !
 ! D24   D(19,3,4,6)           176.3379         estimate D2E/DX2                !
 ! D25   D(19,3,4,21)          -62.0295         estimate D2E/DX2                !
 ! D26   D(19,3,4,22)           54.9699         estimate D2E/DX2                !
 ! D27   D(20,3,4,6)           -66.6393         estimate D2E/DX2                !
 ! D28   D(20,3,4,21)           54.9933         estimate D2E/DX2                !
 ! D29   D(20,3,4,22)          171.9926         estimate D2E/DX2                !
 ! D30   D(4,3,5,7)            -54.4492         estimate D2E/DX2                !
 ! D31   D(4,3,5,23)            66.8804         estimate D2E/DX2                !
 ! D32   D(4,3,5,24)          -176.1473         estimate D2E/DX2                !
 ! D33   D(19,3,5,7)          -176.1854         estimate D2E/DX2                !
 ! D34   D(19,3,5,23)          -54.8558         estimate D2E/DX2                !
 ! D35   D(19,3,5,24)           62.1165         estimate D2E/DX2                !
 ! D36   D(20,3,5,7)            66.7937         estimate D2E/DX2                !
 ! D37   D(20,3,5,23)         -171.8767         estimate D2E/DX2                !
 ! D38   D(20,3,5,24)          -54.9044         estimate D2E/DX2                !
 ! D39   D(3,4,6,8)            -55.375          estimate D2E/DX2                !
 ! D40   D(3,4,6,25)            66.6289         estimate D2E/DX2                !
 ! D41   D(3,4,6,26)          -177.2196         estimate D2E/DX2                !
 ! D42   D(21,4,6,8)          -177.017          estimate D2E/DX2                !
 ! D43   D(21,4,6,25)          -55.0131         estimate D2E/DX2                !
 ! D44   D(21,4,6,26)           61.1384         estimate D2E/DX2                !
 ! D45   D(22,4,6,8)            66.0246         estimate D2E/DX2                !
 ! D46   D(22,4,6,25)         -171.9715         estimate D2E/DX2                !
 ! D47   D(22,4,6,26)          -55.82           estimate D2E/DX2                !
 ! D48   D(3,5,7,8)             55.1217         estimate D2E/DX2                !
 ! D49   D(3,5,7,27)           176.6266         estimate D2E/DX2                !
 ! D50   D(3,5,7,28)           -67.1964         estimate D2E/DX2                !
 ! D51   D(23,5,7,8)           -66.2339         estimate D2E/DX2                !
 ! D52   D(23,5,7,27)           55.271          estimate D2E/DX2                !
 ! D53   D(23,5,7,28)          171.448          estimate D2E/DX2                !
 ! D54   D(24,5,7,8)           176.8364         estimate D2E/DX2                !
 ! D55   D(24,5,7,27)          -61.6587         estimate D2E/DX2                !
 ! D56   D(24,5,7,28)           54.5183         estimate D2E/DX2                !
 ! D57   D(4,6,8,7)             55.2698         estimate D2E/DX2                !
 ! D58   D(4,6,8,13)          -178.45           estimate D2E/DX2                !
 ! D59   D(4,6,8,29)           -60.0474         estimate D2E/DX2                !
 ! D60   D(25,6,8,7)           -65.486          estimate D2E/DX2                !
 ! D61   D(25,6,8,13)           60.7942         estimate D2E/DX2                !
 ! D62   D(25,6,8,29)          179.1968         estimate D2E/DX2                !
 ! D63   D(26,6,8,7)           176.3062         estimate D2E/DX2                !
 ! D64   D(26,6,8,13)          -57.4136         estimate D2E/DX2                !
 ! D65   D(26,6,8,29)           60.989          estimate D2E/DX2                !
 ! D66   D(5,7,8,6)            -55.166          estimate D2E/DX2                !
 ! D67   D(5,7,8,13)           177.2581         estimate D2E/DX2                !
 ! D68   D(5,7,8,29)            60.0076         estimate D2E/DX2                !
 ! D69   D(27,7,8,6)          -176.1838         estimate D2E/DX2                !
 ! D70   D(27,7,8,13)           56.2403         estimate D2E/DX2                !
 ! D71   D(27,7,8,29)          -61.0102         estimate D2E/DX2                !
 ! D72   D(28,7,8,6)            66.0393         estimate D2E/DX2                !
 ! D73   D(28,7,8,13)          -61.5366         estimate D2E/DX2                !
 ! D74   D(28,7,8,29)         -178.7871         estimate D2E/DX2                !
 ! D75   D(6,8,13,2)            69.967          estimate D2E/DX2                !
 ! D76   D(6,8,13,16)          -52.2132         estimate D2E/DX2                !
 ! D77   D(6,8,13,41)         -168.9733         estimate D2E/DX2                !
 ! D78   D(7,8,13,2)          -164.4247         estimate D2E/DX2                !
 ! D79   D(7,8,13,16)           73.3951         estimate D2E/DX2                !
 ! D80   D(7,8,13,41)          -43.3649         estimate D2E/DX2                !
 ! D81   D(29,8,13,2)          -47.7547         estimate D2E/DX2                !
 ! D82   D(29,8,13,16)        -169.9349         estimate D2E/DX2                !
 ! D83   D(29,8,13,41)          73.305          estimate D2E/DX2                !
 ! D84   D(30,9,14,1)          -50.3036         estimate D2E/DX2                !
 ! D85   D(30,9,14,42)         131.807          estimate D2E/DX2                !
 ! D86   D(31,9,14,1)         -170.7399         estimate D2E/DX2                !
 ! D87   D(31,9,14,42)          11.3707         estimate D2E/DX2                !
 ! D88   D(32,9,14,1)           69.4001         estimate D2E/DX2                !
 ! D89   D(32,9,14,42)        -108.4893         estimate D2E/DX2                !
 ! D90   D(33,10,15,2)         122.7205         estimate D2E/DX2                !
 ! D91   D(33,10,15,11)        -58.5106         estimate D2E/DX2                !
 ! D92   D(34,10,15,2)           2.283          estimate D2E/DX2                !
 ! D93   D(34,10,15,11)       -178.9481         estimate D2E/DX2                !
 ! D94   D(35,10,15,2)        -118.1984         estimate D2E/DX2                !
 ! D95   D(35,10,15,11)         60.5705         estimate D2E/DX2                !
 ! D96   D(36,11,15,2)         118.3777         estimate D2E/DX2                !
 ! D97   D(36,11,15,10)        -60.3096         estimate D2E/DX2                !
 ! D98   D(37,11,15,2)          -2.297          estimate D2E/DX2                !
 ! D99   D(37,11,15,10)        179.0157         estimate D2E/DX2                !
 ! D100  D(38,11,15,2)        -122.941          estimate D2E/DX2                !
 ! D101  D(38,11,15,10)         58.3717         estimate D2E/DX2                !
 ! D102  D(1,12,16,13)          75.2379         estimate D2E/DX2                !
 ! D103  D(1,12,16,43)        -164.3224         estimate D2E/DX2                !
 ! D104  D(1,12,16,44)         -48.6227         estimate D2E/DX2                !
 ! D105  D(39,12,16,13)       -166.2556         estimate D2E/DX2                !
 ! D106  D(39,12,16,43)        -45.8159         estimate D2E/DX2                !
 ! D107  D(39,12,16,44)         69.8838         estimate D2E/DX2                !
 ! D108  D(40,12,16,13)        -48.2352         estimate D2E/DX2                !
 ! D109  D(40,12,16,43)         72.2045         estimate D2E/DX2                !
 ! D110  D(40,12,16,44)       -172.0958         estimate D2E/DX2                !
 ! D111  D(2,13,16,12)          77.0237         estimate D2E/DX2                !
 ! D112  D(2,13,16,43)         -43.824          estimate D2E/DX2                !
 ! D113  D(2,13,16,44)        -160.8875         estimate D2E/DX2                !
 ! D114  D(8,13,16,12)        -160.4519         estimate D2E/DX2                !
 ! D115  D(8,13,16,43)          78.7003         estimate D2E/DX2                !
 ! D116  D(8,13,16,44)         -38.3631         estimate D2E/DX2                !
 ! D117  D(41,13,16,12)        -40.8971         estimate D2E/DX2                !
 ! D118  D(41,13,16,43)       -161.7449         estimate D2E/DX2                !
 ! D119  D(41,13,16,44)         81.1917         estimate D2E/DX2                !
 --------------------------------------------------------------------------------
 Trust Radius=3.00D-01 FncErr=1.00D-07 GrdErr=1.00D-06
 Number of steps in this run=    257 maximum allowed number of steps=    264.
 GradGradGradGradGradGradGradGradGradGradGradGradGradGradGradGradGradGrad

                          Input orientation:                          
 ---------------------------------------------------------------------
 Center     Atomic      Atomic             Coordinates (Angstroms)
 Number     Number       Type             X           Y           Z
 ---------------------------------------------------------------------
      1          6           0        6.570647   -2.890056   -3.033559
      2          6           0        3.228801   -5.315175   -2.389991
      3          6           0        0.781577   -0.784559   -0.751703
      4          6           0        0.610258   -2.241502   -0.334122
      5          6           0        1.215568   -0.665918   -2.208957
      6          6           0        1.872440   -3.058569   -0.608710
      7          6           0        2.476724   -1.481140   -2.490400
      8          6           0        2.300226   -2.957094   -2.085930
      9          6           0        8.211343   -2.595132   -4.853568
     10          6           0        2.262174   -7.337371   -3.406997
     11          6           0        2.165847   -5.234575   -4.687282
     12          6           0        6.048330   -3.857031   -1.965272
     13          6           0        3.555238   -3.796915   -2.434689
     14          7           0        7.602134   -3.375968   -3.805644
     15          7           0        2.570322   -5.913227   -3.459101
     16          7           0        4.683802   -3.480996   -1.482323
     17          8           0        6.096027   -1.761316   -3.189165
     18          8           0        3.574662   -5.974713   -1.396497
     19          1           0       -0.160170   -0.244679   -0.602073
     20          1           0        1.530129   -0.306214   -0.108104
     21          1           0        0.364482   -2.292007    0.732647
     22          1           0       -0.235024   -2.681317   -0.877619
     23          1           0        0.404382   -1.012073   -2.861285
     24          1           0        1.395339    0.386665   -2.455269
     25          1           0        2.670639   -2.696158    0.049863
     26          1           0        1.683421   -4.103798   -0.339448
     27          1           0        2.714384   -1.413845   -3.558741
     28          1           0        3.315663   -1.029612   -1.948480
     29          1           0        1.462672   -3.348438   -2.679660
     30          1           0        7.435217   -2.185321   -5.505502
     31          1           0        8.881591   -3.239196   -5.427116
     32          1           0        8.776174   -1.776042   -4.400782
     33          1           0        1.182719   -7.467991   -3.528291
     34          1           0        2.567158   -7.795043   -2.462909
     35          1           0        2.784599   -7.838884   -4.227076
     36          1           0        2.684649   -5.702893   -5.529062
     37          1           0        2.394935   -4.170243   -4.686697
     38          1           0        1.086055   -5.358006   -4.813639
     39          1           0        6.712449   -3.804506   -1.097223
     40          1           0        6.014304   -4.883827   -2.340160
     41          1           0        3.923549   -3.536930   -3.431220
     42          1           0        7.971954   -4.304401   -3.614148
     43          1           0        4.501417   -3.984830   -0.609078
     44          1           0        4.702023   -2.482909   -1.261312
 ---------------------------------------------------------------------
                    Distance matrix (angstroms):
                    1          2          3          4          5
     1  C    0.000000
     2  C    4.178913   0.000000
     3  C    6.569118   5.403645   0.000000
     4  C    6.575243   4.531096   1.525257   0.000000
     5  C    5.856930   5.069662   1.525127   2.522671   0.000000
     6  C    5.289748   3.178828   2.526173   1.528431   2.952464
     7  C    4.363515   3.908392   2.526225   2.951505   1.527846
     8  C    4.374813   2.552499   2.967552   2.537104   2.537933
     9  C    2.468055   6.188179   8.677839   8.850251   7.723775
    10  C    6.203306   2.461290   7.223718   6.175700   6.858496
    11  C    5.256789   2.532570   6.099806   5.507118   5.283725
    12  C    1.532675   3.202548   6.217035   5.902814   5.796393
    13  C    3.205266   1.553600   4.427180   3.937588   3.915118
    14  N    1.377023   4.989051   7.909611   7.888270   7.119129
    15  N    5.032221   1.390776   6.069007   5.204701   5.561696
    16  N    2.513111   2.510997   4.799160   4.410042   4.525628
    17  O    1.234314   4.635685   5.927786   6.202863   5.097017
    18  O    4.601196   1.241629   5.929147   4.883974   5.865895
    19  H    7.629812   6.355447   1.095786   2.157002   2.156890
    20  H    6.375057   5.760398   1.096979   2.154666   2.154511
    21  H    7.284123   5.205260   2.156307   1.095879   3.467209
    22  H    7.142045   4.606796   2.155696   1.096963   2.817536
    23  H    6.448203   5.168767   2.155081   2.817877   1.096986
    24  H    6.152652   5.989726   2.156526   3.467402   1.095864
    25  H    4.975455   3.622662   2.804509   2.144604   3.367695
    26  H    5.711075   2.839077   3.464192   2.149385   3.941188
    27  H    4.162424   4.104994   3.465718   3.938341   2.151223
    28  H    3.903020   4.309122   2.813168   3.375507   2.147212
    29  H    5.140697   2.659168   3.279388   2.730104   2.734691
    30  H    2.711943   6.098879   8.296485   8.563083   7.201377
    31  H    3.345367   6.744468   9.669279   9.764678   8.703230
    32  H    2.823946   6.880558   8.843777   9.134361   7.949794
    33  H    7.087455   3.180691   7.248353   6.151960   6.928918
    34  H    6.357080   2.567652   7.433937   6.261231   7.260559
    35  H    6.344253   3.152983   8.115037   7.156364   7.614861
    36  H    5.407455   3.209391   7.115817   6.578125   6.209059
    37  H    4.669937   2.698343   5.435987   5.084292   4.450887
    38  H    6.272178   3.235315   6.124414   5.477687   5.368131
    39  H    2.146095   4.011131   6.664435   6.345237   6.426693
    40  H    2.182990   2.819144   6.834371   6.341119   6.390293
    41  H    2.753853   2.174623   4.962595   4.716784   4.131561
    42  H    2.073914   5.001772   8.502023   8.319176   7.801402
    43  H    3.370216   2.561449   4.909102   4.272694   4.936759
    44  H    2.607371   3.386152   4.302788   4.202440   4.044113
                    6          7          8          9         10
     6  C    0.000000
     7  C    2.528675   0.000000
     8  C    1.541258   1.540515   0.000000
     9  C    7.642989   6.301698   6.536982   0.000000
    10  C    5.127422   5.931410   4.575314   7.744288   0.000000
    11  C    4.632045   4.360185   3.460060   6.598661   2.463769
    12  C    4.462719   4.321688   3.856518   3.822731   5.341003
    13  C    2.590591   2.555212   1.549834   5.382803   3.892587
    14  N    6.568905   5.620504   5.589552   1.441868   6.660841
    15  N    4.094000   4.537680   3.270668   6.691443   1.458032
    16  N    2.974121   3.144334   2.514010   4.959193   4.943712
    17  O    5.116668   3.696772   4.129784   2.817809   6.770396
    18  O    3.467285   4.753346   3.347467   6.698635   2.760720
    19  H    3.471242   3.470998   3.951275   9.678950   8.002602
    20  H    2.818376   2.819898   3.395881   8.508654   7.801010
    21  H    2.158887   3.937906   3.483363   9.636955   6.796587
    22  H    2.157785   3.375658   2.821979   9.335776   5.857696
    23  H    3.378969   2.156892   2.824625   8.211207   6.615028
    24  H    3.937898   2.158546   3.483670   7.816704   7.830576
    25  H    1.096440   2.822553   2.183324   7.399543   5.801516
    26  H    1.095780   3.483426   2.178434   8.078806   4.494531
    27  H    3.480900   1.096523   2.173089   5.769625   5.942700
    28  H    2.827462   1.096071   2.182932   5.904072   6.559340
    29  H    2.130908   2.133290   1.098710   7.130071   4.132773
    30  H    7.462279   5.845798   6.217494   1.093313   7.596559
    31  H    8.507518   7.262051   7.386303   1.092249   8.043171
    32  H    7.980364   6.589354   6.977916   1.093141   8.622539
    33  H    5.333167   6.212411   4.865945   8.654633   1.094074
    34  H    5.133700   6.314611   4.859951   8.038106   1.092603
    35  H    6.064324   6.597859   5.352663   7.572250   1.094062
    36  H    5.644643   5.205756   4.420673   6.376426   2.711671
    37  H    4.258966   3.472994   2.871357   6.028219   3.418473
    38  H    4.856670   4.728794   3.831317   7.642303   2.698108
    39  H    4.921458   5.027955   4.600365   4.221303   6.133607
    40  H    4.846083   4.910736   4.191815   4.047508   4.608308
    41  H    3.521710   2.684161   2.186594   4.614676   4.147783
    42  H    6.912946   6.279424   6.026540   2.124869   6.468648
    43  H    2.787378   3.729238   2.842987   5.806075   4.907351
    44  H    2.960373   2.732426   2.583306   5.023169   5.841458
                   11         12         13         14         15
    11  C    0.000000
    12  C    4.937676   0.000000
    13  C    3.011885   2.537612   0.000000
    14  N    5.812480   2.456155   4.293493   0.000000
    15  N    1.460341   4.307669   2.549168   5.645964   0.000000
    16  N    4.436992   1.495520   1.510120   3.731690   3.780238
    17  O    5.454741   2.427388   3.341931   2.292489   5.453606
    18  O    3.655384   3.305619   2.412680   5.364512   2.294955
    19  H    6.855535   7.311147   5.457208   8.962209   6.910183
    20  H    6.757348   6.039166   4.658225   7.743671   6.614361
    21  H    6.424893   6.483378   4.741064   8.611310   5.962358
    22  H    5.176567   6.484276   4.246777   8.395053   4.997925
    23  H    4.926109   6.383634   4.226727   7.634622   5.391659
    24  H    6.097040   6.316596   4.708283   7.382765   6.486670
    25  H    5.398048   4.100877   2.857827   6.296564   4.761557
    26  H    4.518302   4.664400   2.826289   6.897493   3.713874
    27  H    4.021502   4.429842   2.765782   5.272664   4.502790
    28  H    5.148284   3.932182   2.819887   5.227645   5.165966
    29  H    2.842976   4.668756   2.154061   6.241922   2.900441
    30  H    6.142776   4.153468   5.203976   2.082070   6.461597
    31  H    7.044864   4.515911   6.134795   2.069998   7.131314
    32  H    7.465919   4.207535   5.933601   2.071792   7.517689
    33  H    2.701471   6.257494   4.505731   7.617773   2.085071
    34  H    3.415389   5.279597   4.118511   6.832434   2.129235
    35  H    2.716076   5.623420   4.488213   6.580568   2.084192
    36  H    1.094107   5.236617   3.737087   5.706698   2.083758
    37  H    1.088708   4.566350   2.560706   5.340603   2.139098
    38  H    1.094145   5.915260   3.767396   6.885043   2.084728
    39  H    5.967010   1.094221   3.428826   2.882833   5.213673
    40  H    4.521352   1.093622   2.690227   2.634860   3.764666
    41  H    2.747582   2.601186   1.093764   3.701093   2.734737
    42  H    5.977267   2.572793   4.599570   1.017559   5.638262
    43  H    4.862972   2.061198   2.064806   4.494797   3.945944
    44  H    5.073571   2.048491   2.102032   3.960028   4.597989
                   16         17         18         19         20
    16  N    0.000000
    17  O    2.804458   0.000000
    18  O    2.730602   5.227203   0.000000
    19  H    5.891744   6.937812   6.885737   0.000000
    20  H    4.681172   5.697165   6.162139   1.762072   0.000000
    21  H    4.997630   6.965116   5.329243   2.499657   2.451320
    22  H    5.019961   6.802342   5.062549   2.453311   3.057619
    23  H    5.129381   5.750104   6.068285   2.451867   3.057049
    24  H    5.169082   5.220047   6.807171   2.500508   2.451006
    25  H    2.648847   4.806092   3.695692   3.801085   2.652838
    26  H    3.270525   5.751452   2.862598   4.284927   3.807711
    27  H    3.530330   3.419478   5.120244   4.286245   3.812637
    28  H    2.845767   3.131312   4.982549   3.809245   2.664286
    29  H    3.439022   4.924077   3.606152   4.072260   3.984041
    30  H    5.043315   2.708990   6.793180   9.246600   8.217847
    31  H    5.765526   3.866771   7.203641  10.677154   9.536156
    32  H    5.307709   2.941329   7.328730   9.830234   8.549423
    33  H    5.686800   7.538019   3.534942   7.908371   7.944144
    34  H    4.904359   7.027534   2.337927   8.240694   7.918529
    35  H    5.489247   6.998546   3.480160   8.915395   8.676448
    36  H    5.030858   5.713899   4.236048   7.884182   7.735880
    37  H    3.997747   4.663004   3.933610   6.214722   6.053273
    38  H    5.250202   6.377689   4.272044   6.740659   6.918082
    39  H    2.090064   2.988448   3.826887   7.755670   6.330312
    40  H    2.115197   3.236906   2.834146   7.916235   6.785606
    41  H    2.092681   2.816213   3.194465   5.959845   5.216233
    42  H    4.004325   3.188572   5.200394   9.575248   8.353141
    43  H    1.024535   3.760804   2.332067   5.976552   4.755181
    44  H    1.022426   2.486073   3.671773   5.393068   4.016068
                   21         22         23         24         25
    21  H    0.000000
    22  H    1.761796   0.000000
    23  H    3.815254   2.670233   0.000000
    24  H    4.289610   3.815701   1.761622   0.000000
    25  H    2.438829   3.050134   4.055471   4.172035   0.000000
    26  H    2.484265   2.448165   4.189793   4.972318   1.762842
    27  H    4.970836   4.182572   2.446217   2.489852   3.829916
    28  H    4.182290   4.059834   3.051078   2.439327   2.680822
    29  H    3.737098   2.564093   2.571297   3.742443   3.055315
    30  H    9.429802   8.971952   7.602699   7.238726   7.336500
    31  H   10.553719  10.204010   9.132724   8.833046   8.298682
    32  H    9.867870   9.717710   8.546379   7.933413   7.611334
    33  H    6.753955   5.652283   6.536787   7.930460   6.147152
    34  H    6.734001   6.042811   7.130567   8.265202   5.685364
    35  H    7.824555   6.851094   7.357729   8.528130   6.689755
    36  H    7.498421   6.268201   5.858366   6.942135   6.337590
    37  H    6.084389   4.862372   4.155535   5.171447   4.968293
    38  H    6.378268   4.939855   4.812847   6.217620   5.766280
    39  H    6.777371   7.041105   7.120485   6.905205   4.345166
    40  H    6.933986   6.785587   6.836174   7.009007   4.655986
    41  H    5.617346   4.954461   4.368554   4.768535   3.794024
    42  H    8.989882   8.802130   8.287001   8.160942   6.641940
    43  H    4.666916   4.919871   5.540345   5.671518   2.333801
    44  H    4.777716   4.955907   4.815910   4.538077   2.427174
                   26         27         28         29         30
    26  H    0.000000
    27  H    4.320020   0.000000
    28  H    3.834556   1.761280   0.000000
    29  H    2.468985   2.466216   3.056985   0.000000
    30  H    7.965665   5.164428   5.564062   6.708914   0.000000
    31  H    8.856949   6.697550   6.925512   7.912068   1.791310
    32  H    8.498236   6.130702   6.032256   7.676067   1.784960
    33  H    4.662318   6.244967   6.964049   4.215360   8.420789
    34  H    4.349180   6.476281   6.826124   4.586847   8.026478
    35  H    5.502464   6.460088   7.200015   4.930121   7.431379
    36  H    5.521925   4.720062   5.921005   3.893042   5.911156
    37  H    4.405591   2.995340   4.267216   2.360651   5.478576
    38  H    4.684898   4.447767   5.649361   2.955346   7.131372
    39  H    5.094597   5.268667   4.467978   5.502024   4.751534
    40  H    4.834029   4.941173   4.721340   4.815604   4.395488
    41  H    3.859866   2.446596   2.975683   2.579979   4.296662
    42  H    7.092922   6.000036   5.931251   6.645141   2.890641
    43  H    2.833364   4.301623   3.454465   3.731793   5.985014
    44  H    3.548108   3.220525   2.122797   3.640638   5.056882
                   31         32         33         34         35
    31  H    0.000000
    32  H    1.790333   0.000000
    33  H    8.986706   9.529957   0.000000
    34  H    8.331527   8.862032   1.777265   0.000000
    35  H    7.731141   8.525679   1.786584   1.778057   0.000000
    36  H    6.669504   7.334838   3.061772   3.713784   2.503520
    37  H    6.594829   6.821594   3.699529   4.256062   3.717797
    38  H    8.101611   8.493459   2.472550   3.695775   3.063310
    39  H    4.875728   4.391711   7.064639   5.913791   6.442064
    40  H    4.522770   4.640303   5.606583   4.513653   4.766950
    41  H    5.352983   5.252499   4.793204   4.572631   4.520775
    42  H    2.291060   2.767338   7.490620   6.536189   6.306894
    43  H    6.554037   6.126117   5.627430   4.657872   5.557977
    44  H    5.949343   5.191785   6.509664   5.849808   6.415508
                   36         37         38         39         40
    36  H    0.000000
    37  H    1.772718   0.000000
    38  H    1.785016   1.772022   0.000000
    39  H    6.282375   5.626633   6.919640   0.000000
    40  H    4.682581   4.372101   5.534491   1.788080   0.000000
    41  H    3.259940   2.077009   3.644005   3.646519   2.715843
    42  H    5.794676   5.680801   7.068555   2.858524   2.406486
    43  H    5.518934   4.593323   5.588260   2.271446   2.468536
    44  H    5.714174   4.461279   5.827558   2.411505   2.941157
                   41         42         43         44
    41  H    0.000000
    42  H    4.124568   0.000000
    43  H    2.915311   4.601870   0.000000
    44  H    2.534854   4.421100   1.649673   0.000000
 Stoichiometry    C13H26N3O2(1+)
 Framework group  C1[X(C13H26N3O2)]
 Deg. of freedom   126
 Full point group                 C1      NOp   1
 Largest Abelian subgroup         C1      NOp   1
 Largest concise Abelian subgroup C1      NOp   1
                         Standard orientation:                         
 ---------------------------------------------------------------------
 Center     Atomic      Atomic             Coordinates (Angstroms)
 Number     Number       Type             X           Y           Z
 ---------------------------------------------------------------------
      1          6           0        2.812497   -1.053188   -0.311530
      2          6           0       -0.224302    1.814761   -0.438159
      3          6           0       -3.614219   -2.365081    0.048422
      4          6           0       -3.753719   -1.018502   -0.654196
      5          6           0       -2.695759   -2.271977    1.262413
      6          6           0       -2.391788   -0.434365   -1.028401
      7          6           0       -1.332492   -1.688017    0.895252
      8          6           0       -1.469762   -0.319526    0.201295
      9          6           0        4.957179   -1.299014    0.884800
     10          6           0       -0.508791    4.153119    0.275351
     11          6           0       -0.377672    2.415707    2.017295
     12          6           0        2.053924   -0.236868   -1.363805
     13          6           0       -0.084729    0.302843   -0.109074
     14          7           0        4.103918   -0.639469   -0.072243
     15          7           0       -0.372360    2.736586    0.592653
     16          7           0        0.573240   -0.419756   -1.260329
     17          8           0        2.298337   -2.007911    0.278108
     18          8           0       -0.189775    2.176531   -1.625414
     19          1           0       -4.602050   -2.722909    0.359703
     20          1           0       -3.213708   -3.104400   -0.656106
     21          1           0       -4.363903   -1.135989   -1.556872
     22          1           0       -4.284614   -0.316829    0.000887
     23          1           0       -3.166461   -1.644964    2.029664
     24          1           0       -2.563447   -3.267296    1.701447
     25          1           0       -1.937270   -1.075600   -1.792869
     26          1           0       -2.541877    0.551136   -1.483369
     27          1           0       -0.731203   -1.584669    1.806369
     28          1           0       -0.808257   -2.399319    0.246716
     29          1           0       -1.980887    0.344278    0.912125
     30          1           0        4.429963   -1.403689    1.836862
     31          1           0        5.861085   -0.700999    1.020217
     32          1           0        5.217584   -2.289346    0.502191
     33          1           0       -1.446282    4.520388    0.703393
     34          1           0       -0.517700    4.339632   -0.801178
     35          1           0        0.331759    4.694093    0.720092
     36          1           0        0.463550    2.929979    2.491574
     37          1           0       -0.291241    1.349325    2.218896
     38          1           0       -1.314472    2.777177    2.451919
     39          1           0        2.344574   -0.596377   -2.355569
     40          1           0        2.279784    0.829811   -1.278989
     41          1           0        0.588425    0.180676    0.744307
     42          1           0        4.484670    0.137151   -0.608261
     43          1           0        0.145418   -0.076454   -2.125652
     44          1           0        0.392277   -1.424657   -1.207594
 ---------------------------------------------------------------------
 Rotational constants (GHZ):      0.4292609      0.2835776      0.2071948
 Standard basis: 6-31G(d) (6D, 7F)
 There are   322 symmetry adapted basis functions of A   symmetry.
 Integral buffers will be    131072 words long.
 Raffenetti 2 integral format.
 Two-electron integral symmetry is turned on.
   322 basis functions,   608 primitive gaussians,   322 cartesian basis functions
    70 alpha electrons       70 beta electrons
       nuclear repulsion energy      1466.4261990992 Hartrees.
 NAtoms=   44 NActive=   44 NUniq=   44 SFac= 1.00D+00 NAtFMM=   60 NAOKFM=F Big=F
 One-electron integrals computed using PRISM.
 NBasis=   322 RedAO= T  NBF=   322
 NBsUse=   322 1.00D-06 NBFU=   322
 Harris functional with IExCor=  402 diagonalized for initial guess.
 ExpMin= 1.61D-01 ExpMax= 5.48D+03 ExpMxC= 8.25D+02 IAcc=3 IRadAn=         5 AccDes= 0.00D+00
 HarFok:  IExCor=  402 AccDes= 0.00D+00 IRadAn=         5 IDoV= 1
 ScaDFX=  1.000000  1.000000  1.000000  1.000000
 FoFCou: FMM=F IPFlag=           0 FMFlag=      100000 FMFlg1=           0
         NFxFlg=           0 DoJE=T BraDBF=F KetDBF=T FulRan=T
         Omega=  0.000000  0.000000  1.000000  0.000000  0.000000 ICntrl=     500 IOpCl=  0
         NMat0=    1 NMatS0=    1 NMatT0=    0 NMatD0=    1 NMtDS0=    0 NMtDT0=    0
         I1Cent=           4 NGrid=           0.
 Petite list used in FoFCou.
 Initial guess orbital symmetries:
       Occupied  (A) (A) (A) (A) (A) (A) (A) (A) (A) (A) (A) (A)
                 (A) (A) (A) (A) (A) (A) (A) (A) (A) (A) (A) (A)
                 (A) (A) (A) (A) (A) (A) (A) (A) (A) (A) (A) (A)
                 (A) (A) (A) (A) (A) (A) (A) (A) (A) (A) (A) (A)
                 (A) (A) (A) (A) (A) (A) (A) (A) (A) (A) (A) (A)
                 (A) (A) (A) (A) (A) (A) (A) (A) (A) (A)
       Virtual   (A) (A) (A) (A) (A) (A) (A) (A) (A) (A) (A) (A)
                 (A) (A) (A) (A) (A) (A) (A) (A) (A) (A) (A) (A)
                 (A) (A) (A) (A) (A) (A) (A) (A) (A) (A) (A) (A)
                 (A) (A) (A) (A) (A) (A) (A) (A) (A) (A) (A) (A)
                 (A) (A) (A) (A) (A) (A) (A) (A) (A) (A) (A) (A)
                 (A) (A) (A) (A) (A) (A) (A) (A) (A) (A) (A) (A)
                 (A) (A) (A) (A) (A) (A) (A) (A) (A) (A) (A) (A)
                 (A) (A) (A) (A) (A) (A) (A) (A) (A) (A) (A) (A)
                 (A) (A) (A) (A) (A) (A) (A) (A) (A) (A) (A) (A)
                 (A) (A) (A) (A) (A) (A) (A) (A) (A) (A) (A) (A)
                 (A) (A) (A) (A) (A) (A) (A) (A) (A) (A) (A) (A)
                 (A) (A) (A) (A) (A) (A) (A) (A) (A) (A) (A) (A)
                 (A) (A) (A) (A) (A) (A) (A) (A) (A) (A) (A) (A)
                 (A) (A) (A) (A) (A) (A) (A) (A) (A) (A) (A) (A)
                 (A) (A) (A) (A) (A) (A) (A) (A) (A) (A) (A) (A)
                 (A) (A) (A) (A) (A) (A) (A) (A) (A) (A) (A) (A)
                 (A) (A) (A) (A) (A) (A) (A) (A) (A) (A) (A) (A)
                 (A) (A) (A) (A) (A) (A) (A) (A) (A) (A) (A) (A)
                 (A) (A) (A) (A) (A) (A) (A) (A) (A) (A) (A) (A)
                 (A) (A) (A) (A) (A) (A) (A) (A) (A) (A) (A) (A)
                 (A) (A) (A) (A) (A) (A) (A) (A) (A) (A) (A) (A)
 The electronic state of the initial guess is 1-A.
 Requested convergence on RMS density matrix=1.00D-08 within 128 cycles.
 Requested convergence on MAX density matrix=1.00D-06.
 Requested convergence on             energy=1.00D-06.
 No special actions if energy rises.
 Integral accuracy reduced to 1.0D-05 until final iterations.
 Initial convergence to 1.0D-05 achieved.  Increase integral accuracy.
 SCF Done:  E(RB3LYP) =  -825.556170639     A.U. after   15 cycles
             Convg  =    0.5252D-08             -V/T =  2.0098
 Calling FoFJK, ICntrl=      2127 FMM=F ISym2X=0 I1Cent= 0 IOpClX= 0 NMat=1 NMatS=1 NMatT=0.
 ***** Axes restored to original set *****
 -------------------------------------------------------------------
 Center     Atomic                   Forces (Hartrees/Bohr)
 Number     Number              X              Y              Z
 -------------------------------------------------------------------
      1        6           0.013536403    0.009117295   -0.024742294
      2        6           0.001005965   -0.028073333   -0.003262356
      3        6          -0.004157949    0.002971082    0.001209581
      4        6          -0.002038970    0.002704370    0.002861458
      5        6          -0.001240503    0.004187381    0.000785137
      6        6          -0.001785823   -0.009845472    0.000178530
      7        6          -0.000775862   -0.000260027   -0.006146221
      8        6          -0.000768673    0.009736834    0.001792953
      9        6           0.003922564    0.007482103   -0.002124132
     10        6          -0.001562256   -0.003460683    0.000566867
     11        6           0.000037819   -0.005330944    0.001632290
     12        6           0.008784704   -0.004806972    0.000178961
     13        6          -0.016699429   -0.004426833   -0.014182536
     14        7          -0.023962653   -0.012629192    0.025953217
     15        7           0.017675213    0.027839771    0.025419578
     16        7           0.003454899   -0.009247809   -0.004075162
     17        8          -0.002434893   -0.014003125    0.009293970
     18        8           0.001276034    0.016566090   -0.004333177
     19        1           0.000634431    0.001018159    0.001116343
     20        1           0.000741521    0.001269271    0.001329352
     21        1          -0.000388185   -0.002100587   -0.000289091
     22        1          -0.000756328   -0.001299787   -0.000277960
     23        1          -0.000693326   -0.000299434   -0.001407502
     24        1          -0.000015885   -0.000488917   -0.001904508
     25        1           0.002447264    0.001613904    0.001976449
     26        1           0.002560961   -0.001309306    0.000731524
     27        1           0.003151029   -0.000086846   -0.000132080
     28        1           0.002990751    0.001482071    0.000593275
     29        1           0.003311342   -0.002716329   -0.001050245
     30        1           0.001723901    0.001053786   -0.000817525
     31        1          -0.000630048    0.001471919    0.000126987
     32        1           0.002061320    0.002948623   -0.004798592
     33        1          -0.000864988   -0.002126180   -0.001406682
     34        1           0.001167921    0.006419671   -0.000943511
     35        1          -0.001095243   -0.002318607   -0.001486637
     36        1          -0.001652970    0.000713665   -0.003592736
     37        1           0.000441022   -0.000098044    0.001504279
     38        1          -0.000975730    0.001162190   -0.003334628
     39        1           0.000361974   -0.003129757    0.000717035
     40        1          -0.001383917    0.000148975    0.004537121
     41        1           0.000526684    0.004260177    0.002743438
     42        1          -0.002347317    0.004620257   -0.000766765
     43        1          -0.002631989   -0.007497117    0.001326892
     44        1          -0.002950784    0.006767707   -0.005500898
 -------------------------------------------------------------------
 Cartesian Forces:  Max     0.028073333 RMS     0.007279771

 GradGradGradGradGradGradGradGradGradGradGradGradGradGradGradGradGradGrad
 Berny optimization.
 Internal  Forces:  Max     0.030155227 RMS     0.004925395
 Search for a local minimum.
 Step number   1 out of a maximum of  257
 All quantities printed in internal units (Hartrees-Bohrs-Radians)
 Mixed Optimization -- RFO/linear search
 Second derivative matrix not updated -- first step.
 ITU=  0
     Eigenvalues ---    0.00230   0.00230   0.00235   0.00334   0.00428
     Eigenvalues ---    0.00492   0.00554   0.00668   0.00882   0.00894
     Eigenvalues ---    0.00924   0.01002   0.01138   0.01160   0.01486
     Eigenvalues ---    0.01814   0.01882   0.01889   0.01996   0.03310
     Eigenvalues ---    0.03334   0.03725   0.03944   0.03959   0.04186
     Eigenvalues ---    0.04202   0.04432   0.04672   0.04779   0.04780
     Eigenvalues ---    0.04856   0.04896   0.05478   0.05540   0.05584
     Eigenvalues ---    0.05598   0.05998   0.06469   0.07206   0.07327
     Eigenvalues ---    0.07728   0.07736   0.07772   0.07859   0.08114
     Eigenvalues ---    0.08139   0.08183   0.08185   0.08193   0.08287
     Eigenvalues ---    0.08665   0.08702   0.09033   0.12093   0.12100
     Eigenvalues ---    0.12469   0.12694   0.14234   0.15990   0.15993
     Eigenvalues ---    0.16000   0.16000   0.16000   0.16000   0.16000
     Eigenvalues ---    0.16000   0.16000   0.16000   0.16000   0.16495
     Eigenvalues ---    0.17531   0.17790   0.20927   0.21996   0.22002
     Eigenvalues ---    0.22059   0.24993   0.24996   0.24999   0.25000
     Eigenvalues ---    0.25000   0.25000   0.27335   0.27347   0.27447
     Eigenvalues ---    0.27665   0.28233   0.29178   0.29381   0.29441
     Eigenvalues ---    0.29597   0.31338   0.32852   0.33825   0.34018
     Eigenvalues ---    0.34018   0.34020   0.34070   0.34079   0.34120
     Eigenvalues ---    0.34142   0.34144   0.34152   0.34153   0.34329
     Eigenvalues ---    0.34338   0.34342   0.34346   0.34347   0.34381
     Eigenvalues ---    0.34397   0.34433   0.34452   0.34514   0.34554
     Eigenvalues ---    0.34962   0.36922   0.37212   0.39330   0.43622
     Eigenvalues ---    0.43953   0.44730   0.47184   0.49651   0.86408
     Eigenvalues ---    0.89313
 RFO step:  Lambda=-2.35593373D-02 EMin= 2.30000000D-03
 Linear search not attempted -- first point.
 Iteration  1 RMS(Cart)=  0.11898277 RMS(Int)=  0.00359355
 Iteration  2 RMS(Cart)=  0.00833374 RMS(Int)=  0.00042161
 Iteration  3 RMS(Cart)=  0.00003696 RMS(Int)=  0.00042140
 Iteration  4 RMS(Cart)=  0.00000001 RMS(Int)=  0.00042140
 Variable       Old X    -DE/DX   Delta X   Delta X   Delta X     New X
                                 (Linear)    (Quad)   (Total)
    R1        2.89634  -0.00422   0.00000  -0.01338  -0.01338   2.88296
    R2        2.60220  -0.02600   0.00000  -0.05000  -0.05000   2.55219
    R3        2.33251  -0.01304   0.00000  -0.01423  -0.01423   2.31829
    R4        2.93588  -0.01397   0.00000  -0.04704  -0.04704   2.88884
    R5        2.62819  -0.03016   0.00000  -0.06087  -0.06087   2.56731
    R6        2.34634  -0.01191   0.00000  -0.01342  -0.01342   2.33292
    R7        2.88232   0.00613   0.00000   0.02060   0.02060   2.90292
    R8        2.88207   0.00629   0.00000   0.02053   0.02051   2.90258
    R9        2.07074   0.00011   0.00000   0.00030   0.00030   2.07103
   R10        2.07299   0.00184   0.00000   0.00506   0.00506   2.07805
   R11        2.88832   0.00569   0.00000   0.01762   0.01760   2.90592
   R12        2.07091  -0.00010   0.00000  -0.00027  -0.00027   2.07064
   R13        2.07296   0.00124   0.00000   0.00341   0.00341   2.07637
   R14        2.88721   0.00573   0.00000   0.01813   0.01814   2.90535
   R15        2.07300   0.00144   0.00000   0.00397   0.00397   2.07697
   R16        2.07088  -0.00004   0.00000  -0.00012  -0.00012   2.07076
   R17        2.91256   0.00327   0.00000   0.00958   0.00961   2.92216
   R18        2.07197   0.00350   0.00000   0.00961   0.00961   2.08158
   R19        2.07072   0.00099   0.00000   0.00270   0.00270   2.07343
   R20        2.91115   0.00453   0.00000   0.01306   0.01306   2.92422
   R21        2.07213   0.00081   0.00000   0.00222   0.00222   2.07434
   R22        2.07127   0.00319   0.00000   0.00875   0.00875   2.08003
   R23        2.92876   0.00127   0.00000   0.00423   0.00423   2.93299
   R24        2.07626  -0.00099   0.00000  -0.00273  -0.00273   2.07353
   R25        2.72474   0.01554   0.00000   0.03727   0.03727   2.76201
   R26        2.06606  -0.00034   0.00000  -0.00093  -0.00093   2.06513
   R27        2.06405  -0.00132   0.00000  -0.00358  -0.00358   2.06047
   R28        2.06574   0.00129   0.00000   0.00350   0.00350   2.06923
   R29        2.75528   0.00183   0.00000   0.00463   0.00463   2.75991
   R30        2.06750   0.00126   0.00000   0.00344   0.00344   2.07094
   R31        2.06472  -0.00318   0.00000  -0.00862  -0.00862   2.05610
   R32        2.06748   0.00165   0.00000   0.00451   0.00451   2.07198
   R33        2.75964   0.00213   0.00000   0.00543   0.00543   2.76507
   R34        2.06756   0.00168   0.00000   0.00456   0.00456   2.07213
   R35        2.05736   0.00000   0.00000  -0.00001  -0.00001   2.05735
   R36        2.06763   0.00122   0.00000   0.00332   0.00332   2.07095
   R37        2.82612  -0.00083   0.00000  -0.00236  -0.00236   2.82376
   R38        2.06778   0.00064   0.00000   0.00174   0.00174   2.06952
   R39        2.06665  -0.00165   0.00000  -0.00450  -0.00450   2.06215
   R40        2.85371  -0.00600   0.00000  -0.01781  -0.01781   2.83591
   R41        2.06691  -0.00131   0.00000  -0.00356  -0.00356   2.06335
   R42        1.92291  -0.00521   0.00000  -0.01107  -0.01107   1.91184
   R43        1.93609   0.00529   0.00000   0.01150   0.01150   1.94759
   R44        1.93210   0.00537   0.00000   0.01159   0.01159   1.94369
    A1        2.00805   0.00265   0.00000   0.00970   0.00960   2.01765
    A2        2.13385  -0.01398   0.00000  -0.05109  -0.05118   2.08268
    A3        2.14128   0.01134   0.00000   0.04147   0.04136   2.18264
    A4        2.09162  -0.00380   0.00000  -0.01381  -0.01394   2.07769
    A5        2.07556  -0.01260   0.00000  -0.04599  -0.04611   2.02945
    A6        2.11596   0.01641   0.00000   0.06006   0.05992   2.17588
    A7        1.94751  -0.00109   0.00000  -0.00050  -0.00052   1.94698
    A8        1.91421   0.00065   0.00000   0.00469   0.00467   1.91888
    A9        1.90980   0.00027   0.00000  -0.00082  -0.00082   1.90898
   A10        1.91421   0.00066   0.00000   0.00516   0.00515   1.91936
   A11        1.90974   0.00033   0.00000  -0.00066  -0.00066   1.90908
   A12        1.86659  -0.00081   0.00000  -0.00820  -0.00819   1.85839
   A13        1.94840   0.00123   0.00000   0.00617   0.00614   1.95454
   A14        1.91316   0.00107   0.00000   0.01194   0.01195   1.92511
   A15        1.91122  -0.00010   0.00000   0.00195   0.00200   1.91322
   A16        1.91288  -0.00123   0.00000  -0.00707  -0.00714   1.90574
   A17        1.91027  -0.00079   0.00000  -0.00735  -0.00737   1.90290
   A18        1.86607  -0.00025   0.00000  -0.00621  -0.00629   1.85978
   A19        1.94915   0.00041   0.00000   0.00394   0.00397   1.95312
   A20        1.91051   0.00011   0.00000   0.00039   0.00038   1.91089
   A21        1.91363   0.00105   0.00000   0.01181   0.01181   1.92544
   A22        1.90973  -0.00046   0.00000  -0.00577  -0.00579   1.90394
   A23        1.91313  -0.00076   0.00000  -0.00464  -0.00472   1.90842
   A24        1.86579  -0.00039   0.00000  -0.00620  -0.00624   1.85955
   A25        1.94572  -0.00123   0.00000  -0.00685  -0.00684   1.93888
   A26        1.89291   0.00006   0.00000  -0.00475  -0.00484   1.88807
   A27        1.90004   0.00181   0.00000   0.01973   0.01975   1.91978
   A28        1.93036   0.00016   0.00000  -0.00393  -0.00399   1.92637
   A29        1.92431  -0.00008   0.00000   0.00194   0.00190   1.92621
   A30        1.86844  -0.00066   0.00000  -0.00581  -0.00578   1.86266
   A31        1.94795  -0.00094   0.00000  -0.00581  -0.00582   1.94213
   A32        1.90248   0.00195   0.00000   0.01839   0.01837   1.92085
   A33        1.89749  -0.00001   0.00000  -0.00045  -0.00043   1.89706
   A34        1.91712  -0.00031   0.00000   0.00130   0.00129   1.91841
   A35        1.93111   0.00049   0.00000  -0.00048  -0.00051   1.93060
   A36        1.86558  -0.00116   0.00000  -0.01293  -0.01293   1.85265
   A37        1.92466   0.00215   0.00000   0.01570   0.01570   1.94036
   A38        1.98751  -0.00267   0.00000  -0.01200  -0.01230   1.97521
   A39        1.85761   0.00088   0.00000   0.00523   0.00480   1.86242
   A40        1.94691   0.00140   0.00000   0.01351   0.01362   1.96053
   A41        1.86159   0.00010   0.00000   0.00856   0.00856   1.87015
   A42        1.87830  -0.00184   0.00000  -0.03160  -0.03164   1.84666
   A43        1.91392   0.00152   0.00000   0.00744   0.00724   1.92115
   A44        1.89819  -0.00057   0.00000  -0.00442  -0.00449   1.89370
   A45        1.89975   0.00839   0.00000   0.04786   0.04761   1.94736
   A46        1.92146  -0.00167   0.00000  -0.01340  -0.01341   1.90805
   A47        1.91020  -0.00420   0.00000  -0.02028  -0.02065   1.88955
   A48        1.92013  -0.00331   0.00000  -0.01628  -0.01641   1.90372
   A49        1.89776   0.00388   0.00000   0.02202   0.02193   1.91969
   A50        1.96171  -0.00966   0.00000  -0.05447  -0.05429   1.90742
   A51        1.89656   0.00405   0.00000   0.02293   0.02284   1.91940
   A52        1.89778   0.00230   0.00000   0.01073   0.01090   1.90869
   A53        1.91060  -0.00272   0.00000  -0.01092  -0.01128   1.89932
   A54        1.89904   0.00218   0.00000   0.01000   0.01019   1.90923
   A55        1.89316   0.00493   0.00000   0.02787   0.02773   1.92089
   A56        1.97750  -0.00410   0.00000  -0.02348  -0.02333   1.95417
   A57        1.89446   0.00465   0.00000   0.02541   0.02527   1.91972
   A58        1.89556  -0.00072   0.00000  -0.00420  -0.00405   1.89151
   A59        1.90797  -0.00386   0.00000  -0.01854  -0.01897   1.88900
   A60        1.89442  -0.00103   0.00000  -0.00758  -0.00745   1.88697
   A61        1.95777  -0.02312   0.00000  -0.09725  -0.09682   1.86095
   A62        1.89212   0.00654   0.00000   0.02843   0.02781   1.91992
   A63        1.94338   0.01009   0.00000   0.05175   0.05087   1.99425
   A64        1.86035   0.00620   0.00000   0.01869   0.01907   1.87942
   A65        1.89482   0.00459   0.00000   0.00759   0.00853   1.90336
   A66        1.91335  -0.00438   0.00000  -0.00991  -0.01100   1.90235
   A67        1.93150   0.01044   0.00000   0.04471   0.04201   1.97351
   A68        1.92125  -0.02172   0.00000  -0.13760  -0.13653   1.78472
   A69        1.90631   0.00594   0.00000   0.06040   0.05905   1.96536
   A70        1.92825   0.00675   0.00000   0.01191   0.01205   1.94030
   A71        1.92720  -0.00577   0.00000   0.00221   0.00000   1.92719
   A72        1.84753   0.00381   0.00000   0.01647   0.01786   1.86539
   A73        2.13282  -0.00347   0.00000  -0.01437  -0.01442   2.11840
   A74        2.08138   0.00129   0.00000   0.00455   0.00450   2.08588
   A75        2.06841   0.00216   0.00000   0.00927   0.00922   2.07763
   A76        2.08588  -0.00413   0.00000  -0.01506  -0.01507   2.07082
   A77        2.18684   0.00450   0.00000   0.01649   0.01649   2.20332
   A78        2.01024  -0.00037   0.00000  -0.00132  -0.00133   2.00892
   A79        2.01044   0.00496   0.00000   0.01425   0.01436   2.02480
   A80        1.89022  -0.00098   0.00000  -0.00021  -0.00017   1.89005
   A81        1.87444   0.00032   0.00000   0.00822   0.00827   1.88271
   A82        1.87718  -0.00316   0.00000  -0.02282  -0.02287   1.85431
   A83        1.93250  -0.00477   0.00000  -0.03438  -0.03442   1.89807
   A84        1.87443   0.00375   0.00000   0.03812   0.03776   1.91219
    D1       -2.81079  -0.00040   0.00000  -0.02741  -0.02673  -2.83752
    D2        1.42294   0.00141   0.00000  -0.01132  -0.01040   1.41253
    D3       -0.68326  -0.00367   0.00000  -0.04960  -0.05027  -0.73353
    D4        0.32739   0.00047   0.00000  -0.00205  -0.00199   0.32540
    D5       -1.72207   0.00228   0.00000   0.01404   0.01434  -1.70773
    D6        2.45492  -0.00280   0.00000  -0.02423  -0.02552   2.42940
    D7       -3.13927   0.00180   0.00000   0.04576   0.04618  -3.09309
    D8       -0.03478   0.00113   0.00000   0.02805   0.02850  -0.00628
    D9        0.00575   0.00099   0.00000   0.02048   0.02003   0.02579
   D10        3.11024   0.00031   0.00000   0.00277   0.00235   3.11259
   D11        1.38112   0.00012   0.00000   0.01551   0.01705   1.39818
   D12       -2.76552   0.00092   0.00000  -0.03280  -0.03170  -2.79722
   D13       -0.74409  -0.00332   0.00000  -0.05587  -0.05734  -0.80143
   D14       -1.77075   0.00115   0.00000   0.04535   0.04611  -1.72465
   D15        0.36578   0.00195   0.00000  -0.00296  -0.00264   0.36314
   D16        2.38721  -0.00230   0.00000  -0.02603  -0.02828   2.35893
   D17       -3.13680   0.00112   0.00000   0.03183   0.03238  -3.10442
   D18        0.02862   0.00093   0.00000   0.02618   0.02672   0.05534
   D19        0.01532   0.00025   0.00000   0.00193   0.00139   0.01671
   D20       -3.10245   0.00005   0.00000  -0.00372  -0.00427  -3.10672
   D21        0.95298  -0.00027   0.00000  -0.00522  -0.00524   0.94774
   D22        3.07587  -0.00027   0.00000  -0.00187  -0.00186   3.07401
   D23       -1.16529  -0.00001   0.00000  -0.00134  -0.00134  -1.16664
   D24        3.07768   0.00029   0.00000   0.00418   0.00417   3.08185
   D25       -1.08262   0.00029   0.00000   0.00753   0.00755  -1.07507
   D26        0.95941   0.00054   0.00000   0.00806   0.00806   0.96747
   D27       -1.16308  -0.00016   0.00000  -0.00350  -0.00352  -1.16659
   D28        0.95981  -0.00015   0.00000  -0.00016  -0.00014   0.95967
   D29        3.00184   0.00010   0.00000   0.00038   0.00038   3.00221
   D30       -0.95032   0.00032   0.00000   0.00582   0.00583  -0.94448
   D31        1.16728   0.00009   0.00000   0.00140   0.00140   1.16868
   D32       -3.07435   0.00029   0.00000   0.00095   0.00092  -3.07343
   D33       -3.07502  -0.00023   0.00000  -0.00331  -0.00330  -3.07832
   D34       -0.95741  -0.00046   0.00000  -0.00773  -0.00774  -0.96515
   D35        1.08414  -0.00027   0.00000  -0.00818  -0.00821   1.07593
   D36        1.16577   0.00017   0.00000   0.00401   0.00402   1.16979
   D37       -2.99981  -0.00006   0.00000  -0.00041  -0.00041  -3.00023
   D38       -0.95826   0.00014   0.00000  -0.00086  -0.00089  -0.95915
   D39       -0.96648   0.00067   0.00000   0.00918   0.00914  -0.95733
   D40        1.16289   0.00012   0.00000  -0.00332  -0.00333   1.15956
   D41       -3.09307   0.00035   0.00000  -0.00215  -0.00219  -3.09526
   D42       -3.08953  -0.00066   0.00000  -0.00515  -0.00513  -3.09466
   D43       -0.96016  -0.00121   0.00000  -0.01765  -0.01760  -0.97776
   D44        1.06707  -0.00099   0.00000  -0.01648  -0.01647   1.05060
   D45        1.15235   0.00081   0.00000   0.01069   0.01065   1.16299
   D46       -3.00147   0.00026   0.00000  -0.00181  -0.00183  -3.00329
   D47       -0.97424   0.00049   0.00000  -0.00064  -0.00069  -0.97493
   D48        0.96206  -0.00033   0.00000  -0.00893  -0.00894   0.95311
   D49        3.08272   0.00000   0.00000   0.00137   0.00136   3.08408
   D50       -1.17280  -0.00033   0.00000  -0.00422  -0.00424  -1.17704
   D51       -1.15600  -0.00044   0.00000  -0.00807  -0.00807  -1.16407
   D52        0.96466  -0.00011   0.00000   0.00223   0.00224   0.96690
   D53        2.99233  -0.00043   0.00000  -0.00337  -0.00336   2.98897
   D54        3.08638   0.00075   0.00000   0.00543   0.00541   3.09179
   D55       -1.07615   0.00107   0.00000   0.01573   0.01572  -1.06043
   D56        0.95152   0.00075   0.00000   0.01014   0.01011   0.96164
   D57        0.96464  -0.00025   0.00000  -0.00395  -0.00390   0.96074
   D58       -3.11454   0.00130   0.00000   0.01770   0.01769  -3.09685
   D59       -1.04802  -0.00193   0.00000  -0.02476  -0.02486  -1.07288
   D60       -1.14295   0.00039   0.00000   0.00936   0.00940  -1.13355
   D61        1.06106   0.00194   0.00000   0.03101   0.03099   1.09205
   D62        3.12757  -0.00129   0.00000  -0.01145  -0.01155   3.11602
   D63        3.07712   0.00116   0.00000   0.01776   0.01782   3.09494
   D64       -1.00206   0.00271   0.00000   0.03942   0.03941  -0.96264
   D65        1.06446  -0.00052   0.00000  -0.00305  -0.00313   1.06132
   D66       -0.96283  -0.00032   0.00000   0.00271   0.00273  -0.96010
   D67        3.09374   0.00045   0.00000  -0.00411  -0.00420   3.08954
   D68        1.04733   0.00185   0.00000   0.02149   0.02144   1.06877
   D69       -3.07499  -0.00196   0.00000  -0.01754  -0.01749  -3.09248
   D70        0.98158  -0.00119   0.00000  -0.02436  -0.02442   0.95716
   D71       -1.06483   0.00021   0.00000   0.00124   0.00122  -1.06360
   D72        1.15260  -0.00064   0.00000  -0.00216  -0.00211   1.15049
   D73       -1.07402   0.00014   0.00000  -0.00897  -0.00904  -1.08305
   D74       -3.12042   0.00154   0.00000   0.01662   0.01660  -3.10382
   D75        1.22115  -0.01022   0.00000  -0.10415  -0.10424   1.11691
   D76       -0.91129   0.00560   0.00000   0.03160   0.03226  -0.87903
   D77       -2.94914   0.00033   0.00000   0.00284   0.00273  -2.94641
   D78       -2.86975  -0.00829   0.00000  -0.08130  -0.08152  -2.95127
   D79        1.28099   0.00752   0.00000   0.05445   0.05499   1.33597
   D80       -0.75686   0.00226   0.00000   0.02569   0.02545  -0.73141
   D81       -0.83348  -0.00850   0.00000  -0.08248  -0.08290  -0.91638
   D82       -2.96592   0.00731   0.00000   0.05327   0.05360  -2.91232
   D83        1.27941   0.00205   0.00000   0.02451   0.02407   1.30348
   D84       -0.87796  -0.00109   0.00000  -0.01554  -0.01570  -0.89366
   D85        2.30047  -0.00041   0.00000   0.00213   0.00200   2.30246
   D86       -2.97997   0.00038   0.00000  -0.00096  -0.00092  -2.98089
   D87        0.19846   0.00107   0.00000   0.01672   0.01678   0.21523
   D88        1.21126  -0.00021   0.00000  -0.00680  -0.00671   1.20455
   D89       -1.89350   0.00048   0.00000   0.01088   0.01098  -1.88252
   D90        2.14188  -0.00078   0.00000  -0.00957  -0.00976   2.13212
   D91       -1.02120  -0.00053   0.00000  -0.00421  -0.00445  -1.02566
   D92        0.03985  -0.00015   0.00000  -0.00333  -0.00331   0.03654
   D93       -3.12323   0.00010   0.00000   0.00203   0.00200  -3.12124
   D94       -2.06295   0.00051   0.00000   0.00317   0.00341  -2.05954
   D95        1.05715   0.00075   0.00000   0.00853   0.00872   1.06588
   D96        2.06608  -0.00010   0.00000   0.00371   0.00350   2.06958
   D97       -1.05260  -0.00024   0.00000  -0.00155  -0.00180  -1.05440
   D98       -0.04009   0.00001   0.00000   0.00466   0.00469  -0.03540
   D99        3.12441  -0.00013   0.00000  -0.00060  -0.00061   3.12380
   D100      -2.14572   0.00069   0.00000   0.01162   0.01187  -2.13385
   D101       1.01878   0.00056   0.00000   0.00637   0.00657   1.02535
   D102       1.31315   0.00042   0.00000   0.00904   0.00925   1.32240
   D103      -2.86797  -0.00110   0.00000  -0.01109  -0.01092  -2.87888
   D104      -0.84863   0.00296   0.00000   0.03762   0.03787  -0.81076
   D105      -2.90171  -0.00070   0.00000   0.00083   0.00089  -2.90082
   D106      -0.79964  -0.00222   0.00000  -0.01930  -0.01928  -0.81892
   D107       1.21970   0.00183   0.00000   0.02941   0.02950   1.24921
   D108      -0.84186  -0.00014   0.00000   0.00318   0.00292  -0.83895
   D109       1.26021  -0.00166   0.00000  -0.01695  -0.01725   1.24295
   D110      -3.00364   0.00240   0.00000   0.03176   0.03153  -2.97211
   D111       1.34432  -0.00178   0.00000   0.01686   0.01652   1.36084
   D112      -0.76487  -0.00142   0.00000   0.02469   0.02445  -0.74043
   D113      -2.80802  -0.00146   0.00000   0.01113   0.01069  -2.79732
   D114      -2.80041   0.00123   0.00000  -0.01178  -0.01103  -2.81144
   D115       1.37358   0.00160   0.00000  -0.00394  -0.00310   1.37048
   D116      -0.66956   0.00156   0.00000  -0.01751  -0.01686  -0.68642
   D117      -0.71379   0.00022   0.00000   0.00700   0.00660  -0.70719
   D118      -2.82298   0.00059   0.00000   0.01484   0.01452  -2.80846
   D119       1.41706   0.00055   0.00000   0.00127   0.00076   1.41783
         Item               Value     Threshold  Converged?
 Maximum Force            0.030155     0.000450     NO 
 RMS     Force            0.004925     0.000300     NO 
 Maximum Displacement     0.552740     0.001800     NO 
 RMS     Displacement     0.122053     0.001200     NO 
 Predicted change in Energy=-1.354471D-02
 GradGradGradGradGradGradGradGradGradGradGradGradGradGradGradGradGradGrad

                          Input orientation:                          
 ---------------------------------------------------------------------
 Center     Atomic      Atomic             Coordinates (Angstroms)
 Number     Number       Type             X           Y           Z
 ---------------------------------------------------------------------
      1          6           0        6.504685   -2.976102   -2.994966
      2          6           0        3.255567   -5.300987   -2.411947
      3          6           0        0.840548   -0.744950   -0.763361
      4          6           0        0.644635   -2.219174   -0.378576
      5          6           0        1.278922   -0.597514   -2.228053
      6          6           0        1.894072   -3.063629   -0.679350
      7          6           0        2.529502   -1.435785   -2.539648
      8          6           0        2.319088   -2.920901   -2.159268
      9          6           0        8.130232   -2.398261   -4.738361
     10          6           0        2.277909   -7.347776   -3.269927
     11          6           0        2.145538   -5.321466   -4.671260
     12          6           0        6.016656   -4.045341   -2.022342
     13          6           0        3.539996   -3.803769   -2.531900
     14          7           0        7.524797   -3.342073   -3.800855
     15          7           0        2.586426   -5.927601   -3.414594
     16          7           0        4.664164   -3.613848   -1.556058
     17          8           0        5.980165   -1.867183   -2.981616
     18          8           0        3.645005   -5.850136   -1.377136
     19          1           0       -0.087416   -0.187487   -0.592444
     20          1           0        1.600137   -0.294668   -0.107990
     21          1           0        0.399664   -2.304893    0.685981
     22          1           0       -0.209747   -2.634227   -0.930896
     23          1           0        0.460136   -0.913978   -2.889441
     24          1           0        1.479592    0.454230   -2.461174
     25          1           0        2.704570   -2.727389   -0.013471
     26          1           0        1.702615   -4.116458   -0.436935
     27          1           0        2.781210   -1.354695   -3.605013
     28          1           0        3.384009   -1.012289   -1.990088
     29          1           0        1.483933   -3.294833   -2.764808
     30          1           0        7.355204   -1.921035   -5.343211
     31          1           0        8.810357   -2.946698   -5.390681
     32          1           0        8.689157   -1.614652   -4.216283
     33          1           0        1.196007   -7.505616   -3.344493
[...]
 .00035917,0.00117583,0.00504039,0.00376461,0.00002070,-0.00027422,0.00
 013956,0.00063189,-0.00020885,0.00151913,-0.00027510,-0.00009476,0.000
 03696,-0.00353127,0.00340846,-0.00108621,0.00096166,-0.00128103,0.0003
 4172,-0.00079624,0.00020571,0.02472565,0.00001082,0.00000855,-0.000025
 29,-0.00014170,-0.00013174,-0.00020408,-0.00054140,-0.00154726,0.00040
 187,0.00172805,0.00023114,-0.00382058,-0.04671877,-0.00558516,0.025587
 38,-0.00009145,0.00014560,0.00010546,-0.00035520,-0.00049762,-0.000670
 48,-0.01007617,0.00170135,-0.03504741,-0.00063718,0.00000706,0.0005221
 7,0.00104374,-0.00119162,0.00050792,0.00000739,0.00008262,-0.00011218,
 0.00001430,0.00002649,-0.00002278,-0.00044982,0.00038251,0.00013114,-0
 .00003518,-0.00002917,-0.00004128,0.00000683,-0.00001605,0.00001967,0.
 00007587,-0.00003806,-0.00007925,0.00020614,0.00015350,0.00013945,0.00
 003355,-0.00013600,-0.00033370,0.00006773,0.00041427,-0.00070609,0.000
 01926,0.00012827,-0.00019755,0.00055602,-0.00057780,-0.00049149,0.0000
 1009,0.00001117,0.00000050,0.00000123,0.00000565,0.00000468,-0.0000000
 2,0.00000267,-0.00000074,0.00001981,-0.00002728,0.00003239,0.00001990,
 0.00010163,-0.00004214,0.00001634,-0.00007104,-0.00000247,-0.00007694,
 0.00000851,-0.00008067,-0.00213373,-0.00142995,-0.00084269,0.00002618,
 0.00037720,-0.00014910,-0.00006372,0.00004835,0.00020329,-0.00069662,-
 0.00016316,0.00093418,0.06484073,0.00031149,0.00014380,-0.00016481,-0.
 00009908,0.00481671,0.03025358,-0.00015342,0.00031090,-0.00022397,-0.0
 0027845,0.00022637,-0.00126048,0.00010046,0.00014174,0.00021856,0.0034
 6537,-0.00243147,0.00032258,-0.00057971,0.00093077,-0.00195665,0.00211
 891,0.00063991,-0.02132449,0.00001946,0.00002458,0.00000527,0.00041307
 ,-0.00046777,-0.00058774,-0.00045791,-0.00075777,0.00014202,0.00067933
 ,0.00032222,-0.00032283,-0.00419068,-0.04977449,0.02596735,-0.00008260
 ,-0.00002378,0.00002137,0.00033233,-0.00055834,-0.00120713,-0.00352737
 ,0.00091802,-0.01175891,-0.00015720,-0.00032206,0.00010521,0.00226430,
 -0.00677487,0.00123619,-0.00000447,-0.00003512,0.00012289,0.00000286,-
 0.00001671,0.00001373,0.00031973,-0.00032056,-0.00009745,0.00002964,-0
 .00000220,0.00002066,-0.00004210,0.00001759,-0.00000116,-0.00004943,0.
 00002801,0.00004650,-0.00017405,0.00003472,0.00023661,0.00009506,0.000
 08540,-0.00001954,0.00025677,-0.00020582,0.00083752,-0.00004714,-0.000
 10277,0.00008154,-0.00033224,0.00061800,0.00053823,0.00000517,0.000003
 35,-0.00000571,-0.00001088,-0.00000302,0.00000140,-0.00000618,-0.00000
 592,0.00000038,-0.00002938,0.00015527,-0.00006529,0.00010112,0.0001679
 1,-0.00003786,-0.00001603,-0.00023167,0.00010558,-0.00017157,-0.000064
 72,-0.00012623,-0.00189024,-0.00013064,-0.00059083,-0.00001209,0.00034
 725,-0.00021213,-0.00001854,0.00001088,0.00022387,0.00008151,0.0004216
 6,0.00018160,0.00349114,0.05394109,0.00001945,-0.00069352,0.00021604,-
 0.00117039,0.00064587,-0.00651554,-0.00009026,0.00018341,0.00002912,-0
 .00045569,0.00036534,-0.00080980,0.00032311,-0.00013465,0.00015488,0.0
 0206821,-0.00138200,0.00165775,-0.00119169,0.00143802,0.00092041,0.002
 58348,-0.00060821,-0.01191118,-0.00001934,0.00000187,-0.00006913,0.000
 18008,0.00010132,0.00011824,-0.00091199,-0.00002747,-0.00068997,0.0026
 6392,0.00048417,0.00079116,0.01257444,0.02141902,-0.31566366,0.0000485
 5,0.00010007,0.00000698,-0.00011485,0.00076723,-0.00006110,-0.00229908
 ,0.00037490,-0.01212853,-0.00024926,0.00023370,0.00026679,0.00085864,0
 .00102858,0.00056953,-0.00000167,-0.00006294,0.00009456,-0.00000573,-0
 .00001252,0.00002313,0.00025787,-0.00022139,-0.00004902,0.00004547,-0.
 00000593,0.00002221,-0.00002221,0.00001034,-0.00001100,-0.00003039,0.0
 0003371,0.00005051,-0.00012484,0.00002528,0.00005545,-0.00006171,0.000
 09902,0.00008020,0.00007035,-0.00069247,0.00062696,0.00004823,-0.00006
 911,-0.00006415,0.00018583,-0.00004614,0.00036363,-0.00000637,0.000002
 68,-0.00000320,0.00001035,0.00001723,0.00000995,0.00000332,-0.00000761
 ,-0.00000030,0.00005827,-0.00001492,-0.00000836,-0.00004831,-0.0000956
 9,-0.00000051,0.00000784,0.00002603,-0.00003811,-0.00014009,-0.0004451
 0,0.00021211,-0.00098482,-0.00135189,0.00074444,0.00000830,-0.00012192
 ,0.00011560,0.00000903,-0.00003644,0.00013173,-0.00055193,-0.00000906,
 0.00112501,-0.01235757,-0.02080039,0.34077815,-0.00347307,0.03462111,0
 .01463938,-0.00018513,-0.00017144,-0.00008593,0.00002131,0.00000809,0.
 00000818,-0.00001925,0.00001572,-0.00001087,-0.00003143,-0.00000950,0.
 00000254,0.00004223,-0.00002857,0.00004104,0.00006736,0.00004021,-0.00
 000055,0.00004658,0.00012041,0.00004997,0.01194393,-0.01918105,-0.0134
 2039,-0.00000453,-0.00005549,0.00003448,-0.00002460,0.00000511,-0.0000
 2545,-0.00150794,0.00000733,-0.00024276,-0.00017016,-0.00025279,-0.000
 25457,-0.09733462,0.07725297,0.06570157,0.00009337,0.00010657,0.000025
 08,0.00086364,-0.00049136,-0.00077534,-0.00628311,-0.00272601,0.003799
 31,0.00015372,0.00013443,0.00001503,0.00000288,-0.00000820,-0.00000547
 ,-0.00000629,-0.00000265,-0.00000179,0.00000949,-0.00000893,-0.0000112
 1,0.00000167,-0.00000453,0.00000201,-0.00000126,0.00000336,-0.00000243
 ,0.00000673,-0.00001056,-0.00000161,0.00000144,0.00001069,-0.00000064,
 -0.00000929,-0.00000111,0.00000218,-0.00001882,-0.00000581,-0.00001915
 ,-0.00000507,-0.00000920,0.00000875,0.00004089,-0.00004656,-0.00001661
 ,-0.00412030,-0.00370733,-0.00043820,0.00036914,0.00013188,0.00067984,
 0.00010779,0.00037447,-0.00063301,0.00000950,0.00000909,-0.00000193,-0
 .00000711,-0.00001195,0.00000229,0.00000110,0.00001069,0.00000185,-0.0
 0000126,-0.00000058,0.00000903,-0.00001032,0.00001147,-0.00000681,0.00
 001129,0.00000102,-0.00000055,-0.00048631,-0.00086003,0.00037004,-0.00
 064541,-0.00024786,-0.00022436,-0.00003479,0.00001617,-0.00000796,0.09
 968365,0.00207530,0.00007684,0.00409387,-0.00000706,0.00018875,-0.0000
 3632,-0.00000011,0.00000743,-0.00000618,0.00000572,-0.00000708,-0.0000
 0189,-0.00000051,-0.00003134,-0.00001018,0.00001352,0.00001710,-0.0000
 0435,0.00005543,0.00004633,0.00002742,-0.00002817,-0.00000886,-0.00001
 178,0.00880557,-0.01378403,-0.00889687,-0.00000434,0.00003874,-0.00001
 690,-0.00000119,0.00001437,0.00000320,-0.00059619,0.00075362,0.0005379
 4,0.00013324,0.00003335,0.00012247,0.08226498,-0.31779267,-0.17384674,
 -0.00001498,-0.00008997,0.00000663,-0.00001206,-0.00092366,-0.00007848
 ,-0.00350093,0.00422567,-0.00113128,0.00001032,-0.00017795,0.00002149,
 -0.00000731,0.00000178,0.00000664,0.00000054,-0.00000620,-0.00000477,-
 0.00000227,0.00000204,0.00000835,-0.00000634,0.00000087,-0.00000286,-0
 .00001743,0.00000514,0.00000611,0.00000497,-0.00000036,0.00000222,-0.0
 0000987,-0.00000424,-0.00001488,-0.00000738,-0.00000849,0.00000678,0.0
 0000418,-0.00000028,0.00001044,0.00000716,-0.00003363,-0.00003845,-0.0
 0002091,0.00000288,0.00000582,-0.00354620,-0.00183643,0.00020107,0.000
 39089,0.00001856,0.00036083,-0.00000483,0.00071051,-0.00009357,0.00000
 085,-0.00001010,0.00000104,-0.00000392,0.00000878,0.00000614,-0.000010
 30,-0.00001222,-0.00000589,-0.00000314,-0.00000556,-0.00000370,0.00000
 026,-0.00000522,0.00001079,0.00000057,0.00000041,-0.00000105,-0.000562
 43,-0.00034171,0.00030668,0.00013115,0.00021121,0.00014753,0.00000440,
 0.00000745,0.00000496,-0.08586540,0.32801582,-0.00003340,-0.00688147,-
 0.01287873,0.00021862,0.00005445,0.00022337,0.00000259,-0.00000351,0.0
 0001041,0.00000522,-0.00001721,-0.00000601,0.00001073,0.00000811,-0.00
 000703,0.00002159,0.00003101,0.00000969,-0.00001880,-0.00001540,0.0000
 2758,-0.00002435,-0.00007562,-0.00003423,-0.00000081,0.00013146,-0.001
 13453,-0.00000604,0.00002967,-0.00001321,0.00003134,-0.00002418,0.0000
 5795,-0.00036827,-0.00024189,-0.00052326,0.00002281,0.00007957,0.00016
 987,0.06751177,-0.17146699,-0.11074802,-0.00011744,-0.00010023,-0.0000
 9617,-0.00043306,0.00034005,-0.00065892,0.00341904,-0.00156303,0.00726
 453,-0.00023957,0.00001839,-0.00015420,-0.00000357,0.00000558,-0.00000
 340,-0.00000093,-0.00000389,-0.00000215,0.00000137,0.00000546,-0.00000
 150,-0.00000879,0.00000458,-0.00000066,-0.00000075,-0.00000503,-0.0000
 0051,-0.00000487,0.00001330,0.00000070,-0.00001401,-0.00001721,-0.0000
 0624,0.00000373,0.00000569,-0.00000830,-0.00000689,-0.00000464,-0.0000
 1847,-0.00001704,-0.00000246,0.00001403,-0.00002782,0.00002300,0.00000
 589,-0.00035434,0.00028861,0.00030190,-0.00018847,0.00054600,0.0002253
 6,0.00018596,-0.00032406,-0.00025491,-0.00000604,-0.00000668,0.0000029
 0,0.00000970,0.00000838,-0.00000096,0.00000060,-0.00001286,0.00000063,
 -0.00001163,-0.00001199,-0.00001041,-0.00000061,0.00000975,0.00001098,
 -0.00001051,0.00000265,-0.00001223,0.00033288,0.00097370,0.00042195,-0
 .00068456,-0.00014899,-0.00025643,-0.00001056,-0.00000345,0.00000444,-
 0.06952535,0.17839630,0.11789536,-0.00160265,0.00029590,0.00218284,-0.
 01173466,-0.00173735,-0.01223254,0.00016912,0.00004621,-0.00010582,-0.
 00011720,0.00007617,0.00038001,-0.00013607,-0.00018361,-0.00002834,0.0
 0018617,0.00031714,-0.00006280,0.00034784,0.00008065,0.00000569,-0.000
 93421,-0.00052166,-0.00098188,-0.00015507,-0.00006010,-0.00007688,0.00
 010714,-0.00043108,0.00016673,-0.00018207,0.00055674,-0.00099568,0.000
 10485,-0.01538216,0.02448380,-0.00758140,0.01521554,-0.02886390,-0.000
 04344,-0.00013043,-0.00063712,0.00303911,0.00123765,0.00192094,-0.0581
 0876,0.02620099,-0.02671415,0.00037747,0.00004857,-0.00075685,0.001499
 46,0.00623756,0.00612844,-0.00000620,-0.00008336,0.00005211,-0.0000313
 9,-0.00001667,0.00000563,0.00001100,-0.00000773,-0.00002068,0.00010628
 ,-0.00008567,-0.00004501,-0.00004288,0.00006462,0.00002055,0.00003360,
 -0.00003163,0.00001929,-0.00013917,0.00044375,0.00035248,-0.00049128,-
 0.00023377,0.00034378,-0.00002666,-0.00008289,0.00011640,-0.00015875,-
 0.00021423,-0.00004987,-0.00030742,0.00010968,0.00034058,-0.00001845,-
 0.00002682,0.00002405,0.00003558,0.00003202,-0.00001608,-0.00003770,-0
 .00001602,0.00001890,0.00009397,0.00011845,-0.00001581,-0.00012197,-0.
 00035737,0.00010754,0.00006518,0.00011611,0.00009099,0.00006160,-0.000
 05816,0.00019566,-0.00000582,-0.00021006,0.00016547,0.00022782,-0.0001
 4091,0.00024809,0.00098191,0.00014375,0.00085417,-0.00334560,-0.000067
 72,0.00159222,-0.00454241,-0.00137156,-0.00086238,0.00006235,-0.000060
 35,0.00025860,0.08322493,-0.00269560,-0.00108430,0.00040499,-0.0197835
 4,0.00366440,-0.02014345,0.00007320,0.00000463,0.00003924,-0.00032603,
 -0.00060835,-0.00023016,-0.00006980,-0.00025466,0.00007261,0.00115640,
 0.00151471,0.00048719,0.00054747,-0.00018118,-0.00020640,-0.00111403,-
 0.00117967,0.00080296,-0.00026626,-0.00055616,-0.00008686,-0.00015956,
 -0.00125648,0.00041031,-0.00076336,0.00182516,-0.00149425,-0.00572400,
 0.00690519,-0.00733044,0.01167776,0.00995390,-0.00304962,0.00185189,0.
 00052519,-0.00002465,0.00760344,0.00219380,0.00735165,0.01821761,-0.14
 855074,0.12458769,0.00041925,0.00037935,-0.00164240,0.01387630,-0.0015
 8056,0.01078151,-0.00003337,0.00001204,0.00000501,-0.00001771,-0.00006
 283,-0.00004174,0.00001414,0.00004390,0.00003363,-0.00027477,0.0001763
 4,0.00002237,-0.00009115,0.00002202,0.00001078,0.00006105,-0.00002017,
 -0.00002757,-0.00064972,-0.00081485,-0.00064738,-0.00030013,-0.0001834
 8,0.00029342,0.00006022,0.00001650,-0.00003090,-0.00003353,-0.00037490
 ,-0.00001690,-0.00068408,0.00040545,0.00001137,-0.00006970,-0.00002811
 ,0.00001600,0.00010134,0.00009706,-0.00001874,0.00013532,0.00013267,0.
 00004115,0.00028058,0.00017578,0.00005446,-0.00031931,-0.00070613,0.00
 017570,0.00003021,0.00028477,0.00006949,0.00041500,-0.00018640,0.00062
 941,0.00001218,-0.00032238,0.00030877,0.00053797,-0.00017757,0.0004632
 5,0.00162297,0.00037846,-0.00144410,0.00304308,0.00015617,-0.00287642,
 -0.00286644,-0.00239914,-0.00120121,-0.00021703,0.00019758,0.00004929,
 -0.02883647,0.14740061,0.00215615,0.00024340,-0.00048909,0.00128967,-0
 .00360333,0.00362158,-0.00007716,-0.00002904,0.00012882,0.00000110,0.0
 0001880,-0.00031396,0.00005679,0.00027227,0.00024681,0.00020879,-0.000
 18762,0.00039214,-0.00021273,-0.00064424,-0.00036214,-0.00002757,0.000
 42207,0.00028334,0.00022063,0.00029261,0.00017483,0.00009676,0.0004595
 5,0.00023314,-0.00018991,-0.00038956,0.00037648,0.00273054,0.00915916,
 -0.01689177,-0.01643462,0.00385926,-0.01709922,-0.00118757,-0.00032850
 ,0.00015967,-0.00280271,0.00051555,-0.00259749,-0.01953430,0.12547479,
 -0.22892409,-0.00251929,-0.00067797,-0.00040824,-0.00051695,0.00136504
 ,-0.00962088,0.00002140,0.00004596,-0.00006923,-0.00000032,0.00001172,
 0.00000199,0.00006897,-0.00004265,-0.00006099,-0.00007235,0.00004449,0
 .00001894,0.00012710,-0.00007678,-0.00005594,0.00001255,-0.00002285,-0
 .00004045,0.00015084,-0.00051348,0.00007595,0.00043330,0.00022908,-0.0
 0014236,0.00003543,0.00004943,-0.00001331,0.00040004,0.00039040,0.0002
 0766,0.00036550,-0.00020482,-0.00023245,0.00006281,0.00001927,0.000005
 72,-0.00008784,-0.00007588,-0.00001027,-0.00009959,-0.00005111,-0.0000
 0597,-0.00001670,-0.00001634,0.00002564,0.00006885,0.00011841,-0.00002
 444,0.00001366,0.00002654,-0.00007959,-0.00010161,0.00001151,-0.000103
 84,-0.00003115,0.00001050,-0.00004697,-0.00018366,0.00002025,-0.000192
 10,-0.00135640,-0.00017995,0.00152731,0.00218007,0.00000852,-0.0005151
 1,-0.00166237,0.00078329,-0.00039447,0.00013415,-0.00000079,-0.0000823
 9,0.03218226,-0.13130061,0.25390068,-0.01533974,0.01380835,0.01352532,
 -0.00457178,-0.00090367,-0.00343591,0.00005203,0.00003417,0.00006974,0
 .00010545,0.00058396,0.00028747,0.00021977,0.00072726,0.00064547,-0.00
 103644,-0.00046903,-0.00014550,-0.00152400,-0.00079701,-0.00068644,-0.
 00036788,-0.00106986,-0.00017691,-0.00056207,-0.00086190,-0.00011825,-
 0.00011681,-0.00015671,-0.00017691,0.00008129,-0.00004720,0.00014171,-
 0.00188620,0.02681084,0.00779433,-0.00150372,-0.02705526,-0.00739203,0
 .00574351,-0.00296270,-0.00301701,0.00017947,-0.00073631,0.00087479,-0
 .05325706,-0.00255721,-0.00397428,0.00830216,-0.00233095,-0.00775006,0
 .00129685,0.00123972,0.00013603,0.00008774,-0.00006477,-0.00005177,-0.
 00006147,0.00006547,0.00002253,0.00004958,-0.00004459,-0.00010960,0.00
 023677,-0.00019841,-0.00003137,0.00032832,-0.00021083,-0.00018007,0.00
 004318,-0.00014206,0.00000886,0.00001753,0.00044130,0.00158810,0.00040
 511,0.00013902,-0.00013449,0.00051915,-0.00001013,0.00033879,0.0006780
 2,0.00232045,-0.00035023,0.00078087,-0.00000989,-0.00003282,-0.0004414
 0,-0.00029765,0.00001650,0.00018729,0.00010684,-0.00006830,0.00019861,
 0.00015987,0.00005840,-0.00000522,-0.00005370,-0.00000147,0.00000126,-
 0.00003502,-0.00001275,-0.00002260,-0.00003307,0.00004788,-0.00002518,
 0.00004583,0.00000941,0.00008989,-0.00001740,-0.00005349,-0.00005311,-
 0.00007627,0.00000104,-0.00426130,-0.00038184,0.00344751,-0.00113222,-
 0.00018592,0.00049785,-0.00068246,-0.00040161,-0.00031624,0.00084001,0
 .00038466,0.00008196,-0.00086411,0.00355824,0.00409743,0.06727092,-0.0
 0760297,0.01215899,0.00837330,0.00068672,-0.00211156,0.00068863,0.0003
 3281,0.00027440,-0.00003234,0.00000022,0.00032848,-0.00004218,-0.00055
 358,-0.00088607,-0.00043236,0.00064662,-0.00076487,0.00029286,0.002688
 62,0.00240960,0.00021536,0.00035294,0.00148425,0.00006247,-0.00072600,
 -0.00054056,-0.00016082,0.00006604,-0.00031216,0.00038864,-0.00021889,
 0.00013367,-0.00039527,0.01362811,-0.00343082,-0.00940872,-0.00791354,
 0.00140732,-0.00124938,0.00513963,-0.00434215,-0.00396697,0.00104740,0
 .00163523,0.00002846,-0.00460660,-0.31346584,-0.07975039,0.00709588,-0
 .00916293,-0.00439107,0.00019166,0.00105012,0.00022576,-0.00005891,-0.
 00012331,0.00004300,-0.00008315,-0.00011852,-0.00006840,0.00008887,-0.
 00012525,-0.00004458,0.00006988,-0.00015269,-0.00003468,-0.00034479,0.
 00018840,0.00009655,0.00013515,-0.00012710,0.00001411,0.00034596,0.000
 58719,0.00003455,-0.00021772,-0.00008944,0.00011911,-0.00053819,-0.000
 17613,-0.00012051,0.00017037,-0.00180649,0.00021705,0.00031887,-0.0006
 4928,-0.00002912,-0.00042485,-0.00021180,0.00004490,0.00010093,0.00009
 306,-0.00002895,0.00010562,0.00004645,0.00004773,0.00006363,0.00010836
 ,-0.00003340,-0.00006948,-0.00009485,-0.00000645,0.00003482,0.00015574
 ,-0.00001805,0.00006099,0.00004185,0.00008303,-0.00009561,0.00004434,-
 0.00011355,0.00011441,0.00003715,0.00004726,-0.00184702,-0.00064638,-0
 .00062328,-0.00092007,-0.00051479,0.00068232,0.00100081,0.00031520,0.0
 0067786,0.00104312,0.00049477,-0.00009419,-0.00099372,-0.01593757,-0.0
 0550636,-0.00831494,0.33279601,0.00358552,-0.00115807,0.00042044,-0.00
 238715,0.00171572,-0.00307661,0.00017875,-0.00004555,0.00028538,-0.000
 38488,-0.00070494,-0.00044844,0.00023619,0.00059598,0.00042763,0.00167
 312,0.00133125,0.00167516,-0.00037798,-0.00119533,-0.00079214,0.001266
 10,0.00027178,0.00177976,-0.00007952,0.00003732,0.00011309,0.00000600,
 -0.00008850,0.00004388,-0.00007295,0.00006327,-0.00004374,0.00803710,-
 0.02208497,-0.01005788,-0.00257850,-0.01173359,-0.00491859,0.00015314,
 -0.00114708,0.00004944,0.00030081,-0.00001790,0.00042763,-0.00515970,-
 0.08604264,-0.08820893,-0.00397129,-0.00060221,-0.00584485,0.00387653,
 0.00285174,0.00019425,-0.00003462,0.00003369,-0.00014589,-0.00004813,-
 0.00006308,-0.00006367,0.00005494,0.00003380,-0.00004755,-0.00031986,0
 .00020795,0.00005685,0.00022875,-0.00019015,-0.00014835,-0.00000466,-0
 .00001624,-0.00004827,-0.00018505,-0.00070473,-0.00136811,-0.00034598,
 -0.00008970,-0.00019778,-0.00012047,0.00006983,-0.00019406,0.00007090,
 0.00129700,0.00074530,0.00032586,-0.00015098,-0.00055785,0.00002639,0.
 00004294,0.00002826,-0.00002057,-0.00004789,-0.00003199,-0.00005819,0.
 00003651,0.00003601,0.00004937,0.00002787,0.00001979,-0.00001464,-0.00
 006790,0.00004170,0.00001013,0.00003190,0.00001552,0.00003009,-0.00001
 692,0.00005666,0.00001841,-0.00002405,0.00002227,0.00004277,-0.0000139
 9,0.00003380,0.00121813,0.00017423,-0.00176083,0.00062750,-0.00068924,
 -0.00102249,-0.00077190,-0.00069889,-0.00075095,0.00018625,-0.00008781
 ,0.00026531,0.00020855,0.02469153,0.01739608,-0.00547523,0.09416807,0.
 09559478\\-0.00000047,-0.00000261,0.00000454,0.00000403,0.00000027,-0.
 00000777,0.00000034,0.00000058,-0.00000129,-0.00000054,0.00000045,-0.0
 0000003,0.00000002,0.00000037,-0.00000131,-0.00000136,0.00000035,0.000
 00031,-0.00000062,0.00000109,-0.00000052,-0.00000026,0.00000046,-0.000
 00171,-0.00000416,-0.00000346,0.00000167,0.00000064,0.00000068,-0.0000
 0079,-0.00000265,0.00000113,0.00000146,-0.00000083,0.00000230,-0.00000
 496,-0.00000293,-0.00000126,0.00000227,0.00000161,0.00000542,-0.000009
 84,-0.00000211,0.00000362,0.00000806,0.00000677,0.00000362,-0.00000050
 ,-0.00000120,-0.00000044,-0.00000018,-0.00000007,-0.00000342,0.0000025
 1,-0.00000033,0.00000051,-0.00000179,-0.00000037,0.00000052,-0.0000011
 4,-0.00000068,0.00000090,-0.00000080,-0.00000018,0.00000048,-0.0000008
 5,0.00000030,-0.00000011,-0.00000129,0.00000004,0.00000011,-0.00000111
 ,-0.00000170,0.00000109,0.00000053,-0.00000054,0.00000058,-0.00000025,
 -0.00000009,-0.00000063,-0.00000059,0.00000015,-0.00000010,-0.00000071
 ,0.00000009,0.00000115,0.00000063,0.00000084,-0.00000005,0.00000120,0.
 00000047,-0.00000099,0.00000088,0.00000135,0.00000086,0.00000165,-0.00
 000017,0.00000061,-0.00000352,-0.00000144,0.00000076,0.00000291,0.0000
 0387,-0.00000217,0.00000268,0.00000065,-0.00000082,0.00000059,0.000000
 61,-0.00000167,-0.00000100,0.00000023,-0.00000004,-0.00000002,0.000000
 23,0.00000013,0.00000201,0.00000126,-0.00000062,0.00000083,0.00000294,
 -0.00000054,0.00000057,0.00000082,-0.00000262,0.00000555,-0.00000301,-
 0.00000242,0.00000183,-0.00000154,-0.00000409,-0.00000069\\\@


 ALMOST ALL THE CHEMICAL PROCESSES WHICH OCCUR IN NATURE,
 WHETHER IN ANIMAL OR VEGETABLE ORGANISMS,
 OR IN THE NON-LIVING SURFACE OF THE EARTH ... 
 TAKE PLACE BETWEEN SUBSTANCES IN SOLUTION

                                    -- W. OSTWALD, 1890
 Job cpu time:  0 days  4 hours 59 minutes 41.6 seconds.
 File lengths (MBytes):  RWF=    544 Int=      0 D2E=      0 Chk=      9 Scr=      1
 Normal termination of Gaussian 09 at Sat Feb 17 00:22:19 2018.
