 Entering Gaussian System, Link 0=g09
 Initial command:
 /home/fb_chem/chemsoft/lx24-amd64/Gaussian_09_C.01_NBO_3.1_64_istanbul-64/g09/l1.exe /local/2397407.1.parallel/Gau-5706.inp -scrdir=/local/2397407.1.parallel/
 Entering Link 1 = /home/fb_chem/chemsoft/lx24-amd64/Gaussian_09_C.01_NBO_3.1_64_istanbul-64/g09/l1.exe PID=      5707.
  
 Copyright (c) 1988,1990,1992,1993,1995,1998,2003,2009,2011,
            Gaussian, Inc.  All Rights Reserved.
  
 This is part of the Gaussian(R) 09 program.  It is based on
 the Gaussian(R) 03 system (copyright 2003, Gaussian, Inc.),
 the Gaussian(R) 98 system (copyright 1998, Gaussian, Inc.),
 the Gaussian(R) 94 system (copyright 1995, Gaussian, Inc.),
 the Gaussian 92(TM) system (copyright 1992, Gaussian, Inc.),
 the Gaussian 90(TM) system (copyright 1990, Gaussian, Inc.),
 the Gaussian 88(TM) system (copyright 1988, Gaussian, Inc.),
 the Gaussian 86(TM) system (copyright 1986, Carnegie Mellon
 University), and the Gaussian 82(TM) system (copyright 1983,
 Carnegie Mellon University). Gaussian is a federally registered
 trademark of Gaussian, Inc.
  
 This software contains proprietary and confidential information,
 including trade secrets, belonging to Gaussian, Inc.
  
 This software is provided under written license and may be
 used, copied, transmitted, or stored only in accord with that
 written license.
  
 The following legend is applicable only to US Government
 contracts under FAR:
  
                    RESTRICTED RIGHTS LEGEND
  
 Use, reproduction and disclosure by the US Government is
 subject to restrictions as set forth in subparagraphs (a)
 and (c) of the Commercial Computer Software - Restricted
 Rights clause in FAR 52.227-19.
  
 Gaussian, Inc.
 340 Quinnipiac St., Bldg. 40, Wallingford CT 06492
  
  
 ---------------------------------------------------------------
 Warning -- This program may not be used in any manner that
 competes with the business of Gaussian, Inc. or will provide
 assistance to any competitor of Gaussian, Inc.  The licensee
 of this program is prohibited from giving any competitor of
 Gaussian, Inc. access to this program.  By using this program,
 the user acknowledges that Gaussian, Inc. is engaged in the
 business of creating and licensing software in the field of
 computational chemistry and represents and warrants to the
 licensee that it is not a competitor of Gaussian, Inc. and that
 it will not use this program in any manner prohibited above.
 ---------------------------------------------------------------
  

 Cite this work as:
 Gaussian 09, Revision C.01,
 M. J. Frisch, G. W. Trucks, H. B. Schlegel, G. E. Scuseria, 
 M. A. Robb, J. R. Cheeseman, G. Scalmani, V. Barone, B. Mennucci, 
 G. A. Petersson, H. Nakatsuji, M. Caricato, X. Li, H. P. Hratchian, 
 A. F. Izmaylov, J. Bloino, G. Zheng, J. L. Sonnenberg, M. Hada, 
 M. Ehara, K. Toyota, R. Fukuda, J. Hasegawa, M. Ishida, T. Nakajima, 
 Y. Honda, O. Kitao, H. Nakai, T. Vreven, J. A. Montgomery, Jr., 
 J. E. Peralta, F. Ogliaro, M. Bearpark, J. J. Heyd, E. Brothers, 
 K. N. Kudin, V. N. Staroverov, T. Keith, R. Kobayashi, J. Normand, 
 K. Raghavachari, A. Rendell, J. C. Burant, S. S. Iyengar, J. Tomasi, 
 M. Cossi, N. Rega, J. M. Millam, M. Klene, J. E. Knox, J. B. Cross, 
 V. Bakken, C. Adamo, J. Jaramillo, R. Gomperts, R. E. Stratmann, 
 O. Yazyev, A. J. Austin, R. Cammi, C. Pomelli, J. W. Ochterski, 
 R. L. Martin, K. Morokuma, V. G. Zakrzewski, G. A. Voth, 
 P. Salvador, J. J. Dannenberg, S. Dapprich, A. D. Daniels, 
 O. Farkas, J. B. Foresman, J. V. Ortiz, J. Cioslowski, 
 and D. J. Fox, Gaussian, Inc., Wallingford CT, 2010.
 
 ******************************************
 Gaussian 09:  AM64L-G09RevC.01 23-Sep-2011
                16-Feb-2018 
 ******************************************
 %nprocs=4
 Will use up to    4 processors via shared memory.
 %chk=frag40-conf1.chk
 ---------------------------------------------------------
 #B3LYP/6-31G* Integral=(Grid=UltraFine) freq Opt pop=none
 ---------------------------------------------------------
 1/14=-1,18=20,19=15,26=3,38=1/1,3;
 2/9=110,12=2,17=6,18=5,40=1/2;
 3/5=1,6=6,7=1,11=2,16=1,25=1,30=1,71=1,74=-5,75=-5/1,2,3;
 4//1;
 5/5=2,38=5/2;
 7//1,2,3,16;
 1/14=-1,18=20,19=15/3(2);
 2/9=110/2;
 99//99;
 2/9=110/2;
 3/5=1,6=6,7=1,11=2,16=1,25=1,30=1,71=1,74=-5,75=-5/1,2,3;
 4/5=5,16=3/1;
 5/5=2,38=5/2;
 7//1,2,3,16;
 1/14=-1,18=20,19=15/3(-5);
 2/9=110/2;
 99/9=1/99;
 -----------------------------
 Optimization for frag40-conf1
 -----------------------------
 Charge =  1 Multiplicity = 1
 Symbolic Z-Matrix:
 C                     5.73757  -1.48411  -2.46541 
 C                     3.03829  -5.04871  -2.69384 
 C                    -0.86437  -2.31548  -1.65647 
 C                    -0.24703  -1.92766  -2.99453 
 C                     0.16357  -2.25595  -0.5331 
 C                     0.98091  -2.77846  -3.31492 
 C                     1.39563  -3.10512  -0.84604 
 C                     2.03564  -2.71441  -2.19352 
 C                     6.47231   0.52467  -3.69596 
 C                     2.54182  -7.04743  -4.03586 
 C                     2.86986  -4.91993  -5.22411 
 C                     4.95088  -1.99229  -1.25326 
 C                     3.31464  -3.52121  -2.54735 
 N                     5.77593  -0.11509  -2.60754 
 N                     2.81034  -5.61655  -3.94239 
 N                     4.37268  -3.34783  -1.47423 
 O                     6.28801  -2.25147  -3.26048 
 O                     3.06009  -5.75459  -1.67124 
 H                    -1.70123  -1.64617  -1.42761 
 H                    -1.27512  -3.33042  -1.72323 
 H                    -0.99142  -2.0422   -3.7906 
 H                     0.03761  -0.86847  -2.97382 
 H                     0.4702   -1.21502  -0.37217 
 H                    -0.29275  -2.60162   0.40143 
 H                     0.65583  -3.81304  -3.47436 
 H                     1.41539  -2.4228   -4.25579 
 H                     2.11132  -2.98176  -0.02657 
 H                     1.09931  -4.16047  -0.85928 
 H                     2.32648  -1.65803  -2.11826 
 H                     7.54644   0.36311  -3.57291 
 H                     6.24994   1.59384  -3.67541 
 H                     6.1455    0.09123  -4.645 
 H                     1.60319  -7.19511  -4.57838 
 H                     2.45614  -7.52183  -3.05536 
 H                     3.3598   -7.52113  -4.58684 
 H                     3.67885  -5.35677  -5.81744 
 H                     3.04817  -3.85179  -5.13213 
 H                     1.91955  -5.06862  -5.74583 
 H                     4.1458   -1.3096   -0.97294 
 H                     5.64459  -2.0847   -0.41169 
 H                     3.77474  -3.13029  -3.45428 
 H                     5.32287   0.47104  -1.91003 
 H                     5.15431  -3.95635  -1.74133 
 H                     4.02999  -3.75515  -0.59984 
 

 GradGradGradGradGradGradGradGradGradGradGradGradGradGradGradGradGradGrad
 Berny optimization.
 Initialization pass.
                           ----------------------------
                           !    Initial Parameters    !
                           ! (Angstroms and Degrees)  !
 --------------------------                            --------------------------
 ! Name  Definition              Value          Derivative Info.                !
 --------------------------------------------------------------------------------
 ! R1    R(1,12)                 1.5318         estimate D2E/DX2                !
 ! R2    R(1,14)                 1.3769         estimate D2E/DX2                !
 ! R3    R(1,17)                 1.2345         estimate D2E/DX2                !
 ! R4    R(2,13)                 1.5592         estimate D2E/DX2                !
 ! R5    R(2,15)                 1.3904         estimate D2E/DX2                !
 ! R6    R(2,18)                 1.2428         estimate D2E/DX2                !
 ! R7    R(3,4)                  1.5238         estimate D2E/DX2                !
 ! R8    R(3,5)                  1.5239         estimate D2E/DX2                !
 ! R9    R(3,19)                 1.0958         estimate D2E/DX2                !
 ! R10   R(3,20)                 1.0969         estimate D2E/DX2                !
 ! R11   R(4,6)                  1.5279         estimate D2E/DX2                !
 ! R12   R(4,21)                 1.0959         estimate D2E/DX2                !
 ! R13   R(4,22)                 1.097          estimate D2E/DX2                !
 ! R14   R(5,7)                  1.5287         estimate D2E/DX2                !
 ! R15   R(5,23)                 1.097          estimate D2E/DX2                !
 ! R16   R(5,24)                 1.0959         estimate D2E/DX2                !
 ! R17   R(6,8)                  1.5408         estimate D2E/DX2                !
 ! R18   R(6,25)                 1.0961         estimate D2E/DX2                !
 ! R19   R(6,26)                 1.0957         estimate D2E/DX2                !
 ! R20   R(7,8)                  1.5421         estimate D2E/DX2                !
 ! R21   R(7,27)                 1.095          estimate D2E/DX2                !
 ! R22   R(7,28)                 1.0962         estimate D2E/DX2                !
 ! R23   R(8,13)                 1.553          estimate D2E/DX2                !
 ! R24   R(8,29)                 1.0983         estimate D2E/DX2                !
 ! R25   R(9,14)                 1.4418         estimate D2E/DX2                !
 ! R26   R(9,30)                 1.0932         estimate D2E/DX2                !
 ! R27   R(9,31)                 1.0922         estimate D2E/DX2                !
 ! R28   R(9,32)                 1.0933         estimate D2E/DX2                !
 ! R29   R(10,15)                1.4589         estimate D2E/DX2                !
 ! R30   R(10,33)                1.0942         estimate D2E/DX2                !
 ! R31   R(10,34)                1.0926         estimate D2E/DX2                !
 ! R32   R(10,35)                1.0941         estimate D2E/DX2                !
 ! R33   R(11,15)                1.46           estimate D2E/DX2                !
 ! R34   R(11,36)                1.0942         estimate D2E/DX2                !
 ! R35   R(11,37)                1.0868         estimate D2E/DX2                !
 ! R36   R(11,38)                1.0943         estimate D2E/DX2                !
 ! R37   R(12,16)                1.4902         estimate D2E/DX2                !
 ! R38   R(12,39)                1.0922         estimate D2E/DX2                !
 ! R39   R(12,40)                1.0945         estimate D2E/DX2                !
 ! R40   R(13,16)                1.5169         estimate D2E/DX2                !
 ! R41   R(13,41)                1.0895         estimate D2E/DX2                !
 ! R42   R(14,42)                1.0175         estimate D2E/DX2                !
 ! R43   R(16,43)                1.026          estimate D2E/DX2                !
 ! R44   R(16,44)                1.0237         estimate D2E/DX2                !
 ! A1    A(12,1,14)            115.2042         estimate D2E/DX2                !
 ! A2    A(12,1,17)            122.1688         estimate D2E/DX2                !
 ! A3    A(14,1,17)            122.625          estimate D2E/DX2                !
 ! A4    A(13,2,15)            120.8982         estimate D2E/DX2                !
 ! A5    A(13,2,18)            118.4265         estimate D2E/DX2                !
 ! A6    A(15,2,18)            120.6502         estimate D2E/DX2                !
 ! A7    A(4,3,5)              111.3525         estimate D2E/DX2                !
 ! A8    A(4,3,19)             109.7162         estimate D2E/DX2                !
 ! A9    A(4,3,20)             109.4964         estimate D2E/DX2                !
 ! A10   A(5,3,19)             109.7155         estimate D2E/DX2                !
 ! A11   A(5,3,20)             109.487          estimate D2E/DX2                !
 ! A12   A(19,3,20)            106.9712         estimate D2E/DX2                !
 ! A13   A(3,4,6)              111.5941         estimate D2E/DX2                !
 ! A14   A(3,4,21)             109.6386         estimate D2E/DX2                !
 ! A15   A(3,4,22)             109.5296         estimate D2E/DX2                !
 ! A16   A(6,4,21)             109.5965         estimate D2E/DX2                !
 ! A17   A(6,4,22)             109.4569         estimate D2E/DX2                !
 ! A18   A(21,4,22)            106.9104         estimate D2E/DX2                !
 ! A19   A(3,5,7)              111.7803         estimate D2E/DX2                !
 ! A20   A(3,5,23)             109.4966         estimate D2E/DX2                !
 ! A21   A(3,5,24)             109.5986         estimate D2E/DX2                !
 ! A22   A(7,5,23)             109.3801         estimate D2E/DX2                !
 ! A23   A(7,5,24)             109.5684         estimate D2E/DX2                !
 ! A24   A(23,5,24)            106.8926         estimate D2E/DX2                !
 ! A25   A(4,6,8)              111.9867         estimate D2E/DX2                !
 ! A26   A(4,6,25)             108.5262         estimate D2E/DX2                !
 ! A27   A(4,6,26)             108.5431         estimate D2E/DX2                !
 ! A28   A(8,6,25)             110.3723         estimate D2E/DX2                !
 ! A29   A(8,6,26)             109.8791         estimate D2E/DX2                !
 ! A30   A(25,6,26)            107.4018         estimate D2E/DX2                !
 ! A31   A(5,7,8)              111.8783         estimate D2E/DX2                !
 ! A32   A(5,7,27)             108.119          estimate D2E/DX2                !
 ! A33   A(5,7,28)             108.6254         estimate D2E/DX2                !
 ! A34   A(8,7,27)             110.7406         estimate D2E/DX2                !
 ! A35   A(8,7,28)             110.2153         estimate D2E/DX2                !
 ! A36   A(27,7,28)            107.1078         estimate D2E/DX2                !
 ! A37   A(6,8,7)              109.9576         estimate D2E/DX2                !
 ! A38   A(6,8,13)             112.1068         estimate D2E/DX2                !
 ! A39   A(6,8,29)             105.7315         estimate D2E/DX2                !
 ! A40   A(7,8,13)             114.1582         estimate D2E/DX2                !
 ! A41   A(7,8,29)             107.0809         estimate D2E/DX2                !
 ! A42   A(13,8,29)            107.2902         estimate D2E/DX2                !
 ! A43   A(14,9,30)            108.9061         estimate D2E/DX2                !
 ! A44   A(14,9,31)            108.7718         estimate D2E/DX2                !
 ! A45   A(14,9,32)            109.5713         estimate D2E/DX2                !
 ! A46   A(30,9,31)            110.0358         estimate D2E/DX2                !
 ! A47   A(30,9,32)            109.4408         estimate D2E/DX2                !
 ! A48   A(31,9,32)            110.0932         estimate D2E/DX2                !
 ! A49   A(15,10,33)           108.7868         estimate D2E/DX2                !
 ! A50   A(15,10,34)           112.5076         estimate D2E/DX2                !
 ! A51   A(15,10,35)           108.6211         estimate D2E/DX2                !
 ! A52   A(33,10,34)           108.6074         estimate D2E/DX2                !
 ! A53   A(33,10,35)           109.4649         estimate D2E/DX2                !
 ! A54   A(34,10,35)           108.8184         estimate D2E/DX2                !
 ! A55   A(15,11,36)           108.4015         estimate D2E/DX2                !
 ! A56   A(15,11,37)           113.6612         estimate D2E/DX2                !
 ! A57   A(15,11,38)           108.5613         estimate D2E/DX2                !
 ! A58   A(36,11,37)           108.4791         estimate D2E/DX2                !
 ! A59   A(36,11,38)           109.2258         estimate D2E/DX2                !
 ! A60   A(37,11,38)           108.4442         estimate D2E/DX2                !
 ! A61   A(1,12,16)            112.5636         estimate D2E/DX2                !
 ! A62   A(1,12,39)            111.9813         estimate D2E/DX2                !
 ! A63   A(1,12,40)            108.1162         estimate D2E/DX2                !
 ! A64   A(16,12,39)           108.7022         estimate D2E/DX2                !
 ! A65   A(16,12,40)           106.4475         estimate D2E/DX2                !
 ! A66   A(39,12,40)           108.8217         estimate D2E/DX2                !
 ! A67   A(2,13,8)             112.6051         estimate D2E/DX2                !
 ! A68   A(2,13,16)            107.5812         estimate D2E/DX2                !
 ! A69   A(2,13,41)            110.3742         estimate D2E/DX2                !
 ! A70   A(8,13,16)            110.7239         estimate D2E/DX2                !
 ! A71   A(8,13,41)            110.5506         estimate D2E/DX2                !
 ! A72   A(16,13,41)           104.6737         estimate D2E/DX2                !
 ! A73   A(1,14,9)             122.1779         estimate D2E/DX2                !
 ! A74   A(1,14,42)            119.3126         estimate D2E/DX2                !
 ! A75   A(9,14,42)            118.4851         estimate D2E/DX2                !
 ! A76   A(2,15,10)            119.2267         estimate D2E/DX2                !
 ! A77   A(2,15,11)            125.9277         estimate D2E/DX2                !
 ! A78   A(10,15,11)           114.7871         estimate D2E/DX2                !
 ! A79   A(12,16,13)           118.6528         estimate D2E/DX2                !
 ! A80   A(12,16,43)           106.4117         estimate D2E/DX2                !
 ! A81   A(12,16,44)           111.4188         estimate D2E/DX2                !
 ! A82   A(13,16,43)           106.2255         estimate D2E/DX2                !
 ! A83   A(13,16,44)           108.9828         estimate D2E/DX2                !
 ! A84   A(43,16,44)           103.97           estimate D2E/DX2                !
 ! D1    D(14,1,12,16)         151.8253         estimate D2E/DX2                !
 ! D2    D(14,1,12,39)          28.9939         estimate D2E/DX2                !
 ! D3    D(14,1,12,40)         -90.8819         estimate D2E/DX2                !
 ! D4    D(17,1,12,16)         -27.6793         estimate D2E/DX2                !
 ! D5    D(17,1,12,39)        -150.5107         estimate D2E/DX2                !
 ! D6    D(17,1,12,40)          89.6135         estimate D2E/DX2                !
 ! D7    D(12,1,14,9)         -179.9041         estimate D2E/DX2                !
 ! D8    D(12,1,14,42)           1.9223         estimate D2E/DX2                !
 ! D9    D(17,1,14,9)           -0.402          estimate D2E/DX2                !
 ! D10   D(17,1,14,42)        -178.5756         estimate D2E/DX2                !
 ! D11   D(15,2,13,8)           96.1116         estimate D2E/DX2                !
 ! D12   D(15,2,13,16)        -141.6108         estimate D2E/DX2                !
 ! D13   D(15,2,13,41)         -27.9617         estimate D2E/DX2                !
 ! D14   D(18,2,13,8)          -85.6961         estimate D2E/DX2                !
 ! D15   D(18,2,13,16)          36.5815         estimate D2E/DX2                !
 ! D16   D(18,2,13,41)         150.2306         estimate D2E/DX2                !
 ! D17   D(13,2,15,10)        -179.3718         estimate D2E/DX2                !
 ! D18   D(13,2,15,11)           3.5622         estimate D2E/DX2                !
 ! D19   D(18,2,15,10)           2.4762         estimate D2E/DX2                !
 ! D20   D(18,2,15,11)        -174.5899         estimate D2E/DX2                !
 ! D21   D(5,3,4,6)             54.7497         estimate D2E/DX2                !
 ! D22   D(5,3,4,21)           176.3661         estimate D2E/DX2                !
 ! D23   D(5,3,4,22)           -66.6163         estimate D2E/DX2                !
 ! D24   D(19,3,4,6)           176.4093         estimate D2E/DX2                !
 ! D25   D(19,3,4,21)          -61.9744         estimate D2E/DX2                !
 ! D26   D(19,3,4,22)           55.0433         estimate D2E/DX2                !
 ! D27   D(20,3,4,6)           -66.4737         estimate D2E/DX2                !
 ! D28   D(20,3,4,21)           55.1426         estimate D2E/DX2                !
 ! D29   D(20,3,4,22)          172.1603         estimate D2E/DX2                !
 ! D30   D(4,3,5,7)            -54.6811         estimate D2E/DX2                !
 ! D31   D(4,3,5,23)            66.688          estimate D2E/DX2                !
 ! D32   D(4,3,5,24)          -176.3582         estimate D2E/DX2                !
 ! D33   D(19,3,5,7)          -176.3411         estimate D2E/DX2                !
 ! D34   D(19,3,5,23)          -54.972          estimate D2E/DX2                !
 ! D35   D(19,3,5,24)           61.9818         estimate D2E/DX2                !
 ! D36   D(20,3,5,7)            66.5479         estimate D2E/DX2                !
 ! D37   D(20,3,5,23)         -172.0831         estimate D2E/DX2                !
 ! D38   D(20,3,5,24)          -55.1292         estimate D2E/DX2                !
 ! D39   D(3,4,6,8)            -55.4499         estimate D2E/DX2                !
 ! D40   D(3,4,6,25)            66.6395         estimate D2E/DX2                !
 ! D41   D(3,4,6,26)          -176.9312         estimate D2E/DX2                !
 ! D42   D(21,4,6,8)          -177.0906         estimate D2E/DX2                !
 ! D43   D(21,4,6,25)          -55.0013         estimate D2E/DX2                !
 ! D44   D(21,4,6,26)           61.428          estimate D2E/DX2                !
 ! D45   D(22,4,6,8)            65.9582         estimate D2E/DX2                !
 ! D46   D(22,4,6,25)         -171.9524         estimate D2E/DX2                !
 ! D47   D(22,4,6,26)          -55.5231         estimate D2E/DX2                !
 ! D48   D(3,5,7,8)             55.1381         estimate D2E/DX2                !
 ! D49   D(3,5,7,27)           177.3418         estimate D2E/DX2                !
 ! D50   D(3,5,7,28)           -66.7516         estimate D2E/DX2                !
 ! D51   D(23,5,7,8)           -66.2983         estimate D2E/DX2                !
 ! D52   D(23,5,7,27)           55.9054         estimate D2E/DX2                !
 ! D53   D(23,5,7,28)          171.8121         estimate D2E/DX2                !
 ! D54   D(24,5,7,8)           176.8326         estimate D2E/DX2                !
 ! D55   D(24,5,7,27)          -60.9637         estimate D2E/DX2                !
 ! D56   D(24,5,7,28)           54.9429         estimate D2E/DX2                !
 ! D57   D(4,6,8,7)             54.7116         estimate D2E/DX2                !
 ! D58   D(4,6,8,13)          -177.1576         estimate D2E/DX2                !
 ! D59   D(4,6,8,29)           -60.5616         estimate D2E/DX2                !
 ! D60   D(25,6,8,7)           -66.3163         estimate D2E/DX2                !
 ! D61   D(25,6,8,13)           61.8144         estimate D2E/DX2                !
 ! D62   D(25,6,8,29)          178.4104         estimate D2E/DX2                !
 ! D63   D(26,6,8,7)           175.4211         estimate D2E/DX2                !
 ! D64   D(26,6,8,13)          -56.4482         estimate D2E/DX2                !
 ! D65   D(26,6,8,29)           60.1478         estimate D2E/DX2                !
 ! D66   D(5,7,8,6)            -54.4768         estimate D2E/DX2                !
 ! D67   D(5,7,8,13)           178.5321         estimate D2E/DX2                !
 ! D68   D(5,7,8,29)            59.9383         estimate D2E/DX2                !
 ! D69   D(27,7,8,6)          -175.1681         estimate D2E/DX2                !
 ! D70   D(27,7,8,13)           57.8408         estimate D2E/DX2                !
 ! D71   D(27,7,8,29)          -60.753          estimate D2E/DX2                !
 ! D72   D(28,7,8,6)            66.4956         estimate D2E/DX2                !
 ! D73   D(28,7,8,13)          -60.4954         estimate D2E/DX2                !
 ! D74   D(28,7,8,29)         -179.0892         estimate D2E/DX2                !
 ! D75   D(6,8,13,2)           -63.9899         estimate D2E/DX2                !
 ! D76   D(6,8,13,16)          175.5222         estimate D2E/DX2                !
 ! D77   D(6,8,13,41)           59.9859         estimate D2E/DX2                !
 ! D78   D(7,8,13,2)            61.8814         estimate D2E/DX2                !
 ! D79   D(7,8,13,16)          -58.6065         estimate D2E/DX2                !
 ! D80   D(7,8,13,41)         -174.1428         estimate D2E/DX2                !
 ! D81   D(29,8,13,2)         -179.6438         estimate D2E/DX2                !
 ! D82   D(29,8,13,16)          59.8683         estimate D2E/DX2                !
 ! D83   D(29,8,13,41)         -55.668          estimate D2E/DX2                !
 ! D84   D(30,9,14,1)          -67.7072         estimate D2E/DX2                !
 ! D85   D(30,9,14,42)         110.4809         estimate D2E/DX2                !
 ! D86   D(31,9,14,1)          172.3657         estimate D2E/DX2                !
 ! D87   D(31,9,14,42)          -9.4462         estimate D2E/DX2                !
 ! D88   D(32,9,14,1)           51.9724         estimate D2E/DX2                !
 ! D89   D(32,9,14,42)        -129.8395         estimate D2E/DX2                !
 ! D90   D(33,10,15,2)         125.8398         estimate D2E/DX2                !
 ! D91   D(33,10,15,11)        -56.7768         estimate D2E/DX2                !
 ! D92   D(34,10,15,2)           5.4565         estimate D2E/DX2                !
 ! D93   D(34,10,15,11)       -177.1602         estimate D2E/DX2                !
 ! D94   D(35,10,15,2)        -115.0792         estimate D2E/DX2                !
 ! D95   D(35,10,15,11)         62.3041         estimate D2E/DX2                !
 ! D96   D(36,11,15,2)         116.5563         estimate D2E/DX2                !
 ! D97   D(36,11,15,10)        -60.6235         estimate D2E/DX2                !
 ! D98   D(37,11,15,2)          -4.1387         estimate D2E/DX2                !
 ! D99   D(37,11,15,10)        178.6815         estimate D2E/DX2                !
 ! D100  D(38,11,15,2)        -124.9026         estimate D2E/DX2                !
 ! D101  D(38,11,15,10)         57.9176         estimate D2E/DX2                !
 ! D102  D(1,12,16,13)         -64.5949         estimate D2E/DX2                !
 ! D103  D(1,12,16,43)          54.9348         estimate D2E/DX2                !
 ! D104  D(1,12,16,44)         167.6331         estimate D2E/DX2                !
 ! D105  D(39,12,16,13)         60.0569         estimate D2E/DX2                !
 ! D106  D(39,12,16,43)        179.5866         estimate D2E/DX2                !
 ! D107  D(39,12,16,44)        -67.7151         estimate D2E/DX2                !
 ! D108  D(40,12,16,13)        177.1269         estimate D2E/DX2                !
 ! D109  D(40,12,16,43)        -63.3433         estimate D2E/DX2                !
 ! D110  D(40,12,16,44)         49.355          estimate D2E/DX2                !
 ! D111  D(2,13,16,12)         172.3076         estimate D2E/DX2                !
 ! D112  D(2,13,16,43)          52.6819         estimate D2E/DX2                !
 ! D113  D(2,13,16,44)         -58.787          estimate D2E/DX2                !
 ! D114  D(8,13,16,12)         -64.2577         estimate D2E/DX2                !
 ! D115  D(8,13,16,43)         176.1165         estimate D2E/DX2                !
 ! D116  D(8,13,16,44)          64.6477         estimate D2E/DX2                !
 ! D117  D(41,13,16,12)         54.8887         estimate D2E/DX2                !
 ! D118  D(41,13,16,43)        -64.737          estimate D2E/DX2                !
 ! D119  D(41,13,16,44)       -176.2058         estimate D2E/DX2                !
 --------------------------------------------------------------------------------
 Trust Radius=3.00D-01 FncErr=1.00D-07 GrdErr=1.00D-06
 Number of steps in this run=    257 maximum allowed number of steps=    264.
 GradGradGradGradGradGradGradGradGradGradGradGradGradGradGradGradGradGrad

                          Input orientation:                          
 ---------------------------------------------------------------------
 Center     Atomic      Atomic             Coordinates (Angstroms)
 Number     Number       Type             X           Y           Z
 ---------------------------------------------------------------------
      1          6           0        5.737571   -1.484105   -2.465409
      2          6           0        3.038293   -5.048709   -2.693842
      3          6           0       -0.864369   -2.315475   -1.656471
      4          6           0       -0.247027   -1.927662   -2.994527
      5          6           0        0.163569   -2.255953   -0.533099
      6          6           0        0.980913   -2.778456   -3.314921
      7          6           0        1.395627   -3.105118   -0.846045
      8          6           0        2.035641   -2.714412   -2.193525
      9          6           0        6.472312    0.524674   -3.695962
     10          6           0        2.541825   -7.047434   -4.035860
     11          6           0        2.869865   -4.919926   -5.224111
     12          6           0        4.950884   -1.992293   -1.253259
     13          6           0        3.314638   -3.521207   -2.547351
     14          7           0        5.775930   -0.115094   -2.607540
     15          7           0        2.810339   -5.616549   -3.942394
     16          7           0        4.372684   -3.347828   -1.474232
     17          8           0        6.288006   -2.251472   -3.260482
     18          8           0        3.060091   -5.754591   -1.671242
     19          1           0       -1.701228   -1.646165   -1.427609
     20          1           0       -1.275120   -3.330416   -1.723227
     21          1           0       -0.991419   -2.042196   -3.790598
     22          1           0        0.037610   -0.868466   -2.973823
     23          1           0        0.470199   -1.215019   -0.372172
     24          1           0       -0.292748   -2.601624    0.401427
     25          1           0        0.655828   -3.813036   -3.474364
     26          1           0        1.415387   -2.422804   -4.255787
     27          1           0        2.111322   -2.981755   -0.026571
     28          1           0        1.099312   -4.160467   -0.859281
     29          1           0        2.326475   -1.658025   -2.118256
     30          1           0        7.546443    0.363109   -3.572909
     31          1           0        6.249936    1.593839   -3.675405
     32          1           0        6.145498    0.091232   -4.644997
     33          1           0        1.603186   -7.195114   -4.578377
     34          1           0        2.456142   -7.521835   -3.055355
     35          1           0        3.359803   -7.521127   -4.586841
     36          1           0        3.678854   -5.356774   -5.817438
     37          1           0        3.048174   -3.851792   -5.132133
     38          1           0        1.919554   -5.068616   -5.745834
     39          1           0        4.145799   -1.309599   -0.972939
     40          1           0        5.644592   -2.084697   -0.411687
     41          1           0        3.774740   -3.130285   -3.454279
     42          1           0        5.322871    0.471038   -1.910026
     43          1           0        5.154313   -3.956352   -1.741332
     44          1           0        4.029991   -3.755150   -0.599841
 ---------------------------------------------------------------------
                    Distance matrix (angstroms):
                    1          2          3          4          5
     1  C    0.000000
     2  C    4.477129   0.000000
     3  C    6.703071   4.876215   0.000000
     4  C    6.024294   4.541440   1.523779   0.000000
     5  C    5.949712   4.553277   1.523865   2.516941   0.000000
     6  C    5.002281   3.126116   2.523860   1.527854   2.946115
     7  C    4.909430   3.144877   2.527431   2.949694   1.528720
     8  C    3.910481   2.589319   2.976177   2.543846   2.543983
     9  C    2.467650   6.622637   8.127291   7.187174   7.585237
    10  C    6.605281   2.458128   6.297227   5.922342   6.394038
    11  C    5.257284   2.539136   5.784091   4.862068   6.035427
    12  C    1.531809   3.882649   5.838166   5.482196   4.848353
    13  C    3.166560   1.559195   4.439769   3.927444   3.948077
    14  N    1.376904   5.642930   7.059729   6.301680   6.354934
    15  N    5.275155   1.390427   5.442977   4.884038   5.470127
    16  N    2.513725   2.482145   5.340944   5.066547   4.449109
    17  O    1.234492   4.325073   7.330308   6.548454   6.704280
    18  O    5.102612   1.242761   5.218152   5.228145   4.682486
    19  H    7.512591   5.970236   1.095759   2.156194   2.156260
    20  H    7.289549   4.743433   1.096940   2.154274   2.154228
    21  H    6.880909   5.145928   2.155301   1.095886   3.462801
    22  H    5.755611   5.153341   2.154720   1.096970   2.810359
    23  H    5.674439   5.165504   2.154414   2.810519   1.097025
    24  H    6.769959   5.163792   2.154896   3.462487   1.095925
    25  H    5.680319   2.795038   2.803288   2.144768   3.364204
    26  H    4.771571   3.459606   3.459082   2.144659   3.931068
    27  H    4.619585   3.499416   3.457635   3.934678   2.139416
    28  H    5.590707   2.813225   2.809901   3.370063   2.146900
    29  H    3.433124   3.512082   3.290436   2.731935   2.747435
    30  H    2.812610   7.098165   9.032680   8.143730   8.402783
    31  H    3.346692   7.443222   8.364936   7.421259   7.857407
    32  H    2.720054   6.315118   7.991355   6.903938   7.628923
    33  H    7.360258   3.196570   6.199777   5.803268   6.544622
    34  H    6.897100   2.566309   6.331575   6.213340   6.272733
    35  H    6.826411   3.130441   7.316386   6.843357   7.373655
    36  H    5.520143   3.203447   6.870518   5.927915   7.063750
    37  H    4.466566   2.716241   5.454217   4.373784   5.658512
    38  H    6.179576   3.250635   5.661527   4.704184   6.177957
    39  H    2.188986   4.262513   5.155655   4.875012   4.116697
    40  H    2.141758   4.559210   6.630936   6.434819   5.485042
    41  H    2.745993   2.191111   5.041563   4.222829   4.726342
    42  H    2.074370   6.025054   6.790500   6.160655   5.995899
    43  H    2.641302   2.564773   6.238927   5.904283   5.409132
    44  H    3.399091   2.653602   5.209979   5.231359   4.147441
                    6          7          8          9         10
     6  C    0.000000
     7  C    2.524687   0.000000
     8  C    1.540806   1.542067   0.000000
     9  C    6.419605   6.860768   5.695002   0.000000
    10  C    4.602213   5.199091   4.735557   8.538213   0.000000
    11  C    3.434973   4.963302   3.839879   6.704963   2.458829
    12  C    4.541935   3.747539   3.147093   3.823174   6.253070
    13  C    2.566538   2.598110   1.553044   5.259217   3.904763
    14  N    5.530468   5.588395   4.573579   1.441843   7.781830
    15  N    3.434427   4.230375   3.475787   7.154397   1.458859
    16  N    3.900825   3.052277   2.525939   4.933639   4.858093
    17  O    5.333472   5.522100   4.408551   2.816132   6.134846
    18  O    3.985228   3.235907   3.250379   7.427779   2.744351
    19  H    3.469569   3.472359   3.961309   8.755840   7.347120
    20  H    2.815640   2.820124   3.400261   8.875590   5.808060
    21  H    2.158342   3.936774   3.487924   7.893355   6.131588
    22  H    2.157367   3.372575   2.829931   6.623271   6.751197
    23  H    3.371192   2.157185   2.831274   7.078098   7.192447
    24  H    3.932521   2.158773   3.488250   8.504608   6.891266
    25  H    1.096110   2.820730   2.179773   7.259223   3.785972
    26  H    1.095667   3.477397   2.173172   5.879925   4.764917
    27  H    3.483160   1.094977   2.184695   6.691615   5.726209
    28  H    2.820308   1.096239   2.178989   7.672446   4.528363
    29  H    2.120828   2.139877   1.098273   4.943814   5.724448
    30  H    7.283007   7.569473   6.460865   1.093162   8.954143
    31  H    6.856349   7.324601   6.206229   1.092240   9.410186
    32  H    6.056167   6.870951   5.547277   1.093319   8.019854
    33  H    4.635775   5.540889   5.094235   9.169633   1.094156
    34  H    4.974265   5.051053   4.902131   9.015892   1.092606
    35  H    5.456173   6.111684   5.530450   8.672732   1.094100
    36  H    4.493240   5.915897   4.776502   6.848029   2.706508
    37  H    2.954298   4.653921   3.309724   5.739405   3.416186
    38  H    3.469181   5.304503   4.263174   7.497631   2.688299
    39  H    4.202252   3.286857   2.813555   4.023938   6.699027
    40  H    5.537145   4.391313   4.073821   4.275558   6.884080
    41  H    2.819340   3.530397   2.187903   4.549069   4.147574
    42  H    5.602281   5.417028   4.586213   2.124537   8.293420
    43  H    4.613121   3.956495   3.387183   5.063328   4.652391
    44  H    4.197912   2.724523   2.756882   5.819604   4.985980
                   11         12         13         14         15
    11  C    0.000000
    12  C    5.354376   0.000000
    13  C    3.052750   2.586417   0.000000
    14  N    6.195004   2.457368   4.202759   0.000000
    15  N    1.460008   4.994859   2.567279   6.390819   0.000000
    16  N    4.334922   1.490175   1.516939   3.701900   3.698627
    17  O    4.760271   2.425699   3.310846   2.291870   4.887015
    18  O    3.654549   4.231393   2.412543   6.329009   2.289010
    19  H    6.784234   6.663392   5.470697   7.722973   6.514778
    20  H    5.653638   6.385496   4.667061   7.799847   5.180934
    21  H    5.024520   6.461544   4.719668   7.135150   5.220383
    22  H    5.431371   5.325748   4.237668   5.799142   5.583050
    23  H    6.559424   4.632171   4.259195   5.861526   6.131574
    24  H    6.857355   5.532173   4.749122   7.215647   6.130881
    25  H    3.031299   5.166810   2.830864   6.375077   2.848443
    26  H    3.047749   4.658353   2.780720   5.201594   3.499159
    27  H    5.598778   3.247601   2.844874   5.320573   4.771209
    28  H    4.771098   4.437432   2.857605   6.425901   3.814889
    29  H    4.536695   2.783429   2.152216   3.810351   4.385375
    30  H    7.246193   4.203049   5.835054   2.072518   7.636983
    31  H    7.500167   4.518259   6.004346   2.070137   7.993234
    32  H    6.014720   4.155967   5.046147   2.080957   6.647984
    33  H    2.682895   7.023734   4.533402   8.451194   2.086519
    34  H    3.412418   6.328280   4.123119   8.129043   2.131293
    35  H    2.722572   6.649234   4.490091   8.037700   2.084380
    36  H    1.094229   5.811155   3.767683   6.494335   2.082688
    37  H    1.086814   4.703584   2.619425   5.270402   2.141590
    38  H    1.094256   6.231850   3.817202   7.018398   2.084735
    39  H    5.721445   1.092159   2.839156   2.599249   5.399160
    40  H    6.236750   1.094538   3.471787   2.952686   5.742200
    41  H    2.674681   2.742778   1.089511   3.716599   2.711057
    42  H    6.786965   2.576377   4.514111   1.017516   6.892173
    43  H    4.275152   2.033993   2.055096   3.986475   3.618721
    44  H    4.907797   2.093482   2.087882   4.508788   4.015597
                   16         17         18         19         20
    16  N    0.000000
    17  O    2.839216   0.000000
    18  O    2.748494   5.021649   0.000000
    19  H    6.307951   8.219105   6.293543   0.000000
    20  H    5.653317   7.792827   4.967230   1.762288   0.000000
    21  H    5.986972   7.301702   5.889676   2.498877   2.452350
    22  H    5.214296   6.407990   5.891208   2.453396   3.057523
    23  H    4.581790   6.577496   5.385428   2.452536   3.057187
    24  H    5.083421   7.539132   5.047642   2.498418   2.451601
    25  H    4.246406   5.848561   3.577900   3.800033   2.651030
    26  H    4.163932   4.976184   4.526117   4.279608   3.804792
    27  H    2.709887   5.332559   3.360613   4.275775   3.803708
    28  H    3.428339   6.027651   2.654273   3.806276   2.659570
    29  H    2.730782   4.165404   4.185673   4.086506   3.990542
    30  H    5.314908   2.918443   7.821121   9.703552   9.740812
    31  H    5.726195   3.867819   8.257796   8.875315   9.202486
    32  H    5.002375   2.724968   7.248213   8.656861   8.678132
    33  H    5.666343   6.937145   3.556560   7.185911   5.601108
    34  H    4.857511   6.519355   2.324581   7.379484   5.767571
    35  H    5.303837   6.172752   3.422163   8.373169   6.873489
    36  H    4.835360   4.794643   4.210946   7.873024   6.738735
    37  H    3.922824   4.069474   3.949500   6.414445   5.530220
    38  H    5.217810   5.761654   4.286454   6.593201   5.422973
    39  H    2.111196   3.272466   4.628643   5.874328   5.833780
    40  H    2.083807   2.925308   4.662000   7.428693   7.152228
    41  H    2.079772   2.669527   3.252218   6.024636   5.342067
    42  H    3.959358   3.188617   6.628397   7.352091   7.617049
    43  H    1.025957   2.549449   2.761221   7.241121   6.459855
    44  H    1.023674   3.799828   2.467056   6.162783   5.439356
                   21         22         23         24         25
    21  H    0.000000
    22  H    1.761722   0.000000
    23  H    3.808699   2.660041   0.000000
    24  H    4.286511   3.808580   1.761594   0.000000
    25  H    2.439119   3.050120   4.050648   4.170021   0.000000
    26  H    2.480721   2.440834   4.175475   4.963803   1.766437
    27  H    4.967664   4.177628   2.435997   2.471282   3.833637
    28  H    4.177421   4.054105   3.051019   2.440739   2.675079
    29  H    3.735337   2.567938   2.586663   3.754931   3.045351
    30  H    8.872879   7.632710   7.925177   9.275662   8.057945
    31  H    8.103779   6.719238   7.225399   8.776626   7.782593
    32  H    7.497806   6.404697   7.223043   8.612135   6.837410
    33  H    5.822812   6.712086   7.398470   7.035138   3.681682
    34  H    6.515574   7.079779   7.135781   6.611673   4.143897
    35  H    7.041720   7.608988   8.116664   7.900978   4.722184
    36  H    6.075028   6.441251   7.556489   7.876469   4.124537
    37  H    4.625221   4.756263   6.021275   6.583689   2.910845
    38  H    4.632054   5.372804   6.769570   6.983491   2.886703
    39  H    5.904821   4.590790   3.725574   4.822748   4.970334
    40  H    7.446845   6.283471   5.247118   6.015012   6.103681
    41  H    4.900339   4.394634   4.907914   5.629424   3.192831
    42  H    7.051465   5.555171   5.362482   6.805824   6.525469
    43  H    6.755258   6.102026   5.597359   6.008093   4.822894
    44  H    6.191099   5.468807   4.379066   4.584673   4.432969
                   26         27         28         29         30
    26  H    0.000000
    27  H    4.322387   0.000000
    28  H    3.828267   1.762649   0.000000
    29  H    2.446224   2.484693   3.058294   0.000000
    30  H    6.768862   7.301039   8.330187   5.783517   0.000000
    31  H    6.312141   7.167857   8.220189   5.328497   1.790568
    32  H    5.370830   6.859132   7.607403   4.901965   1.784920
    33  H    4.786886   6.223306   4.826453   6.102024   9.667472
    34  H    5.340817   5.468525   4.238222   5.939632   9.399541
    35  H    5.466557   6.554439   5.504413   6.444970   8.984275
    36  H    4.021221   6.452288   5.715638   5.403112   7.260387
    37  H    2.340082   5.263214   4.706443   3.796961   6.358538
    38  H    3.078107   6.091119   5.037453   4.995702   8.117089
    39  H    4.412649   2.798359   4.173900   2.177863   4.595887
    40  H    5.725173   3.665655   5.016845   3.755572   4.427427
    41  H    2.590269   3.812900   3.866938   2.459671   5.142336
    42  H    5.398644   5.077719   6.355577   3.681665   2.778687
    43  H    4.759603   3.626298   4.154842   3.663474   5.266374
    44  H    4.687990   2.146641   2.969927   3.099271   6.177753
                   31         32         33         34         35
    31  H    0.000000
    32  H    1.791325   0.000000
    33  H    9.982652   8.586494   0.000000
    34  H    9.893070   8.607967   1.775915   0.000000
    35  H    9.605529   8.106262   1.786634   1.778216   0.000000
    36  H    7.714259   6.094237   3.036966   3.716398   2.510096
    37  H    6.482918   5.037674   3.684079   4.258253   3.722697
    38  H    8.211406   6.759769   2.446434   3.680338   3.071220
    39  H    4.490063   4.409664   7.355498   6.766333   7.229187
    40  H    4.954787   4.786072   7.733734   6.835032   7.225437
    41  H    5.337868   4.173305   4.743636   4.602559   4.553500
    42  H    2.288382   2.881152   8.928944   8.568310   8.654113
    43  H    5.978766   5.079040   5.581121   4.660414   4.901511
    44  H    6.557357   5.969365   5.792364   4.763871   5.525206
                   36         37         38         39         40
    36  H    0.000000
    37  H    1.769851   0.000000
    38  H    1.784181   1.769484   0.000000
    39  H    6.329837   4.996641   6.470464   0.000000
    40  H    6.617610   5.669799   7.157710   1.778247   0.000000
    41  H    3.248225   1.965620   3.528465   3.099941   3.721151
    42  H    7.206529   5.851759   7.548759   2.331159   2.979984
    43  H    4.555524   3.993029   5.266577   2.934762   2.347642
    44  H    5.469170   4.638423   5.714926   2.476557   2.330827
                   41         42         43         44
    41  H    0.000000
    42  H    4.213189   0.000000
    43  H    2.349424   4.433807   0.000000
    44  H    2.933160   4.609641   1.614802   0.000000
 Stoichiometry    C13H26N3O2(1+)
 Framework group  C1[X(C13H26N3O2)]
 Deg. of freedom   126
 Full point group                 C1      NOp   1
 Largest Abelian subgroup         C1      NOp   1
 Largest concise Abelian subgroup C1      NOp   1
                         Standard orientation:                         
 ---------------------------------------------------------------------
 Center     Atomic      Atomic             Coordinates (Angstroms)
 Number     Number       Type             X           Y           Z
 ---------------------------------------------------------------------
      1          6           0        3.126057    0.095177   -0.300265
      2          6           0       -1.106565    1.528934   -0.572166
      3          6           0       -2.811893   -2.931484    0.414749
      4          6           0       -2.042871   -2.350645    1.595061
      5          6           0       -1.965027   -2.933912   -0.852128
      6          6           0       -1.501294   -0.956687    1.282146
      7          6           0       -1.419360   -1.542257   -1.172328
      8          6           0       -0.629723   -0.948252    0.011565
      9          6           0        4.904420   -0.534670    1.290338
     10          6           0       -2.604163    3.354933    0.109979
     11          6           0       -1.095351    2.413451    1.807900
     12          6           0        2.153243   -0.426684   -1.362213
     13          6           0       -0.020165    0.452189   -0.269770
     14          7           0        3.935505   -0.859679    0.273241
     15          7           0       -1.577186    2.369578    0.430391
     16          7           0        0.917389    0.400056   -1.461147
     17          8           0        3.170654    1.286107    0.021708
     18          8           0       -1.518659    1.642072   -1.739143
     19          1           0       -3.130752   -3.953500    0.648200
     20          1           0       -3.721960   -2.342938    0.245431
     21          1           0       -2.697029   -2.302281    2.472959
     22          1           0       -1.210378   -3.016509    1.853755
     23          1           0       -1.129003   -3.634038   -0.732334
     24          1           0       -2.565135   -3.295701   -1.694761
     25          1           0       -2.348990   -0.271249    1.167938
     26          1           0       -0.913362   -0.610730    2.139546
     27          1           0       -0.784592   -1.621556   -2.061010
     28          1           0       -2.259537   -0.888308   -1.433462
     29          1           0        0.204626   -1.631878    0.218253
     30          1           0        5.695033    0.074635    0.844600
     31          1           0        5.324502   -1.462484    1.684901
     32          1           0        4.419065    0.028619    2.091888
     33          1           0       -3.444959    3.223980    0.797795
     34          1           0       -2.972808    3.257028   -0.913887
     35          1           0       -2.180506    4.355473    0.238384
     36          1           0       -0.656994    3.399496    1.989270
     37          1           0       -0.347656    1.657431    2.032735
     38          1           0       -1.946976    2.268638    2.479583
     39          1           0        1.866571   -1.464545   -1.179254
     40          1           0        2.647301   -0.363363   -2.336846
     41          1           0        0.607788    0.770070    0.561892
     42          1           0        3.871785   -1.823735   -0.045939
     43          1           0        1.226222    1.364553   -1.625326
     44          1           0        0.377973    0.167206   -2.299431
 ---------------------------------------------------------------------
 Rotational constants (GHZ):      0.4307164      0.2833749      0.2165634
 Standard basis: 6-31G(d) (6D, 7F)
 There are   322 symmetry adapted basis functions of A   symmetry.
 Integral buffers will be    131072 words long.
 Raffenetti 2 integral format.
 Two-electron integral symmetry is turned on.
   322 basis functions,   608 primitive gaussians,   322 cartesian basis functions
    70 alpha electrons       70 beta electrons
       nuclear repulsion energy      1470.9181455931 Hartrees.
 NAtoms=   44 NActive=   44 NUniq=   44 SFac= 1.00D+00 NAtFMM=   60 NAOKFM=F Big=F
 One-electron integrals computed using PRISM.
 NBasis=   322 RedAO= T  NBF=   322
 NBsUse=   322 1.00D-06 NBFU=   322
 Harris functional with IExCor=  402 diagonalized for initial guess.
 ExpMin= 1.61D-01 ExpMax= 5.48D+03 ExpMxC= 8.25D+02 IAcc=3 IRadAn=         5 AccDes= 0.00D+00
 HarFok:  IExCor=  402 AccDes= 0.00D+00 IRadAn=         5 IDoV= 1
 ScaDFX=  1.000000  1.000000  1.000000  1.000000
 FoFCou: FMM=F IPFlag=           0 FMFlag=      100000 FMFlg1=           0
         NFxFlg=           0 DoJE=T BraDBF=F KetDBF=T FulRan=T
         Omega=  0.000000  0.000000  1.000000  0.000000  0.000000 ICntrl=     500 IOpCl=  0
         NMat0=    1 NMatS0=    1 NMatT0=    0 NMatD0=    1 NMtDS0=    0 NMtDT0=    0
         I1Cent=           4 NGrid=           0.
 Petite list used in FoFCou.
 Initial guess orbital symmetries:
       Occupied  (A) (A) (A) (A) (A) (A) (A) (A) (A) (A) (A) (A)
                 (A) (A) (A) (A) (A) (A) (A) (A) (A) (A) (A) (A)
                 (A) (A) (A) (A) (A) (A) (A) (A) (A) (A) (A) (A)
                 (A) (A) (A) (A) (A) (A) (A) (A) (A) (A) (A) (A)
                 (A) (A) (A) (A) (A) (A) (A) (A) (A) (A) (A) (A)
                 (A) (A) (A) (A) (A) (A) (A) (A) (A) (A)
       Virtual   (A) (A) (A) (A) (A) (A) (A) (A) (A) (A) (A) (A)
                 (A) (A) (A) (A) (A) (A) (A) (A) (A) (A) (A) (A)
                 (A) (A) (A) (A) (A) (A) (A) (A) (A) (A) (A) (A)
                 (A) (A) (A) (A) (A) (A) (A) (A) (A) (A) (A) (A)
                 (A) (A) (A) (A) (A) (A) (A) (A) (A) (A) (A) (A)
                 (A) (A) (A) (A) (A) (A) (A) (A) (A) (A) (A) (A)
                 (A) (A) (A) (A) (A) (A) (A) (A) (A) (A) (A) (A)
                 (A) (A) (A) (A) (A) (A) (A) (A) (A) (A) (A) (A)
                 (A) (A) (A) (A) (A) (A) (A) (A) (A) (A) (A) (A)
                 (A) (A) (A) (A) (A) (A) (A) (A) (A) (A) (A) (A)
                 (A) (A) (A) (A) (A) (A) (A) (A) (A) (A) (A) (A)
                 (A) (A) (A) (A) (A) (A) (A) (A) (A) (A) (A) (A)
                 (A) (A) (A) (A) (A) (A) (A) (A) (A) (A) (A) (A)
                 (A) (A) (A) (A) (A) (A) (A) (A) (A) (A) (A) (A)
                 (A) (A) (A) (A) (A) (A) (A) (A) (A) (A) (A) (A)
                 (A) (A) (A) (A) (A) (A) (A) (A) (A) (A) (A) (A)
                 (A) (A) (A) (A) (A) (A) (A) (A) (A) (A) (A) (A)
                 (A) (A) (A) (A) (A) (A) (A) (A) (A) (A) (A) (A)
                 (A) (A) (A) (A) (A) (A) (A) (A) (A) (A) (A) (A)
                 (A) (A) (A) (A) (A) (A) (A) (A) (A) (A) (A) (A)
                 (A) (A) (A) (A) (A) (A) (A) (A) (A) (A) (A) (A)
 The electronic state of the initial guess is 1-A.
 Requested convergence on RMS density matrix=1.00D-08 within 128 cycles.
 Requested convergence on MAX density matrix=1.00D-06.
 Requested convergence on             energy=1.00D-06.
 No special actions if energy rises.
 Integral accuracy reduced to 1.0D-05 until final iterations.
 Initial convergence to 1.0D-05 achieved.  Increase integral accuracy.
 SCF Done:  E(RB3LYP) =  -825.549344902     A.U. after   15 cycles
             Convg  =    0.3749D-08             -V/T =  2.0098
 Calling FoFJK, ICntrl=      2127 FMM=F ISym2X=0 I1Cent= 0 IOpClX= 0 NMat=1 NMatS=1 NMatT=0.
 ***** Axes restored to original set *****
 -------------------------------------------------------------------
 Center     Atomic                   Forces (Hartrees/Bohr)
 Number     Number              X              Y              Z
 -------------------------------------------------------------------
      1        6           0.007658616    0.019189357   -0.023418420
      2        6           0.003446107   -0.029372642   -0.007037077
      3        6          -0.004616907    0.001997600    0.000847895
      4        6          -0.002840771    0.001657381   -0.000364740
      5        6          -0.001870144    0.002042318    0.003003041
      6        6           0.002180683   -0.000357895   -0.006254059
      7        6           0.000286071   -0.004307426    0.000492282
      8        6          -0.003499499    0.000538488    0.002853353
      9        6           0.007593563    0.000748892   -0.004380657
     10        6          -0.001047346   -0.004097920    0.000073010
     11        6          -0.000344792   -0.006338421   -0.000513008
     12        6          -0.001399775    0.010211548    0.007653342
     13        6          -0.015035594   -0.000680673   -0.012910742
     14        7          -0.016949128   -0.024992065    0.021919103
     15        7           0.004903989    0.027746258    0.029214679
     16        7           0.010472111   -0.014187761   -0.007176520
     17        8          -0.011083773   -0.000100110    0.014198716
     18        8           0.002915648    0.019784638   -0.003995045
     19        1          -0.001023283   -0.001093998    0.000215376
     20        1          -0.000978830   -0.001191294    0.000099957
     21        1           0.001483819    0.000798960   -0.001377716
     22        1           0.000113022    0.001757457   -0.000515087
     23        1          -0.000068329    0.002029640    0.000791080
     24        1           0.001889021    0.000516686    0.000933657
     25        1           0.001622671   -0.001701182    0.000326731
     26        1           0.001247244   -0.001369283   -0.001576427
     27        1           0.002510277   -0.001521612    0.003401432
     28        1           0.002919464   -0.000816929   -0.000455484
     29        1           0.002163434    0.001630322   -0.000939053
     30        1           0.002077887    0.002538605   -0.004710345
     31        1           0.000779926   -0.001233187   -0.000722970
     32        1           0.001755347    0.001272679   -0.000971233
     33        1           0.000071148   -0.001397790   -0.001885606
     34        1           0.001790426    0.006539747   -0.000384586
     35        1          -0.000392670   -0.002516461   -0.001639084
     36        1          -0.000134853    0.000523790   -0.003562208
     37        1          -0.000218353   -0.000009055    0.002005943
     38        1           0.000399204    0.001340652   -0.002972948
     39        1           0.000659800   -0.001563212    0.001154181
     40        1          -0.001307700   -0.000301609    0.001882978
     41        1           0.001255630    0.002281794    0.001336220
     42        1           0.002173029   -0.003456658   -0.003537583
     43        1           0.003743768   -0.001011324   -0.003279837
     44        1          -0.005300159   -0.001528303    0.002177457
 -------------------------------------------------------------------
 Cartesian Forces:  Max     0.029372642 RMS     0.007376704

 GradGradGradGradGradGradGradGradGradGradGradGradGradGradGradGradGradGrad
 Berny optimization.
 Internal  Forces:  Max     0.027984219 RMS     0.004780650
 Search for a local minimum.
 Step number   1 out of a maximum of  257
 All quantities printed in internal units (Hartrees-Bohrs-Radians)
 Mixed Optimization -- RFO/linear search
 Second derivative matrix not updated -- first step.
 ITU=  0
     Eigenvalues ---    0.00230   0.00230   0.00230   0.00345   0.00491
     Eigenvalues ---    0.00499   0.00554   0.00681   0.00885   0.00898
     Eigenvalues ---    0.00913   0.01010   0.01138   0.01164   0.01487
     Eigenvalues ---    0.01818   0.01881   0.01889   0.01997   0.02887
     Eigenvalues ---    0.03304   0.03714   0.03936   0.03949   0.04133
     Eigenvalues ---    0.04220   0.04407   0.04528   0.04717   0.04778
     Eigenvalues ---    0.04863   0.04915   0.05472   0.05603   0.05621
     Eigenvalues ---    0.05727   0.06003   0.06485   0.07164   0.07308
     Eigenvalues ---    0.07719   0.07740   0.07781   0.07853   0.08156
     Eigenvalues ---    0.08177   0.08181   0.08184   0.08211   0.08316
     Eigenvalues ---    0.08667   0.09132   0.09415   0.12089   0.12119
     Eigenvalues ---    0.12768   0.12998   0.14249   0.15995   0.16000
     Eigenvalues ---    0.16000   0.16000   0.16000   0.16000   0.16000
     Eigenvalues ---    0.16000   0.16000   0.16000   0.16067   0.16348
     Eigenvalues ---    0.17534   0.17832   0.20953   0.21945   0.22001
     Eigenvalues ---    0.22035   0.24966   0.24982   0.24991   0.24999
     Eigenvalues ---    0.25000   0.25000   0.26884   0.27322   0.27394
     Eigenvalues ---    0.27451   0.28212   0.29257   0.29475   0.29537
     Eigenvalues ---    0.29583   0.30663   0.33430   0.33874   0.34013
     Eigenvalues ---    0.34019   0.34023   0.34102   0.34116   0.34137
     Eigenvalues ---    0.34141   0.34155   0.34166   0.34244   0.34293
     Eigenvalues ---    0.34325   0.34328   0.34337   0.34343   0.34432
     Eigenvalues ---    0.34450   0.34513   0.34555   0.34564   0.34869
     Eigenvalues ---    0.35183   0.36963   0.37108   0.39334   0.43401
     Eigenvalues ---    0.43757   0.44737   0.47245   0.49673   0.85970
     Eigenvalues ---    0.89240
 RFO step:  Lambda=-2.16183971D-02 EMin= 2.30000000D-03
 Linear search not attempted -- first point.
 Iteration  1 RMS(Cart)=  0.10041507 RMS(Int)=  0.00249682
 Iteration  2 RMS(Cart)=  0.00653895 RMS(Int)=  0.00033293
 Iteration  3 RMS(Cart)=  0.00000943 RMS(Int)=  0.00033288
 Iteration  4 RMS(Cart)=  0.00000001 RMS(Int)=  0.00033288
 Variable       Old X    -DE/DX   Delta X   Delta X   Delta X     New X
                                 (Linear)    (Quad)   (Total)
    R1        2.89470  -0.00380   0.00000  -0.01208  -0.01208   2.88262
    R2        2.60197  -0.02583   0.00000  -0.04983  -0.04983   2.55214
    R3        2.33285  -0.01402   0.00000  -0.01534  -0.01534   2.31751
    R4        2.94645  -0.01485   0.00000  -0.05112  -0.05112   2.89533
    R5        2.62753  -0.02798   0.00000  -0.05664  -0.05664   2.57089
    R6        2.34848  -0.01447   0.00000  -0.01642  -0.01642   2.33206
    R7        2.87953   0.00639   0.00000   0.02107   0.02106   2.90058
    R8        2.87969   0.00616   0.00000   0.01985   0.01984   2.89953
    R9        2.07069   0.00016   0.00000   0.00043   0.00043   2.07112
   R10        2.07292   0.00146   0.00000   0.00404   0.00404   2.07696
   R11        2.88723   0.00583   0.00000   0.01850   0.01850   2.90573
   R12        2.07093  -0.00009   0.00000  -0.00025  -0.00025   2.07068
   R13        2.07297   0.00172   0.00000   0.00474   0.00474   2.07772
   R14        2.88886   0.00603   0.00000   0.01887   0.01887   2.90773
   R15        2.07308   0.00202   0.00000   0.00559   0.00559   2.07867
   R16        2.07100  -0.00015   0.00000  -0.00042  -0.00042   2.07058
   R17        2.91170   0.00201   0.00000   0.00584   0.00585   2.91755
   R18        2.07135   0.00108   0.00000   0.00297   0.00297   2.07432
   R19        2.07051   0.00140   0.00000   0.00386   0.00386   2.07437
   R20        2.91408   0.00275   0.00000   0.00777   0.00778   2.92186
   R21        2.06921   0.00402   0.00000   0.01103   0.01103   2.08024
   R22        2.07159   0.00000   0.00000   0.00001   0.00001   2.07160
   R23        2.93483  -0.00060   0.00000  -0.00203  -0.00203   2.93280
   R24        2.07543   0.00208   0.00000   0.00576   0.00576   2.08120
   R25        2.72469   0.01551   0.00000   0.03739   0.03739   2.76208
   R26        2.06578   0.00114   0.00000   0.00310   0.00310   2.06888
   R27        2.06403  -0.00138   0.00000  -0.00375  -0.00375   2.06028
   R28        2.06607  -0.00019   0.00000  -0.00051  -0.00051   2.06557
   R29        2.75684   0.00161   0.00000   0.00410   0.00410   2.76095
   R30        2.06766   0.00106   0.00000   0.00291   0.00291   2.07057
   R31        2.06473  -0.00333   0.00000  -0.00907  -0.00907   2.05566
   R32        2.06755   0.00162   0.00000   0.00444   0.00444   2.07199
   R33        2.75901   0.00228   0.00000   0.00582   0.00582   2.76483
   R34        2.06779   0.00162   0.00000   0.00445   0.00445   2.07224
   R35        2.05378   0.00013   0.00000   0.00034   0.00034   2.05412
   R36        2.06784   0.00089   0.00000   0.00244   0.00244   2.07028
   R37        2.81602   0.00033   0.00000   0.00094   0.00094   2.81696
   R38        2.06388  -0.00117   0.00000  -0.00318  -0.00318   2.06070
   R39        2.06838   0.00064   0.00000   0.00177   0.00177   2.07014
   R40        2.86660  -0.00048   0.00000  -0.00147  -0.00147   2.86513
   R41        2.05888   0.00024   0.00000   0.00064   0.00064   2.05952
   R42        1.92283  -0.00538   0.00000  -0.01148  -0.01148   1.91135
   R43        1.93878   0.00431   0.00000   0.00945   0.00945   1.94823
   R44        1.93446   0.00424   0.00000   0.00924   0.00924   1.94370
    A1        2.01069   0.00322   0.00000   0.01192   0.01178   2.02247
    A2        2.13225  -0.01468   0.00000  -0.05398  -0.05411   2.07814
    A3        2.14021   0.01147   0.00000   0.04231   0.04215   2.18236
    A4        2.11007  -0.00112   0.00000  -0.00405  -0.00407   2.10600
    A5        2.06693  -0.01629   0.00000  -0.05991  -0.05993   2.00700
    A6        2.10574   0.01742   0.00000   0.06425   0.06424   2.16999
    A7        1.94347  -0.00062   0.00000  -0.00042  -0.00044   1.94303
    A8        1.91491   0.00070   0.00000   0.00635   0.00634   1.92125
    A9        1.91107   0.00009   0.00000  -0.00119  -0.00118   1.90989
   A10        1.91490   0.00033   0.00000   0.00412   0.00411   1.91901
   A11        1.91091   0.00013   0.00000  -0.00214  -0.00214   1.90877
   A12        1.86700  -0.00063   0.00000  -0.00701  -0.00701   1.85999
   A13        1.94768   0.00052   0.00000   0.00394   0.00394   1.95163
   A14        1.91355   0.00131   0.00000   0.01189   0.01191   1.92546
   A15        1.91165  -0.00025   0.00000   0.00031   0.00032   1.91197
   A16        1.91282  -0.00135   0.00000  -0.00931  -0.00935   1.90347
   A17        1.91038   0.00013   0.00000  -0.00058  -0.00060   1.90978
   A18        1.86594  -0.00040   0.00000  -0.00673  -0.00676   1.85917
   A19        1.95093  -0.00004   0.00000  -0.00022  -0.00023   1.95071
   A20        1.91108  -0.00034   0.00000  -0.00144  -0.00143   1.90964
   A21        1.91286   0.00142   0.00000   0.01257   0.01258   1.92544
   A22        1.90904   0.00058   0.00000   0.00381   0.00381   1.91286
   A23        1.91233  -0.00113   0.00000  -0.00846  -0.00846   1.90387
   A24        1.86563  -0.00050   0.00000  -0.00656  -0.00657   1.85906
   A25        1.95454  -0.00198   0.00000  -0.01029  -0.01025   1.94428
   A26        1.89414   0.00190   0.00000   0.01162   0.01150   1.90564
   A27        1.89443   0.00143   0.00000   0.01505   0.01502   1.90945
   A28        1.92636  -0.00094   0.00000  -0.01244  -0.01242   1.91394
   A29        1.91775   0.00045   0.00000   0.00245   0.00248   1.92023
   A30        1.87452  -0.00076   0.00000  -0.00571  -0.00583   1.86869
   A31        1.95264  -0.00171   0.00000  -0.00849  -0.00844   1.94421
   A32        1.88703   0.00048   0.00000   0.00606   0.00604   1.89308
   A33        1.89587   0.00260   0.00000   0.01986   0.01982   1.91569
   A34        1.93279   0.00095   0.00000   0.00549   0.00550   1.93829
   A35        1.92362  -0.00104   0.00000  -0.01026  -0.01022   1.91340
   A36        1.86938  -0.00120   0.00000  -0.01226  -0.01233   1.85705
   A37        1.91912   0.00340   0.00000   0.01520   0.01516   1.93428
   A38        1.95663  -0.00175   0.00000  -0.00900  -0.00898   1.94765
   A39        1.84536  -0.00029   0.00000   0.00215   0.00198   1.84734
   A40        1.99244  -0.00181   0.00000  -0.00839  -0.00834   1.98409
   A41        1.86891   0.00033   0.00000   0.00928   0.00918   1.87809
   A42        1.87257   0.00022   0.00000  -0.00829  -0.00827   1.86430
   A43        1.90077   0.00797   0.00000   0.04583   0.04558   1.94635
   A44        1.89843  -0.00063   0.00000  -0.00476  -0.00482   1.89361
   A45        1.91238   0.00193   0.00000   0.00998   0.00976   1.92215
   A46        1.92049  -0.00319   0.00000  -0.01619  -0.01629   1.90420
   A47        1.91010  -0.00421   0.00000  -0.02060  -0.02099   1.88911
   A48        1.92149  -0.00171   0.00000  -0.01334  -0.01334   1.90815
   A49        1.89869   0.00289   0.00000   0.01695   0.01684   1.91553
   A50        1.96363  -0.00969   0.00000  -0.05510  -0.05494   1.90869
   A51        1.89580   0.00446   0.00000   0.02519   0.02514   1.92094
   A52        1.89556   0.00299   0.00000   0.01512   0.01522   1.91077
   A53        1.91052  -0.00254   0.00000  -0.01025  -0.01056   1.89997
   A54        1.89924   0.00191   0.00000   0.00840   0.00862   1.90786
   A55        1.89196   0.00449   0.00000   0.02606   0.02594   1.91790
   A56        1.98376  -0.00463   0.00000  -0.02696  -0.02681   1.95695
   A57        1.89475   0.00447   0.00000   0.02470   0.02456   1.91931
   A58        1.89332  -0.00026   0.00000  -0.00173  -0.00158   1.89174
   A59        1.90635  -0.00338   0.00000  -0.01545  -0.01587   1.89048
   A60        1.89271  -0.00080   0.00000  -0.00694  -0.00680   1.88591
   A61        1.96460  -0.02321   0.00000  -0.10016  -0.09999   1.86461
   A62        1.95444   0.00820   0.00000   0.04062   0.04060   1.99504
   A63        1.88698   0.00714   0.00000   0.02753   0.02605   1.91304
   A64        1.89721   0.00742   0.00000   0.02936   0.03011   1.92732
   A65        1.85786   0.00421   0.00000   0.00301   0.00289   1.86075
   A66        1.89930  -0.00360   0.00000   0.00003  -0.00092   1.89838
   A67        1.96533   0.00746   0.00000   0.02725   0.02485   1.99018
   A68        1.87765  -0.01822   0.00000  -0.12111  -0.12046   1.75718
   A69        1.92639   0.00462   0.00000   0.04842   0.04758   1.97398
   A70        1.93250   0.00657   0.00000   0.01043   0.00978   1.94228
   A71        1.92947  -0.00426   0.00000   0.01204   0.01050   1.93997
   A72        1.82690   0.00322   0.00000   0.01909   0.02006   1.84696
   A73        2.13241  -0.00372   0.00000  -0.01553  -0.01561   2.11680
   A74        2.08240   0.00146   0.00000   0.00529   0.00522   2.08761
   A75        2.06795   0.00224   0.00000   0.00962   0.00954   2.07749
   A76        2.08090  -0.00505   0.00000  -0.01869  -0.01869   2.06221
   A77        2.19785   0.00631   0.00000   0.02317   0.02317   2.22102
   A78        2.00341  -0.00126   0.00000  -0.00472  -0.00472   1.99869
   A79        2.07088  -0.00085   0.00000  -0.00766  -0.00778   2.06311
   A80        1.85723   0.00005   0.00000   0.00625   0.00623   1.86346
   A81        1.94462   0.00182   0.00000   0.00628   0.00592   1.95055
   A82        1.85399   0.00067   0.00000   0.00644   0.00653   1.86052
   A83        1.90211  -0.00253   0.00000  -0.02531  -0.02537   1.87674
   A84        1.81462   0.00119   0.00000   0.01949   0.01949   1.83411
    D1        2.64985   0.00229   0.00000   0.06500   0.06449   2.71434
    D2        0.50604   0.00370   0.00000   0.07065   0.07089   0.57693
    D3       -1.58619  -0.00151   0.00000   0.02788   0.02699  -1.55920
    D4       -0.48309   0.00127   0.00000   0.03437   0.03463  -0.44846
    D5       -2.62691   0.00267   0.00000   0.04002   0.04103  -2.58588
    D6        1.56405  -0.00253   0.00000  -0.00276  -0.00288   1.56118
    D7       -3.13992  -0.00202   0.00000  -0.05454  -0.05507   3.08820
    D8        0.03355  -0.00118   0.00000  -0.03156  -0.03212   0.00143
    D9       -0.00702  -0.00114   0.00000  -0.02429  -0.02373  -0.03075
   D10       -3.11673  -0.00030   0.00000  -0.00131  -0.00078  -3.11751
   D11        1.67746   0.00051   0.00000   0.02768   0.02820   1.70567
   D12       -2.47157   0.00090   0.00000  -0.02572  -0.02476  -2.49634
   D13       -0.48802  -0.00286   0.00000  -0.04444  -0.04546  -0.53348
   D14       -1.49568   0.00107   0.00000   0.03923   0.03944  -1.45623
   D15        0.63847   0.00147   0.00000  -0.01416  -0.01352   0.62495
   D16        2.62202  -0.00229   0.00000  -0.03289  -0.03421   2.58780
   D17       -3.13063   0.00034   0.00000   0.01375   0.01395  -3.11667
   D18        0.06217   0.00058   0.00000   0.01979   0.02002   0.08219
   D19        0.04322   0.00038   0.00000   0.00422   0.00399   0.04721
   D20       -3.04717   0.00062   0.00000   0.01025   0.01005  -3.03712
   D21        0.95556   0.00011   0.00000  -0.00240  -0.00242   0.95314
   D22        3.07817  -0.00035   0.00000  -0.00341  -0.00340   3.07477
   D23       -1.16267  -0.00022   0.00000  -0.00446  -0.00447  -1.16715
   D24        3.07892   0.00060   0.00000   0.00684   0.00684   3.08576
   D25       -1.08166   0.00014   0.00000   0.00584   0.00586  -1.07580
   D26        0.96069   0.00026   0.00000   0.00478   0.00478   0.96547
   D27       -1.16019   0.00029   0.00000   0.00135   0.00134  -1.15885
   D28        0.96242  -0.00017   0.00000   0.00035   0.00036   0.96278
   D29        3.00476  -0.00004   0.00000  -0.00071  -0.00072   3.00405
   D30       -0.95436   0.00001   0.00000   0.00198   0.00199  -0.95238
   D31        1.16392   0.00048   0.00000   0.00567   0.00567   1.16959
   D32       -3.07803   0.00050   0.00000   0.00417   0.00417  -3.07386
   D33       -3.07773  -0.00069   0.00000  -0.00856  -0.00856  -3.08629
   D34       -0.95944  -0.00022   0.00000  -0.00487  -0.00488  -0.96432
   D35        1.08179  -0.00021   0.00000  -0.00637  -0.00638   1.07541
   D36        1.16148  -0.00019   0.00000  -0.00121  -0.00121   1.16027
   D37       -3.00342   0.00028   0.00000   0.00247   0.00247  -3.00095
   D38       -0.96219   0.00029   0.00000   0.00098   0.00097  -0.96121
   D39       -0.96778   0.00071   0.00000   0.00611   0.00611  -0.96167
   D40        1.16308  -0.00045   0.00000  -0.00824  -0.00831   1.15477
   D41       -3.08803   0.00045   0.00000  -0.00058  -0.00055  -3.08858
   D42       -3.09081  -0.00037   0.00000  -0.00515  -0.00511  -3.09593
   D43       -0.95995  -0.00153   0.00000  -0.01950  -0.01954  -0.97949
   D44        1.07212  -0.00063   0.00000  -0.01184  -0.01178   1.06034
   D45        1.15119   0.00083   0.00000   0.00870   0.00869   1.15988
   D46       -3.00114  -0.00034   0.00000  -0.00566  -0.00573  -3.00687
   D47       -0.96906   0.00056   0.00000   0.00200   0.00203  -0.96703
   D48        0.96234  -0.00052   0.00000  -0.00189  -0.00190   0.96044
   D49        3.09520  -0.00009   0.00000   0.00369   0.00368   3.09887
   D50       -1.16503   0.00012   0.00000   0.00294   0.00298  -1.16206
   D51       -1.15712  -0.00046   0.00000  -0.00254  -0.00255  -1.15967
   D52        0.97573  -0.00003   0.00000   0.00304   0.00303   0.97876
   D53        2.99869   0.00018   0.00000   0.00229   0.00233   3.00101
   D54        3.08631   0.00047   0.00000   0.00804   0.00802   3.09433
   D55       -1.06402   0.00089   0.00000   0.01362   0.01359  -1.05042
   D56        0.95894   0.00111   0.00000   0.01287   0.01290   0.97183
   D57        0.95490   0.00094   0.00000   0.00443   0.00449   0.95939
   D58       -3.09198  -0.00012   0.00000  -0.00158  -0.00156  -3.09355
   D59       -1.05700  -0.00094   0.00000  -0.01490  -0.01487  -1.07187
   D60       -1.15744   0.00051   0.00000   0.00524   0.00524  -1.15219
   D61        1.07886  -0.00055   0.00000  -0.00077  -0.00081   1.07805
   D62        3.11385  -0.00137   0.00000  -0.01408  -0.01412   3.09973
   D63        3.06168   0.00175   0.00000   0.01834   0.01837   3.08005
   D64       -0.98521   0.00069   0.00000   0.01233   0.01231  -0.97289
   D65        1.04978  -0.00013   0.00000  -0.00098  -0.00100   1.04878
   D66       -0.95080  -0.00129   0.00000  -0.00824  -0.00830  -0.95910
   D67        3.11597  -0.00033   0.00000  -0.00211  -0.00213   3.11385
   D68        1.04612   0.00025   0.00000   0.00692   0.00695   1.05308
   D69       -3.05726  -0.00140   0.00000  -0.01400  -0.01405  -3.07131
   D70        1.00951  -0.00043   0.00000  -0.00787  -0.00787   1.00164
   D71       -1.06034   0.00015   0.00000   0.00115   0.00121  -1.05913
   D72        1.16057   0.00015   0.00000   0.00420   0.00416   1.16472
   D73       -1.05584   0.00111   0.00000   0.01032   0.01033  -1.04551
   D74       -3.12570   0.00169   0.00000   0.01935   0.01941  -3.10628
   D75       -1.11683  -0.00820   0.00000  -0.07609  -0.07643  -1.19327
   D76        3.06344   0.00541   0.00000   0.05306   0.05350   3.11694
   D77        1.04695   0.00009   0.00000   0.01628   0.01613   1.06309
   D78        1.08003  -0.00651   0.00000  -0.06979  -0.07010   1.00994
   D79       -1.02288   0.00710   0.00000   0.05937   0.05984  -0.96304
   D80       -3.03936   0.00178   0.00000   0.02259   0.02247  -3.01690
   D81       -3.13538  -0.00703   0.00000  -0.06884  -0.06916   3.07864
   D82        1.04490   0.00658   0.00000   0.06031   0.06077   1.10567
   D83       -0.97159   0.00126   0.00000   0.02353   0.02340  -0.94819
   D84       -1.18171   0.00026   0.00000   0.00922   0.00911  -1.17260
   D85        1.92825  -0.00058   0.00000  -0.01365  -0.01378   1.91448
   D86        3.00835  -0.00020   0.00000   0.00461   0.00458   3.01293
   D87       -0.16487  -0.00104   0.00000  -0.01826  -0.01831  -0.18318
   D88        0.90709   0.00111   0.00000   0.01780   0.01796   0.92505
   D89       -2.26613   0.00027   0.00000  -0.00507  -0.00493  -2.27105
   D90        2.19632  -0.00058   0.00000  -0.00382  -0.00404   2.19228
   D91       -0.99094  -0.00055   0.00000  -0.00834  -0.00846  -0.99940
   D92        0.09523  -0.00012   0.00000   0.00077   0.00067   0.09591
   D93       -3.09203  -0.00009   0.00000  -0.00374  -0.00375  -3.09578
   D94       -2.00851   0.00061   0.00000   0.00812   0.00829  -2.00022
   D95        1.08741   0.00063   0.00000   0.00361   0.00387   1.09128
   D96        2.03429  -0.00038   0.00000  -0.00133  -0.00160   2.03269
   D97       -1.05808  -0.00004   0.00000   0.00488   0.00468  -1.05340
   D98       -0.07223  -0.00024   0.00000  -0.00012  -0.00014  -0.07237
   D99        3.11858   0.00010   0.00000   0.00609   0.00613   3.12471
   D100      -2.17996   0.00062   0.00000   0.00875   0.00894  -2.17102
   D101       1.01085   0.00096   0.00000   0.01495   0.01521   1.02606
   D102      -1.12739  -0.00174   0.00000  -0.03273  -0.03241  -1.15980
   D103       0.95879  -0.00137   0.00000  -0.02428  -0.02397   0.93482
   D104       2.92575   0.00094   0.00000   0.00514   0.00556   2.93131
   D105       1.04819  -0.00190   0.00000  -0.02866  -0.02873   1.01947
   D106       3.13438  -0.00154   0.00000  -0.02021  -0.02029   3.11409
   D107      -1.18185   0.00078   0.00000   0.00921   0.00924  -1.17261
   D108       3.09145  -0.00013   0.00000  -0.01221  -0.01255   3.07890
   D109      -1.10555   0.00024   0.00000  -0.00377  -0.00412  -1.10967
   D110       0.86141   0.00255   0.00000   0.02565   0.02542   0.88682
   D111       3.00734  -0.00023   0.00000   0.04714   0.04660   3.05394
   D112       0.91947  -0.00028   0.00000   0.03878   0.03832   0.95779
   D113      -1.02603  -0.00084   0.00000   0.02462   0.02432  -1.00171
   D114      -1.12151   0.00109   0.00000   0.00727   0.00776  -1.11375
   D115       3.07381   0.00104   0.00000  -0.00109  -0.00052   3.07329
   D116       1.12832   0.00048   0.00000  -0.01525  -0.01452   1.11380
   D117       0.95799   0.00127   0.00000   0.03791   0.03764   0.99563
   D118      -1.12987   0.00122   0.00000   0.02955   0.02935  -1.10052
   D119      -3.07537   0.00065   0.00000   0.01539   0.01536  -3.06001
         Item               Value     Threshold  Converged?
 Maximum Force            0.027984     0.000450     NO 
 RMS     Force            0.004781     0.000300     NO 
 Maximum Displacement     0.392253     0.001800     NO 
 RMS     Displacement     0.103181     0.001200     NO 
 Predicted change in Energy=-1.235592D-02
 GradGradGradGradGradGradGradGradGradGradGradGradGradGradGradGradGradGrad

                          Input orientation:                          
 ---------------------------------------------------------------------
 Center     Atomic      Atomic             Coordinates (Angstroms)
 Number     Number       Type             X           Y           Z
 ---------------------------------------------------------------------
      1          6           0        5.661274   -1.519875   -2.458048
      2          6           0        3.094041   -4.944515   -2.731053
      3          6           0       -0.918006   -2.351230   -1.615290
      4          6           0       -0.336510   -1.909890   -2.965501
      5          6           0        0.142221   -2.299392   -0.507360
      6          6           0        0.912019   -2.723884   -3.343581
      7          6           0        1.393592   -3.115148   -0.876451
      8          6           0        1.982311   -2.662377   -2.232581
      9          6           0        6.582401    0.391225   -3.686708
     10          6           0        2.680648   -6.993535   -3.952490
     11          6           0        2.868769   -4.913146   -5.250900
     12          6           0        4.886074   -1.987666   -1.230394
     13          6           0        3.271324   -3.425483   -2.638450
     14          7           0        5.804747   -0.183550   -2.590695
     15          7           0        2.873506   -5.545441   -3.931506
     16          7           0        4.330004   -3.331573   -1.557194
     17          8           0        6.121101   -2.357189   -3.227108
     18          8           0        3.190132   -5.547019   -1.658353
     19          1           0       -1.770400   -1.716610   -1.347195
     20          1           0       -1.305225   -3.376222   -1.701483
     21          1           0       -1.087041   -2.017679   -3.756553
     22          1           0       -0.077841   -0.842106   -2.923282
     23          1           0        0.425604   -1.252980   -0.321139
     24          1           0       -0.270649   -2.682296    0.432579
     25          1           0        0.622260   -3.767852   -3.519863
     26          1           0        1.325623   -2.340872   -4.285496
     27          1           0        2.132540   -3.005051   -0.067980
     28          1           0        1.141112   -4.180947   -0.922010
     29          1           0        2.257236   -1.600090   -2.138381
     30          1           0        7.647279    0.156138   -3.589940
     31          1           0        6.453210    1.473695   -3.671946
     32          1           0        6.230874   -0.002060   -4.644056
     33          1           0        1.738163   -7.234303   -4.456775
[...]
 ,-0.00000927,-0.00000931,0.00533611,-0.00373346,-0.01677059,-0.0683891
 8,0.05746587,0.32054467,0.00057963,-0.00018076,-0.00034478,-0.00020946
 ,0.00392125,-0.00107447,0.00039079,-0.00005488,0.00018033,-0.00001579,
 0.00019053,-0.00019884,0.00040835,-0.00082961,0.00166267,0.00150805,-0
 .00037696,0.00154328,-0.00460598,0.00355576,-0.00054016,-0.00257896,-0
 .00864294,0.02660024,0.00003534,0.00000348,-0.00003535,-0.00013215,-0.
 00005781,-0.00012107,0.00010623,-0.00126809,-0.00013475,0.00030640,0.0
 0157587,-0.00006793,-0.04887344,-0.01157429,0.03007941,-0.00017918,0.0
 0004493,0.00008387,-0.00035245,-0.00026481,-0.00036227,-0.00725993,0.0
 0801102,-0.03438104,-0.00012562,0.00006194,0.00050570,0.00111694,-0.00
 000772,0.00014478,-0.00005696,0.00001167,-0.00013166,-0.00001459,-0.00
 001365,-0.00002185,0.00000535,0.00000080,-0.00005280,0.00001466,-0.000
 00295,0.00001566,-0.00002600,0.00008792,-0.00001705,-0.00057712,0.0003
 1057,0.00019456,-0.00005730,-0.00000077,-0.00013699,-0.00042346,0.0002
 3245,-0.00097562,0.00025880,0.00014018,0.00004708,0.00005317,-0.000110
 92,-0.00025667,0.00109112,0.00027071,-0.00077637,-0.00001541,-0.000001
 85,0.00000664,-0.00000586,-0.00000888,0.00000062,-0.00000314,0.0000030
 1,-0.00000458,0.00001092,-0.00005323,0.00001946,-0.00001164,0.00007001
 ,-0.00002138,0.00001345,-0.00000049,-0.00001462,-0.00002166,0.00012565
 ,-0.00005153,-0.00016773,-0.00139149,-0.00133535,-0.00006975,0.0001577
 5,-0.00002771,0.00023924,-0.00016213,0.00049325,-0.00002441,-0.0001724
 9,0.00005251,0.06269703,0.00000874,0.00008777,0.00006682,-0.00147030,0
 .00196307,0.03116026,-0.00006808,-0.00003339,-0.00006219,-0.00017635,-
 0.00017104,-0.00021956,0.00002285,0.00042621,-0.00067586,-0.00061576,0
 .00040789,0.00015764,0.00243234,-0.00062085,0.00011861,0.00233280,0.00
 450645,-0.01396567,-0.00000380,0.00000876,-0.00001202,0.00038707,-0.00
 020779,-0.00041560,0.00008541,-0.00172873,-0.00000364,0.00004448,0.001
 43738,-0.00057754,-0.00739100,-0.07847658,0.08298539,-0.00000280,-0.00
 005932,-0.00000544,-0.00004308,-0.00016235,-0.00149081,-0.00437295,0.0
 0337122,-0.01638010,0.00002795,-0.00014134,-0.00000833,0.00331361,-0.0
 0839479,0.00181245,0.00001566,0.00000441,0.00002384,0.00000902,0.00000
 664,0.00001086,-0.00007146,0.00003072,0.00006408,0.00003288,-0.0000302
 0,-0.00001434,-0.00004174,-0.00000807,0.00003058,0.00021641,-0.0001293
 0,-0.00008870,-0.00000973,-0.00005418,0.00011396,-0.00006047,0.0000972
 0,0.00020578,-0.00016981,-0.00009070,0.00022081,0.00018859,0.00009383,
 -0.00023779,-0.00075596,0.00072354,-0.00015127,-0.00000312,-0.00000019
 ,0.00000290,-0.00000013,-0.00000306,-0.00000118,0.00000086,0.00000322,
 -0.00000015,-0.00006984,0.00008456,-0.00005330,0.00008198,0.00030638,0
 .00002076,0.00003716,-0.00017114,0.00004595,-0.00007931,0.00012461,-0.
 00027441,-0.00172121,-0.00084600,-0.00222107,-0.00011865,0.00051651,-0
 .00022004,0.00022954,-0.00018226,0.00029728,0.00015295,-0.00012825,0.0
 0011411,0.00880354,0.07980134,-0.00004148,-0.00019230,-0.00003257,-0.0
 0096697,0.00130785,-0.00014687,-0.00018953,0.00001643,0.00000892,0.000
 15214,-0.00024566,0.00007725,-0.00039469,0.00053351,-0.00080004,-0.000
 93891,0.00021399,0.00066803,0.00218999,-0.00194351,0.00129752,0.002914
 90,0.00387427,-0.01308543,-0.00000986,0.00000640,-0.00001676,0.0001764
 9,-0.00003981,0.00007382,-0.00095382,-0.00106900,-0.00153238,-0.000153
 18,0.00067715,-0.00019885,0.02021275,0.07909751,-0.29298267,-0.0000283
 8,-0.00000528,0.00003998,0.00004018,0.00110502,-0.00023314,-0.00348459
 ,0.00366794,-0.01525866,-0.00014737,-0.00017807,0.00014337,0.00098000,
 -0.00028494,0.00133761,0.00004034,-0.00000457,0.00008309,0.00001262,0.
 00000591,0.00002531,-0.00003291,0.00000485,0.00004872,0.00000639,-0.00
 000818,-0.00001759,0.00001853,-0.00005314,-0.00000331,0.00028636,-0.00
 018917,-0.00008605,-0.00003772,-0.00004774,-0.00000027,0.00047611,0.00
 011177,0.00060855,-0.00014154,-0.00001137,0.00010589,-0.00002213,0.000
 09380,0.00006894,-0.00038036,-0.00023963,0.00054684,-0.00000004,0.0000
 0025,0.00000416,0.00000210,-0.00000619,-0.00000288,-0.00000162,0.00000
 205,-0.00000582,0.00005189,0.00003717,0.00001300,-0.00002435,-0.000044
 10,-0.00003764,0.00000704,-0.00000148,-0.00001388,-0.00000230,-0.00046
 066,0.00005336,-0.00134712,-0.00312827,-0.00082089,-0.00004089,-0.0000
 8649,0.00004564,0.00004568,-0.00059117,-0.00010854,0.00011022,-0.00016
 826,0.00010748,-0.01690810,-0.08073338,0.32001549,0.01369796,-0.006153
 57,-0.01169326,0.00004072,-0.00003929,0.00004072,-0.00000921,0.0000143
 4,-0.00000316,-0.00000242,-0.00002698,-0.00000319,-0.00000324,-0.00005
 744,0.00000651,-0.00001519,0.00002355,0.00001231,-0.00001748,0.0000186
 8,-0.00000557,-0.00001597,-0.00011760,-0.00002308,-0.01192132,0.020754
 57,0.01497705,0.00000834,-0.00000572,-0.00000021,0.00000687,-0.0000063
 9,0.00000239,-0.00066190,-0.00092690,-0.00102730,-0.00001103,0.0000647
 0,0.00004837,-0.19275683,0.12468366,0.13593668,-0.00001949,0.00001740,
 -0.00001140,-0.00073756,0.00083821,0.00039160,-0.00034747,-0.00672507,
 -0.00009504,-0.00004816,0.00005303,-0.00002332,-0.00000187,-0.00000385
 ,0.00000177,0.00000639,0.00000922,0.00000334,0.00000009,0.00000685,0.0
 0000387,-0.00000511,0.00001268,-0.00000342,-0.00001017,0.00002827,0.,-
 0.00000017,0.00000818,-0.00000124,0.00000932,0.00001089,0.00000146,0.0
 0000240,-0.00000649,0.00000236,0.00001064,-0.00001795,0.00000448,0.000
 01021,0.00001417,0.00000106,0.00000315,0.00003411,-0.00001641,0.000216
 70,0.00048404,-0.00061841,0.00077760,-0.00033259,0.00025912,-0.0051563
 9,-0.00302086,0.00032558,-0.00000268,0.00000161,-0.00000105,0.00000435
 ,-0.00000067,-0.00000132,0.00000128,0.00000339,0.00000435,-0.00000036,
 0.00000500,0.00000129,0.00000763,0.00000085,-0.00000286,-0.00000273,-0
 .00000416,-0.00000082,-0.00051108,-0.00027384,-0.00028525,-0.00021111,
 -0.00077897,0.00029608,0.00001465,-0.00000581,0.00000081,0.19630888,0.
 02491119,-0.01780202,-0.01345765,0.00002319,-0.00017077,-0.00014415,0.
 00000014,-0.00002604,-0.00001574,-0.00000406,0.00004342,0.00001926,-0.
 00001363,0.00005292,0.00002477,-0.00002096,-0.00000653,-0.00004980,-0.
 00006991,-0.00003132,-0.00004695,-0.00001284,-0.00001698,0.00003152,-0
 .00636280,0.01087051,0.00878765,0.00000330,-0.00004849,0.00003512,-0.0
 0002253,0.00001881,-0.00005789,-0.00018345,-0.00058260,-0.00029838,-0.
 00034453,0.00020080,-0.00013196,0.11983727,-0.19586348,-0.14614601,0.0
 0005312,0.00017089,0.00008761,0.00017449,0.00050868,0.00089458,-0.0058
 8320,-0.00169684,-0.00361949,0.00011093,0.00014268,0.00014213,0.000022
 13,-0.00000104,0.00000016,-0.00000357,0.00000027,0.00000497,0.00001932
 ,-0.00000383,0.00000052,-0.00000453,-0.00001211,-0.00000477,-0.0000056
 7,-0.00000673,0.00000272,0.00000800,-0.00000341,-0.00000791,0.00001374
 ,0.00000223,0.00000999,0.00000332,0.00000345,0.00001257,0.00004897,0.0
 0000310,0.00005685,0.00002191,0.00000803,0.00000356,-0.00003144,0.0000
 4155,-0.00001970,0.00014612,0.00009894,-0.00046220,0.00009641,0.000052
 99,0.00054062,-0.00311599,-0.00083533,0.00068131,0.00000580,0.00001314
 ,0.00000227,-0.00000435,-0.00001494,-0.00000278,-0.00000316,0.00001770
 ,0.00000120,-0.00000049,0.00000504,0.00001575,-0.00000298,0.00000200,-
 0.00001280,0.00000961,0.00000378,0.00000979,0.00002278,0.00003433,0.00
 011084,-0.00120006,-0.00016988,0.00067622,0.00004678,0.00000356,0.0000
 1187,-0.12895591,0.20487175,0.00511354,-0.00153082,-0.01240043,0.00004
 363,-0.00010999,0.00003340,0.00000933,-0.00000755,0.00001217,-0.000013
 28,-0.00000691,0.00001836,-0.00001704,0.00001528,-0.00001023,-0.000002
 59,0.00000916,-0.00002931,0.00005869,0.00001509,0.00005076,-0.00002143
 ,-0.00007782,0.00002950,0.00054462,-0.00110381,-0.00191181,0.00000189,
 -0.00003343,0.00001771,-0.00000217,-0.00001208,-0.00000149,-0.00101794
 ,0.00044818,-0.00003103,-0.00024836,0.00004296,-0.00006157,0.13349158,
 -0.14832192,-0.13716376,0.00000434,0.00007906,-0.00001482,0.00024757,0
 .00044111,-0.00061942,0.00021388,-0.00332303,0.00723951,0.00002803,0.0
 0015354,-0.00003998,0.00000417,-0.00000203,-0.00000630,-0.00000570,0.0
 0000289,-0.00000619,0.00000824,-0.00000065,-0.00000839,-0.00000156,0.0
 0000884,0.00000025,0.00000605,-0.00000887,0.00001915,0.00001937,0.0000
 0950,-0.00001971,0.00001106,0.00001148,0.00000511,-0.00000458,-0.00000
 626,-0.00002159,-0.00003051,-0.00000004,0.00000559,-0.00000306,0.00000
 207,-0.00001712,-0.00001577,0.00005351,0.00000068,-0.00038679,0.000374
 36,0.00032432,0.00013709,-0.00026403,-0.00028470,0.00015398,0.00063453
 ,0.00034404,0.00000177,0.00000735,0.00000340,-0.00000050,-0.00000648,0
 .00000007,0.00000092,0.00000766,0.00000287,-0.00000164,-0.00000362,0.0
 0000205,-0.00000792,0.00000756,-0.00000264,0.00000336,0.00000385,-0.00
 000109,-0.00083788,-0.00018903,-0.00021061,0.00048161,0.00010984,-0.00
 002773,0.00000905,-0.00001602,-0.00002668,-0.13825548,0.15265071,0.144
 40758,0.00943718,-0.02159422,-0.01284607,-0.00097147,-0.00277893,-0.00
 174797,0.00006026,-0.00017189,-0.00011232,-0.00013408,0.00006415,-0.00
 005959,-0.00011618,0.00037709,0.00005973,-0.00024158,0.00020620,0.0002
 3943,0.00040053,-0.00057048,-0.00033574,-0.00155704,-0.00110549,-0.002
 06788,-0.00118481,-0.00044546,0.00022215,0.00006341,-0.00053538,0.0003
 3305,-0.00011687,0.00011789,-0.00044357,0.00622485,0.01313684,0.000313
 22,-0.02178246,0.00185332,0.00850340,-0.00117739,0.00869313,0.00569145
 ,0.00041529,0.00141761,0.00069414,-0.21601501,0.05552012,0.11786420,-0
 .00506140,0.01465614,0.00488500,0.00115365,0.00198141,0.00114100,0.000
 11172,-0.00000617,0.00000456,-0.00003293,0.00001479,0.00001815,0.00006
 385,0.00002062,0.00003059,-0.00000304,-0.00003710,-0.00002747,0.000032
 04,-0.00008143,0.00002294,0.00012637,-0.00003201,-0.00009017,-0.000003
 79,-0.00001149,0.00002534,-0.00001647,0.00005058,-0.00001654,0.0001892
 2,0.00014778,0.00038626,-0.00002579,0.00000556,0.00005212,0.00024946,-
 0.00015666,-0.00011585,0.00023942,0.00003877,0.00000225,0.00014565,0.0
 0016371,-0.00004524,-0.00053136,-0.00036989,-0.00000223,0.00002544,0.0
 0014975,0.00003011,-0.00001199,-0.00014331,-0.00003974,-0.00000533,0.0
 0019967,0.00003862,0.00001571,0.00006010,0.00015714,-0.00010729,0.0000
 8775,-0.00017211,0.00007663,0.00008807,0.00010627,-0.00090808,-0.00080
 685,0.00030564,-0.00203682,-0.00269697,-0.00060995,0.00159714,0.001116
 52,0.00032126,0.00123241,0.00074095,0.00024493,0.22459025,0.00211097,-
 0.01652003,-0.01001489,-0.00327382,0.00052914,-0.00162168,0.00000489,0
 .00002995,-0.00000573,-0.00008221,-0.00006072,-0.00009274,-0.00002693,
 -0.00004378,-0.00002830,-0.00019575,0.00032996,0.00014801,0.00015389,0
 .00009334,-0.00000142,-0.00059141,-0.00054343,-0.00068538,-0.00058263,
 -0.00003232,0.00021383,-0.00004264,-0.00019718,0.00010280,-0.00019901,
 0.00022870,-0.00030513,0.02364630,-0.01802430,-0.02419850,-0.00748547,
 0.00177196,0.00542040,0.00058156,0.00369989,0.00151766,0.00043678,-0.0
 0005256,0.00030446,0.06069812,-0.07587811,-0.03885974,0.00484147,0.005
 56209,0.00413906,0.00237107,-0.00100096,0.00025134,-0.00000152,-0.0000
 0392,-0.00000697,-0.00000724,-0.00001250,0.00000565,-0.00003587,0.0000
 2078,0.00001795,0.00001450,-0.00001768,-0.00000806,0.00000651,-0.00001
 164,-0.00000261,0.00000216,0.00000799,0.00000361,-0.00002343,-0.000050
 05,0.00003294,-0.00000506,0.00002285,-0.00002114,-0.00011059,-0.000056
 54,-0.00008737,-0.00009730,-0.00003426,0.00004164,-0.00004897,-0.00006
 064,-0.00007809,0.00014077,0.00010328,0.00002967,0.00013692,0.00008684
 ,-0.00002908,-0.00033688,-0.00015853,0.00002452,0.00005414,0.00004076,
 0.00000923,-0.00004103,-0.00006152,0.00002025,-0.00003867,-0.00000864,
 -0.00003538,-0.00001407,-0.00005825,0.00004735,-0.00004014,-0.00001908
 ,0.00002887,0.00007126,0.00000875,0.00006826,0.00007260,-0.00156207,-0
 .00040421,-0.00070694,-0.00514669,0.00027228,0.00042577,0.00031991,0.0
 0029265,0.00033847,0.00033691,-0.00014800,-0.06463913,0.09889072,-0.00
 276262,0.00157450,0.00379397,0.00068633,0.00128354,0.00267033,0.000057
 61,0.00004753,-0.00008711,-0.00027210,-0.00036855,-0.00052942,0.000110
 31,-0.00003409,0.00011050,-0.00087270,0.00097762,0.00138514,-0.0000442
 6,0.00000101,-0.00043759,-0.00331576,-0.00329262,-0.00347719,0.0004305
 9,0.00011668,0.00011444,-0.00008897,0.00017673,-0.00009632,0.00009380,
 -0.00014808,0.00025934,0.00257017,-0.01131027,-0.00523391,-0.01565450,
 0.00744264,0.01455876,0.00094126,-0.00298607,-0.00123281,0.00003697,-0
 .00083091,-0.00098778,0.11548599,-0.03448061,-0.14674837,0.00007352,-0
 .00152163,-0.00869650,-0.00202844,-0.00031870,-0.00071116,-0.00002318,
 0.00000985,0.00004487,0.00001418,-0.00001363,0.00000345,-0.00022165,0.
 00011099,0.00010110,0.00000803,0.00004289,0.00002228,-0.00002315,0.000
 02765,-0.00001398,-0.00004309,0.00001581,0.00005272,-0.00000158,-0.000
 06908,-0.00000873,0.00004378,0.00003078,-0.00008313,0.00022424,-0.0000
 1458,0.00012802,0.00004466,0.00001392,0.00004196,0.00038677,0.00003494
 ,-0.00007379,0.00000061,-0.00003633,-0.00005220,-0.00007892,0.00000165
 ,0.00003487,0.00015227,0.00013117,0.00002214,-0.00001060,-0.00005183,-
 0.00001501,0.00000145,0.00007590,0.00001486,0.00000900,-0.00010703,-0.
 00001696,-0.00004412,-0.00010006,-0.00014480,-0.00014079,0.00005619,0.
 00005908,-0.00000804,0.00004931,-0.00008306,-0.00005308,0.00074791,-0.
 00014016,0.00088557,-0.00113633,0.00027312,-0.00088983,0.00063824,0.00
 002928,-0.00031774,-0.00041514,0.00017931,-0.12149966,0.05230265,0.162
 29743,-0.00004933,-0.00198179,0.00015023,-0.00326987,-0.00016445,-0.00
 809765,0.00009303,-0.00025006,-0.00027339,0.00003115,0.00001477,0.0000
 1827,0.00007130,0.00049618,0.00076301,-0.00036950,-0.00011589,0.000112
 69,-0.00094244,-0.00063878,-0.00086775,0.00044619,0.00056129,-0.000974
 15,-0.00011158,-0.00005783,0.00001572,0.00011055,-0.00023409,0.0001212
 7,0.00002347,0.00044656,-0.00062845,-0.00176723,-0.00076365,0.00140740
 ,-0.00376114,0.01338055,-0.03064090,-0.00019790,0.00033850,0.00006099,
 0.00110213,0.00092540,0.00155737,-0.05806199,0.01486317,-0.01681866,-0
 .00185939,0.00054839,-0.00119035,-0.00134211,0.00430250,0.00536214,0.0
 0014829,0.00000971,0.00011161,-0.00002303,0.00001516,0.00002036,0.0000
 2149,-0.00000241,0.00003442,-0.00000631,-0.00002865,-0.00000879,0.0000
 7367,-0.00013395,-0.00002096,0.00003084,0.00000343,-0.00005230,-0.0000
 3693,-0.00003138,-0.00001241,0.00018735,-0.00000736,0.00028059,0.00003
 677,0.00078105,0.00159795,-0.00022647,-0.00005644,0.00017050,0.0001155
 4,-0.00012478,0.00001940,0.00000712,-0.00004221,-0.00001301,0.00000754
 ,0.00002581,-0.00001621,-0.00000104,-0.00002336,0.00002183,0.00001927,
 0.00007551,0.00003457,-0.00000130,-0.00024991,0.00002150,-0.00000655,0
 .00008450,0.00009031,-0.00000358,-0.00005641,0.00012985,0.00005282,-0.
 00021516,0.00009608,0.00008146,-0.00011798,0.00018561,0.00019595,0.001
 15586,-0.00003172,0.00056328,-0.00001916,0.00015085,-0.00463928,-0.002
 28901,-0.00179795,0.00010937,-0.00007346,0.00003546,0.00559077,-0.0174
 8140,0.02613768,0.06755763,-0.00099978,-0.00318404,-0.00059202,-0.0111
 3661,0.00356324,-0.02048080,-0.00003763,0.00020487,0.00013379,-0.00015
 054,-0.00023284,-0.00012315,-0.00024464,-0.00051149,-0.00020510,-0.000
 00215,0.00055169,0.00038223,0.00089043,0.00101345,0.00066971,-0.000852
 24,-0.00101573,0.00011591,-0.00048304,-0.00004004,0.00004261,0.0000731
 7,-0.00103140,0.00018969,-0.00089339,0.00151834,-0.00109209,0.00130858
 ,-0.01799894,0.02051275,0.00751548,0.01005111,-0.00453219,0.00053160,0
 .00104460,0.00009993,0.00356576,0.00186165,0.00771293,0.01145254,-0.14
 273302,0.13663335,0.00194354,0.00173679,0.00050648,0.00889036,-0.00193
 532,0.01204040,-0.00007627,-0.00001688,-0.00004422,-0.00002959,-0.0000
 5361,0.00000052,-0.00010128,0.00005462,0.00001186,0.00005700,-0.000044
 13,-0.00001083,0.00011679,-0.00010014,-0.00002559,-0.00004343,0.000041
 50,0.00004826,-0.00026992,-0.00020463,0.00000072,0.00000246,0.00002510
 ,-0.00004329,-0.00032824,-0.00001252,-0.00090718,-0.00074337,-0.000358
 88,0.00011238,0.00057489,-0.00043315,-0.00011825,0.00007488,0.00003025
 ,0.00000990,0.00011306,0.00006163,-0.00002338,-0.00006434,-0.00004704,
 0.00000204,0.00014058,0.00015062,0.00019495,-0.00014018,-0.00059740,0.
 00000203,-0.00010704,0.00023947,0.00003089,0.00020206,-0.00013867,0.00
 065677,0.00007492,-0.00031136,0.00022340,0.00026146,-0.00012146,0.0004
 7033,-0.00158894,-0.00266048,-0.00112158,0.00093813,0.00183499,0.00021
 492,-0.00287488,-0.00268563,-0.00132801,0.00003418,-0.00021520,0.00008
 382,-0.00472559,0.00753159,-0.00867458,-0.01286875,0.14516847,0.002081
 15,0.00009466,0.00001601,-0.00178423,-0.00253448,-0.00188896,-0.000057
 55,0.00014926,0.00022217,0.00006670,0.00004238,0.00022733,-0.00016785,
 -0.00030018,-0.00045426,0.00023611,-0.00013460,-0.00064198,0.00083711,
 0.00051340,0.00111245,0.00045114,0.00000033,0.00125415,0.00033658,0.00
 001048,-0.00017778,-0.00004736,0.00011599,0.00024089,-0.00015500,-0.00
 011195,-0.00012597,0.00261486,-0.00690094,0.01499591,-0.00937645,0.003
 20104,-0.01990339,-0.00130545,-0.00060277,-0.00043740,-0.00068302,0.00
 056046,-0.00122651,-0.01268288,0.13932110,-0.26774081,-0.00018415,-0.0
 0049856,0.00057270,0.00185534,0.00320729,-0.00389155,-0.00007282,-0.00
 001072,-0.00008077,0.00001215,0.00000744,-0.00000943,0.00006434,-0.000
 03027,-0.00006843,-0.00000029,0.00002025,-0.00001242,-0.00004042,0.000
 09511,0.00003193,0.00005586,-0.00000566,-0.00003409,0.00004690,0.00005
 124,0.00004716,-0.00006704,-0.00002548,-0.00002569,0.00018833,-0.00076
 080,-0.00073279,0.00009799,0.00005139,-0.00005398,-0.00010927,0.000121
 04,-0.00011909,-0.00014176,-0.00005715,0.00001581,-0.00007571,-0.00003
 619,0.00001321,0.00002712,0.00002265,0.00002199,0.00000893,0.00002887,
 0.00000862,0.00001601,-0.00001593,-0.00000010,0.00001384,0.00004230,-0
 .00001989,-0.00003709,-0.00005204,-0.00002942,-0.00001664,-0.00008374,
 0.00003011,-0.00001179,-0.00002719,-0.00008556,-0.00096659,-0.00394242
 ,-0.00005224,0.00038472,-0.00090157,0.00080608,-0.00275636,-0.00026185
 ,0.00000868,0.00006834,0.00007876,0.00022075,-0.00146081,0.01133933,-0
 .01732697,0.02273699,-0.14178031,0.29529352\\-0.00000056,-0.00001635,-
 0.00001763,-0.00000261,-0.00000175,-0.00000855,-0.00000015,-0.00000008
 ,0.00000037,-0.00000211,-0.00000307,0.00000118,0.00000142,0.00000003,-
 0.00000082,-0.00000197,0.00000049,0.00000166,-0.00000306,0.00000298,0.
 00000572,0.00001187,-0.00000085,-0.00000668,-0.00001368,-0.00000169,0.
 00000174,-0.00000313,-0.00000038,0.00000088,-0.00000083,0.00000052,-0.
 00000236,-0.00000338,-0.00000941,0.00000366,-0.00002682,-0.00000210,0.
 00000236,0.00001251,0.00000602,0.00000528,0.00000696,-0.00000458,-0.00
 000569,0.00001928,0.00003027,-0.00000469,0.00000927,0.00001688,0.00000
 647,0.00000585,0.00000051,0.00000847,0.00000028,-0.00000044,0.00000075
 ,0.00000036,-0.00000022,0.00000091,-0.00000020,-0.00000043,-0.00000014
 ,0.00000088,-0.00000105,0.00000049,-0.00000039,-0.00000038,0.00000072,
 0.00000170,-0.00000048,0.00000054,-0.00000079,0.00000069,0.00000221,0.
 00000013,0.00000100,-0.00000104,-0.00000057,-0.00000076,-0.00000167,-0
 .00000040,0.00000018,0.00000144,-0.00000114,-0.00000110,-0.00000059,-0
 .00000188,-0.00000092,-0.00000220,0.00000192,-0.00000036,-0.00000325,0
 .00000499,0.00000092,-0.00000442,0.00000120,-0.00000125,-0.00000028,-0
 .00000092,-0.00000179,-0.00000133,0.00000109,-0.00000023,0.00000078,-0
 .00000107,-0.00000018,0.00000090,-0.00000160,0.00000170,0.00000292,0.0
 0000095,-0.00000080,0.00000050,-0.00000225,-0.00000314,-0.00000068,-0.
 00000271,-0.00000217,0.00000187,0.00000154,-0.00000665,-0.00000364,-0.
 00000220,0.00000018,-0.00000190,-0.00000729,0.00000447,0.00000602,-0.0
 0000048,-0.00000425,0.00000973\\\@


 HERE WE GO......
 SLIDING DOWN THE RAZOR BLADE OF LIFE......
                                 TOM LEHRER
 Job cpu time:  0 days  5 hours 23 minutes 29.7 seconds.
 File lengths (MBytes):  RWF=    544 Int=      0 D2E=      0 Chk=      9 Scr=      1
 Normal termination of Gaussian 09 at Sat Feb 17 01:20:39 2018.
